<?xml version="1.0" encoding="ISO-8859-1"?>
<modeling>
 <generator>
  <i name="program" type="string">vasp </i>
  <i name="version" type="string">5.4.1  </i>
  <i name="subversion" type="string">24Jun15 (build Mar 14 2019 10:18:33) complex                          parallel </i>
  <i name="platform" type="string">INTEL-19.0.2+OPENMPI-3.1.3 </i>
  <i name="date" type="string">2023 01 30 </i>
  <i name="time" type="string">23:30:17 </i>
 </generator>
 <incar>
  <i type="int" name="ISTART">     0</i>
  <i type="string" name="PREC">normal</i>
  <i type="string" name="ALGO"> Fast</i>
  <i type="int" name="NELM">   500</i>
  <i type="int" name="IBRION">     2</i>
  <i type="int" name="NFREE">     2</i>
  <i name="EDIFF">      0.00000100</i>
  <i name="EDIFFG">     -0.02000000</i>
  <i type="int" name="NSW">   500</i>
  <i type="int" name="ISIF">     0</i>
  <i type="int" name="ISYM">     2</i>
  <i name="ENCUT">    400.00000000</i>
  <i name="POTIM">      0.35000000</i>
  <i type="string" name="LREAL"> Auto</i>
  <i type="logical" name="LPLANE"> T  </i>
  <i type="int" name="ISMEAR">     0</i>
  <i name="SIGMA">      0.10000000</i>
  <i type="int" name="NWRITE">     1</i>
  <i type="logical" name="LWAVE"> F  </i>
  <i type="logical" name="LCHARG"> F  </i>
  <i type="logical" name="LVTOT"> F  </i>
  <i type="logical" name="LORBIT"> F  </i>
  <i type="logical" name="LAECHG"> F  </i>
  <v type="int" name="KPOINT_BSE">    -1     0     0     0</v>
  <i type="int" name="NELM">   500</i>
  <i type="string" name="GGA"> PE          ! optPBE-vdW XC-functional</i>
  <i type="int" name="VOSKOWN">     1</i>
  <i type="logical" name="LDIPOL"> T  </i>
  <i type="logical" name="LMONO"> F  </i>
  <i type="int" name="IDIPOL">     3</i>
  <v name="DIPOL">      0.00000000      0.00000000      0.50000000</v>
 </incar>
 <kpoints>
  <generation param="Monkhorst-Pack">
   <v type="int" name="divisions">       2        2        1 </v>
   <v name="usershift">      0.00000000       0.00000000       0.00000000 </v>
   <v name="genvec1">      0.50000000      -0.00000000       0.00000000 </v>
   <v name="genvec2">      0.00000000       0.50000000       0.00000000 </v>
   <v name="genvec3">      0.00000000       0.00000000       1.00000000 </v>
   <v name="shift">      0.50000000       0.50000000       0.00000000 </v>
  </generation>
  <varray name="kpointlist" >
   <v>       0.25000000       0.25000000       0.00000000 </v>
   <v>       0.00000000       0.25000000       0.00000000 </v>
   <v>      -0.25000000       0.00000000       0.00000000 </v>
   <v>      -0.25000000       0.25000000       0.00000000 </v>
   <v>       0.50000000      -0.25000000       0.00000000 </v>
   <v>      -0.25000000       0.50000000       0.00000000 </v>
  </varray>
  <varray name="weights" >
   <v>       0.16666667 </v>
   <v>       0.16666667 </v>
   <v>       0.16666667 </v>
   <v>       0.16666667 </v>
   <v>       0.16666667 </v>
   <v>       0.16666667 </v>
  </varray>
 </kpoints>
 <parameters>
  <separator name="general" >
   <i type="string" name="SYSTEM">unknown system</i>
   <i type="logical" name="LCOMPAT"> F  </i>
  </separator>
  <separator name="electronic" >
   <i type="string" name="PREC">normal</i>
   <i name="ENMAX">    400.00000000</i>
   <i name="ENAUG">    416.23000000</i>
   <i name="EDIFF">      0.00000100</i>
   <i type="int" name="IALGO">    68</i>
   <i type="int" name="IWAVPR">    11</i>
   <i type="int" name="NBANDS">   306</i>
   <i name="NELECT">    504.00000000</i>
   <i type="int" name="TURBO">     0</i>
   <i type="int" name="IRESTART">     0</i>
   <i type="int" name="NREBOOT">     0</i>
   <i type="int" name="NMIN">     0</i>
   <i name="EREF">      0.00000000</i>
   <separator name="electronic smearing" >
    <i type="int" name="ISMEAR">     0</i>
    <i name="SIGMA">      0.10000000</i>
    <i name="KSPACING">      0.50000000</i>
    <i type="logical" name="KGAMMA"> T  </i>
   </separator>
   <separator name="electronic projectors" >
    <i type="logical" name="LREAL"> T  </i>
    <v name="ROPT">     -0.00050000     -0.00050000</v>
    <i type="int" name="LMAXPAW">  -100</i>
    <i type="int" name="LMAXMIX">     2</i>
    <i type="logical" name="NLSPLINE"> F  </i>
   </separator>
   <separator name="electronic startup" >
    <i type="int" name="ISTART">     0</i>
    <i type="int" name="ICHARG">     2</i>
    <i type="int" name="INIWAV">     1</i>
   </separator>
   <separator name="electronic spin" >
    <i type="int" name="ISPIN">     1</i>
    <i type="logical" name="LNONCOLLINEAR"> F  </i>
    <v name="MAGMOM">      1.00000000      1.00000000      1.00000000      1.00000000      1.00000000      1.00000000      1.00000000      1.00000000      1.00000000      1.00000000      1.00000000      1.00000000      1.00000000      1.00000000      1.00000000      1.00000000      1.00000000      1.00000000      1.00000000      1.00000000
      1.00000000      1.00000000      1.00000000      1.00000000      1.00000000      1.00000000      1.00000000      1.00000000      1.00000000      1.00000000      1.00000000      1.00000000      1.00000000      1.00000000      1.00000000      1.00000000      1.00000000      1.00000000      1.00000000      1.00000000
      1.00000000      1.00000000      1.00000000      1.00000000      1.00000000      1.00000000      1.00000000      1.00000000</v>
    <i name="NUPDOWN">     -1.00000000</i>
    <i type="logical" name="LSORBIT"> F  </i>
    <v name="SAXIS">      0.00000000      0.00000000      1.00000000</v>
    <i type="logical" name="LSPIRAL"> F  </i>
    <v name="QSPIRAL">      0.00000000      0.00000000      0.00000000</v>
    <i type="logical" name="LZEROZ"> F  </i>
   </separator>
   <separator name="electronic exchange-correlation" >
    <i type="logical" name="LASPH"> F  </i>
    <i type="logical" name="LMETAGGA"> F  </i>
   </separator>
   <separator name="electronic convergence" >
    <i type="int" name="NELM">   500</i>
    <i type="int" name="NELMDL">    -5</i>
    <i type="int" name="NELMIN">     2</i>
    <i name="ENINI">    400.00000000</i>
    <separator name="electronic convergence detail" >
     <i type="logical" name="LDIAG"> T  </i>
     <i type="logical" name="LSUBROT"> F  </i>
     <i name="WEIMIN">      0.00100000</i>
     <i name="EBREAK">      0.00000000</i>
     <i name="DEPER">      0.30000000</i>
     <i type="int" name="NRMM">     4</i>
     <i name="TIME">      0.40000000</i>
    </separator>
   </separator>
   <separator name="electronic mixer" >
    <i name="AMIX">      0.40000000</i>
    <i name="BMIX">      1.00000000</i>
    <i name="AMIN">      0.10000000</i>
    <i name="AMIX_MAG">      1.60000000</i>
    <i name="BMIX_MAG">      1.00000000</i>
    <separator name="electronic mixer details" >
     <i type="int" name="IMIX">     4</i>
     <i type="logical" name="MIXFIRST"> F  </i>
     <i type="int" name="MAXMIX">   -45</i>
     <i name="WC">    100.00000000</i>
     <i type="int" name="INIMIX">     1</i>
     <i type="int" name="MIXPRE">     1</i>
     <i type="int" name="MREMOVE">     5</i>
    </separator>
   </separator>
   <separator name="electronic dipolcorrection" >
    <i type="logical" name="LDIPOL"> T  </i>
    <i type="logical" name="LMONO"> F  </i>
    <i type="int" name="IDIPOL">     3</i>
    <i name="EPSILON">      1.00000000</i>
    <v name="DIPOL">      0.00000000      0.00000000      0.50000000</v>
    <i name="EFIELD">      0.00000000</i>
   </separator>
  </separator>
  <separator name="grids" >
   <i type="int" name="NGX">    54</i>
   <i type="int" name="NGY">    54</i>
   <i type="int" name="NGZ">   120</i>
   <i type="int" name="NGXF">   108</i>
   <i type="int" name="NGYF">   108</i>
   <i type="int" name="NGZF">   240</i>
   <i type="logical" name="ADDGRID"> F  </i>
  </separator>
  <separator name="ionic" >
   <i type="int" name="NSW">   500</i>
   <i type="int" name="IBRION">     2</i>
   <i type="int" name="ISIF">     0</i>
   <i name="PSTRESS">      0.00000000</i>
   <i name="EDIFFG">     -0.02000000</i>
   <i type="int" name="NFREE">     2</i>
   <i name="POTIM">      0.35000000</i>
   <i name="SMASS">     -3.00000000</i>
   <i name="SCALEE">      1.00000000</i>
  </separator>
  <separator name="ionic md" >
   <i name="TEBEG">      0.00010000</i>
   <i name="TEEND">      0.00010000</i>
   <i type="int" name="NBLOCK">     1</i>
   <i type="int" name="KBLOCK">   500</i>
   <i type="int" name="NPACO">   256</i>
   <i name="APACO">     16.00000000</i>
  </separator>
  <separator name="symmetry" >
   <i type="int" name="ISYM">     2</i>
   <i name="SYMPREC">      0.00001000</i>
  </separator>
  <separator name="dos" >
   <i type="logical" name="LORBIT"> F  </i>
   <v name="RWIGS">     -1.00000000     -1.00000000</v>
   <i type="int" name="NEDOS">   301</i>
   <i name="EMIN">     10.00000000</i>
   <i name="EMAX">    -10.00000000</i>
   <i name="EFERMI">      0.00000000</i>
  </separator>
  <separator name="writing" >
   <i type="int" name="NWRITE">     1</i>
   <i type="logical" name="LWAVE"> F  </i>
   <i type="logical" name="LCHARG"> F  </i>
   <i type="logical" name="LPARD"> F  </i>
   <i type="logical" name="LVTOT"> F  </i>
   <i type="logical" name="LVHAR"> F  </i>
   <i type="logical" name="LELF"> F  </i>
   <i type="logical" name="LOPTICS"> F  </i>
   <v name="STM">      0.00000000      0.00000000      0.00000000      0.00000000      0.00000000      0.00000000      0.00000000</v>
  </separator>
  <separator name="performance" >
   <i type="int" name="NPAR">     6</i>
   <i type="int" name="NSIM">     4</i>
   <i type="int" name="NBLK">    -1</i>
   <i type="logical" name="LPLANE"> T  </i>
   <i type="logical" name="LSCALAPACK"> T  </i>
   <i type="logical" name="LSCAAWARE"> F  </i>
   <i type="logical" name="LSCALU"> F  </i>
   <i type="logical" name="LASYNC"> F  </i>
   <i type="logical" name="LORBITALREAL"> F  </i>
  </separator>
  <separator name="miscellaneous" >
   <i type="int" name="IDIOT">     3</i>
   <i type="logical" name="LMUSIC"> F  </i>
   <v name="POMASS">    196.96600000    106.42000000</v>
   <v name="DARWINR">      0.00000000      0.00000000</v>
   <v name="DARWINV">      1.00000000      1.00000000</v>
   <i type="logical" name="LCORR"> T  </i>
  </separator>
  <i type="logical" name="GGA_COMPAT"> T  </i>
  <i type="logical" name="LBERRY"> F  </i>
  <i type="int" name="ICORELEVEL">     0</i>
  <i type="logical" name="LDAU"> F  </i>
  <i type="int" name="I_CONSTRAINED_M">     0</i>
  <separator name="electronic exchange-correlation" >
   <i type="string" name="GGA">PE</i>
   <i type="int" name="VOSKOWN">     1</i>
   <i type="logical" name="LHFCALC"> F  </i>
   <i type="string" name="PRECFOCK"></i>
   <i type="logical" name="LSYMGRAD"> F  </i>
   <i type="logical" name="LHFONE"> F  </i>
   <i type="logical" name="LRHFCALC"> F  </i>
   <i type="logical" name="LTHOMAS"> F  </i>
   <i type="logical" name="LMODELHF"> F  </i>
   <i name="ENCUT4O">     -1.00000000</i>
   <i type="int" name="EXXOEP">     0</i>
   <i type="int" name="FOURORBIT">     0</i>
   <i name="AEXX">      0.00000000</i>
   <i name="HFALPHA">      0.00000000</i>
   <i name="MCALPHA">      0.00000000</i>
   <i name="ALDAX">      1.00000000</i>
   <i name="AGGAX">      1.00000000</i>
   <i name="ALDAC">      1.00000000</i>
   <i name="AGGAC">      1.00000000</i>
   <i type="int" name="NKREDX">     1</i>
   <i type="int" name="NKREDY">     1</i>
   <i type="int" name="NKREDZ">     1</i>
   <i type="logical" name="SHIFTRED"> F  </i>
   <i type="logical" name="ODDONLY"> F  </i>
   <i type="logical" name="EVENONLY"> F  </i>
   <i type="int" name="LMAXFOCK">     0</i>
   <i type="int" name="NMAXFOCKAE">     0</i>
   <i type="logical" name="LFOCKAEDFT"> F  </i>
   <i name="HFSCREEN">      0.00000000</i>
   <i name="HFSCREENC">      0.00000000</i>
   <i type="int" name="NBANDSGWLOW">     0</i>
  </separator>
  <separator name="vdW DFT" >
   <i type="logical" name="LUSE_VDW"> F  </i>
   <i name="Zab_VDW">     -0.84910000</i>
   <i name="PARAM1">      0.12340000</i>
   <i name="PARAM2">      1.00000000</i>
   <i name="PARAM3">      0.00000000</i>
  </separator>
  <separator name="model GW" >
   <i type="int" name="MODEL_GW">     0</i>
   <i name="MODEL_EPS0">     32.09595293</i>
   <i name="MODEL_ALPHA">      1.00000000</i>
  </separator>
  <separator name="linear response parameters" >
   <i type="logical" name="LEPSILON"> F  </i>
   <i type="logical" name="LRPA"> F  </i>
   <i type="logical" name="LNABLA"> F  </i>
   <i type="logical" name="LVEL"> F  </i>
   <i type="int" name="KINTER">     0</i>
   <i name="CSHIFT">      0.10000000</i>
   <i name="OMEGAMAX">     -1.00000000</i>
   <i name="DEG_THRESHOLD">      0.00200000</i>
  </separator>
  <separator name="orbital magnetization" >
   <i type="logical" name="NUCIND"> F  </i>
   <v name="MAGPOS">      0.00000000      0.00000000      0.00000000</v>
   <i type="logical" name="LNICSALL"> T  </i>
   <i type="logical" name="ORBITALMAG"> F  </i>
   <i type="logical" name="LMAGBLOCH"> F  </i>
   <i type="logical" name="LCHIMAG"> F  </i>
   <i type="logical" name="LGAUGE"> T  </i>
   <i type="int" name="MAGATOM">     0</i>
   <v name="MAGDIPOL">      0.00000000      0.00000000      0.00000000</v>
   <v name="AVECCONST">      0.00000000      0.00000000      0.00000000</v>
  </separator>
  <separator name="response functions" >
   <i type="logical" name="LADDER"> F  </i>
   <i type="logical" name="LFXC"> F  </i>
   <i type="logical" name="LHARTREE"> T  </i>
   <i type="int" name="IBSE">     0</i>
   <v type="int" name="KPOINT">    -1     0     0     0</v>
   <i type="logical" name="LTCTE"> F  </i>
   <i type="logical" name="LTETE"> F  </i>
   <i type="logical" name="LTRIPLET"> F  </i>
   <i type="logical" name="LFXCEPS"> F  </i>
   <i type="logical" name="LFXHEG"> F  </i>
   <i type="int" name="NATURALO">     0</i>
   <i type="logical" name="L2ORDER"> F  </i>
   <i type="logical" name="LUSEW"> F  </i>
   <i name="ENCUTGW">     -2.00000000</i>
   <i name="ENCUTGWSOFT">     -2.00000000</i>
   <i name="ENCUTLF">     -1.00000000</i>
   <i type="int" name="LMAXMP2">    -1</i>
   <i name="SCISSOR">      0.00000000</i>
   <i type="int" name="NOMEGA">     0</i>
   <i type="int" name="NOMEGAR">     0</i>
   <i type="int" name="NBANDSGW">    -1</i>
   <i type="int" name="NBANDSO">    -1</i>
   <i type="int" name="NBANDSV">    -1</i>
   <i type="int" name="NELM">   500</i>
   <i type="int" name="NELMHF">     1</i>
   <i type="int" name="DIM">     3</i>
   <i type="int" name="ANTIRES">     0</i>
   <i name="OMEGAMAX">    -30.00000000</i>
   <i name="OMEGAMIN">    -30.00000000</i>
   <i name="OMEGATL">   -200.00000000</i>
   <i type="int" name="OMEGAGRID">     0</i>
   <i name="CSHIFT">     -0.10000000</i>
   <i type="logical" name="SELFENERGY"> F  </i>
   <i type="logical" name="LSPECTRAL"> F  </i>
   <i type="logical" name="LSPECTRALGW"> F  </i>
   <i type="logical" name="LSINGLES"> F  </i>
   <i type="logical" name="LFERMIGW"> F  </i>
   <i type="logical" name="ODDONLYGW"> F  </i>
   <i type="logical" name="EVENONLYGW"> F  </i>
   <i type="int" name="NKREDLFX">     1</i>
   <i type="int" name="NKREDLFY">     1</i>
   <i type="int" name="NKREDLFZ">     1</i>
   <i type="int" name="MAXMEM">  1800</i>
   <i type="int" name="TELESCOPE">     0</i>
   <i type="int" name="TAUPAR">     1</i>
   <i type="int" name="OMEGAPAR">    -1</i>
   <i name="LAMBDA">      1.00000000</i>
  </separator>
  <separator name="External order field" >
   <i name="OFIELD_KAPPA">      0.00000000</i>
   <v name="OFIELD_K">      0.00000000      0.00000000      0.00000000</v>
   <i name="OFIELD_Q6_NEAR">      0.00000000</i>
   <i name="OFIELD_Q6_FAR">      0.00000000</i>
   <i name="OFIELD_A">      0.00000000</i>
  </separator>
 </parameters>
 <atominfo>
  <atoms>      48 </atoms>
  <types>       2 </types>
  <array name="atoms" >
   <dimension dim="1">ion</dimension>
   <field type="string">element</field>
   <field type="int">atomtype</field>
   <set>
    <rc><c>Au</c><c>   1</c></rc>
    <rc><c>Au</c><c>   1</c></rc>
    <rc><c>Au</c><c>   1</c></rc>
    <rc><c>Au</c><c>   1</c></rc>
    <rc><c>Au</c><c>   1</c></rc>
    <rc><c>Au</c><c>   1</c></rc>
    <rc><c>Au</c><c>   1</c></rc>
    <rc><c>Au</c><c>   1</c></rc>
    <rc><c>Au</c><c>   1</c></rc>
    <rc><c>Au</c><c>   1</c></rc>
    <rc><c>Au</c><c>   1</c></rc>
    <rc><c>Au</c><c>   1</c></rc>
    <rc><c>Au</c><c>   1</c></rc>
    <rc><c>Au</c><c>   1</c></rc>
    <rc><c>Au</c><c>   1</c></rc>
    <rc><c>Au</c><c>   1</c></rc>
    <rc><c>Au</c><c>   1</c></rc>
    <rc><c>Au</c><c>   1</c></rc>
    <rc><c>Au</c><c>   1</c></rc>
    <rc><c>Au</c><c>   1</c></rc>
    <rc><c>Au</c><c>   1</c></rc>
    <rc><c>Au</c><c>   1</c></rc>
    <rc><c>Au</c><c>   1</c></rc>
    <rc><c>Au</c><c>   1</c></rc>
    <rc><c>Pd</c><c>   2</c></rc>
    <rc><c>Pd</c><c>   2</c></rc>
    <rc><c>Pd</c><c>   2</c></rc>
    <rc><c>Pd</c><c>   2</c></rc>
    <rc><c>Pd</c><c>   2</c></rc>
    <rc><c>Pd</c><c>   2</c></rc>
    <rc><c>Pd</c><c>   2</c></rc>
    <rc><c>Pd</c><c>   2</c></rc>
    <rc><c>Pd</c><c>   2</c></rc>
    <rc><c>Pd</c><c>   2</c></rc>
    <rc><c>Pd</c><c>   2</c></rc>
    <rc><c>Pd</c><c>   2</c></rc>
    <rc><c>Pd</c><c>   2</c></rc>
    <rc><c>Pd</c><c>   2</c></rc>
    <rc><c>Pd</c><c>   2</c></rc>
    <rc><c>Pd</c><c>   2</c></rc>
    <rc><c>Pd</c><c>   2</c></rc>
    <rc><c>Pd</c><c>   2</c></rc>
    <rc><c>Pd</c><c>   2</c></rc>
    <rc><c>Pd</c><c>   2</c></rc>
    <rc><c>Pd</c><c>   2</c></rc>
    <rc><c>Pd</c><c>   2</c></rc>
    <rc><c>Pd</c><c>   2</c></rc>
    <rc><c>Pd</c><c>   2</c></rc>
   </set>
  </array>
  <array name="atomtypes" >
   <dimension dim="1">type</dimension>
   <field type="int">atomspertype</field>
   <field type="string">element</field>
   <field>mass</field>
   <field>valence</field>
   <field type="string">pseudopotential</field>
   <set>
    <rc><c>  24</c><c>Au</c><c>    196.96600000</c><c>     11.00000000</c><c>  PAW_PBE Au 04Oct2007                  </c></rc>
    <rc><c>  24</c><c>Pd</c><c>    106.42000000</c><c>     10.00000000</c><c>  PAW_PBE Pd 04Jan2005                  </c></rc>
   </set>
  </array>
 </atominfo>
 <structure name="initialpos" >
  <crystal>
   <varray name="basis" >
    <v>      11.00258152       0.00000000       0.00000000 </v>
    <v>       5.50129076       9.52851510       0.00000000 </v>
    <v>       0.00000000       0.00000000      24.49178509 </v>
   </varray>
   <i name="volume">   2567.67623402 </i>
   <varray name="rec_basis" >
    <v>       0.09088776      -0.05247407       0.00000000 </v>
    <v>       0.00000000       0.10494815       0.00000000 </v>
    <v>       0.00000000       0.00000000       0.04083002 </v>
   </varray>
  </crystal>
  <varray name="positions" >
   <v>       0.08333333       0.08333333       0.40830017 </v>
   <v>       0.08333333       0.58333333       0.40830017 </v>
   <v>       0.00000000       0.75000000       0.59169983 </v>
   <v>       0.00000000       0.50000000       0.59169983 </v>
   <v>       0.91666667       0.41666667       0.50000000 </v>
   <v>       0.91666667       0.16666667       0.50000000 </v>
   <v>       0.33333333       0.33333333       0.40830017 </v>
   <v>       0.25000000       0.75000000       0.59169983 </v>
   <v>       0.25000000       0.25000000       0.59169983 </v>
   <v>       0.33333333       0.58333333       0.40830017 </v>
   <v>       0.16666667       0.66666667       0.50000000 </v>
   <v>       0.33333333       0.83333333       0.40830017 </v>
   <v>       0.16666667       0.16666667       0.50000000 </v>
   <v>       0.66666667       0.91666667       0.50000000 </v>
   <v>       0.41666667       0.16666667       0.50000000 </v>
   <v>       0.58333333       0.58333333       0.40830017 </v>
   <v>       0.41666667       0.66666667       0.50000000 </v>
   <v>       0.50000000       0.50000000       0.59169983 </v>
   <v>       0.58333333       0.83333333       0.40830017 </v>
   <v>       0.66666667       0.41666667       0.50000000 </v>
   <v>       0.66666667       0.66666667       0.50000000 </v>
   <v>       0.75000000       0.50000000       0.59169983 </v>
   <v>       0.83333333       0.83333333       0.40830017 </v>
   <v>       0.16666667       0.91666667       0.50000000 </v>
   <v>       0.16666667       0.41666667       0.50000000 </v>
   <v>       0.91666667       0.66666667       0.50000000 </v>
   <v>       0.25000000       0.50000000       0.59169983 </v>
   <v>       0.50000000       0.25000000       0.59169983 </v>
   <v>       0.58333333       0.08333333       0.40830017 </v>
   <v>       0.58333333       0.33333333       0.40830017 </v>
   <v>       0.50000000       0.00000000       0.59169983 </v>
   <v>       0.08333333       0.83333333       0.40830017 </v>
   <v>       0.00000000       0.25000000       0.59169983 </v>
   <v>       0.41666667       0.41666667       0.50000000 </v>
   <v>       0.50000000       0.75000000       0.59169983 </v>
   <v>       0.83333333       0.33333333       0.40830017 </v>
   <v>       0.83333333       0.08333333       0.40830017 </v>
   <v>       0.66666667       0.16666667       0.50000000 </v>
   <v>       0.75000000       0.00000000       0.59169983 </v>
   <v>       0.75000000       0.25000000       0.59169983 </v>
   <v>       0.83333333       0.58333333       0.40830017 </v>
   <v>       0.08333333       0.33333333       0.40830017 </v>
   <v>       0.00000000       0.00000000       0.59169983 </v>
   <v>       0.25000000       0.00000000       0.59169983 </v>
   <v>       0.91666667       0.91666667       0.50000000 </v>
   <v>       0.41666667       0.91666667       0.50000000 </v>
   <v>       0.33333333       0.08333333       0.40830017 </v>
   <v>       0.75000000       0.75000000       0.59169983 </v>
  </varray>
  <varray name="selective"  type="logical" >
   <v type="logical" >  F  F  F </v>
   <v type="logical" >  F  F  F </v>
   <v type="logical" >  T  T  T </v>
   <v type="logical" >  T  T  T </v>
   <v type="logical" >  T  T  T </v>
   <v type="logical" >  T  T  T </v>
   <v type="logical" >  F  F  F </v>
   <v type="logical" >  T  T  T </v>
   <v type="logical" >  T  T  T </v>
   <v type="logical" >  F  F  F </v>
   <v type="logical" >  T  T  T </v>
   <v type="logical" >  F  F  F </v>
   <v type="logical" >  T  T  T </v>
   <v type="logical" >  T  T  T </v>
   <v type="logical" >  T  T  T </v>
   <v type="logical" >  F  F  F </v>
   <v type="logical" >  T  T  T </v>
   <v type="logical" >  T  T  T </v>
   <v type="logical" >  F  F  F </v>
   <v type="logical" >  T  T  T </v>
   <v type="logical" >  T  T  T </v>
   <v type="logical" >  T  T  T </v>
   <v type="logical" >  F  F  F </v>
   <v type="logical" >  T  T  T </v>
   <v type="logical" >  T  T  T </v>
   <v type="logical" >  T  T  T </v>
   <v type="logical" >  T  T  T </v>
   <v type="logical" >  T  T  T </v>
   <v type="logical" >  F  F  F </v>
   <v type="logical" >  F  F  F </v>
   <v type="logical" >  T  T  T </v>
   <v type="logical" >  F  F  F </v>
   <v type="logical" >  T  T  T </v>
   <v type="logical" >  T  T  T </v>
   <v type="logical" >  T  T  T </v>
   <v type="logical" >  F  F  F </v>
   <v type="logical" >  F  F  F </v>
   <v type="logical" >  T  T  T </v>
   <v type="logical" >  T  T  T </v>
   <v type="logical" >  T  T  T </v>
   <v type="logical" >  F  F  F </v>
   <v type="logical" >  F  F  F </v>
   <v type="logical" >  T  T  T </v>
   <v type="logical" >  T  T  T </v>
   <v type="logical" >  T  T  T </v>
   <v type="logical" >  T  T  T </v>
   <v type="logical" >  F  F  F </v>
   <v type="logical" >  T  T  T </v>
  </varray>
  <nose>
   <v>      -3.00000000       0.00000000       0.00010000       0.00010000 </v>
  </nose>
 </structure>
 <calculation>
  <scstep>
   <time name="dav">    9.14    9.18</time>
   <time name="total">    9.21    9.25</time>
   <dipole>
    <v name="dipole">      0.00000000       0.00000000       0.00000148 </v>
    <i name="Tr[quadrupol]"> -10310.10832423 </i>
    <i name="Echarged">      0.00000000 </i>
    <i name="Edipol_quadrupol">      0.00000000 </i>
    <i name="Eion">      0.00000000 </i>
   </dipole>
   <energy>
    <i name="alphaZ">    805.86936475 </i>
    <i name="ewald"> 200636.92055307 </i>
    <i name="hartreedc">-243053.17778641 </i>
    <i name="XCdc">   -327.49480005 </i>
    <i name="pawpsdc">  40340.05962942 </i>
    <i name="pawaedc"> -38292.62782345 </i>
    <i name="eentropy">     -0.12875692 </i>
    <i name="bandstr">   1430.89616400 </i>
    <i name="atom">  41659.78587232 </i>
    <i name="e_fr_energy">   3200.10241674 </i>
    <i name="e_wo_entrp">   3200.23117366 </i>
    <i name="e_0_energy">   3200.16679520 </i>
   </energy>
  </scstep>
  <scstep>
   <time name="dav">   10.88   10.93</time>
   <time name="total">   10.88   10.94</time>
   <dipole>
    <v name="dipole">      0.00000000       0.00000000       0.00000148 </v>
    <i name="Tr[quadrupol]"> -10310.10832423 </i>
    <i name="Echarged">      0.00000000 </i>
    <i name="Edipol_quadrupol">      0.00000000 </i>
    <i name="Eion">      0.00000000 </i>
   </dipole>
   <energy>
    <i name="e_fr_energy">     14.98534285 </i>
    <i name="e_wo_entrp">     15.10561756 </i>
    <i name="e_0_energy">     15.04548020 </i>
   </energy>
  </scstep>
  <scstep>
   <time name="dav">   10.58   10.59</time>
   <time name="total">   10.59   10.59</time>
   <dipole>
    <v name="dipole">      0.00000000       0.00000000       0.00000148 </v>
    <i name="Tr[quadrupol]"> -10310.10832423 </i>
    <i name="Echarged">      0.00000000 </i>
    <i name="Edipol_quadrupol">      0.00000000 </i>
    <i name="Eion">      0.00000000 </i>
   </dipole>
   <energy>
    <i name="e_fr_energy">   -199.59468263 </i>
    <i name="e_wo_entrp">   -199.37267162 </i>
    <i name="e_0_energy">   -199.48367713 </i>
   </energy>
  </scstep>
  <scstep>
   <time name="dav">   11.64   11.68</time>
   <time name="total">   11.64   11.68</time>
   <dipole>
    <v name="dipole">      0.00000000       0.00000000       0.00000148 </v>
    <i name="Tr[quadrupol]"> -10310.10832423 </i>
    <i name="Echarged">      0.00000000 </i>
    <i name="Edipol_quadrupol">      0.00000000 </i>
    <i name="Eion">      0.00000000 </i>
   </dipole>
   <energy>
    <i name="e_fr_energy">   -205.38959647 </i>
    <i name="e_wo_entrp">   -205.16222936 </i>
    <i name="e_0_energy">   -205.27591292 </i>
   </energy>
  </scstep>
  <scstep>
   <time name="dav">   11.16   11.26</time>
   <time name="total">   11.48   11.58</time>
   <dipole>
    <v name="dipole">      0.00000000       0.00000000       0.00000148 </v>
    <i name="Tr[quadrupol]"> -10310.10832423 </i>
    <i name="Echarged">      0.00000000 </i>
    <i name="Edipol_quadrupol">      0.00000000 </i>
    <i name="Eion">      0.00000000 </i>
   </dipole>
   <energy>
    <i name="e_fr_energy">   -205.57325176 </i>
    <i name="e_wo_entrp">   -205.34558302 </i>
    <i name="e_0_energy">   -205.45941739 </i>
   </energy>
  </scstep>
  <scstep>
   <time name="diag">    1.65    1.65</time>
   <time name="diis">    4.40    4.41</time>
   <time name="orth">    0.40    0.40</time>
   <time name="total">    6.82    6.83</time>
   <dipole>
    <v name="dipole">      0.00000000       0.00000000       0.67679183 </v>
    <i name="Tr[quadrupol]"> -10310.10123215 </i>
    <i name="Echarged">      0.00000000 </i>
    <i name="Edipol_quadrupol">      0.00000000 </i>
    <i name="Eion">      0.00000000 </i>
   </dipole>
   <energy>
    <i name="e_fr_energy">   -200.68065388 </i>
    <i name="e_wo_entrp">   -200.47355039 </i>
    <i name="e_0_energy">   -200.57710214 </i>
   </energy>
  </scstep>
  <scstep>
   <time name="diag">    1.63    1.63</time>
   <time name="diis">    4.40    4.41</time>
   <time name="orth">    0.40    0.40</time>
   <time name="total">    6.80    6.81</time>
   <dipole>
    <v name="dipole">      0.00000000       0.00000000      -1.34443743 </v>
    <i name="Tr[quadrupol]"> -10310.39018730 </i>
    <i name="Echarged">      0.00000000 </i>
    <i name="Edipol_quadrupol">      0.00000000 </i>
    <i name="Eion">      0.00000000 </i>
   </dipole>
   <energy>
    <i name="e_fr_energy">   -214.21227427 </i>
    <i name="e_wo_entrp">   -213.98859303 </i>
    <i name="e_0_energy">   -214.10043365 </i>
   </energy>
  </scstep>
  <scstep>
   <time name="diag">    1.64    1.64</time>
   <time name="diis">    4.39    4.40</time>
   <time name="orth">    0.41    0.41</time>
   <time name="total">    6.80    6.81</time>
   <dipole>
    <v name="dipole">      0.00000000       0.00000000       1.81032763 </v>
    <i name="Tr[quadrupol]"> -10311.32621991 </i>
    <i name="Echarged">      0.00000000 </i>
    <i name="Edipol_quadrupol">      0.00000000 </i>
    <i name="Eion">      0.00000000 </i>
   </dipole>
   <energy>
    <i name="e_fr_energy">   -224.25643665 </i>
    <i name="e_wo_entrp">   -223.99516575 </i>
    <i name="e_0_energy">   -224.12580120 </i>
   </energy>
  </scstep>
  <scstep>
   <time name="diag">    1.66    1.66</time>
   <time name="diis">    4.29    4.29</time>
   <time name="orth">    0.41    0.41</time>
   <time name="total">    6.72    6.72</time>
   <dipole>
    <v name="dipole">      0.00000000       0.00000000      -0.48736166 </v>
    <i name="Tr[quadrupol]"> -10312.08945233 </i>
    <i name="Echarged">      0.00000000 </i>
    <i name="Edipol_quadrupol">      0.00000000 </i>
    <i name="Eion">      0.00000000 </i>
   </dipole>
   <energy>
    <i name="e_fr_energy">   -212.36358405 </i>
    <i name="e_wo_entrp">   -212.15145126 </i>
    <i name="e_0_energy">   -212.25751765 </i>
   </energy>
  </scstep>
  <scstep>
   <time name="diag">    1.65    1.65</time>
   <time name="diis">    4.40    4.40</time>
   <time name="orth">    0.40    0.40</time>
   <time name="total">    6.83    6.84</time>
   <dipole>
    <v name="dipole">      0.00000000       0.00000000       0.36971805 </v>
    <i name="Tr[quadrupol]"> -10311.13167435 </i>
    <i name="Echarged">      0.00000000 </i>
    <i name="Edipol_quadrupol">      0.00000000 </i>
    <i name="Eion">      0.00000000 </i>
   </dipole>
   <energy>
    <i name="e_fr_energy">   -197.47906834 </i>
    <i name="e_wo_entrp">   -197.32104523 </i>
    <i name="e_0_energy">   -197.40005678 </i>
   </energy>
  </scstep>
  <scstep>
   <time name="diag">    1.58    1.67</time>
   <time name="diis">    4.39    4.40</time>
   <time name="orth">    0.38    0.38</time>
   <time name="total">    6.71    6.81</time>
   <dipole>
    <v name="dipole">      0.00000000       0.00000000       0.05291916 </v>
    <i name="Tr[quadrupol]"> -10311.96191245 </i>
    <i name="Echarged">      0.00000000 </i>
    <i name="Edipol_quadrupol">      0.00000000 </i>
    <i name="Eion">      0.00000000 </i>
   </dipole>
   <energy>
    <i name="e_fr_energy">   -191.18814724 </i>
    <i name="e_wo_entrp">   -190.95327777 </i>
    <i name="e_0_energy">   -191.07071251 </i>
   </energy>
  </scstep>
  <scstep>
   <time name="diag">    1.94    1.95</time>
   <time name="diis">    4.51    4.51</time>
   <time name="orth">    0.38    0.38</time>
   <time name="total">    7.19    7.20</time>
   <dipole>
    <v name="dipole">      0.00000000       0.00000000       0.11749987 </v>
    <i name="Tr[quadrupol]"> -10312.27875669 </i>
    <i name="Echarged">      0.00000000 </i>
    <i name="Edipol_quadrupol">      0.00000000 </i>
    <i name="Eion">      0.00000000 </i>
   </dipole>
   <energy>
    <i name="e_fr_energy">   -188.59413814 </i>
    <i name="e_wo_entrp">   -188.38131225 </i>
    <i name="e_0_energy">   -188.48772519 </i>
   </energy>
  </scstep>
  <scstep>
   <time name="diag">    1.63    1.63</time>
   <time name="diis">    4.37    4.37</time>
   <time name="orth">    0.38    0.38</time>
   <time name="total">    6.74    6.74</time>
   <dipole>
    <v name="dipole">      0.00000000       0.00000000       0.08727006 </v>
    <i name="Tr[quadrupol]"> -10312.55451828 </i>
    <i name="Echarged">      0.00000000 </i>
    <i name="Edipol_quadrupol">      0.00000000 </i>
    <i name="Eion">      0.00000000 </i>
   </dipole>
   <energy>
    <i name="e_fr_energy">   -188.39600834 </i>
    <i name="e_wo_entrp">   -188.14886630 </i>
    <i name="e_0_energy">   -188.27243732 </i>
   </energy>
  </scstep>
  <scstep>
   <time name="diag">    1.63    1.63</time>
   <time name="diis">    4.38    4.38</time>
   <time name="orth">    0.38    0.38</time>
   <time name="total">    6.75    6.75</time>
   <dipole>
    <v name="dipole">      0.00000000       0.00000000       0.06565963 </v>
    <i name="Tr[quadrupol]"> -10312.81226268 </i>
    <i name="Echarged">      0.00000000 </i>
    <i name="Edipol_quadrupol">      0.00000000 </i>
    <i name="Eion">      0.00000000 </i>
   </dipole>
   <energy>
    <i name="e_fr_energy">   -188.57340734 </i>
    <i name="e_wo_entrp">   -188.31736995 </i>
    <i name="e_0_energy">   -188.44538864 </i>
   </energy>
  </scstep>
  <scstep>
   <time name="diag">    1.60    1.60</time>
   <time name="diis">    4.39    4.39</time>
   <time name="orth">    0.38    0.38</time>
   <time name="total">    6.73    6.74</time>
   <dipole>
    <v name="dipole">      0.00000000       0.00000000       0.06765299 </v>
    <i name="Tr[quadrupol]"> -10313.10269595 </i>
    <i name="Echarged">      0.00000000 </i>
    <i name="Edipol_quadrupol">      0.00000000 </i>
    <i name="Eion">      0.00000000 </i>
   </dipole>
   <energy>
    <i name="e_fr_energy">   -188.33305953 </i>
    <i name="e_wo_entrp">   -188.08812290 </i>
    <i name="e_0_energy">   -188.21059122 </i>
   </energy>
  </scstep>
  <scstep>
   <time name="diag">    1.64    1.64</time>
   <time name="diis">    4.36    4.37</time>
   <time name="orth">    0.38    0.38</time>
   <time name="total">    6.75    6.78</time>
   <dipole>
    <v name="dipole">      0.00000000       0.00000000       0.04974749 </v>
    <i name="Tr[quadrupol]"> -10313.34429160 </i>
    <i name="Echarged">      0.00000000 </i>
    <i name="Edipol_quadrupol">      0.00000000 </i>
    <i name="Eion">      0.00000000 </i>
   </dipole>
   <energy>
    <i name="e_fr_energy">   -188.08709178 </i>
    <i name="e_wo_entrp">   -187.82516927 </i>
    <i name="e_0_energy">   -187.95613052 </i>
   </energy>
  </scstep>
  <scstep>
   <time name="diag">    1.60    1.66</time>
   <time name="diis">    4.39    4.39</time>
   <time name="orth">    0.38    0.38</time>
   <time name="total">    6.73    6.80</time>
   <dipole>
    <v name="dipole">      0.00000000       0.00000000       0.05024620 </v>
    <i name="Tr[quadrupol]"> -10313.52634011 </i>
    <i name="Echarged">      0.00000000 </i>
    <i name="Edipol_quadrupol">      0.00000000 </i>
    <i name="Eion">      0.00000000 </i>
   </dipole>
   <energy>
    <i name="e_fr_energy">   -187.97142077 </i>
    <i name="e_wo_entrp">   -187.71382994 </i>
    <i name="e_0_energy">   -187.84262536 </i>
   </energy>
  </scstep>
  <scstep>
   <time name="diag">    1.63    1.63</time>
   <time name="diis">    4.35    4.37</time>
   <time name="orth">    0.38    0.38</time>
   <time name="total">    6.73    6.75</time>
   <dipole>
    <v name="dipole">      0.00000000       0.00000000       0.06453718 </v>
    <i name="Tr[quadrupol]"> -10313.87321831 </i>
    <i name="Echarged">      0.00000000 </i>
    <i name="Edipol_quadrupol">      0.00000000 </i>
    <i name="Eion">      0.00000000 </i>
   </dipole>
   <energy>
    <i name="e_fr_energy">   -187.92383039 </i>
    <i name="e_wo_entrp">   -187.66886216 </i>
    <i name="e_0_energy">   -187.79634627 </i>
   </energy>
  </scstep>
  <scstep>
   <time name="diag">    1.60    1.61</time>
   <time name="diis">    4.38    4.38</time>
   <time name="orth">    0.38    0.38</time>
   <time name="total">    6.73    6.73</time>
   <dipole>
    <v name="dipole">      0.00000000       0.00000000       0.04727238 </v>
    <i name="Tr[quadrupol]"> -10314.05966686 </i>
    <i name="Echarged">      0.00000000 </i>
    <i name="Edipol_quadrupol">      0.00000000 </i>
    <i name="Eion">      0.00000000 </i>
   </dipole>
   <energy>
    <i name="e_fr_energy">   -187.89617588 </i>
    <i name="e_wo_entrp">   -187.63383865 </i>
    <i name="e_0_energy">   -187.76500726 </i>
   </energy>
  </scstep>
  <scstep>
   <time name="diag">    1.62    1.62</time>
   <time name="diis">    4.48    4.49</time>
   <time name="orth">    0.46    0.47</time>
   <time name="total">    7.06    7.08</time>
   <dipole>
    <v name="dipole">      0.00000000       0.00000000       0.03442483 </v>
    <i name="Tr[quadrupol]"> -10314.17416295 </i>
    <i name="Echarged">      0.00000000 </i>
    <i name="Edipol_quadrupol">      0.00000000 </i>
    <i name="Eion">      0.00000000 </i>
   </dipole>
   <energy>
    <i name="e_fr_energy">   -187.88869549 </i>
    <i name="e_wo_entrp">   -187.62457096 </i>
    <i name="e_0_energy">   -187.75663322 </i>
   </energy>
  </scstep>
  <scstep>
   <time name="diag">    1.98    1.99</time>
   <time name="diis">    4.30    4.31</time>
   <time name="orth">    0.38    0.38</time>
   <time name="total">    7.04    7.06</time>
   <dipole>
    <v name="dipole">      0.00000000       0.00000000       0.03141944 </v>
    <i name="Tr[quadrupol]"> -10314.27345557 </i>
    <i name="Echarged">      0.00000000 </i>
    <i name="Edipol_quadrupol">      0.00000000 </i>
    <i name="Eion">      0.00000000 </i>
   </dipole>
   <energy>
    <i name="e_fr_energy">   -187.88644180 </i>
    <i name="e_wo_entrp">   -187.62278857 </i>
    <i name="e_0_energy">   -187.75461519 </i>
   </energy>
  </scstep>
  <scstep>
   <time name="diag">    1.62    1.63</time>
   <time name="diis">    4.31    4.39</time>
   <time name="orth">    0.36    0.40</time>
   <time name="total">    6.67    6.79</time>
   <dipole>
    <v name="dipole">      0.00000000       0.00000000       0.03570239 </v>
    <i name="Tr[quadrupol]"> -10314.48941598 </i>
    <i name="Echarged">      0.00000000 </i>
    <i name="Edipol_quadrupol">      0.00000000 </i>
    <i name="Eion">      0.00000000 </i>
   </dipole>
   <energy>
    <i name="e_fr_energy">   -187.88464668 </i>
    <i name="e_wo_entrp">   -187.62255467 </i>
    <i name="e_0_energy">   -187.75360068 </i>
   </energy>
  </scstep>
  <scstep>
   <time name="diag">    1.59    1.60</time>
   <time name="diis">    4.39    4.39</time>
   <time name="orth">    0.38    0.38</time>
   <time name="total">    6.71    6.73</time>
   <dipole>
    <v name="dipole">      0.00000000       0.00000000       0.03166936 </v>
    <i name="Tr[quadrupol]"> -10314.59971989 </i>
    <i name="Echarged">      0.00000000 </i>
    <i name="Edipol_quadrupol">      0.00000000 </i>
    <i name="Eion">      0.00000000 </i>
   </dipole>
   <energy>
    <i name="e_fr_energy">   -187.88362946 </i>
    <i name="e_wo_entrp">   -187.62096071 </i>
    <i name="e_0_energy">   -187.75229509 </i>
   </energy>
  </scstep>
  <scstep>
   <time name="diag">    1.62    1.62</time>
   <time name="diis">    4.35    4.36</time>
   <time name="orth">    0.38    0.38</time>
   <time name="total">    6.71    6.72</time>
   <dipole>
    <v name="dipole">      0.00000000       0.00000000       0.02835833 </v>
    <i name="Tr[quadrupol]"> -10314.70908108 </i>
    <i name="Echarged">      0.00000000 </i>
    <i name="Edipol_quadrupol">      0.00000000 </i>
    <i name="Eion">      0.00000000 </i>
   </dipole>
   <energy>
    <i name="e_fr_energy">   -187.88312948 </i>
    <i name="e_wo_entrp">   -187.62005823 </i>
    <i name="e_0_energy">   -187.75159386 </i>
   </energy>
  </scstep>
  <scstep>
   <time name="diag">    1.62    1.62</time>
   <time name="diis">    4.32    4.33</time>
   <time name="orth">    0.38    0.38</time>
   <time name="total">    6.68    6.69</time>
   <dipole>
    <v name="dipole">      0.00000000       0.00000000       0.02457740 </v>
    <i name="Tr[quadrupol]"> -10314.80246195 </i>
    <i name="Echarged">      0.00000000 </i>
    <i name="Edipol_quadrupol">      0.00000000 </i>
    <i name="Eion">      0.00000000 </i>
   </dipole>
   <energy>
    <i name="e_fr_energy">   -187.88335303 </i>
    <i name="e_wo_entrp">   -187.62055704 </i>
    <i name="e_0_energy">   -187.75195504 </i>
   </energy>
  </scstep>
  <scstep>
   <time name="diag">    1.62    1.63</time>
   <time name="diis">    4.38    4.38</time>
   <time name="orth">    0.38    0.38</time>
   <time name="total">    6.76    6.76</time>
   <dipole>
    <v name="dipole">      0.00000000       0.00000000       0.02292454 </v>
    <i name="Tr[quadrupol]"> -10314.87961871 </i>
    <i name="Echarged">      0.00000000 </i>
    <i name="Edipol_quadrupol">      0.00000000 </i>
    <i name="Eion">      0.00000000 </i>
   </dipole>
   <energy>
    <i name="e_fr_energy">   -187.88360202 </i>
    <i name="e_wo_entrp">   -187.62066816 </i>
    <i name="e_0_energy">   -187.75213509 </i>
   </energy>
  </scstep>
  <scstep>
   <time name="diag">    1.60    1.61</time>
   <time name="diis">    4.38    4.40</time>
   <time name="orth">    0.38    0.38</time>
   <time name="total">    6.73    6.75</time>
   <dipole>
    <v name="dipole">      0.00000000       0.00000000       0.02099613 </v>
    <i name="Tr[quadrupol]"> -10314.95527784 </i>
    <i name="Echarged">      0.00000000 </i>
    <i name="Edipol_quadrupol">      0.00000000 </i>
    <i name="Eion">      0.00000000 </i>
   </dipole>
   <energy>
    <i name="e_fr_energy">   -187.88404186 </i>
    <i name="e_wo_entrp">   -187.62096683 </i>
    <i name="e_0_energy">   -187.75250434 </i>
   </energy>
  </scstep>
  <scstep>
   <time name="diag">    1.62    1.62</time>
   <time name="diis">    4.27    4.39</time>
   <time name="orth">    0.38    0.38</time>
   <time name="total">    6.65    6.78</time>
   <dipole>
    <v name="dipole">      0.00000000       0.00000000       0.01971551 </v>
    <i name="Tr[quadrupol]"> -10315.01918832 </i>
    <i name="Echarged">      0.00000000 </i>
    <i name="Edipol_quadrupol">      0.00000000 </i>
    <i name="Eion">      0.00000000 </i>
   </dipole>
   <energy>
    <i name="e_fr_energy">   -187.88450038 </i>
    <i name="e_wo_entrp">   -187.62145995 </i>
    <i name="e_0_energy">   -187.75298016 </i>
   </energy>
  </scstep>
  <scstep>
   <time name="diag">    1.63    1.63</time>
   <time name="diis">    4.45    4.48</time>
   <time name="orth">    0.47    0.47</time>
   <time name="total">    7.05    7.08</time>
   <dipole>
    <v name="dipole">      0.00000000       0.00000000       0.01823479 </v>
    <i name="Tr[quadrupol]"> -10315.07379565 </i>
    <i name="Echarged">      0.00000000 </i>
    <i name="Edipol_quadrupol">      0.00000000 </i>
    <i name="Eion">      0.00000000 </i>
   </dipole>
   <energy>
    <i name="e_fr_energy">   -187.88494247 </i>
    <i name="e_wo_entrp">   -187.62199726 </i>
    <i name="e_0_energy">   -187.75346986 </i>
   </energy>
  </scstep>
  <scstep>
   <time name="diag">    1.92    1.93</time>
   <time name="diis">    4.22    4.24</time>
   <time name="orth">    0.38    0.38</time>
   <time name="total">    6.91    6.94</time>
   <dipole>
    <v name="dipole">      0.00000000       0.00000000       0.01644313 </v>
    <i name="Tr[quadrupol]"> -10315.13359350 </i>
    <i name="Echarged">      0.00000000 </i>
    <i name="Edipol_quadrupol">      0.00000000 </i>
    <i name="Eion">      0.00000000 </i>
   </dipole>
   <energy>
    <i name="e_fr_energy">   -187.88547987 </i>
    <i name="e_wo_entrp">   -187.62263646 </i>
    <i name="e_0_energy">   -187.75405817 </i>
   </energy>
  </scstep>
  <scstep>
   <time name="diag">    1.61    1.61</time>
   <time name="diis">    4.28    4.29</time>
   <time name="orth">    0.38    0.38</time>
   <time name="total">    6.63    6.65</time>
   <dipole>
    <v name="dipole">      0.00000000       0.00000000       0.01372059 </v>
    <i name="Tr[quadrupol]"> -10315.21872420 </i>
    <i name="Echarged">      0.00000000 </i>
    <i name="Edipol_quadrupol">      0.00000000 </i>
    <i name="Eion">      0.00000000 </i>
   </dipole>
   <energy>
    <i name="e_fr_energy">   -187.88620755 </i>
    <i name="e_wo_entrp">   -187.62324098 </i>
    <i name="e_0_energy">   -187.75472427 </i>
   </energy>
  </scstep>
  <scstep>
   <time name="diag">    1.62    1.62</time>
   <time name="diis">    3.85    3.86</time>
   <time name="orth">    0.38    0.38</time>
   <time name="total">    6.22    6.27</time>
   <dipole>
    <v name="dipole">      0.00000000       0.00000000       0.01236865 </v>
    <i name="Tr[quadrupol]"> -10315.26142561 </i>
    <i name="Echarged">      0.00000000 </i>
    <i name="Edipol_quadrupol">      0.00000000 </i>
    <i name="Eion">      0.00000000 </i>
   </dipole>
   <energy>
    <i name="e_fr_energy">   -187.88650293 </i>
    <i name="e_wo_entrp">   -187.62351960 </i>
    <i name="e_0_energy">   -187.75501126 </i>
   </energy>
  </scstep>
  <scstep>
   <time name="diag">    1.63    1.63</time>
   <time name="diis">    3.57    3.57</time>
   <time name="orth">    0.38    0.38</time>
   <time name="total">    5.94    5.95</time>
   <dipole>
    <v name="dipole">      0.00000000       0.00000000       0.01140249 </v>
    <i name="Tr[quadrupol]"> -10315.29108230 </i>
    <i name="Echarged">      0.00000000 </i>
    <i name="Edipol_quadrupol">      0.00000000 </i>
    <i name="Eion">      0.00000000 </i>
   </dipole>
   <energy>
    <i name="e_fr_energy">   -187.88669352 </i>
    <i name="e_wo_entrp">   -187.62372663 </i>
    <i name="e_0_energy">   -187.75521007 </i>
   </energy>
  </scstep>
  <scstep>
   <time name="diag">    1.62    1.63</time>
   <time name="diis">    3.04    3.04</time>
   <time name="orth">    0.38    0.38</time>
   <time name="total">    5.42    5.45</time>
   <dipole>
    <v name="dipole">      0.00000000       0.00000000       0.01096551 </v>
    <i name="Tr[quadrupol]"> -10315.30175933 </i>
    <i name="Echarged">      0.00000000 </i>
    <i name="Edipol_quadrupol">      0.00000000 </i>
    <i name="Eion">      0.00000000 </i>
   </dipole>
   <energy>
    <i name="e_fr_energy">   -187.88675607 </i>
    <i name="e_wo_entrp">   -187.62381150 </i>
    <i name="e_0_energy">   -187.75528378 </i>
   </energy>
  </scstep>
  <scstep>
   <time name="diag">    1.57    1.64</time>
   <time name="diis">    2.81    2.81</time>
   <time name="orth">    0.38    0.38</time>
   <time name="total">    5.13    5.21</time>
   <dipole>
    <v name="dipole">      0.00000000       0.00000000       0.01026164 </v>
    <i name="Tr[quadrupol]"> -10315.31455972 </i>
    <i name="Echarged">      0.00000000 </i>
    <i name="Edipol_quadrupol">      0.00000000 </i>
    <i name="Eion">      0.00000000 </i>
   </dipole>
   <energy>
    <i name="e_fr_energy">   -187.88684256 </i>
    <i name="e_wo_entrp">   -187.62387173 </i>
    <i name="e_0_energy">   -187.75535715 </i>
   </energy>
  </scstep>
  <scstep>
   <time name="diag">    1.62    1.62</time>
   <time name="diis">    2.71    2.71</time>
   <time name="orth">    0.38    0.38</time>
   <time name="total">    5.08    5.09</time>
   <dipole>
    <v name="dipole">      0.00000000       0.00000000       0.00982749 </v>
    <i name="Tr[quadrupol]"> -10315.32174693 </i>
    <i name="Echarged">      0.00000000 </i>
    <i name="Edipol_quadrupol">      0.00000000 </i>
    <i name="Eion">      0.00000000 </i>
   </dipole>
   <energy>
    <i name="e_fr_energy">   -187.88688366 </i>
    <i name="e_wo_entrp">   -187.62392194 </i>
    <i name="e_0_energy">   -187.75540280 </i>
   </energy>
  </scstep>
  <scstep>
   <time name="diag">    1.61    1.63</time>
   <time name="diis">    2.67    2.68</time>
   <time name="orth">    0.38    0.38</time>
   <time name="total">    5.04    5.05</time>
   <dipole>
    <v name="dipole">      0.00000000       0.00000000       0.00943669 </v>
    <i name="Tr[quadrupol]"> -10315.32777546 </i>
    <i name="Echarged">      0.00000000 </i>
    <i name="Edipol_quadrupol">      0.00000000 </i>
    <i name="Eion">      0.00000000 </i>
   </dipole>
   <energy>
    <i name="e_fr_energy">   -187.88691195 </i>
    <i name="e_wo_entrp">   -187.62395399 </i>
    <i name="e_0_energy">   -187.75543297 </i>
   </energy>
  </scstep>
  <scstep>
   <time name="diag">    1.62    1.62</time>
   <time name="diis">    2.60    2.60</time>
   <time name="orth">    0.38    0.38</time>
   <time name="total">    4.97    4.98</time>
   <dipole>
    <v name="dipole">      0.00000000       0.00000000       0.00905959 </v>
    <i name="Tr[quadrupol]"> -10315.33353006 </i>
    <i name="Echarged">      0.00000000 </i>
    <i name="Edipol_quadrupol">      0.00000000 </i>
    <i name="Eion">      0.00000000 </i>
   </dipole>
   <energy>
    <i name="e_fr_energy">   -187.88692869 </i>
    <i name="e_wo_entrp">   -187.62396919 </i>
    <i name="e_0_energy">   -187.75544894 </i>
   </energy>
  </scstep>
  <scstep>
   <time name="diag">    1.60    1.60</time>
   <time name="diis">    2.33    2.33</time>
   <time name="orth">    0.38    0.38</time>
   <time name="total">    4.68    4.68</time>
   <dipole>
    <v name="dipole">      0.00000000       0.00000000       0.00875830 </v>
    <i name="Tr[quadrupol]"> -10315.33814837 </i>
    <i name="Echarged">      0.00000000 </i>
    <i name="Edipol_quadrupol">      0.00000000 </i>
    <i name="Eion">      0.00000000 </i>
   </dipole>
   <energy>
    <i name="e_fr_energy">   -187.88693500 </i>
    <i name="e_wo_entrp">   -187.62397631 </i>
    <i name="e_0_energy">   -187.75545566 </i>
   </energy>
  </scstep>
  <scstep>
   <time name="diag">    1.61    1.61</time>
   <time name="diis">    2.57    2.61</time>
   <time name="orth">    0.46    0.47</time>
   <time name="total">    5.14    5.19</time>
   <dipole>
    <v name="dipole">      0.00000000       0.00000000       0.00858456 </v>
    <i name="Tr[quadrupol]"> -10315.34097963 </i>
    <i name="Echarged">      0.00000000 </i>
    <i name="Edipol_quadrupol">      0.00000000 </i>
    <i name="Eion">      0.00000000 </i>
   </dipole>
   <energy>
    <i name="e_fr_energy">   -187.88693658 </i>
    <i name="e_wo_entrp">   -187.62397996 </i>
    <i name="e_0_energy">   -187.75545827 </i>
   </energy>
  </scstep>
  <scstep>
   <time name="diag">    1.62    1.62</time>
   <time name="diis">    1.90    1.90</time>
   <time name="orth">    0.38    0.38</time>
   <time name="total">    3.98    3.99</time>
   <dipole>
    <v name="dipole">      0.00000000       0.00000000       0.00848445 </v>
    <i name="Tr[quadrupol]"> -10315.34266075 </i>
    <i name="Echarged">      0.00000000 </i>
    <i name="Edipol_quadrupol">      0.00000000 </i>
    <i name="Eion">      0.00000000 </i>
   </dipole>
   <energy>
    <i name="alphaZ">    805.87204756 </i>
    <i name="ewald"> 200636.92055307 </i>
    <i name="hartreedc">-242819.47938591 </i>
    <i name="XCdc">   -343.08804256 </i>
    <i name="pawpsdc">  49463.30711735 </i>
    <i name="pawaedc"> -47541.06692125 </i>
    <i name="eentropy">     -0.26295632 </i>
    <i name="bandstr">  -2049.87522162 </i>
    <i name="atom">  41659.78587232 </i>
    <i name="e_fr_energy">   -187.88693736 </i>
    <i name="e_wo_entrp">   -187.62398104 </i>
    <i name="e_0_energy">   -187.75545920 </i>
   </energy>
  </scstep>
  <structure>
   <crystal>
    <varray name="basis" >
     <v>      11.00258152       0.00000000       0.00000000 </v>
     <v>       5.50129076       9.52851510       0.00000000 </v>
     <v>       0.00000000       0.00000000      24.49178509 </v>
    </varray>
    <i name="volume">   2567.67623402 </i>
    <varray name="rec_basis" >
     <v>       0.09088776      -0.05247407       0.00000000 </v>
     <v>       0.00000000       0.10494815       0.00000000 </v>
     <v>       0.00000000       0.00000000       0.04083002 </v>
    </varray>
   </crystal>
   <varray name="positions" >
    <v>       0.08333333       0.08333333       0.40830017 </v>
    <v>       0.08333333       0.58333333       0.40830017 </v>
    <v>       0.00000000       0.75000000       0.59169983 </v>
    <v>       0.00000000       0.50000000       0.59169983 </v>
    <v>       0.91666667       0.41666667       0.50000000 </v>
    <v>       0.91666667       0.16666667       0.50000000 </v>
    <v>       0.33333333       0.33333333       0.40830017 </v>
    <v>       0.25000000       0.75000000       0.59169983 </v>
    <v>       0.25000000       0.25000000       0.59169983 </v>
    <v>       0.33333333       0.58333333       0.40830017 </v>
    <v>       0.16666667       0.66666667       0.50000000 </v>
    <v>       0.33333333       0.83333333       0.40830017 </v>
    <v>       0.16666667       0.16666667       0.50000000 </v>
    <v>       0.66666667       0.91666667       0.50000000 </v>
    <v>       0.41666667       0.16666667       0.50000000 </v>
    <v>       0.58333333       0.58333333       0.40830017 </v>
    <v>       0.41666667       0.66666667       0.50000000 </v>
    <v>       0.50000000       0.50000000       0.59169983 </v>
    <v>       0.58333333       0.83333333       0.40830017 </v>
    <v>       0.66666667       0.41666667       0.50000000 </v>
    <v>       0.66666667       0.66666667       0.50000000 </v>
    <v>       0.75000000       0.50000000       0.59169983 </v>
    <v>       0.83333333       0.83333333       0.40830017 </v>
    <v>       0.16666667       0.91666667       0.50000000 </v>
    <v>       0.16666667       0.41666667       0.50000000 </v>
    <v>       0.91666667       0.66666667       0.50000000 </v>
    <v>       0.25000000       0.50000000       0.59169983 </v>
    <v>       0.50000000       0.25000000       0.59169983 </v>
    <v>       0.58333333       0.08333333       0.40830017 </v>
    <v>       0.58333333       0.33333333       0.40830017 </v>
    <v>       0.50000000       0.00000000       0.59169983 </v>
    <v>       0.08333333       0.83333333       0.40830017 </v>
    <v>       0.00000000       0.25000000       0.59169983 </v>
    <v>       0.41666667       0.41666667       0.50000000 </v>
    <v>       0.50000000       0.75000000       0.59169983 </v>
    <v>       0.83333333       0.33333333       0.40830017 </v>
    <v>       0.83333333       0.08333333       0.40830017 </v>
    <v>       0.66666667       0.16666667       0.50000000 </v>
    <v>       0.75000000       0.00000000       0.59169983 </v>
    <v>       0.75000000       0.25000000       0.59169983 </v>
    <v>       0.83333333       0.58333333       0.40830017 </v>
    <v>       0.08333333       0.33333333       0.40830017 </v>
    <v>       0.00000000       0.00000000       0.59169983 </v>
    <v>       0.25000000       0.00000000       0.59169983 </v>
    <v>       0.91666667       0.91666667       0.50000000 </v>
    <v>       0.41666667       0.91666667       0.50000000 </v>
    <v>       0.33333333       0.08333333       0.40830017 </v>
    <v>       0.75000000       0.75000000       0.59169983 </v>
   </varray>
  </structure>
  <varray name="forces" >
   <v>      -0.12204249       0.19475462      -1.80641336 </v>
   <v>      -0.38450923      -0.06961473      -1.34953983 </v>
   <v>      -0.27256343       0.28703079       1.33332564 </v>
   <v>       0.12873813       0.06671217       1.39860097 </v>
   <v>       0.44115707       0.04502124      -0.53019616 </v>
   <v>      -0.62750879      -0.18405003       0.24838253 </v>
   <v>       0.01387821      -0.25901109      -1.32992101 </v>
   <v>       0.14376627       0.23094134       1.82036494 </v>
   <v>       0.14021376      -0.07952067       1.55055165 </v>
   <v>      -0.00697455      -0.21051066      -1.61845091 </v>
   <v>      -0.44530738      -0.24079165       0.02015682 </v>
   <v>       0.02650631       0.30458781      -1.66148010 </v>
   <v>       0.28664680      -0.00582401       0.02262227 </v>
   <v>       0.27052563       0.22760180       0.52880326 </v>
   <v>       0.33029401      -0.03642846       0.03478542 </v>
   <v>       0.22720936      -0.42792431      -1.84975156 </v>
   <v>       0.14862630       0.12763353       0.32060607 </v>
   <v>      -0.24898260      -0.32202991       1.59141945 </v>
   <v>      -0.00392217       0.28122730      -1.62594493 </v>
   <v>      -0.43328039      -0.75469920      -0.27910079 </v>
   <v>       0.36922860       0.38707598       0.28712551 </v>
   <v>       0.01419802       0.01534309       1.86362473 </v>
   <v>       0.27018557       0.13854181      -1.32428018 </v>
   <v>      -0.17811292       0.15993823       0.29139783 </v>
   <v>       0.06951893       0.13801470      -0.02716739 </v>
   <v>      -0.01911636       0.02336371       0.01761839 </v>
   <v>       0.08514345      -0.24235164       0.78419750 </v>
   <v>       0.17950410      -0.08723971       0.66269289 </v>
   <v>       0.23106570       0.21223333      -0.78877578 </v>
   <v>       0.08301825      -0.36824301      -0.70708038 </v>
   <v>      -0.00935722      -0.21343422       0.81105620 </v>
   <v>      -0.18396516       0.19386400      -0.89827925 </v>
   <v>      -0.15017499      -0.28682857       1.08796925 </v>
   <v>      -0.03949226      -0.36941357       0.15625735 </v>
   <v>       0.15411661       0.40442081       0.90164638 </v>
   <v>       0.00514184       0.01786163      -1.00185508 </v>
   <v>      -0.23607657       0.14480290      -0.68043940 </v>
   <v>       0.00424347      -0.00436576       0.02032862 </v>
   <v>       0.03128553       0.19200614       0.61635998 </v>
   <v>      -0.16154460      -0.37166198       0.79933164 </v>
   <v>       0.09350342      -0.29038500      -0.90190250 </v>
   <v>      -0.09246665       0.09112144      -0.87153855 </v>
   <v>      -0.09375577       0.24877503       0.83569383 </v>
   <v>       0.06333040      -0.06249103       0.88864473 </v>
   <v>      -0.16296631       0.25416810       0.04709608 </v>
   <v>       0.04571982       0.15313683       0.38376264 </v>
   <v>       0.08418085       0.07889079      -0.91725867 </v>
   <v>      -0.06882658       0.26775003       0.84495326 </v>
  </varray>
  <energy>
   <i name="e_fr_energy">   -187.88693736 </i>
   <i name="e_wo_entrp">   -187.75545920 </i>
   <i name="e_0_energy">     -0.26295632 </i>
  </energy>
  <time name="totalsc">  285.05  286.31</time>
 </calculation>
 <calculation>
  <scstep>
   <time name="dav">    9.29    9.39</time>
   <time name="total">    9.66    9.76</time>
   <dipole>
    <v name="dipole">      0.00000000       0.00000000       0.00834219 </v>
    <i name="Tr[quadrupol]"> -10303.06010536 </i>
    <i name="Echarged">      0.00000000 </i>
    <i name="Edipol_quadrupol">      0.00000000 </i>
    <i name="Eion">      0.00000000 </i>
   </dipole>
   <energy>
    <i name="alphaZ">    805.86795579 </i>
    <i name="ewald"> 199295.96573114 </i>
    <i name="hartreedc">-241487.15262240 </i>
    <i name="XCdc">   -344.21675674 </i>
    <i name="pawpsdc">  49463.29543845 </i>
    <i name="pawaedc"> -47541.05530901 </i>
    <i name="eentropy">     -0.25701686 </i>
    <i name="bandstr">  -2040.71189709 </i>
    <i name="atom">  41659.78587232 </i>
    <i name="e_fr_energy">   -188.47860439 </i>
    <i name="e_wo_entrp">   -188.22158752 </i>
    <i name="e_0_energy">   -188.35009596 </i>
   </energy>
  </scstep>
  <scstep>
   <time name="diag">    1.62    1.62</time>
   <time name="diis">    4.43    4.44</time>
   <time name="orth">    0.38    0.38</time>
   <time name="total">    6.81    6.82</time>
   <dipole>
    <v name="dipole">      0.00000000       0.00000000       0.04749614 </v>
    <i name="Tr[quadrupol]"> -10302.92880598 </i>
    <i name="Echarged">      0.00000000 </i>
    <i name="Edipol_quadrupol">      0.00000000 </i>
    <i name="Eion">      0.00000000 </i>
   </dipole>
   <energy>
    <i name="e_fr_energy">   -188.69159132 </i>
    <i name="e_wo_entrp">   -188.43604012 </i>
    <i name="e_0_energy">   -188.56381572 </i>
   </energy>
  </scstep>
  <scstep>
   <time name="diag">    1.61    1.62</time>
   <time name="diis">    4.32    4.33</time>
   <time name="orth">    0.38    0.38</time>
   <time name="total">    6.68    6.69</time>
   <dipole>
    <v name="dipole">      0.00000000       0.00000000      -0.09230361 </v>
    <i name="Tr[quadrupol]"> -10303.06031351 </i>
    <i name="Echarged">      0.00000000 </i>
    <i name="Edipol_quadrupol">      0.00000000 </i>
    <i name="Eion">      0.00000000 </i>
   </dipole>
   <energy>
    <i name="e_fr_energy">   -188.88104547 </i>
    <i name="e_wo_entrp">   -188.64149150 </i>
    <i name="e_0_energy">   -188.76126848 </i>
   </energy>
  </scstep>
  <scstep>
   <time name="diag">    1.61    1.61</time>
   <time name="diis">    4.41    4.41</time>
   <time name="orth">    0.38    0.38</time>
   <time name="total">    6.77    6.77</time>
   <dipole>
    <v name="dipole">      0.00000000       0.00000000       0.02993630 </v>
    <i name="Tr[quadrupol]"> -10303.10903877 </i>
    <i name="Echarged">      0.00000000 </i>
    <i name="Edipol_quadrupol">      0.00000000 </i>
    <i name="Eion">      0.00000000 </i>
   </dipole>
   <energy>
    <i name="e_fr_energy">   -188.69406856 </i>
    <i name="e_wo_entrp">   -188.44166801 </i>
    <i name="e_0_energy">   -188.56786829 </i>
   </energy>
  </scstep>
  <scstep>
   <time name="diag">    1.62    1.63</time>
   <time name="diis">    4.39    4.40</time>
   <time name="orth">    0.38    0.38</time>
   <time name="total">    6.75    6.78</time>
   <dipole>
    <v name="dipole">      0.00000000       0.00000000      -0.00919769 </v>
    <i name="Tr[quadrupol]"> -10303.10632243 </i>
    <i name="Echarged">      0.00000000 </i>
    <i name="Edipol_quadrupol">      0.00000000 </i>
    <i name="Eion">      0.00000000 </i>
   </dipole>
   <energy>
    <i name="e_fr_energy">   -188.68363485 </i>
    <i name="e_wo_entrp">   -188.42065141 </i>
    <i name="e_0_energy">   -188.55214313 </i>
   </energy>
  </scstep>
  <scstep>
   <time name="diag">    1.63    1.63</time>
   <time name="diis">    4.24    4.27</time>
   <time name="orth">    0.37    0.41</time>
   <time name="total">    6.61    6.71</time>
   <dipole>
    <v name="dipole">      0.00000000       0.00000000       0.02588092 </v>
    <i name="Tr[quadrupol]"> -10303.07154267 </i>
    <i name="Echarged">      0.00000000 </i>
    <i name="Edipol_quadrupol">      0.00000000 </i>
    <i name="Eion">      0.00000000 </i>
   </dipole>
   <energy>
    <i name="e_fr_energy">   -188.68533630 </i>
    <i name="e_wo_entrp">   -188.43800732 </i>
    <i name="e_0_energy">   -188.56167181 </i>
   </energy>
  </scstep>
  <scstep>
   <time name="diag">    1.61    1.62</time>
   <time name="diis">    4.40    4.40</time>
   <time name="orth">    0.39    0.40</time>
   <time name="total">    6.89    6.91</time>
   <dipole>
    <v name="dipole">      0.00000000       0.00000000       0.02495496 </v>
    <i name="Tr[quadrupol]"> -10303.09847174 </i>
    <i name="Echarged">      0.00000000 </i>
    <i name="Edipol_quadrupol">      0.00000000 </i>
    <i name="Eion">      0.00000000 </i>
   </dipole>
   <energy>
    <i name="e_fr_energy">   -188.66994761 </i>
    <i name="e_wo_entrp">   -188.41171059 </i>
    <i name="e_0_energy">   -188.54082910 </i>
   </energy>
  </scstep>
  <scstep>
   <time name="diag">    1.98    2.00</time>
   <time name="diis">    4.39    4.40</time>
   <time name="orth">    0.38    0.38</time>
   <time name="total">    7.14    7.17</time>
   <dipole>
    <v name="dipole">      0.00000000       0.00000000       0.01565704 </v>
    <i name="Tr[quadrupol]"> -10303.07537709 </i>
    <i name="Echarged">      0.00000000 </i>
    <i name="Edipol_quadrupol">      0.00000000 </i>
    <i name="Eion">      0.00000000 </i>
   </dipole>
   <energy>
    <i name="e_fr_energy">   -188.66874508 </i>
    <i name="e_wo_entrp">   -188.41031272 </i>
    <i name="e_0_energy">   -188.53952890 </i>
   </energy>
  </scstep>
  <scstep>
   <time name="diag">    1.62    1.62</time>
   <time name="diis">    4.41    4.41</time>
   <time name="orth">    0.38    0.38</time>
   <time name="total">    6.77    6.79</time>
   <dipole>
    <v name="dipole">      0.00000000       0.00000000       0.01542745 </v>
    <i name="Tr[quadrupol]"> -10303.07315121 </i>
    <i name="Echarged">      0.00000000 </i>
    <i name="Edipol_quadrupol">      0.00000000 </i>
    <i name="Eion">      0.00000000 </i>
   </dipole>
   <energy>
    <i name="e_fr_energy">   -188.66835786 </i>
    <i name="e_wo_entrp">   -188.40972699 </i>
    <i name="e_0_energy">   -188.53904242 </i>
   </energy>
  </scstep>
  <scstep>
   <time name="diag">    1.62    1.62</time>
   <time name="diis">    4.38    4.38</time>
   <time name="orth">    0.38    0.38</time>
   <time name="total">    6.76    6.76</time>
   <dipole>
    <v name="dipole">      0.00000000       0.00000000       0.01533326 </v>
    <i name="Tr[quadrupol]"> -10303.07194251 </i>
    <i name="Echarged">      0.00000000 </i>
    <i name="Edipol_quadrupol">      0.00000000 </i>
    <i name="Eion">      0.00000000 </i>
   </dipole>
   <energy>
    <i name="e_fr_energy">   -188.66830883 </i>
    <i name="e_wo_entrp">   -188.40900311 </i>
    <i name="e_0_energy">   -188.53865597 </i>
   </energy>
  </scstep>
  <scstep>
   <time name="diag">    1.62    1.62</time>
   <time name="diis">    4.45    4.45</time>
   <time name="orth">    0.38    0.38</time>
   <time name="total">    6.81    6.82</time>
   <dipole>
    <v name="dipole">      0.00000000       0.00000000       0.01545351 </v>
    <i name="Tr[quadrupol]"> -10303.07168864 </i>
    <i name="Echarged">      0.00000000 </i>
    <i name="Edipol_quadrupol">      0.00000000 </i>
    <i name="Eion">      0.00000000 </i>
   </dipole>
   <energy>
    <i name="e_fr_energy">   -188.66825422 </i>
    <i name="e_wo_entrp">   -188.40924407 </i>
    <i name="e_0_energy">   -188.53874915 </i>
   </energy>
  </scstep>
  <scstep>
   <time name="diag">    1.61    1.61</time>
   <time name="diis">    4.23    4.35</time>
   <time name="orth">    0.38    0.38</time>
   <time name="total">    6.58    6.71</time>
   <dipole>
    <v name="dipole">      0.00000000       0.00000000       0.01540125 </v>
    <i name="Tr[quadrupol]"> -10303.07475853 </i>
    <i name="Echarged">      0.00000000 </i>
    <i name="Edipol_quadrupol">      0.00000000 </i>
    <i name="Eion">      0.00000000 </i>
   </dipole>
   <energy>
    <i name="e_fr_energy">   -188.66825450 </i>
    <i name="e_wo_entrp">   -188.40922309 </i>
    <i name="e_0_energy">   -188.53873880 </i>
   </energy>
  </scstep>
  <scstep>
   <time name="diag">    1.62    1.63</time>
   <time name="diis">    4.24    4.25</time>
   <time name="orth">    0.38    0.38</time>
   <time name="total">    6.62    6.63</time>
   <dipole>
    <v name="dipole">      0.00000000       0.00000000       0.01528137 </v>
    <i name="Tr[quadrupol]"> -10303.07724364 </i>
    <i name="Echarged">      0.00000000 </i>
    <i name="Edipol_quadrupol">      0.00000000 </i>
    <i name="Eion">      0.00000000 </i>
   </dipole>
   <energy>
    <i name="e_fr_energy">   -188.66824433 </i>
    <i name="e_wo_entrp">   -188.40929700 </i>
    <i name="e_0_energy">   -188.53877067 </i>
   </energy>
  </scstep>
  <scstep>
   <time name="diag">    1.63    1.63</time>
   <time name="diis">    3.51    3.53</time>
   <time name="orth">    0.38    0.38</time>
   <time name="total">    5.58    5.60</time>
   <dipole>
    <v name="dipole">      0.00000000       0.00000000       0.01532528 </v>
    <i name="Tr[quadrupol]"> -10303.08001346 </i>
    <i name="Echarged">      0.00000000 </i>
    <i name="Edipol_quadrupol">      0.00000000 </i>
    <i name="Eion">      0.00000000 </i>
   </dipole>
   <energy>
    <i name="alphaZ">    805.86677300 </i>
    <i name="ewald"> 199295.96573114 </i>
    <i name="hartreedc">-241487.98942181 </i>
    <i name="XCdc">   -344.17976841 </i>
    <i name="pawpsdc">  49230.97210396 </i>
    <i name="pawaedc"> -47307.16795023 </i>
    <i name="eentropy">     -0.25890850 </i>
    <i name="bandstr">  -2041.66267642 </i>
    <i name="atom">  41659.78587232 </i>
    <i name="e_fr_energy">   -188.66824496 </i>
    <i name="e_wo_entrp">   -188.40933645 </i>
    <i name="e_0_energy">   -188.53879070 </i>
   </energy>
  </scstep>
  <structure>
   <crystal>
    <varray name="basis" >
     <v>      11.00258152       0.00000000       0.00000000 </v>
     <v>       5.50129076       9.52851510       0.00000000 </v>
     <v>       0.00000000       0.00000000      24.49178509 </v>
    </varray>
    <i name="volume">   2567.67623402 </i>
    <varray name="rec_basis" >
     <v>       0.09088776      -0.05247407       0.00000000 </v>
     <v>       0.00000000       0.10494815       0.00000000 </v>
     <v>       0.00000000       0.00000000       0.04083002 </v>
    </varray>
   </crystal>
   <varray name="positions" >
    <v>       0.08333333       0.08333333       0.40830017 </v>
    <v>       0.08333333       0.58333333       0.40830017 </v>
    <v>      -0.00134520       0.75101726       0.59353825 </v>
    <v>       0.00027691       0.50023643       0.59362826 </v>
    <v>       0.91794092       0.41682623       0.49926895 </v>
    <v>       0.91506682       0.16601438       0.50034248 </v>
    <v>       0.33333333       0.33333333       0.40830017 </v>
    <v>       0.25003202       0.75081848       0.59420979 </v>
    <v>       0.25057127       0.24971817       0.59383777 </v>
    <v>       0.33333333       0.58333333       0.40830017 </v>
    <v>       0.16572659       0.66581328       0.50002779 </v>
    <v>       0.33333333       0.83333333       0.40830017 </v>
    <v>       0.16755678       0.16664603       0.50003119 </v>
    <v>       0.66709366       0.91747331       0.50072913 </v>
    <v>       0.41774498       0.16653756       0.50004796 </v>
    <v>       0.58333333       0.58333333       0.40830017 </v>
    <v>       0.41689667       0.66711901       0.50044206 </v>
    <v>       0.49980646       0.49885870       0.59389412 </v>
    <v>       0.58333333       0.83333333       0.40830017 </v>
    <v>       0.66667417       0.41399195       0.49961517 </v>
    <v>       0.66711401       0.66803850       0.50039590 </v>
    <v>       0.75001639       0.50005438       0.59426944 </v>
    <v>       0.83333333       0.83333333       0.40830017 </v>
    <v>       0.16583657       0.91723350       0.50040179 </v>
    <v>       0.16663547       0.41715580       0.49996254 </v>
    <v>       0.91656659       0.66674947       0.50002429 </v>
    <v>       0.25069079       0.49914109       0.59278110 </v>
    <v>       0.50070554       0.24969082       0.59261357 </v>
    <v>       0.58333333       0.08333333       0.40830017 </v>
    <v>       0.58333333       0.33333333       0.40830017 </v>
    <v>       0.50034949      -0.00075643       0.59281813 </v>
    <v>       0.08333333       0.83333333       0.40830017 </v>
    <v>       0.00004735       0.24898346       0.59319995 </v>
    <v>       0.41720007       0.41535743       0.50021545 </v>
    <v>       0.49975637       0.75143330       0.59294304 </v>
    <v>       0.83333333       0.33333333       0.40830017 </v>
    <v>       0.83333333       0.08333333       0.40830017 </v>
    <v>       0.66668743       0.16665119       0.50002803 </v>
    <v>       0.74975578       0.00068049       0.59254968 </v>
    <v>       0.75016278       0.24868280       0.59280197 </v>
    <v>       0.83333333       0.58333333       0.40830017 </v>
    <v>       0.08333333       0.33333333       0.40830017 </v>
    <v>      -0.00072860       0.00088168       0.59285211 </v>
    <v>       0.25030511      -0.00022147       0.59292512 </v>
    <v>       0.91571608       0.91756746       0.50006494 </v>
    <v>       0.41653563       0.91720940       0.50052914 </v>
    <v>       0.33333333       0.08333333       0.40830017 </v>
    <v>       0.74931429       0.75094893       0.59286487 </v>
   </varray>
  </structure>
  <varray name="forces" >
   <v>      -0.13762113       0.20637278      -1.70775003 </v>
   <v>      -0.40103667      -0.06986061      -1.39262024 </v>
   <v>      -0.11240302       0.20019202       1.00024861 </v>
   <v>       0.02408500       0.00216836       1.00556490 </v>
   <v>       0.11443531       0.02496420       0.10970928 </v>
   <v>      -0.23492529      -0.06012142       0.33348183 </v>
   <v>       0.01048233      -0.26126125      -1.32535143 </v>
   <v>       0.03523094       0.11143105       1.31575443 </v>
   <v>       0.09280541      -0.08558829       1.13452678 </v>
   <v>       0.01985398      -0.19948557      -1.50492857 </v>
   <v>      -0.16429835      -0.03978122       0.42209280 </v>
   <v>       0.02119619       0.30894075      -1.54445253 </v>
   <v>       0.17989116       0.04961470       0.31908909 </v>
   <v>       0.18535273       0.15930401       0.45579503 </v>
   <v>       0.14015064      -0.00185424       0.27329458 </v>
   <v>       0.24755753      -0.40453363      -1.70483232 </v>
   <v>       0.03689130      -0.00392230       0.59555342 </v>
   <v>      -0.07103729      -0.15469755       1.13510888 </v>
   <v>       0.01139076       0.31131130      -1.52068528 </v>
   <v>      -0.14490392      -0.23356395       0.23866291 </v>
   <v>       0.16675178       0.01726456       0.48379037 </v>
   <v>      -0.02631227      -0.04612200       1.20458309 </v>
   <v>       0.23793414       0.15240197      -1.28029186 </v>
   <v>      -0.14886901      -0.00819006       0.45903101 </v>
   <v>       0.04004888       0.00016725       0.27402155 </v>
   <v>       0.01736582       0.03295765       0.27909939 </v>
   <v>       0.05246868      -0.09376269       0.62126554 </v>
   <v>       0.09042368      -0.11616667       0.57953898 </v>
   <v>       0.22964973       0.17689997      -0.78100498 </v>
   <v>       0.03883223      -0.37356710      -0.78138064 </v>
   <v>      -0.00597342      -0.08799407       0.69629900 </v>
   <v>      -0.16807621       0.19286174      -0.83810600 </v>
   <v>      -0.08754158      -0.13900917       0.73756520 </v>
   <v>       0.00233720      -0.14767638       0.29698296 </v>
   <v>       0.08554008       0.19658532       0.74698212 </v>
   <v>       0.01666990      -0.00923492      -1.00698952 </v>
   <v>      -0.23249762       0.14081900      -0.71480062 </v>
   <v>      -0.07189147      -0.05527329       0.09867480 </v>
   <v>       0.01515227       0.15603950       0.58584606 </v>
   <v>      -0.09789357      -0.19591446       0.69200316 </v>
   <v>       0.06631311      -0.24805923      -0.92409266 </v>
   <v>      -0.05548887       0.05554021      -0.93295230 </v>
   <v>      -0.04786354       0.13062117       0.71077786 </v>
   <v>       0.02927337       0.01053093       0.73153408 </v>
   <v>      -0.09536734       0.06249916       0.20127341 </v>
   <v>       0.03791399       0.12024629       0.37418300 </v>
   <v>       0.09567359       0.06180475      -0.88857254 </v>
   <v>      -0.03767116       0.15410147       0.73647737 </v>
  </varray>
  <energy>
   <i name="e_fr_energy">   -188.66824496 </i>
   <i name="e_wo_entrp">   -188.53879070 </i>
   <i name="e_0_energy">     -0.25890850 </i>
  </energy>
  <time name="totalsc">   99.43   99.95</time>
 </calculation>
 <calculation>
  <scstep>
   <time name="dav">    9.32    9.34</time>
   <time name="total">    9.70    9.72</time>
   <dipole>
    <v name="dipole">      0.00000000       0.00000000       0.01526690 </v>
    <i name="Tr[quadrupol]"> -10266.84396416 </i>
    <i name="Echarged">      0.00000000 </i>
    <i name="Edipol_quadrupol">      0.00000000 </i>
    <i name="Eion">      0.00000000 </i>
   </dipole>
   <energy>
    <i name="alphaZ">    805.84456485 </i>
    <i name="ewald"> 195319.04647235 </i>
    <i name="hartreedc">-237533.65584111 </i>
    <i name="XCdc">   -347.00798143 </i>
    <i name="pawpsdc">  49230.91530116 </i>
    <i name="pawaedc"> -47307.11109822 </i>
    <i name="eentropy">     -0.23391966 </i>
    <i name="bandstr">  -2015.44508003 </i>
    <i name="atom">  41659.78587232 </i>
    <i name="e_fr_energy">   -187.86170978 </i>
    <i name="e_wo_entrp">   -187.62779012 </i>
    <i name="e_0_energy">   -187.74474995 </i>
   </energy>
  </scstep>
  <scstep>
   <time name="diag">    1.93    1.95</time>
   <time name="diis">    4.52    4.54</time>
   <time name="orth">    0.38    0.38</time>
   <time name="total">    7.20    7.24</time>
   <dipole>
    <v name="dipole">      0.00000000       0.00000000       0.08436950 </v>
    <i name="Tr[quadrupol]"> -10266.39981377 </i>
    <i name="Echarged">      0.00000000 </i>
    <i name="Edipol_quadrupol">      0.00000000 </i>
    <i name="Eion">      0.00000000 </i>
   </dipole>
   <energy>
    <i name="e_fr_energy">   -189.77205729 </i>
    <i name="e_wo_entrp">   -189.52291046 </i>
    <i name="e_0_energy">   -189.64748388 </i>
   </energy>
  </scstep>
  <scstep>
   <time name="diag">    1.61    1.62</time>
   <time name="diis">    4.34    4.34</time>
   <time name="orth">    0.38    0.38</time>
   <time name="total">    6.70    6.75</time>
   <dipole>
    <v name="dipole">      0.00000000       0.00000000      -0.01403769 </v>
    <i name="Tr[quadrupol]"> -10266.77241302 </i>
    <i name="Echarged">      0.00000000 </i>
    <i name="Edipol_quadrupol">      0.00000000 </i>
    <i name="Eion">      0.00000000 </i>
   </dipole>
   <energy>
    <i name="e_fr_energy">   -190.02208526 </i>
    <i name="e_wo_entrp">   -189.79701208 </i>
    <i name="e_0_energy">   -189.90954867 </i>
   </energy>
  </scstep>
  <scstep>
   <time name="diag">    1.59    1.66</time>
   <time name="diis">    4.41    4.42</time>
   <time name="orth">    0.38    0.38</time>
   <time name="total">    6.75    6.83</time>
   <dipole>
    <v name="dipole">      0.00000000       0.00000000       0.06693883 </v>
    <i name="Tr[quadrupol]"> -10266.83789514 </i>
    <i name="Echarged">      0.00000000 </i>
    <i name="Edipol_quadrupol">      0.00000000 </i>
    <i name="Eion">      0.00000000 </i>
   </dipole>
   <energy>
    <i name="e_fr_energy">   -189.71486031 </i>
    <i name="e_wo_entrp">   -189.49447266 </i>
    <i name="e_0_energy">   -189.60466648 </i>
   </energy>
  </scstep>
  <scstep>
   <time name="diag">    1.63    1.63</time>
   <time name="diis">    4.38    4.39</time>
   <time name="orth">    0.38    0.38</time>
   <time name="total">    6.77    6.78</time>
   <dipole>
    <v name="dipole">      0.00000000       0.00000000      -0.08047509 </v>
    <i name="Tr[quadrupol]"> -10266.93154001 </i>
    <i name="Echarged">      0.00000000 </i>
    <i name="Edipol_quadrupol">      0.00000000 </i>
    <i name="Eion">      0.00000000 </i>
   </dipole>
   <energy>
    <i name="e_fr_energy">   -189.78712227 </i>
    <i name="e_wo_entrp">   -189.53899254 </i>
    <i name="e_0_energy">   -189.66305741 </i>
   </energy>
  </scstep>
  <scstep>
   <time name="diag">    1.62    1.63</time>
   <time name="diis">    4.39    4.39</time>
   <time name="orth">    0.38    0.38</time>
   <time name="total">    6.76    6.77</time>
   <dipole>
    <v name="dipole">      0.00000000       0.00000000       0.10808902 </v>
    <i name="Tr[quadrupol]"> -10266.94147500 </i>
    <i name="Echarged">      0.00000000 </i>
    <i name="Edipol_quadrupol">      0.00000000 </i>
    <i name="Eion">      0.00000000 </i>
   </dipole>
   <energy>
    <i name="e_fr_energy">   -189.75999211 </i>
    <i name="e_wo_entrp">   -189.53333649 </i>
    <i name="e_0_energy">   -189.64666430 </i>
   </energy>
  </scstep>
  <scstep>
   <time name="diag">    1.62    1.62</time>
   <time name="diis">    4.38    4.38</time>
   <time name="orth">    0.38    0.39</time>
   <time name="total">    6.75    6.75</time>
   <dipole>
    <v name="dipole">      0.00000000       0.00000000       0.05601596 </v>
    <i name="Tr[quadrupol]"> -10266.87289578 </i>
    <i name="Echarged">      0.00000000 </i>
    <i name="Edipol_quadrupol">      0.00000000 </i>
    <i name="Eion">      0.00000000 </i>
   </dipole>
   <energy>
[...]
       <r>    -9.4287     0.0000     0.0000 </r>
       <r>    -9.3743     0.0000     0.0000 </r>
       <r>    -9.3199     0.0000     0.0000 </r>
       <r>    -9.2655     0.0000     0.0000 </r>
       <r>    -9.2111     0.0002     0.0000 </r>
       <r>    -9.1567     0.0038     0.0002 </r>
       <r>    -9.1023     0.0500     0.0029 </r>
       <r>    -9.0479     0.3723     0.0232 </r>
       <r>    -8.9935     1.5877     0.1096 </r>
       <r>    -8.9390     3.8939     0.3214 </r>
       <r>    -8.8846     5.5811     0.6251 </r>
       <r>    -8.8302     5.1259     0.9039 </r>
       <r>    -8.7758     4.3648     1.1414 </r>
       <r>    -8.7214     4.9403     1.4102 </r>
       <r>    -8.6670     5.1293     1.6892 </r>
       <r>    -8.6126     3.5965     1.8849 </r>
       <r>    -8.5582     1.6086     1.9724 </r>
       <r>    -8.5038     0.5464     2.0021 </r>
       <r>    -8.4494     0.5624     2.0327 </r>
       <r>    -8.3950     1.3180     2.1045 </r>
       <r>    -8.3406     2.2356     2.2261 </r>
       <r>    -8.2862     2.9772     2.3881 </r>
       <r>    -8.2318     3.7681     2.5931 </r>
       <r>    -8.1774     4.2695     2.8253 </r>
       <r>    -8.1230     4.5222     3.0714 </r>
       <r>    -8.0686     5.7935     3.3866 </r>
       <r>    -8.0142     7.8035     3.8111 </r>
       <r>    -7.9598     8.4658     4.2717 </r>
       <r>    -7.9054     6.9290     4.6487 </r>
       <r>    -7.8510     4.6655     4.9025 </r>
       <r>    -7.7965     3.8488     5.1119 </r>
       <r>    -7.7421     5.3158     5.4011 </r>
       <r>    -7.6877     7.7093     5.8205 </r>
       <r>    -7.6333     9.1609     6.3189 </r>
       <r>    -7.5789     9.5304     6.8374 </r>
       <r>    -7.5245    10.1381     7.3890 </r>
       <r>    -7.4701    11.1266     7.9943 </r>
       <r>    -7.4157    10.5399     8.5677 </r>
       <r>    -7.3613     8.6559     9.0386 </r>
       <r>    -7.3069     9.3801     9.5490 </r>
       <r>    -7.2525    14.5996    10.3433 </r>
       <r>    -7.1981    21.2790    11.5009 </r>
       <r>    -7.1437    25.5293    12.8898 </r>
       <r>    -7.0893    27.0128    14.3595 </r>
       <r>    -7.0349    28.2319    15.8954 </r>
       <r>    -6.9805    30.6569    17.5633 </r>
       <r>    -6.9261    32.9304    19.3549 </r>
       <r>    -6.8717    34.1360    21.2120 </r>
       <r>    -6.8173    35.1254    23.1230 </r>
       <r>    -6.7629    37.0475    25.1386 </r>
       <r>    -6.7085    39.4203    27.2832 </r>
       <r>    -6.6540    39.5770    29.4364 </r>
       <r>    -6.5996    38.5287    31.5326 </r>
       <r>    -6.5452    40.9576    33.7609 </r>
       <r>    -6.4908    47.9314    36.3686 </r>
       <r>    -6.4364    57.1200    39.4762 </r>
       <r>    -6.3820    66.3193    43.0842 </r>
       <r>    -6.3276    72.5073    47.0290 </r>
       <r>    -6.2732    74.0059    51.0553 </r>
       <r>    -6.2188    74.1376    55.0887 </r>
       <r>    -6.1644    76.7435    59.2639 </r>
       <r>    -6.1100    81.3953    63.6922 </r>
       <r>    -6.0556    85.1701    68.3259 </r>
       <r>    -6.0012    85.2029    72.9613 </r>
       <r>    -5.9468    80.9672    77.3663 </r>
       <r>    -5.8924    75.1253    81.4535 </r>
       <r>    -5.8380    70.6743    85.2985 </r>
       <r>    -5.7836    68.6950    89.0358 </r>
       <r>    -5.7292    68.6294    92.7696 </r>
       <r>    -5.6748    68.8566    96.5157 </r>
       <r>    -5.6204    67.4698   100.1864 </r>
       <r>    -5.5660    65.2716   103.7375 </r>
       <r>    -5.5115    65.0330   107.2756 </r>
       <r>    -5.4571    66.4810   110.8925 </r>
       <r>    -5.4027    68.3114   114.6090 </r>
       <r>    -5.3483    69.9599   118.4151 </r>
       <r>    -5.2939    70.8956   122.2722 </r>
       <r>    -5.2395    72.3717   126.2095 </r>
       <r>    -5.1851    75.6711   130.3264 </r>
       <r>    -5.1307    79.8406   134.6701 </r>
       <r>    -5.0763    82.6963   139.1692 </r>
       <r>    -5.0219    83.5418   143.7142 </r>
       <r>    -4.9675    84.5378   148.3135 </r>
       <r>    -4.9131    86.0903   152.9972 </r>
       <r>    -4.8587    85.8638   157.6686 </r>
       <r>    -4.8043    84.5871   162.2706 </r>
       <r>    -4.7499    85.1636   166.9039 </r>
       <r>    -4.6955    87.5222   171.6655 </r>
       <r>    -4.6411    89.7073   176.5460 </r>
       <r>    -4.5867    90.2840   181.4579 </r>
       <r>    -4.5323    88.6374   186.2802 </r>
       <r>    -4.4779    85.8248   190.9495 </r>
       <r>    -4.4235    83.5563   195.4953 </r>
       <r>    -4.3690    82.7703   199.9984 </r>
       <r>    -4.3146    83.4331   204.5376 </r>
       <r>    -4.2602    84.4800   209.1337 </r>
       <r>    -4.2058    85.1022   213.7636 </r>
       <r>    -4.1514    85.4313   218.4115 </r>
       <r>    -4.0970    85.5219   223.0643 </r>
       <r>    -4.0426    84.9812   227.6877 </r>
       <r>    -3.9882    83.9732   232.2562 </r>
       <r>    -3.9338    83.6702   236.8083 </r>
       <r>    -3.8794    85.1845   241.4427 </r>
       <r>    -3.8250    88.4040   246.2523 </r>
       <r>    -3.7706    92.3042   251.2741 </r>
       <r>    -3.7162    95.6303   256.4769 </r>
       <r>    -3.6618    97.8359   261.7996 </r>
       <r>    -3.6074    99.5161   267.2138 </r>
       <r>    -3.5530   100.2820   272.6696 </r>
       <r>    -3.4986    98.8778   278.0490 </r>
       <r>    -3.4442    95.9401   283.2686 </r>
       <r>    -3.3898    93.5444   288.3579 </r>
       <r>    -3.3354    93.5556   293.4477 </r>
       <r>    -3.2810    95.8072   298.6601 </r>
       <r>    -3.2265    97.7966   303.9807 </r>
       <r>    -3.1721    97.6184   309.2916 </r>
       <r>    -3.1177    94.9350   314.4565 </r>
       <r>    -3.0633    91.1093   319.4133 </r>
       <r>    -3.0089    88.1120   324.2070 </r>
       <r>    -2.9545    87.4251   328.9634 </r>
       <r>    -2.9001    89.7900   333.8484 </r>
       <r>    -2.8457    93.2141   338.9197 </r>
       <r>    -2.7913    95.6819   344.1252 </r>
       <r>    -2.7369    98.0216   349.4581 </r>
       <r>    -2.6825   100.2010   354.9095 </r>
       <r>    -2.6281   100.1583   360.3586 </r>
       <r>    -2.5737    98.1922   365.7007 </r>
       <r>    -2.5193    96.6658   370.9598 </r>
       <r>    -2.4649    95.4685   376.1537 </r>
       <r>    -2.4105    93.7269   381.2529 </r>
       <r>    -2.3561    91.9149   386.2535 </r>
       <r>    -2.3017    90.5639   391.1806 </r>
       <r>    -2.2473    89.9151   396.0724 </r>
       <r>    -2.1929    90.3092   400.9857 </r>
       <r>    -2.1385    92.2887   406.0066 </r>
       <r>    -2.0840    95.0711   411.1789 </r>
       <r>    -2.0296    97.1219   416.4628 </r>
       <r>    -1.9752    99.0514   421.8517 </r>
       <r>    -1.9208   101.7919   427.3897 </r>
       <r>    -1.8664   104.4428   433.0718 </r>
       <r>    -1.8120   106.7442   438.8792 </r>
       <r>    -1.7576   108.4068   444.7771 </r>
       <r>    -1.7032   107.5272   450.6271 </r>
       <r>    -1.6488   104.5311   456.3141 </r>
       <r>    -1.5944   102.2467   461.8768 </r>
       <r>    -1.5400   101.1886   467.3819 </r>
       <r>    -1.4856    99.3730   472.7883 </r>
       <r>    -1.4312    95.9009   478.0057 </r>
       <r>    -1.3768    92.8751   483.0586 </r>
       <r>    -1.3224    90.8743   488.0026 </r>
       <r>    -1.2680    87.2028   492.7468 </r>
       <r>    -1.2136    79.8134   497.0891 </r>
       <r>    -1.1592    67.4853   500.7606 </r>
       <r>    -1.1048    52.6741   503.6263 </r>
       <r>    -1.0504    40.8862   505.8507 </r>
       <r>    -0.9960    31.8533   507.5837 </r>
       <r>    -0.9415    21.9827   508.7796 </r>
       <r>    -0.8871    12.7915   509.4756 </r>
       <r>    -0.8327     7.3937   509.8778 </r>
       <r>    -0.7783     5.6920   510.1875 </r>
       <r>    -0.7239     6.7728   510.5560 </r>
       <r>    -0.6695    10.4907   511.1267 </r>
       <r>    -0.6151    15.7289   511.9824 </r>
       <r>    -0.5607    20.4636   513.0958 </r>
       <r>    -0.5063    23.3787   514.3677 </r>
       <r>    -0.4519    23.6279   515.6531 </r>
       <r>    -0.3975    21.0183   516.7966 </r>
       <r>    -0.3431    17.8321   517.7668 </r>
       <r>    -0.2887    17.7421   518.7320 </r>
       <r>    -0.2343    20.1801   519.8299 </r>
       <r>    -0.1799    20.3641   520.9378 </r>
       <r>    -0.1255    16.9444   521.8597 </r>
       <r>    -0.0711    12.7745   522.5547 </r>
       <r>    -0.0167    10.2742   523.1136 </r>
       <r>     0.0377    10.0619   523.6611 </r>
       <r>     0.0921    10.8568   524.2517 </r>
       <r>     0.1465    11.4839   524.8765 </r>
       <r>     0.2010    12.5230   525.5578 </r>
       <r>     0.2554    14.3888   526.3406 </r>
       <r>     0.3098    16.7332   527.2510 </r>
       <r>     0.3642    18.8660   528.2774 </r>
       <r>     0.4186    20.1166   529.3718 </r>
       <r>     0.4730    21.1750   530.5239 </r>
       <r>     0.5274    23.5332   531.8042 </r>
       <r>     0.5818    26.1774   533.2284 </r>
       <r>     0.6362    26.4133   534.6654 </r>
       <r>     0.6906    23.6759   535.9534 </r>
       <r>     0.7450    20.3005   537.0579 </r>
       <r>     0.7994    18.3881   538.0583 </r>
       <r>     0.8538    16.8423   538.9746 </r>
       <r>     0.9082    14.4110   539.7586 </r>
       <r>     0.9626    11.6331   540.3915 </r>
       <r>     1.0170     9.3610   540.9008 </r>
       <r>     1.0714     8.9305   541.3867 </r>
       <r>     1.1258    10.2467   541.9441 </r>
       <r>     1.1802    10.7625   542.5296 </r>
       <r>     1.2346     9.2090   543.0307 </r>
       <r>     1.2890     6.8510   543.4034 </r>
       <r>     1.3435     5.1778   543.6851 </r>
       <r>     1.3979     5.2937   543.9731 </r>
       <r>     1.4523     7.7773   544.3962 </r>
       <r>     1.5067    12.1620   545.0579 </r>
       <r>     1.5611    15.8992   545.9229 </r>
       <r>     1.6155    16.2703   546.8081 </r>
       <r>     1.6699    14.5506   547.5997 </r>
       <r>     1.7243    14.1470   548.3693 </r>
       <r>     1.7787    15.9688   549.2381 </r>
       <r>     1.8331    17.1735   550.1724 </r>
       <r>     1.8875    15.4914   551.0152 </r>
       <r>     1.9419    12.4817   551.6943 </r>
       <r>     1.9963    10.9927   552.2924 </r>
       <r>     2.0507    12.1363   552.9526 </r>
       <r>     2.1051    15.0691   553.7725 </r>
       <r>     2.1595    18.6579   554.7875 </r>
       <r>     2.2139    21.6663   555.9663 </r>
       <r>     2.2683    23.2688   557.2322 </r>
       <r>     2.3227    23.2773   558.4986 </r>
       <r>     2.3771    21.3905   559.6624 </r>
       <r>     2.4315    19.1446   560.7039 </r>
       <r>     2.4860    18.6936   561.7210 </r>
       <r>     2.5404    19.5182   562.7828 </r>
       <r>     2.5948    20.7227   563.9102 </r>
       <r>     2.6492    22.8666   565.1543 </r>
       <r>     2.7036    24.5877   566.4920 </r>
       <r>     2.7580    22.0660   567.6925 </r>
       <r>     2.8124    15.2578   568.5226 </r>
       <r>     2.8668     9.1779   569.0219 </r>
       <r>     2.9212     6.8545   569.3948 </r>
       <r>     2.9756     5.9418   569.7181 </r>
       <r>     3.0300     4.2628   569.9500 </r>
       <r>     3.0844     3.3190   570.1306 </r>
       <r>     3.1388     4.4905   570.3749 </r>
       <r>     3.1932     7.2784   570.7709 </r>
       <r>     3.2476    10.4531   571.3396 </r>
       <r>     3.3020    12.3127   572.0094 </r>
       <r>     3.3564    12.0418   572.6646 </r>
       <r>     3.4108    10.4848   573.2350 </r>
       <r>     3.4652     9.3400   573.7431 </r>
       <r>     3.5196    10.4719   574.3128 </r>
       <r>     3.5740    14.0431   575.0769 </r>
       <r>     3.6285    18.7373   576.0962 </r>
       <r>     3.6829    22.5027   577.3205 </r>
       <r>     3.7373    22.6316   578.5518 </r>
       <r>     3.7917    19.2681   579.6000 </r>
       <r>     3.8461    15.3087   580.4329 </r>
       <r>     3.9005    12.6067   581.1188 </r>
       <r>     3.9549    11.7241   581.7566 </r>
       <r>     4.0093    12.4728   582.4352 </r>
       <r>     4.0637    13.1114   583.1485 </r>
       <r>     4.1181    12.1423   583.8091 </r>
       <r>     4.1725    10.7845   584.3959 </r>
       <r>     4.2269    10.2793   584.9551 </r>
       <r>     4.2813     9.6034   585.4776 </r>
       <r>     4.3357     8.4313   585.9363 </r>
       <r>     4.3901     9.0939   586.4310 </r>
       <r>     4.4445    12.4798   587.1100 </r>
       <r>     4.4989    16.3930   588.0018 </r>
       <r>     4.5533    20.5321   589.1189 </r>
       <r>     4.6077    25.6221   590.5129 </r>
       <r>     4.6621    29.0588   592.0938 </r>
       <r>     4.7165    28.3621   593.6368 </r>
       <r>     4.7710    25.0632   595.0004 </r>
       <r>     4.8254    22.2062   596.2085 </r>
       <r>     4.8798    21.4922   597.3778 </r>
       <r>     4.9342    23.2246   598.6413 </r>
       <r>     4.9886    27.5543   600.1404 </r>
       <r>     5.0430    32.9193   601.9314 </r>
       <r>     5.0974    35.1052   603.8413 </r>
       <r>     5.1518    33.6727   605.6732 </r>
       <r>     5.2062    32.3942   607.4356 </r>
       <r>     5.2606    30.5169   609.0959 </r>
       <r>     5.3150    24.3772   610.4221 </r>
       <r>     5.3694    15.4300   611.2616 </r>
       <r>     5.4238     8.1579   611.7054 </r>
       <r>     5.4782     3.7460   611.9092 </r>
       <r>     5.5326     1.3202   611.9810 </r>
       <r>     5.5870     0.3035   611.9975 </r>
       <r>     5.6414     0.0417   611.9998 </r>
       <r>     5.6958     0.0033   612.0000 </r>
       <r>     5.7502     0.0001   612.0000 </r>
       <r>     5.8046     0.0000   612.0000 </r>
       <r>     5.8590     0.0000   612.0000 </r>
       <r>     5.9135     0.0000   612.0000 </r>
       <r>     5.9679     0.0000   612.0000 </r>
       <r>     6.0223     0.0000   612.0000 </r>
       <r>     6.0767     0.0000   612.0000 </r>
       <r>     6.1311     0.0000   612.0000 </r>
       <r>     6.1855     0.0000   612.0000 </r>
       <r>     6.2399     0.0000   612.0000 </r>
       <r>     6.2943     0.0000   612.0000 </r>
       <r>     6.3487     0.0000   612.0000 </r>
       <r>     6.4031     0.0000   612.0000 </r>
      </set>
     </set>
    </array>
   </total>
  </dos>
 </calculation>
 <structure name="finalpos" >
  <crystal>
   <varray name="basis" >
    <v>      11.00258152       0.00000000       0.00000000 </v>
    <v>       5.50129076       9.52851510       0.00000000 </v>
    <v>       0.00000000       0.00000000      24.49178509 </v>
   </varray>
   <i name="volume">   2567.67623402 </i>
   <varray name="rec_basis" >
    <v>       0.09088776      -0.05247407       0.00000000 </v>
    <v>       0.00000000       0.10494815       0.00000000 </v>
    <v>       0.00000000       0.00000000       0.04083002 </v>
   </varray>
  </crystal>
  <varray name="positions" >
   <v>       0.08333333       0.08333333       0.40830017 </v>
   <v>       0.08333333       0.58333333       0.40830017 </v>
   <v>      -0.00361651       0.75431651       0.61117225 </v>
   <v>       0.00005362       0.50030877       0.61044894 </v>
   <v>       0.91843663       0.41704436       0.50630981 </v>
   <v>       0.91469147       0.16466263       0.50784064 </v>
   <v>       0.33333333       0.33333333       0.40830017 </v>
   <v>       0.24910156       0.75288391       0.61828486 </v>
   <v>       0.25224040       0.24866585       0.61227664 </v>
   <v>       0.33333333       0.58333333       0.40830017 </v>
   <v>       0.16536900       0.66531296       0.51005588 </v>
   <v>       0.33333333       0.83333333       0.40830017 </v>
   <v>       0.16902063       0.16624097       0.50849392 </v>
   <v>       0.66821855       0.91717738       0.50928668 </v>
   <v>       0.41793471       0.16695388       0.50767361 </v>
   <v>       0.58333333       0.58333333       0.40830017 </v>
   <v>       0.41661725       0.66597090       0.51411263 </v>
   <v>       0.50021607       0.49717312       0.61487545 </v>
   <v>       0.58333333       0.83333333       0.40830017 </v>
   <v>       0.66591019       0.41363135       0.50804007 </v>
   <v>       0.66835824       0.66641356       0.51096803 </v>
   <v>       0.74989108       0.49939662       0.61531292 </v>
   <v>       0.83333333       0.83333333       0.40830017 </v>
   <v>       0.16622759       0.91488204       0.51066918 </v>
   <v>       0.16724927       0.41654025       0.50918867 </v>
   <v>       0.91773546       0.66640029       0.50944216 </v>
   <v>       0.25115573       0.49989422       0.60632391 </v>
   <v>       0.50162088       0.24882309       0.60446512 </v>
   <v>       0.58333333       0.08333333       0.40830017 </v>
   <v>       0.58333333       0.33333333       0.40830017 </v>
   <v>       0.50065021      -0.00110021       0.60623476 </v>
   <v>       0.08333333       0.83333333       0.40830017 </v>
   <v>      -0.00037198       0.24853040       0.60599477 </v>
   <v>       0.41795139       0.41528139       0.50867513 </v>
   <v>       0.49960827       0.75314311       0.60883246 </v>
   <v>       0.83333333       0.33333333       0.40830017 </v>
   <v>       0.83333333       0.08333333       0.40830017 </v>
   <v>       0.66652621       0.16604569       0.50568480 </v>
   <v>       0.74830985       0.00339062       0.60477468 </v>
   <v>       0.74985243       0.24777307       0.60541662 </v>
   <v>       0.83333333       0.58333333       0.40830017 </v>
   <v>       0.08333333       0.33333333       0.40830017 </v>
   <v>      -0.00194313       0.00292259       0.60661029 </v>
   <v>       0.25002039       0.00047286       0.60693839 </v>
   <v>       0.91577393       0.91616517       0.50773583 </v>
   <v>       0.41727383       0.91631277       0.50928165 </v>
   <v>       0.33333333       0.08333333       0.40830017 </v>
   <v>       0.74792406       0.75282382       0.60738134 </v>
  </varray>
  <varray name="selective"  type="logical" >
   <v type="logical" >  F  F  F </v>
   <v type="logical" >  F  F  F </v>
   <v type="logical" >  T  T  T </v>
   <v type="logical" >  T  T  T </v>
   <v type="logical" >  T  T  T </v>
   <v type="logical" >  T  T  T </v>
   <v type="logical" >  F  F  F </v>
   <v type="logical" >  T  T  T </v>
   <v type="logical" >  T  T  T </v>
   <v type="logical" >  F  F  F </v>
   <v type="logical" >  T  T  T </v>
   <v type="logical" >  F  F  F </v>
   <v type="logical" >  T  T  T </v>
   <v type="logical" >  T  T  T </v>
   <v type="logical" >  T  T  T </v>
   <v type="logical" >  F  F  F </v>
   <v type="logical" >  T  T  T </v>
   <v type="logical" >  T  T  T </v>
   <v type="logical" >  F  F  F </v>
   <v type="logical" >  T  T  T </v>
   <v type="logical" >  T  T  T </v>
   <v type="logical" >  T  T  T </v>
   <v type="logical" >  F  F  F </v>
   <v type="logical" >  T  T  T </v>
   <v type="logical" >  T  T  T </v>
   <v type="logical" >  T  T  T </v>
   <v type="logical" >  T  T  T </v>
   <v type="logical" >  T  T  T </v>
   <v type="logical" >  F  F  F </v>
   <v type="logical" >  F  F  F </v>
   <v type="logical" >  T  T  T </v>
   <v type="logical" >  F  F  F </v>
   <v type="logical" >  T  T  T </v>
   <v type="logical" >  T  T  T </v>
   <v type="logical" >  T  T  T </v>
   <v type="logical" >  F  F  F </v>
   <v type="logical" >  F  F  F </v>
   <v type="logical" >  T  T  T </v>
   <v type="logical" >  T  T  T </v>
   <v type="logical" >  T  T  T </v>
   <v type="logical" >  F  F  F </v>
   <v type="logical" >  F  F  F </v>
   <v type="logical" >  T  T  T </v>
   <v type="logical" >  T  T  T </v>
   <v type="logical" >  T  T  T </v>
   <v type="logical" >  T  T  T </v>
   <v type="logical" >  F  F  F </v>
   <v type="logical" >  T  T  T </v>
  </varray>
  <nose>
   <v>      -3.00000000       0.00000000       0.00010000       0.00010000 </v>
  </nose>
 </structure>
</modeling>
