  48  48   0   0
  0.5349325E+02  0.1100258E-08  0.1100258E-08  0.2449179E-08  0.3500000E-15
  1.000000000000000E-004
  CAR 
 unknown system                          
      6.38874012     -9.90667978  301     -1.08809725      1.00000000
     -9.907  0.0000E+00  0.0000E+00
     -9.852  0.0000E+00  0.0000E+00
     -9.798  0.0000E+00  0.0000E+00
     -9.744  0.0000E+00  0.0000E+00
     -9.689  0.0000E+00  0.0000E+00
     -9.635  0.0000E+00  0.0000E+00
     -9.581  0.0000E+00  0.0000E+00
     -9.526  0.0000E+00  0.0000E+00
     -9.472  0.1771E-16  0.9622E-18
     -9.418  0.6814E-14  0.3711E-15
     -9.363  0.1491E-11  0.8138E-13
     -9.309  0.1830E-09  0.1002E-10
     -9.255  0.1261E-07  0.6952E-09
     -9.201  0.4895E-06  0.2728E-07
     -9.146  0.1072E-04  0.6094E-06
     -9.092  0.1327E-03  0.7820E-05
     -9.038  0.9327E-03  0.5848E-04
     -8.983  0.3729E-02  0.2610E-03
     -8.929  0.8531E-02  0.7244E-03
     -8.875  0.1147E-01  0.1347E-02
     -8.820  0.1046E-01  0.1916E-02
     -8.766  0.9963E-02  0.2457E-02
     -8.712  0.1138E-01  0.3075E-02
     -8.657  0.9907E-02  0.3613E-02
     -8.603  0.5227E-02  0.3897E-02
     -8.549  0.1597E-02  0.3983E-02
     -8.494  0.3256E-03  0.4001E-02
     -8.440  0.4132E-03  0.4024E-02
     -8.386  0.1838E-02  0.4123E-02
     -8.331  0.5202E-02  0.4406E-02
     -8.277  0.8994E-02  0.4895E-02
     -8.223  0.9942E-02  0.5435E-02
     -8.169  0.8012E-02  0.5870E-02
     -8.114  0.7141E-02  0.6258E-02
     -8.060  0.9788E-02  0.6789E-02
     -8.006  0.1405E-01  0.7553E-02
     -7.951  0.1637E-01  0.8442E-02
     -7.897  0.1530E-01  0.9273E-02
     -7.843  0.1287E-01  0.9972E-02
     -7.788  0.1249E-01  0.1065E-01
     -7.734  0.1465E-01  0.1145E-01
     -7.680  0.1639E-01  0.1234E-01
     -7.625  0.1628E-01  0.1322E-01
     -7.571  0.1713E-01  0.1415E-01
     -7.517  0.1948E-01  0.1521E-01
     -7.462  0.1892E-01  0.1624E-01
     -7.408  0.1544E-01  0.1708E-01
     -7.354  0.1390E-01  0.1783E-01
     -7.299  0.1862E-01  0.1884E-01
     -7.245  0.3083E-01  0.2052E-01
     -7.191  0.4556E-01  0.2299E-01
     -7.136  0.5737E-01  0.2611E-01
     -7.082  0.6380E-01  0.2957E-01
     -7.028  0.6392E-01  0.3305E-01
     -6.974  0.6233E-01  0.3643E-01
     -6.919  0.6512E-01  0.3997E-01
     -6.865  0.7063E-01  0.4381E-01
     -6.811  0.7406E-01  0.4783E-01
     -6.756  0.7434E-01  0.5187E-01
     -6.702  0.7464E-01  0.5592E-01
     -6.648  0.7962E-01  0.6025E-01
     -6.593  0.9059E-01  0.6517E-01
     -6.539  0.1033E+00  0.7078E-01
     -6.485  0.1136E+00  0.7695E-01
     -6.430  0.1212E+00  0.8353E-01
     -6.376  0.1256E+00  0.9035E-01
     -6.322  0.1270E+00  0.9725E-01
     -6.267  0.1305E+00  0.1043E+00
     -6.213  0.1406E+00  0.1120E+00
     -6.159  0.1518E+00  0.1202E+00
     -6.104  0.1571E+00  0.1288E+00
     -6.050  0.1569E+00  0.1373E+00
     -5.996  0.1512E+00  0.1455E+00
     -5.941  0.1407E+00  0.1531E+00
     -5.887  0.1313E+00  0.1603E+00
     -5.833  0.1293E+00  0.1673E+00
     -5.779  0.1334E+00  0.1745E+00
     -5.724  0.1345E+00  0.1818E+00
     -5.670  0.1312E+00  0.1890E+00
     -5.616  0.1301E+00  0.1960E+00
     -5.561  0.1317E+00  0.2032E+00
     -5.507  0.1347E+00  0.2105E+00
     -5.453  0.1415E+00  0.2182E+00
     -5.398  0.1523E+00  0.2265E+00
     -5.344  0.1619E+00  0.2353E+00
     -5.290  0.1639E+00  0.2442E+00
     -5.235  0.1585E+00  0.2528E+00
     -5.181  0.1538E+00  0.2611E+00
     -5.127  0.1554E+00  0.2696E+00
     -5.072  0.1610E+00  0.2783E+00
     -5.018  0.1669E+00  0.2874E+00
     -4.964  0.1716E+00  0.2967E+00
     -4.909  0.1742E+00  0.3062E+00
     -4.855  0.1754E+00  0.3157E+00
     -4.801  0.1762E+00  0.3253E+00
     -4.746  0.1761E+00  0.3348E+00
     -4.692  0.1748E+00  0.3443E+00
     -4.638  0.1716E+00  0.3536E+00
     -4.584  0.1683E+00  0.3628E+00
     -4.529  0.1688E+00  0.3719E+00
     -4.475  0.1720E+00  0.3813E+00
     -4.421  0.1714E+00  0.3906E+00
     -4.366  0.1678E+00  0.3997E+00
     -4.312  0.1680E+00  0.4088E+00
     -4.258  0.1733E+00  0.4183E+00
     -4.203  0.1770E+00  0.4279E+00
     -4.149  0.1743E+00  0.4373E+00
     -4.095  0.1704E+00  0.4466E+00
     -4.040  0.1721E+00  0.4559E+00
     -3.986  0.1781E+00  0.4656E+00
     -3.932  0.1847E+00  0.4756E+00
     -3.877  0.1910E+00  0.4860E+00
     -3.823  0.1955E+00  0.4966E+00
     -3.769  0.1963E+00  0.5073E+00
     -3.714  0.1956E+00  0.5179E+00
     -3.660  0.1964E+00  0.5286E+00
     -3.606  0.1994E+00  0.5394E+00
     -3.551  0.2032E+00  0.5505E+00
     -3.497  0.2044E+00  0.5616E+00
     -3.443  0.2002E+00  0.5724E+00
     -3.389  0.1920E+00  0.5829E+00
     -3.334  0.1839E+00  0.5928E+00
     -3.280  0.1787E+00  0.6026E+00
     -3.226  0.1783E+00  0.6122E+00
     -3.171  0.1831E+00  0.6222E+00
     -3.117  0.1903E+00  0.6325E+00
     -3.063  0.1942E+00  0.6431E+00
     -3.008  0.1934E+00  0.6536E+00
     -2.954  0.1905E+00  0.6639E+00
     -2.900  0.1880E+00  0.6741E+00
     -2.845  0.1881E+00  0.6843E+00
     -2.791  0.1902E+00  0.6947E+00
     -2.737  0.1912E+00  0.7051E+00
     -2.682  0.1904E+00  0.7154E+00
     -2.628  0.1891E+00  0.7257E+00
     -2.574  0.1882E+00  0.7359E+00
     -2.519  0.1879E+00  0.7461E+00
     -2.465  0.1884E+00  0.7563E+00
     -2.411  0.1894E+00  0.7666E+00
     -2.356  0.1899E+00  0.7769E+00
     -2.302  0.1897E+00  0.7872E+00
     -2.248  0.1876E+00  0.7974E+00
     -2.194  0.1820E+00  0.8073E+00
     -2.139  0.1763E+00  0.8169E+00
     -2.085  0.1748E+00  0.8264E+00
     -2.031  0.1781E+00  0.8361E+00
     -1.976  0.1839E+00  0.8461E+00
     -1.922  0.1894E+00  0.8563E+00
     -1.868  0.1943E+00  0.8669E+00
     -1.813  0.1999E+00  0.8778E+00
     -1.759  0.2050E+00  0.8889E+00
     -1.705  0.2044E+00  0.9000E+00
     -1.650  0.1956E+00  0.9106E+00
     -1.596  0.1873E+00  0.9208E+00
     -1.542  0.1903E+00  0.9311E+00
     -1.487  0.1997E+00  0.9420E+00
     -1.433  0.2026E+00  0.9530E+00
     -1.379  0.1955E+00  0.9636E+00
     -1.324  0.1853E+00  0.9737E+00
     -1.270  0.1772E+00  0.9833E+00
     -1.216  0.1654E+00  0.9923E+00
     -1.161  0.1433E+00  0.1000E+01
     -1.107  0.1135E+00  0.1006E+01
     -1.053  0.8479E-01  0.1011E+01
     -0.999  0.6372E-01  0.1014E+01
     -0.944  0.4815E-01  0.1017E+01
     -0.890  0.3335E-01  0.1019E+01
     -0.836  0.2098E-01  0.1020E+01
     -0.781  0.1561E-01  0.1021E+01
     -0.727  0.1781E-01  0.1022E+01
     -0.673  0.2499E-01  0.1023E+01
     -0.618  0.3486E-01  0.1025E+01
     -0.564  0.4470E-01  0.1027E+01
     -0.510  0.4925E-01  0.1030E+01
     -0.455  0.4519E-01  0.1032E+01
     -0.401  0.3565E-01  0.1034E+01
     -0.347  0.2818E-01  0.1036E+01
     -0.292  0.2920E-01  0.1038E+01
     -0.238  0.3614E-01  0.1039E+01
     -0.184  0.3945E-01  0.1042E+01
     -0.129  0.3489E-01  0.1044E+01
     -0.075  0.2611E-01  0.1045E+01
     -0.021  0.1894E-01  0.1046E+01
      0.034  0.1729E-01  0.1047E+01
      0.088  0.2148E-01  0.1048E+01
      0.142  0.2893E-01  0.1050E+01
      0.196  0.3495E-01  0.1052E+01
      0.251  0.3616E-01  0.1054E+01
      0.305  0.3462E-01  0.1055E+01
      0.359  0.3494E-01  0.1057E+01
      0.414  0.3884E-01  0.1059E+01
      0.468  0.4376E-01  0.1062E+01
      0.522  0.4790E-01  0.1064E+01
      0.577  0.5049E-01  0.1067E+01
      0.631  0.4906E-01  0.1070E+01
      0.685  0.4402E-01  0.1072E+01
      0.740  0.3892E-01  0.1074E+01
      0.794  0.3374E-01  0.1076E+01
      0.848  0.2684E-01  0.1078E+01
      0.903  0.2270E-01  0.1079E+01
      0.957  0.2392E-01  0.1080E+01
      1.011  0.2523E-01  0.1081E+01
      1.066  0.2398E-01  0.1083E+01
      1.120  0.2167E-01  0.1084E+01
      1.174  0.1860E-01  0.1085E+01
      1.229  0.1550E-01  0.1086E+01
      1.283  0.1315E-01  0.1087E+01
      1.337  0.1091E-01  0.1087E+01
      1.391  0.8966E-02  0.1088E+01
      1.446  0.9980E-02  0.1088E+01
      1.500  0.1861E-01  0.1089E+01
      1.554  0.3343E-01  0.1091E+01
      1.609  0.4121E-01  0.1093E+01
      1.663  0.3498E-01  0.1095E+01
      1.717  0.2814E-01  0.1097E+01
      1.772  0.3272E-01  0.1098E+01
      1.826  0.3962E-01  0.1101E+01
      1.880  0.3631E-01  0.1103E+01
      1.935  0.2697E-01  0.1104E+01
      1.989  0.2170E-01  0.1105E+01
      2.043  0.2252E-01  0.1106E+01
      2.098  0.2747E-01  0.1108E+01
      2.152  0.3467E-01  0.1110E+01
      2.206  0.4030E-01  0.1112E+01
      2.261  0.4242E-01  0.1114E+01
      2.315  0.4189E-01  0.1117E+01
      2.369  0.3878E-01  0.1119E+01
      2.424  0.3525E-01  0.1121E+01
      2.478  0.3512E-01  0.1123E+01
      2.532  0.3931E-01  0.1125E+01
      2.586  0.4457E-01  0.1127E+01
      2.641  0.4647E-01  0.1130E+01
      2.695  0.4528E-01  0.1132E+01
      2.749  0.4242E-01  0.1134E+01
      2.804  0.3485E-01  0.1136E+01
      2.858  0.2271E-01  0.1137E+01
      2.912  0.1388E-01  0.1138E+01
      2.967  0.1214E-01  0.1139E+01
      3.021  0.1189E-01  0.1140E+01
      3.075  0.1087E-01  0.1140E+01
      3.130  0.1424E-01  0.1141E+01
      3.184  0.2239E-01  0.1142E+01
      3.238  0.2731E-01  0.1144E+01
      3.293  0.2330E-01  0.1145E+01
      3.347  0.1443E-01  0.1146E+01
      3.401  0.9272E-02  0.1146E+01
      3.456  0.1271E-01  0.1147E+01
      3.510  0.2316E-01  0.1148E+01
      3.564  0.3497E-01  0.1150E+01
      3.619  0.4370E-01  0.1152E+01
      3.673  0.4716E-01  0.1155E+01
      3.727  0.4345E-01  0.1157E+01
      3.781  0.3368E-01  0.1159E+01
      3.836  0.2523E-01  0.1160E+01
      3.890  0.2357E-01  0.1162E+01
      3.944  0.2490E-01  0.1163E+01
      3.999  0.2544E-01  0.1165E+01
      4.053  0.2558E-01  0.1166E+01
      4.107  0.2475E-01  0.1167E+01
      4.162  0.2322E-01  0.1168E+01
      4.216  0.2217E-01  0.1170E+01
      4.270  0.2050E-01  0.1171E+01
      4.325  0.1825E-01  0.1172E+01
      4.379  0.1971E-01  0.1173E+01
      4.433  0.2621E-01  0.1174E+01
      4.488  0.3396E-01  0.1176E+01
      4.542  0.4374E-01  0.1179E+01
      4.596  0.5478E-01  0.1181E+01
      4.651  0.5686E-01  0.1185E+01
      4.705  0.4655E-01  0.1187E+01
      4.759  0.3759E-01  0.1189E+01
      4.814  0.4075E-01  0.1191E+01
      4.868  0.4865E-01  0.1194E+01
      4.922  0.5346E-01  0.1197E+01
      4.976  0.5905E-01  0.1200E+01
      5.031  0.6670E-01  0.1204E+01
      5.085  0.7183E-01  0.1208E+01
      5.139  0.7103E-01  0.1212E+01
      5.194  0.6476E-01  0.1215E+01
      5.248  0.5653E-01  0.1218E+01
      5.302  0.4631E-01  0.1221E+01
      5.357  0.3269E-01  0.1222E+01
      5.411  0.1857E-01  0.1223E+01
      5.465  0.8049E-02  0.1224E+01
      5.520  0.2482E-02  0.1224E+01
      5.574  0.5046E-03  0.1224E+01
      5.628  0.6381E-04  0.1224E+01
      5.683  0.4832E-05  0.1224E+01
      5.737  0.2140E-06  0.1224E+01
      5.791  0.5460E-08  0.1224E+01
      5.846  0.7943E-10  0.1224E+01
      5.900  0.6542E-12  0.1224E+01
      5.954  0.3036E-14  0.1224E+01
      6.009  0.8176E-17  0.1224E+01
      6.063  0.0000E+00  0.1224E+01
      6.117  0.0000E+00  0.1224E+01
      6.171  0.0000E+00  0.1224E+01
      6.226  0.0000E+00  0.1224E+01
      6.280  0.0000E+00  0.1224E+01
      6.334  0.0000E+00  0.1224E+01
      6.389  0.0000E+00  0.1224E+01
