  48  48   0   0
  0.5349325E+02  0.1100258E-08  0.1100258E-08  0.2449179E-08  0.3500000E-15
  1.000000000000000E-004
  CAR 
 unknown system                          
      6.41397727     -9.73145677  301     -1.11494677      1.00000000
     -9.731  0.0000E+00  0.0000E+00
     -9.678  0.0000E+00  0.0000E+00
     -9.624  0.0000E+00  0.0000E+00
     -9.570  0.0000E+00  0.0000E+00
     -9.516  0.0000E+00  0.0000E+00
     -9.462  0.0000E+00  0.0000E+00
     -9.409  0.0000E+00  0.0000E+00
     -9.355  0.0000E+00  0.0000E+00
     -9.301  0.1169E-16  0.6291E-18
     -9.247  0.4554E-14  0.2457E-15
     -9.193  0.9931E-12  0.5369E-13
     -9.139  0.1227E-09  0.6655E-11
     -9.086  0.8594E-08  0.4692E-09
     -9.032  0.3423E-06  0.1889E-07
     -8.978  0.7768E-05  0.4369E-06
     -8.924  0.1007E-03  0.5855E-05
     -8.870  0.7470E-03  0.4606E-04
     -8.817  0.3180E-02  0.2172E-03
     -8.763  0.7788E-02  0.6364E-03
     -8.709  0.1103E-01  0.1230E-02
     -8.655  0.9380E-02  0.1735E-02
     -8.601  0.6488E-02  0.2084E-02
     -8.547  0.7653E-02  0.2496E-02
     -8.494  0.1075E-01  0.3074E-02
     -8.440  0.9896E-02  0.3607E-02
     -8.386  0.5328E-02  0.3894E-02
     -8.332  0.1704E-02  0.3985E-02
     -8.278  0.7345E-03  0.4025E-02
     -8.225  0.2223E-02  0.4144E-02
     -8.171  0.6356E-02  0.4487E-02
     -8.117  0.1101E-01  0.5079E-02
     -8.063  0.1297E-01  0.5777E-02
     -8.009  0.1482E-01  0.6574E-02
     -7.955  0.1934E-01  0.7615E-02
     -7.902  0.2076E-01  0.8733E-02
     -7.848  0.1519E-01  0.9550E-02
     -7.794  0.8844E-02  0.1003E-01
     -7.740  0.8001E-02  0.1046E-01
     -7.686  0.1092E-01  0.1104E-01
     -7.633  0.1266E-01  0.1173E-01
     -7.579  0.1281E-01  0.1242E-01
     -7.525  0.1380E-01  0.1316E-01
     -7.471  0.1602E-01  0.1402E-01
     -7.417  0.1880E-01  0.1503E-01
     -7.363  0.2091E-01  0.1616E-01
     -7.310  0.2094E-01  0.1728E-01
     -7.256  0.2028E-01  0.1838E-01
     -7.202  0.2215E-01  0.1957E-01
     -7.148  0.2854E-01  0.2110E-01
     -7.094  0.3758E-01  0.2313E-01
     -7.041  0.4315E-01  0.2545E-01
     -6.987  0.4435E-01  0.2784E-01
     -6.933  0.4968E-01  0.3051E-01
     -6.879  0.6382E-01  0.3394E-01
     -6.825  0.7935E-01  0.3821E-01
     -6.771  0.8733E-01  0.4291E-01
     -6.718  0.8878E-01  0.4769E-01
     -6.664  0.9052E-01  0.5256E-01
     -6.610  0.9466E-01  0.5766E-01
     -6.556  0.9782E-01  0.6292E-01
     -6.502  0.9876E-01  0.6824E-01
     -6.449  0.1000E+00  0.7362E-01
     -6.395  0.1044E+00  0.7924E-01
     -6.341  0.1149E+00  0.8542E-01
     -6.287  0.1314E+00  0.9249E-01
     -6.233  0.1473E+00  0.1004E+00
     -6.179  0.1589E+00  0.1090E+00
     -6.126  0.1684E+00  0.1180E+00
     -6.072  0.1755E+00  0.1275E+00
     -6.018  0.1788E+00  0.1371E+00
     -5.964  0.1793E+00  0.1468E+00
     -5.910  0.1755E+00  0.1562E+00
     -5.857  0.1664E+00  0.1652E+00
     -5.803  0.1567E+00  0.1736E+00
     -5.749  0.1485E+00  0.1816E+00
     -5.695  0.1395E+00  0.1891E+00
     -5.641  0.1312E+00  0.1961E+00
     -5.587  0.1259E+00  0.2029E+00
     -5.534  0.1235E+00  0.2096E+00
     -5.480  0.1233E+00  0.2162E+00
     -5.426  0.1253E+00  0.2230E+00
     -5.372  0.1308E+00  0.2300E+00
     -5.318  0.1394E+00  0.2375E+00
     -5.265  0.1486E+00  0.2455E+00
     -5.211  0.1566E+00  0.2539E+00
     -5.157  0.1628E+00  0.2627E+00
     -5.103  0.1657E+00  0.2716E+00
     -5.049  0.1669E+00  0.2806E+00
     -4.995  0.1717E+00  0.2898E+00
     -4.942  0.1807E+00  0.2995E+00
     -4.888  0.1871E+00  0.3096E+00
     -4.834  0.1854E+00  0.3196E+00
     -4.780  0.1770E+00  0.3291E+00
     -4.726  0.1689E+00  0.3382E+00
     -4.673  0.1655E+00  0.3471E+00
     -4.619  0.1650E+00  0.3560E+00
     -4.565  0.1660E+00  0.3649E+00
     -4.511  0.1693E+00  0.3740E+00
     -4.457  0.1734E+00  0.3834E+00
     -4.403  0.1737E+00  0.3927E+00
     -4.350  0.1700E+00  0.4019E+00
     -4.296  0.1676E+00  0.4109E+00
     -4.242  0.1687E+00  0.4200E+00
     -4.188  0.1727E+00  0.4293E+00
     -4.134  0.1796E+00  0.4389E+00
     -4.081  0.1864E+00  0.4490E+00
     -4.027  0.1870E+00  0.4590E+00
     -3.973  0.1821E+00  0.4688E+00
     -3.919  0.1800E+00  0.4785E+00
     -3.865  0.1829E+00  0.4884E+00
     -3.811  0.1858E+00  0.4984E+00
     -3.758  0.1866E+00  0.5084E+00
     -3.704  0.1859E+00  0.5184E+00
     -3.650  0.1839E+00  0.5283E+00
     -3.596  0.1837E+00  0.5382E+00
     -3.542  0.1884E+00  0.5483E+00
     -3.489  0.1967E+00  0.5589E+00
     -3.435  0.2060E+00  0.5700E+00
     -3.381  0.2126E+00  0.5814E+00
     -3.327  0.2127E+00  0.5929E+00
     -3.273  0.2078E+00  0.6041E+00
     -3.219  0.2008E+00  0.6149E+00
     -3.166  0.1935E+00  0.6253E+00
     -3.112  0.1870E+00  0.6353E+00
     -3.058  0.1811E+00  0.6451E+00
     -3.004  0.1768E+00  0.6546E+00
     -2.950  0.1762E+00  0.6641E+00
     -2.897  0.1810E+00  0.6738E+00
     -2.843  0.1887E+00  0.6840E+00
     -2.789  0.1947E+00  0.6945E+00
     -2.735  0.1976E+00  0.7051E+00
     -2.681  0.1982E+00  0.7158E+00
     -2.627  0.1966E+00  0.7264E+00
     -2.574  0.1936E+00  0.7368E+00
     -2.520  0.1900E+00  0.7470E+00
     -2.466  0.1854E+00  0.7570E+00
     -2.412  0.1794E+00  0.7666E+00
     -2.358  0.1746E+00  0.7760E+00
     -2.305  0.1748E+00  0.7854E+00
     -2.251  0.1773E+00  0.7950E+00
     -2.197  0.1797E+00  0.8047E+00
     -2.143  0.1855E+00  0.8146E+00
     -2.089  0.1950E+00  0.8251E+00
     -2.035  0.2024E+00  0.8360E+00
     -1.982  0.2035E+00  0.8470E+00
     -1.928  0.1998E+00  0.8577E+00
     -1.874  0.1982E+00  0.8684E+00
     -1.820  0.2015E+00  0.8792E+00
     -1.766  0.2055E+00  0.8903E+00
     -1.713  0.2077E+00  0.9015E+00
     -1.659  0.2058E+00  0.9125E+00
     -1.605  0.1992E+00  0.9233E+00
     -1.551  0.1935E+00  0.9337E+00
     -1.497  0.1936E+00  0.9441E+00
     -1.443  0.1966E+00  0.9547E+00
     -1.390  0.1975E+00  0.9653E+00
     -1.336  0.1936E+00  0.9757E+00
     -1.282  0.1824E+00  0.9855E+00
     -1.228  0.1626E+00  0.9943E+00
     -1.174  0.1360E+00  0.1002E+01
     -1.121  0.1088E+00  0.1007E+01
     -1.067  0.8446E-01  0.1012E+01
     -1.013  0.6000E-01  0.1015E+01
     -0.959  0.3677E-01  0.1017E+01
     -0.905  0.2305E-01  0.1018E+01
     -0.851  0.2076E-01  0.1020E+01
     -0.798  0.2127E-01  0.1021E+01
     -0.744  0.1907E-01  0.1022E+01
     -0.690  0.1739E-01  0.1023E+01
     -0.636  0.1922E-01  0.1024E+01
     -0.582  0.2490E-01  0.1025E+01
     -0.529  0.3479E-01  0.1027E+01
     -0.475  0.4534E-01  0.1029E+01
     -0.421  0.4957E-01  0.1032E+01
     -0.367  0.4579E-01  0.1035E+01
     -0.313  0.4156E-01  0.1037E+01
     -0.259  0.4261E-01  0.1039E+01
     -0.206  0.4309E-01  0.1041E+01
     -0.152  0.3724E-01  0.1043E+01
     -0.098  0.2767E-01  0.1045E+01
     -0.044  0.1957E-01  0.1046E+01
      0.010  0.1723E-01  0.1047E+01
      0.063  0.2071E-01  0.1048E+01
      0.117  0.2671E-01  0.1049E+01
      0.171  0.3124E-01  0.1051E+01
      0.225  0.3132E-01  0.1053E+01
      0.279  0.3046E-01  0.1054E+01
      0.333  0.3439E-01  0.1056E+01
      0.386  0.4044E-01  0.1058E+01
      0.440  0.4241E-01  0.1061E+01
      0.494  0.4100E-01  0.1063E+01
      0.548  0.4052E-01  0.1065E+01
      0.602  0.4225E-01  0.1067E+01
      0.655  0.4566E-01  0.1070E+01
      0.709  0.4850E-01  0.1072E+01
      0.763  0.4720E-01  0.1075E+01
      0.817  0.4069E-01  0.1077E+01
      0.871  0.3169E-01  0.1079E+01
      0.925  0.2363E-01  0.1080E+01
      0.978  0.1783E-01  0.1081E+01
      1.032  0.1462E-01  0.1082E+01
      1.086  0.1474E-01  0.1083E+01
      1.140  0.1725E-01  0.1084E+01
      1.194  0.1855E-01  0.1085E+01
      1.247  0.1721E-01  0.1086E+01
      1.301  0.1533E-01  0.1086E+01
      1.355  0.1461E-01  0.1087E+01
      1.409  0.1653E-01  0.1088E+01
      1.463  0.2268E-01  0.1089E+01
      1.517  0.3048E-01  0.1091E+01
      1.570  0.3494E-01  0.1093E+01
      1.624  0.3452E-01  0.1095E+01
      1.678  0.3164E-01  0.1096E+01
      1.732  0.3064E-01  0.1098E+01
      1.786  0.3305E-01  0.1100E+01
      1.839  0.3403E-01  0.1102E+01
      1.893  0.2918E-01  0.1103E+01
      1.947  0.2202E-01  0.1104E+01
      2.001  0.1700E-01  0.1105E+01
      2.055  0.1467E-01  0.1106E+01
      2.109  0.1774E-01  0.1107E+01
      2.162  0.2786E-01  0.1108E+01
      2.216  0.4004E-01  0.1111E+01
      2.270  0.4754E-01  0.1113E+01
      2.324  0.4850E-01  0.1116E+01
      2.378  0.4766E-01  0.1118E+01
      2.431  0.4968E-01  0.1121E+01
      2.485  0.5133E-01  0.1124E+01
      2.539  0.4762E-01  0.1126E+01
      2.593  0.4223E-01  0.1129E+01
      2.647  0.4146E-01  0.1131E+01
      2.701  0.4272E-01  0.1133E+01
      2.754  0.3892E-01  0.1135E+01
      2.808  0.2887E-01  0.1137E+01
      2.862  0.1834E-01  0.1138E+01
      2.916  0.1339E-01  0.1139E+01
      2.970  0.1246E-01  0.1139E+01
      3.023  0.1029E-01  0.1140E+01
      3.077  0.8369E-02  0.1140E+01
      3.131  0.1083E-01  0.1141E+01
      3.185  0.1697E-01  0.1142E+01
      3.239  0.2386E-01  0.1143E+01
      3.293  0.2759E-01  0.1144E+01
      3.346  0.2509E-01  0.1146E+01
      3.400  0.1991E-01  0.1147E+01
      3.454  0.1829E-01  0.1148E+01
      3.508  0.2246E-01  0.1149E+01
      3.562  0.2944E-01  0.1151E+01
      3.615  0.3409E-01  0.1153E+01
      3.669  0.3679E-01  0.1154E+01
      3.723  0.3947E-01  0.1157E+01
      3.777  0.3735E-01  0.1159E+01
      3.831  0.2873E-01  0.1160E+01
      3.885  0.2049E-01  0.1161E+01
      3.938  0.1903E-01  0.1162E+01
      3.992  0.2573E-01  0.1164E+01
      4.046  0.3322E-01  0.1165E+01
      4.100  0.3200E-01  0.1167E+01
      4.154  0.2651E-01  0.1169E+01
      4.207  0.2431E-01  0.1170E+01
      4.261  0.2128E-01  0.1171E+01
      4.315  0.1570E-01  0.1172E+01
      4.369  0.1547E-01  0.1173E+01
      4.423  0.2278E-01  0.1174E+01
      4.477  0.3084E-01  0.1176E+01
      4.530  0.3743E-01  0.1178E+01
      4.584  0.4556E-01  0.1180E+01
      4.638  0.5326E-01  0.1183E+01
      4.692  0.5458E-01  0.1186E+01
      4.746  0.4972E-01  0.1189E+01
      4.799  0.4601E-01  0.1191E+01
      4.853  0.4748E-01  0.1194E+01
      4.907  0.5211E-01  0.1196E+01
      4.961  0.5772E-01  0.1200E+01
      5.015  0.6282E-01  0.1203E+01
      5.069  0.6492E-01  0.1206E+01
      5.122  0.6138E-01  0.1210E+01
      5.176  0.5609E-01  0.1213E+01
      5.230  0.5587E-01  0.1216E+01
      5.284  0.5534E-01  0.1219E+01
      5.338  0.4489E-01  0.1221E+01
      5.391  0.2872E-01  0.1223E+01
      5.445  0.1538E-01  0.1224E+01
      5.499  0.6688E-02  0.1224E+01
      5.553  0.2071E-02  0.1224E+01
      5.607  0.4113E-03  0.1224E+01
      5.661  0.4974E-04  0.1224E+01
      5.714  0.3576E-05  0.1224E+01
      5.768  0.1508E-06  0.1224E+01
      5.822  0.3693E-08  0.1224E+01
      5.876  0.5212E-10  0.1224E+01
      5.930  0.4214E-12  0.1224E+01
      5.983  0.1942E-14  0.1224E+01
      6.037  0.5501E-17  0.1224E+01
      6.091  0.0000E+00  0.1224E+01
      6.145  0.0000E+00  0.1224E+01
      6.199  0.0000E+00  0.1224E+01
      6.253  0.0000E+00  0.1224E+01
      6.306  0.0000E+00  0.1224E+01
      6.360  0.0000E+00  0.1224E+01
      6.414  0.0000E+00  0.1224E+01
