       N       E                     dE             d eps       ncg     rms          rms(c)
DAV:   1     0.320159100987E+04    0.32016E+04   -0.18981E+05  3672   0.112E+03
DAV:   2     0.152480176735E+02   -0.31863E+04   -0.29308E+04  4380   0.263E+02
DAV:   3    -0.199815124152E+03   -0.21506E+03   -0.19992E+03  4116   0.651E+01
DAV:   4    -0.205639952959E+03   -0.58248E+01   -0.57539E+01  4152   0.108E+01
DAV:   5    -0.205840643423E+03   -0.20069E+00   -0.19998E+00  4428   0.204E+00    0.625E+01
RMM:   6    -0.197106857769E+03    0.87338E+01   -0.88461E+01  3678   0.149E+01    0.518E+01
RMM:   7    -0.204750976477E+03   -0.76441E+01   -0.53883E+01  3684   0.123E+01    0.384E+01
RMM:   8    -0.225180750816E+03   -0.20430E+02   -0.74739E+01  3675   0.131E+01    0.436E+01
RMM:   9    -0.205482008750E+03    0.19699E+02   -0.42336E+01  3679   0.992E+00    0.312E+01
RMM:  10    -0.193681211537E+03    0.11801E+02   -0.17063E+01  3684   0.681E+00    0.161E+01
RMM:  11    -0.189605599742E+03    0.40756E+01   -0.84551E+00  3679   0.457E+00    0.821E+00
RMM:  12    -0.188797326535E+03    0.80827E+00   -0.28722E+00  3679   0.257E+00    0.710E+00
RMM:  13    -0.188854568616E+03   -0.57242E-01   -0.12486E+00  3681   0.181E+00    0.545E+00
RMM:  14    -0.188854263429E+03    0.30519E-03   -0.42534E-01  3683   0.104E+00    0.546E+00
RMM:  15    -0.188675180502E+03    0.17908E+00   -0.20831E-01  3680   0.724E-01    0.359E+00
RMM:  16    -0.188529951706E+03    0.14523E+00   -0.14119E-01  3680   0.573E-01    0.192E+00
RMM:  17    -0.188493632893E+03    0.36319E-01   -0.58392E-02  3683   0.357E-01    0.123E+00
RMM:  18    -0.188478329727E+03    0.15303E-01   -0.17360E-02  3682   0.193E-01    0.656E-01
RMM:  19    -0.188477690693E+03    0.63903E-03   -0.67152E-03  3681   0.124E-01    0.611E-01
RMM:  20    -0.188474265555E+03    0.34251E-02   -0.34216E-03  3681   0.872E-02    0.352E-01
RMM:  21    -0.188473417465E+03    0.84809E-03   -0.14356E-03  3682   0.565E-02    0.249E-01
RMM:  22    -0.188472927974E+03    0.48949E-03   -0.75220E-04  3682   0.400E-02    0.150E-01
RMM:  23    -0.188472865616E+03    0.62358E-04   -0.31584E-04  3685   0.260E-02    0.797E-02
RMM:  24    -0.188473128186E+03   -0.26257E-03   -0.16299E-04  3683   0.184E-02    0.509E-02
RMM:  25    -0.188473557844E+03   -0.42966E-03   -0.10781E-04  3678   0.143E-02    0.547E-02
RMM:  26    -0.188473992259E+03   -0.43441E-03   -0.48385E-05  3673   0.103E-02    0.287E-02
RMM:  27    -0.188474661299E+03   -0.66904E-03   -0.59102E-05  3678   0.102E-02    0.413E-02
RMM:  28    -0.188475264187E+03   -0.60289E-03   -0.37118E-05  3672   0.878E-03    0.230E-02
RMM:  29    -0.188475715558E+03   -0.45137E-03   -0.25761E-05  3595   0.710E-03    0.177E-02
RMM:  30    -0.188476192237E+03   -0.47668E-03   -0.25127E-05  3394   0.677E-03    0.121E-02
RMM:  31    -0.188476466930E+03   -0.27469E-03   -0.17323E-05  3125   0.534E-03    0.928E-03
RMM:  32    -0.188476563369E+03   -0.96438E-04   -0.47201E-06  2658   0.284E-03    0.597E-03
RMM:  33    -0.188476671702E+03   -0.10833E-03   -0.26133E-06  2435   0.229E-03    0.350E-03
RMM:  34    -0.188476718093E+03   -0.46391E-04   -0.11381E-06  2185   0.154E-03    0.342E-03
RMM:  35    -0.188476753925E+03   -0.35832E-04   -0.69503E-07  2149   0.123E-03    0.131E-03
RMM:  36    -0.188476775651E+03   -0.21727E-04   -0.43863E-07  2127   0.969E-04    0.131E-03
RMM:  37    -0.188476784329E+03   -0.86780E-05   -0.27171E-07  1718   0.695E-04    0.918E-04
RMM:  38    -0.188476786308E+03   -0.19783E-05   -0.84776E-08  1110   0.435E-04    0.644E-04
RMM:  39    -0.188476786908E+03   -0.60016E-06   -0.19240E-08   752   0.379E-04
   1 F= -.18847679E+03 E0= -.18834396E+03  d E =-.188477E+03
       N       E                     dE             d eps       ncg     rms          rms(c)
DAV:   1    -0.189589541468E+03   -0.11128E+01   -0.38279E+02  3684   0.300E+01    0.377E+00
RMM:   2    -0.189978932369E+03   -0.38939E+00   -0.40451E+00  3680   0.434E+00    0.220E+00
RMM:   3    -0.190036905546E+03   -0.57973E-01   -0.30909E-01  3708   0.978E-01    0.315E+00
RMM:   4    -0.189967437825E+03    0.69468E-01   -0.13077E-01  3687   0.610E-01    0.135E+00
RMM:   5    -0.189993655779E+03   -0.26218E-01   -0.59446E-02  3687   0.391E-01    0.191E+00
RMM:   6    -0.189968672874E+03    0.24983E-01   -0.34024E-02  3685   0.281E-01    0.123E+00
RMM:   7    -0.189955330801E+03    0.13342E-01   -0.13570E-02  3686   0.179E-01    0.546E-01
RMM:   8    -0.189952547685E+03    0.27831E-02   -0.48175E-03  3685   0.109E-01    0.270E-01
RMM:   9    -0.189951988665E+03    0.55902E-03   -0.18767E-03  3687   0.685E-02    0.178E-01
RMM:  10    -0.189951821590E+03    0.16708E-03   -0.69031E-04  3685   0.412E-02    0.141E-01
RMM:  11    -0.189951670182E+03    0.15141E-03   -0.20393E-04  3690   0.230E-02    0.593E-02
RMM:  12    -0.189951664728E+03    0.54548E-05   -0.53118E-05  3679   0.118E-02    0.453E-02
RMM:  13    -0.189951653203E+03    0.11525E-04   -0.28003E-05  3678   0.872E-03    0.250E-02
RMM:  14    -0.189951650410E+03    0.27928E-05   -0.12476E-05  3670   0.581E-03    0.131E-02
RMM:  15    -0.189951649718E+03    0.69251E-06   -0.33982E-06  2664   0.300E-03
   2 F= -.18995165E+03 E0= -.18982153E+03  d E =-.147486E+01
       N       E                     dE             d eps       ncg     rms          rms(c)
DAV:   1    -0.188477766059E+03    0.14739E+01   -0.35918E+03  3672   0.944E+01    0.900E+00
RMM:   2    -0.191903919286E+03   -0.34262E+01   -0.35555E+01  3681   0.130E+01    0.527E+00
RMM:   3    -0.192273654704E+03   -0.36974E+00   -0.21275E+00  3713   0.255E+00    0.874E+00
RMM:   4    -0.191760228017E+03    0.51343E+00   -0.70534E-01  3686   0.142E+00    0.381E+00
RMM:   5    -0.191989405631E+03   -0.22918E+00   -0.57366E-01  3687   0.119E+00    0.574E+00
RMM:   6    -0.191871159314E+03    0.11825E+00   -0.41151E-01  3684   0.985E-01    0.420E+00
RMM:   7    -0.191718859756E+03    0.15230E+00   -0.16993E-01  3685   0.626E-01    0.252E+00
RMM:   8    -0.191659571070E+03    0.59289E-01   -0.68825E-02  3685   0.411E-01    0.110E+00
RMM:   9    -0.191644050241E+03    0.15521E-01   -0.26015E-02  3684   0.254E-01    0.405E-01
RMM:  10    -0.191643157104E+03    0.89314E-03   -0.54038E-03  3686   0.112E-01    0.303E-01
RMM:  11    -0.191642683160E+03    0.47394E-03   -0.17467E-03  3685   0.658E-02    0.212E-01
RMM:  12    -0.191642527900E+03    0.15526E-03   -0.62906E-04  3687   0.419E-02    0.129E-01
RMM:  13    -0.191642457159E+03    0.70741E-04   -0.33866E-04  3684   0.294E-02    0.752E-02
RMM:  14    -0.191642413633E+03    0.43527E-04   -0.10436E-04  3679   0.165E-02    0.285E-02
RMM:  15    -0.191642416431E+03   -0.27984E-05   -0.23299E-05  3679   0.760E-03    0.198E-02
RMM:  16    -0.191642419405E+03   -0.29743E-05   -0.62862E-06  3093   0.409E-03    0.108E-02
RMM:  17    -0.191642424530E+03   -0.51242E-05   -0.29951E-06  2504   0.286E-03    0.951E-03
RMM:  18    -0.191642431061E+03   -0.65318E-05   -0.12913E-06  2123   0.207E-03    0.418E-03
RMM:  19    -0.191642433914E+03   -0.28531E-05   -0.46491E-07  2023   0.119E-03    0.211E-03
RMM:  20    -0.191642438166E+03   -0.42518E-05   -0.15950E-07  1674   0.645E-04    0.107E-03
RMM:  21    -0.191642441775E+03   -0.36088E-05   -0.93020E-08  1168   0.496E-04    0.944E-04
RMM:  22    -0.191642447097E+03   -0.53222E-05   -0.17010E-07  1731   0.551E-04    0.717E-04
RMM:  23    -0.191642451383E+03   -0.42860E-05   -0.16864E-07  1413   0.515E-04    0.753E-04
RMM:  24    -0.191642454027E+03   -0.26436E-05   -0.15148E-07  1396   0.485E-04    0.426E-04
RMM:  25    -0.191642455628E+03   -0.16014E-05   -0.86112E-08   949   0.434E-04    0.444E-04
RMM:  26    -0.191642456304E+03   -0.67589E-06   -0.64950E-08  1024   0.436E-04
   3 F= -.19164246E+03 E0= -.19152189E+03  d E =-.316567E+01
       N       E                     dE             d eps       ncg     rms          rms(c)
DAV:   1    -0.191795854670E+03   -0.15340E+00   -0.31442E+02  3672   0.275E+01    0.240E+00
RMM:   2    -0.192129027401E+03   -0.33317E+00   -0.35729E+00  3686   0.402E+00    0.140E+00
RMM:   3    -0.192148416845E+03   -0.19389E-01   -0.19885E-01  3716   0.790E-01    0.188E+00
RMM:   4    -0.192128615104E+03    0.19802E-01   -0.49928E-02  3685   0.382E-01    0.125E+00
RMM:   5    -0.192173784106E+03   -0.45169E-01   -0.42802E-02  3686   0.308E-01    0.240E+00
RMM:   6    -0.192120602439E+03    0.53182E-01   -0.41118E-02  3684   0.313E-01    0.782E-01
RMM:   7    -0.192114657828E+03    0.59446E-02   -0.14109E-02  3682   0.189E-01    0.299E-01
RMM:   8    -0.192113554812E+03    0.11030E-02   -0.29330E-03  3684   0.863E-02    0.205E-01
RMM:   9    -0.192113094426E+03    0.46039E-03   -0.90246E-04  3683   0.482E-02    0.108E-01
RMM:  10    -0.192113017253E+03    0.77173E-04   -0.22475E-04  3687   0.230E-02    0.611E-02
RMM:  11    -0.192112986200E+03    0.31053E-04   -0.95822E-05  3685   0.153E-02    0.356E-02
RMM:  12    -0.192112985557E+03    0.64351E-06   -0.44614E-05  3681   0.106E-02    0.274E-02
RMM:  13    -0.192112982465E+03    0.30915E-05   -0.15604E-05  3672   0.639E-03    0.158E-02
RMM:  14    -0.192112981778E+03    0.68733E-06   -0.41027E-06  2803   0.344E-03
   4 F= -.19211298E+03 E0= -.19199533E+03  d E =-.470525E+00
       N       E                     dE             d eps       ncg     rms          rms(c)
DAV:   1    -0.192100015183E+03    0.12967E-01   -0.53608E+01  3708   0.113E+01    0.906E-01
RMM:   2    -0.192157635907E+03   -0.57621E-01   -0.61886E-01  3686   0.167E+00    0.554E-01
RMM:   3    -0.192162387406E+03   -0.47515E-02   -0.36941E-02  3716   0.339E-01    0.858E-01
RMM:   4    -0.192157173248E+03    0.52142E-02   -0.80116E-03  3685   0.154E-01    0.486E-01
RMM:   5    -0.192161089404E+03   -0.39162E-02   -0.48986E-03  3687   0.105E-01    0.783E-01
RMM:   6    -0.192156117272E+03    0.49721E-02   -0.71100E-03  3684   0.131E-01    0.344E-01
RMM:   7    -0.192155139659E+03    0.97761E-03   -0.28026E-03  3684   0.843E-02    0.148E-01
RMM:   8    -0.192155041819E+03    0.97839E-04   -0.62671E-04  3685   0.403E-02    0.140E-01
RMM:   9    -0.192154803795E+03    0.23802E-03   -0.27053E-04  3682   0.263E-02    0.423E-02
RMM:  10    -0.192154789614E+03    0.14181E-04   -0.63787E-05  3681   0.123E-02    0.259E-02
RMM:  11    -0.192154783593E+03    0.60214E-05   -0.18490E-05  3673   0.657E-03    0.128E-02
RMM:  12    -0.192154785019E+03   -0.14260E-05   -0.10604E-05  3678   0.503E-03    0.116E-02
RMM:  13    -0.192154785256E+03   -0.23732E-06   -0.28911E-06  2410   0.287E-03
   5 F= -.19215479E+03 E0= -.19203840E+03  d E =-.512329E+00
       N       E                     dE             d eps       ncg     rms          rms(c)
DAV:   1    -0.192167133206E+03   -0.12348E-01   -0.32838E+01  3684   0.884E+00    0.705E-01
RMM:   2    -0.192201721837E+03   -0.34589E-01   -0.36596E-01  3686   0.129E+00    0.453E-01
RMM:   3    -0.192205850925E+03   -0.41291E-02   -0.23182E-02  3717   0.268E-01    0.773E-01
RMM:   4    -0.192201992520E+03    0.38584E-02   -0.53104E-03  3685   0.123E-01    0.480E-01
RMM:   5    -0.192201772558E+03    0.21996E-03   -0.27690E-03  3686   0.803E-02    0.463E-01
RMM:   6    -0.192200656069E+03    0.11165E-02   -0.44227E-03  3683   0.105E-01    0.296E-01
RMM:   7    -0.192199932150E+03    0.72392E-03   -0.18486E-03  3682   0.684E-02    0.133E-01
RMM:   8    -0.192199816455E+03    0.11569E-03   -0.42003E-04  3686   0.333E-02    0.101E-01
RMM:   9    -0.192199692966E+03    0.12349E-03   -0.17910E-04  3682   0.212E-02    0.389E-02
RMM:  10    -0.192199674864E+03    0.18101E-04   -0.59591E-05  3681   0.119E-02    0.215E-02
RMM:  11    -0.192199669993E+03    0.48710E-05   -0.14606E-05  3672   0.587E-03    0.982E-03
RMM:  12    -0.192199670237E+03   -0.24332E-06   -0.63297E-06  3646   0.388E-03
   6 F= -.19219967E+03 E0= -.19208400E+03  d E =-.448850E-01
       N       E                     dE             d eps       ncg     rms          rms(c)
DAV:   1    -0.192198691336E+03    0.97866E-03   -0.50478E+00  3744   0.346E+00    0.270E-01
RMM:   2    -0.192204016345E+03   -0.53250E-02   -0.56432E-02  3684   0.508E-01    0.180E-01
RMM:   3    -0.192204593385E+03   -0.57704E-03   -0.36414E-03  3717   0.106E-01    0.294E-01
RMM:   4    -0.192203994387E+03    0.59900E-03   -0.80521E-04  3687   0.482E-02    0.176E-01
RMM:   5    -0.192204045254E+03   -0.50866E-04   -0.40382E-04  3686   0.305E-02    0.190E-01
RMM:   6    -0.192203841330E+03    0.20392E-03   -0.67760E-04  3683   0.410E-02    0.116E-01
RMM:   7    -0.192203735058E+03    0.10627E-03   -0.29404E-04  3682   0.273E-02    0.535E-02
RMM:   8    -0.192203716727E+03    0.18331E-04   -0.64594E-05  3684   0.131E-02    0.388E-02
RMM:   9    -0.192203698974E+03    0.17752E-04   -0.27347E-05  3675   0.827E-03    0.159E-02
RMM:  10    -0.192203695481E+03    0.34937E-05   -0.98494E-06  3672   0.483E-03    0.779E-03
RMM:  11    -0.192203694862E+03    0.61831E-06   -0.21563E-06  2135   0.239E-03
   7 F= -.19220369E+03 E0= -.19208831E+03  d E =-.489096E-01
       N       E                     dE             d eps       ncg     rms          rms(c)
DAV:   1    -0.192207546874E+03   -0.38514E-02   -0.89265E+00  3684   0.458E+00    0.292E-01
RMM:   2    -0.192216727798E+03   -0.91809E-02   -0.97143E-02  3684   0.670E-01    0.225E-01
RMM:   3    -0.192216847401E+03   -0.11960E-03   -0.54437E-03  3727   0.134E-01    0.211E-01
RMM:   4    -0.192216805990E+03    0.41411E-04   -0.10481E-03  3676   0.550E-02    0.237E-01
RMM:   5    -0.192216957391E+03   -0.15140E-03   -0.72982E-04  3687   0.406E-02    0.273E-01
RMM:   6    -0.192216284207E+03    0.67318E-03   -0.12020E-03  3684   0.541E-02    0.110E-01
RMM:   7    -0.192216275451E+03    0.87551E-05   -0.43813E-04  3684   0.333E-02    0.796E-02
RMM:   8    -0.192216216162E+03    0.59289E-04   -0.90899E-05  3687   0.155E-02    0.410E-02
RMM:   9    -0.192216198164E+03    0.17998E-04   -0.40590E-05  3672   0.101E-02    0.296E-02
RMM:  10    -0.192216184836E+03    0.13328E-04   -0.28663E-05  3681   0.818E-03    0.150E-02
RMM:  11    -0.192216182852E+03    0.19841E-05   -0.80032E-06  3650   0.431E-03    0.815E-03
RMM:  12    -0.192216182410E+03    0.44200E-06   -0.34066E-06  2236   0.296E-03
   8 F= -.19221618E+03 E0= -.19210109E+03  d E =-.124875E-01
       N       E                     dE             d eps       ncg     rms          rms(c)
DAV:   1    -0.192214199613E+03    0.19832E-02   -0.51569E+00  3696   0.348E+00    0.219E-01
RMM:   2    -0.192219498855E+03   -0.52992E-02   -0.56104E-02  3684   0.510E-01    0.171E-01
RMM:   3    -0.192219563927E+03   -0.65072E-04   -0.31479E-03  3728   0.101E-01    0.161E-01
RMM:   4    -0.192219519683E+03    0.44244E-04   -0.58540E-04  3677   0.412E-02    0.175E-01
RMM:   5    -0.192219630352E+03   -0.11067E-03   -0.41362E-04  3687   0.306E-02    0.209E-01
RMM:   6    -0.192219255754E+03    0.37460E-03   -0.69788E-04  3684   0.413E-02    0.965E-02
RMM:   7    -0.192219240082E+03    0.15671E-04   -0.28219E-04  3684   0.266E-02    0.668E-02
RMM:   8    -0.192219201880E+03    0.38203E-04   -0.59808E-05  3687   0.126E-02    0.310E-02
RMM:   9    -0.192219191454E+03    0.10426E-04   -0.23827E-05  3672   0.776E-03    0.233E-02
RMM:  10    -0.192219183398E+03    0.80558E-05   -0.17160E-05  3675   0.635E-03    0.126E-02
RMM:  11    -0.192219181765E+03    0.16332E-05   -0.51548E-06  3139   0.352E-03    0.619E-03
RMM:  12    -0.192219181551E+03    0.21383E-06   -0.24344E-06  2035   0.259E-03
   9 F= -.19221918E+03 E0= -.19210429E+03  d E =-.154867E-01
       N       E                     dE             d eps       ncg     rms          rms(c)
DAV:   1    -0.192218597453E+03    0.58431E-03   -0.11476E+01  3672   0.519E+00    0.269E-01
RMM:   2    -0.192230801217E+03   -0.12204E-01   -0.12383E-01  3684   0.763E-01    0.320E-01
RMM:   3    -0.192230735893E+03    0.65324E-04   -0.77342E-03  3789   0.158E-01    0.256E-01
RMM:   4    -0.192230378767E+03    0.35713E-03   -0.87018E-04  3674   0.509E-02    0.228E-01
RMM:   5    -0.192230640117E+03   -0.26135E-03   -0.60425E-04  3690   0.377E-02    0.300E-01
RMM:   6    -0.192230010781E+03    0.62934E-03   -0.12573E-03  3684   0.541E-02    0.206E-01
RMM:   7    -0.192229809024E+03    0.20176E-03   -0.15885E-03  3683   0.619E-02    0.113E-01
RMM:   8    -0.192229765722E+03    0.43302E-04   -0.32923E-04  3683   0.289E-02    0.700E-02
RMM:   9    -0.192229727133E+03    0.38588E-04   -0.51587E-05  3680   0.117E-02    0.530E-02
RMM:  10    -0.192229680846E+03    0.46287E-04   -0.70434E-05  3681   0.128E-02    0.296E-02
RMM:  11    -0.192229668836E+03    0.12010E-04   -0.33536E-05  3676   0.865E-03    0.161E-02
RMM:  12    -0.192229665701E+03    0.31352E-05   -0.34187E-05  3682   0.861E-03    0.681E-03
RMM:  13    -0.192229665831E+03   -0.12993E-06   -0.30949E-06  2246   0.296E-03
  10 F= -.19222967E+03 E0= -.19211462E+03  d E =-.104843E-01
       N       E                     dE             d eps       ncg     rms          rms(c)
DAV:   1    -0.192215180172E+03    0.14486E-01   -0.20685E+01  3672   0.696E+00    0.358E-01
RMM:   2    -0.192237186499E+03   -0.22006E-01   -0.22276E-01  3684   0.102E+00    0.426E-01
RMM:   3    -0.192237086214E+03    0.10028E-03   -0.13862E-02  3780   0.212E-01    0.342E-01
RMM:   4    -0.192236446099E+03    0.64011E-03   -0.15441E-03  3674   0.680E-02    0.306E-01
RMM:   5    -0.192236823454E+03   -0.37735E-03   -0.10317E-03  3689   0.494E-02    0.392E-01
RMM:   6    -0.192235733299E+03    0.10902E-02   -0.22842E-03  3684   0.730E-02    0.274E-01
RMM:   7    -0.192235358635E+03    0.37466E-03   -0.28674E-03  3684   0.831E-02    0.151E-01
RMM:   8    -0.192235280820E+03    0.77815E-04   -0.58949E-04  3683   0.386E-02    0.941E-02
RMM:   9    -0.192235210578E+03    0.70242E-04   -0.92996E-05  3683   0.157E-02    0.712E-02
RMM:  10    -0.192235127702E+03    0.82875E-04   -0.12620E-04  3684   0.171E-02    0.402E-02
RMM:  11    -0.192235105794E+03    0.21909E-04   -0.60869E-05  3680   0.116E-02    0.217E-02
RMM:  12    -0.192235099732E+03    0.60614E-05   -0.63005E-05  3684   0.117E-02    0.927E-03
RMM:  13    -0.192235099999E+03   -0.26716E-06   -0.64412E-06  3342   0.399E-03
  11 F= -.19223510E+03 E0= -.19211984E+03  d E =-.159184E-01
       N       E                     dE             d eps       ncg     rms          rms(c)
DAV:   1    -0.192225617962E+03    0.94818E-02   -0.16831E+01  3672   0.633E+00    0.313E-01
RMM:   2    -0.192243886851E+03   -0.18269E-01   -0.18698E-01  3684   0.931E-01    0.363E-01
RMM:   3    -0.192243842730E+03    0.44121E-04   -0.11625E-02  3739   0.192E-01    0.312E-01
RMM:   4    -0.192243065438E+03    0.77729E-03   -0.12450E-03  3677   0.623E-02    0.222E-01
RMM:   5    -0.192243269162E+03   -0.20372E-03   -0.62692E-04  3690   0.395E-02    0.295E-01
RMM:   6    -0.192242849576E+03    0.41959E-03   -0.11475E-03  3684   0.511E-02    0.252E-01
RMM:   7    -0.192242390096E+03    0.45948E-03   -0.21909E-03  3680   0.719E-02    0.126E-01
RMM:   8    -0.192242375421E+03    0.14675E-04   -0.51705E-04  3680   0.358E-02    0.808E-02
RMM:   9    -0.192242325150E+03    0.50271E-04   -0.72709E-05  3687   0.140E-02    0.573E-02
RMM:  10    -0.192242276443E+03    0.48707E-04   -0.65969E-05  3678   0.124E-02    0.354E-02
RMM:  11    -0.192242259378E+03    0.17065E-04   -0.42936E-05  3680   0.985E-03    0.194E-02
RMM:  12    -0.192242255424E+03    0.39538E-05   -0.46244E-05  3679   0.100E-02    0.912E-03
RMM:  13    -0.192242255701E+03   -0.27613E-06   -0.58710E-06  3170   0.381E-03
  12 F= -.19224226E+03 E0= -.19212642E+03  d E =-.715570E-02
       N       E                     dE             d eps       ncg     rms          rms(c)
DAV:   1    -0.192241734479E+03    0.52095E-03   -0.83245E-01  3744   0.141E+00    0.690E-02
RMM:   2    -0.192242624638E+03   -0.89016E-03   -0.92164E-03  3684   0.207E-01    0.816E-02
RMM:   3    -0.192242613941E+03    0.10697E-04   -0.57285E-04  3740   0.426E-02    0.694E-02
RMM:   4    -0.192242579957E+03    0.33984E-04   -0.59605E-05  3677   0.136E-02    0.519E-02
RMM:   5    -0.192242589406E+03   -0.94493E-05   -0.26579E-05  3683   0.811E-03    0.646E-02
RMM:   6    -0.192242568680E+03    0.20726E-04   -0.58793E-05  3682   0.117E-02    0.520E-02
RMM:   7    -0.192242556437E+03    0.12243E-04   -0.11777E-04  3676   0.167E-02    0.284E-02
RMM:   8    -0.192242556792E+03   -0.35494E-06   -0.27346E-05  3672   0.822E-03    0.184E-02
RMM:   9    -0.192242554318E+03    0.24740E-05   -0.35854E-06  2697   0.317E-03    0.131E-02
RMM:  10    -0.192242551769E+03    0.25486E-05   -0.31606E-06  2235   0.292E-03    0.829E-03
RMM:  11    -0.192242550948E+03    0.82098E-06   -0.23577E-06  1956   0.271E-03
  13 F= -.19224255E+03 E0= -.19212658E+03  d E =-.745095E-02
       N       E                     dE             d eps       ncg     rms          rms(c)
DAV:   1    -0.192237074963E+03    0.54768E-02   -0.95724E+00  3672   0.478E+00    0.251E-01
RMM:   2    -0.192247604524E+03   -0.10530E-01   -0.10781E-01  3684   0.702E-01    0.270E-01
RMM:   3    -0.192247636277E+03   -0.31753E-04   -0.67717E-03  3718   0.144E-01    0.256E-01
RMM:   4    -0.192247178224E+03    0.45805E-03   -0.78302E-04  3678   0.489E-02    0.188E-01
RMM:   5    -0.192247074199E+03    0.10403E-03   -0.24153E-04  3688   0.247E-02    0.176E-01
RMM:   6    -0.192246961129E+03    0.11307E-03   -0.58632E-04  3680   0.371E-02    0.169E-01
RMM:   7    -0.192246759608E+03    0.20152E-03   -0.13841E-03  3680   0.571E-02    0.811E-02
RMM:   8    -0.192246765298E+03   -0.56900E-05   -0.24272E-04  3675   0.245E-02    0.595E-02
RMM:   9    -0.192246734761E+03    0.30537E-04   -0.37783E-05  3685   0.101E-02    0.381E-02
RMM:  10    -0.192246717438E+03    0.17323E-04   -0.23311E-05  3678   0.747E-03    0.264E-02
RMM:  11    -0.192246707684E+03    0.97535E-05   -0.22306E-05  3673   0.714E-03    0.139E-02
RMM:  12    -0.192246706182E+03    0.15025E-05   -0.19610E-05  3678   0.654E-03    0.755E-03
RMM:  13    -0.192246706178E+03    0.37253E-08   -0.32902E-06  2428   0.292E-03
  14 F= -.19224671E+03 E0= -.19213032E+03  d E =-.415523E-02
       N       E                     dE             d eps       ncg     rms          rms(c)
DAV:   1    -0.192246310096E+03    0.39609E-03   -0.67573E-01  3696   0.127E+00    0.664E-02
RMM:   2    -0.192247041485E+03   -0.73139E-03   -0.75815E-03  3684   0.186E-01    0.729E-02
RMM:   3    -0.192247036865E+03    0.46202E-05   -0.47659E-04  3718   0.383E-02    0.676E-02
RMM:   4    -0.192247007252E+03    0.29613E-04   -0.53668E-05  3679   0.128E-02    0.505E-02
RMM:   5    -0.192247001217E+03    0.60352E-05   -0.16537E-05  3677   0.648E-03    0.468E-02
RMM:   6    -0.192246998133E+03    0.30833E-05   -0.42388E-05  3678   0.100E-02    0.455E-02
RMM:   7    -0.192246989066E+03    0.90674E-05   -0.10188E-04  3678   0.155E-02    0.219E-02
RMM:   8    -0.192246990402E+03   -0.13362E-05   -0.17501E-05  3672   0.658E-03    0.162E-02
RMM:   9    -0.192246988228E+03    0.21743E-05   -0.25781E-06  2420   0.273E-03    0.102E-02
RMM:  10    -0.192246986930E+03    0.12979E-05   -0.16619E-06  1958   0.221E-03    0.722E-03
RMM:  11    -0.192246986261E+03    0.66868E-06   -0.17042E-06  1946   0.229E-03
  15 F= -.19224699E+03 E0= -.19213049E+03  d E =-.443531E-02
       N       E                     dE             d eps       ncg     rms          rms(c)
DAV:   1    -0.192244139619E+03    0.28473E-02   -0.57994E+00  3672   0.372E+00    0.193E-01
RMM:   2    -0.192250791389E+03   -0.66518E-02   -0.66664E-02  3684   0.549E-01    0.250E-01
RMM:   3    -0.192250676756E+03    0.11463E-03   -0.44809E-03  3718   0.117E-01    0.211E-01
RMM:   4    -0.192250482018E+03    0.19474E-03   -0.51000E-04  3680   0.384E-02    0.183E-01
RMM:   5    -0.192250241177E+03    0.24084E-03   -0.15365E-04  3689   0.202E-02    0.120E-01
RMM:   6    -0.192250220861E+03    0.20315E-04   -0.33409E-04  3684   0.282E-02    0.132E-01
RMM:   7    -0.192250109515E+03    0.11135E-03   -0.99267E-04  3679   0.481E-02    0.618E-02
RMM:   8    -0.192250117162E+03   -0.76465E-05   -0.15556E-04  3674   0.195E-02    0.480E-02
RMM:   9    -0.192250096680E+03    0.20482E-04   -0.21371E-05  3678   0.767E-03    0.302E-02
RMM:  10    -0.192250087933E+03    0.87467E-05   -0.11095E-05  3662   0.522E-03    0.224E-02
RMM:  11    -0.192250080460E+03    0.74736E-05   -0.19675E-05  3673   0.663E-03    0.110E-02
RMM:  12    -0.192250079692E+03    0.76804E-06   -0.10100E-05  3668   0.471E-03    0.578E-03
RMM:  13    -0.192250079835E+03   -0.14310E-06   -0.20176E-06  2047   0.232E-03
  16 F= -.19225008E+03 E0= -.19213336E+03  d E =-.309357E-02
       N       E                     dE             d eps       ncg     rms          rms(c)
DAV:   1    -0.192249047739E+03    0.10320E-02   -0.15350E+00  3672   0.191E+00    0.991E-02
RMM:   2    -0.192250789332E+03   -0.17416E-02   -0.17595E-02  3684   0.282E-01    0.128E-01
RMM:   3    -0.192250748460E+03    0.40873E-04   -0.11786E-03  3718   0.598E-02    0.106E-01
RMM:   4    -0.192250700941E+03    0.47518E-04   -0.13064E-04  3680   0.195E-02    0.923E-02
RMM:   5    -0.192250644233E+03    0.56708E-04   -0.39316E-05  3690   0.102E-02    0.629E-02
RMM:   6    -0.192250645052E+03   -0.81812E-06   -0.91484E-05  3683   0.148E-02    0.692E-02
RMM:   7    -0.192250623215E+03    0.21836E-04   -0.26796E-04  3678   0.250E-02    0.319E-02
RMM:   8    -0.192250626194E+03   -0.29786E-05   -0.40760E-05  3675   0.100E-02    0.251E-02
RMM:   9    -0.192250620633E+03    0.55611E-05   -0.56525E-06  2973   0.399E-03    0.156E-02
RMM:  10    -0.192250618235E+03    0.23983E-05   -0.29700E-06  2443   0.285E-03    0.117E-02
RMM:  11    -0.192250616224E+03    0.20107E-05   -0.56339E-06  3228   0.375E-03    0.569E-03
RMM:  12    -0.192250616036E+03    0.18782E-06   -0.25844E-06  2033   0.267E-03
  17 F= -.19225062E+03 E0= -.19213379E+03  d E =-.362977E-02
       N       E                     dE             d eps       ncg     rms          rms(c)
DAV:   1    -0.192249005788E+03    0.16104E-02   -0.40975E+00  3672   0.312E+00    0.155E-01
RMM:   2    -0.192253680627E+03   -0.46748E-02   -0.46526E-02  3680   0.461E-01    0.214E-01
RMM:   3    -0.192253555697E+03    0.12493E-03   -0.31179E-03  3731   0.979E-02    0.168E-01
RMM:   4    -0.192253449246E+03    0.10645E-03   -0.33302E-04  3676   0.310E-02    0.152E-01
RMM:   5    -0.192253297816E+03    0.15143E-03   -0.10894E-04  3689   0.171E-02    0.109E-01
RMM:   6    -0.192253291726E+03    0.60894E-05   -0.27306E-04  3683   0.255E-02    0.123E-01
RMM:   7    -0.192253191187E+03    0.10054E-03   -0.75291E-04  3679   0.420E-02    0.511E-02
RMM:   8    -0.192253202835E+03   -0.11648E-04   -0.11557E-04  3677   0.167E-02    0.409E-02
RMM:   9    -0.192253190888E+03    0.11947E-04   -0.12665E-05  3674   0.599E-03    0.284E-02
RMM:  10    -0.192253183347E+03    0.75411E-05   -0.82878E-06  3430   0.453E-03    0.220E-02
RMM:  11    -0.192253175132E+03    0.82146E-05   -0.26705E-05  3675   0.773E-03    0.877E-03
RMM:  12    -0.192253174837E+03    0.29553E-06   -0.62207E-06  3243   0.375E-03
  18 F= -.19225317E+03 E0= -.19213619E+03  d E =-.255880E-02
       N       E                     dE             d eps       ncg     rms          rms(c)
DAV:   1    -0.192251855925E+03    0.13192E-02   -0.23602E+00  3672   0.237E+00    0.117E-01
RMM:   2    -0.192254536188E+03   -0.26803E-02   -0.26750E-02  3681   0.350E-01    0.162E-01
RMM:   3    -0.192254454845E+03    0.81343E-04   -0.17857E-03  3731   0.741E-02    0.126E-01
RMM:   4    -0.192254395397E+03    0.59448E-04   -0.18704E-04  3676   0.233E-02    0.114E-01
RMM:   5    -0.192254314161E+03    0.81236E-04   -0.61210E-05  3688   0.128E-02    0.836E-02
RMM:   6    -0.192254314490E+03   -0.32892E-06   -0.16112E-04  3683   0.196E-02    0.941E-02
RMM:   7    -0.192254261556E+03    0.52934E-04   -0.44099E-04  3679   0.321E-02    0.392E-02
RMM:   8    -0.192254268824E+03   -0.72679E-05   -0.66969E-05  3678   0.127E-02    0.313E-02
RMM:   9    -0.192254261863E+03    0.69609E-05   -0.72723E-06  3166   0.458E-03    0.218E-02
RMM:  10    -0.192254257463E+03    0.44005E-05   -0.47289E-06  2867   0.351E-03    0.169E-02
RMM:  11    -0.192254252615E+03    0.48477E-05   -0.16197E-05  3672   0.612E-03    0.677E-03
RMM:  12    -0.192254252411E+03    0.20435E-06   -0.35044E-06  2476   0.293E-03
  19 F= -.19225425E+03 E0= -.19213715E+03  d E =-.363637E-02
       N       E                     dE             d eps       ncg     rms          rms(c)
DAV:   1    -0.192244486009E+03    0.97666E-02   -0.94412E+00  3672   0.474E+00    0.236E-01
RMM:   2    -0.192255311018E+03   -0.10825E-01   -0.10720E-01  3681   0.700E-01    0.323E-01
RMM:   3    -0.192255053641E+03    0.25738E-03   -0.71783E-03  3729   0.149E-01    0.257E-01
RMM:   4    -0.192254788878E+03    0.26476E-03   -0.77288E-04  3676   0.471E-02    0.231E-01
RMM:   5    -0.192254425545E+03    0.36333E-03   -0.25476E-04  3690   0.261E-02    0.165E-01
RMM:   6    -0.192254393329E+03    0.32216E-04   -0.64596E-04  3684   0.392E-02    0.187E-01
RMM:   7    -0.192254128260E+03    0.26507E-03   -0.17169E-03  3679   0.634E-02    0.785E-02
RMM:   8    -0.192254149077E+03   -0.20817E-04   -0.26641E-04  3678   0.254E-02    0.619E-02
RMM:   9    -0.192254120679E+03    0.28398E-04   -0.28842E-05  3685   0.904E-03    0.428E-02
RMM:  10    -0.192254103627E+03    0.17052E-04   -0.19494E-05  3672   0.690E-03    0.332E-02
RMM:  11    -0.192254084923E+03    0.18704E-04   -0.61019E-05  3678   0.116E-02    0.131E-02
RMM:  12    -0.192254084210E+03    0.71291E-06   -0.14223E-05  3667   0.560E-03    0.598E-03
RMM:  13    -0.192254084642E+03   -0.43238E-06   -0.27229E-06  2182   0.270E-03
  20 F= -.19225408E+03 E0= -.19213674E+03  d E =-.346861E-02
       N       E                     dE             d eps       ncg     rms          rms(c)
DAV:   1    -0.192251050237E+03    0.30340E-02   -0.34650E+00  3672   0.287E+00    0.143E-01
RMM:   2    -0.192254972853E+03   -0.39226E-02   -0.39334E-02  3682   0.424E-01    0.192E-01
RMM:   3    -0.192254914098E+03    0.58755E-04   -0.26277E-03  3731   0.897E-02    0.162E-01
RMM:   4    -0.192254809051E+03    0.10505E-03   -0.29829E-04  3676   0.291E-02    0.143E-01
RMM:   5    -0.192254666264E+03    0.14279E-03   -0.99391E-05  3689   0.164E-02    0.977E-02
RMM:   6    -0.192254669302E+03   -0.30381E-05   -0.24549E-04  3684   0.242E-02    0.113E-01
RMM:   7    -0.192254585503E+03    0.83800E-04   -0.59531E-04  3679   0.373E-02    0.465E-02
RMM:   8    -0.192254594818E+03   -0.93156E-05   -0.93031E-05  3677   0.150E-02    0.372E-02
RMM:   9    -0.192254584865E+03    0.99534E-05   -0.10795E-05  3652   0.553E-03    0.258E-02
RMM:  10    -0.192254578777E+03    0.60881E-05   -0.68918E-06  3222   0.414E-03    0.198E-02
RMM:  11    -0.192254572216E+03    0.65604E-05   -0.22401E-05  3675   0.712E-03    0.773E-03
RMM:  12    -0.192254571931E+03    0.28498E-06   -0.47642E-06  2900   0.334E-03
  21 F= -.19225457E+03 E0= -.19213737E+03  d E =-.395590E-02
       N       E                     dE             d eps       ncg     rms          rms(c)
DAV:   1    -0.192251840405E+03    0.27318E-02   -0.43733E+00  3672   0.323E+00    0.156E-01
RMM:   2    -0.192256749081E+03   -0.49087E-02   -0.49646E-02  3682   0.476E-01    0.199E-01
RMM:   3    -0.192256628123E+03    0.12096E-03   -0.32339E-03  3740   0.997E-02    0.150E-01
RMM:   4    -0.192256543409E+03    0.84714E-04   -0.32535E-04  3674   0.310E-02    0.145E-01
RMM:   5    -0.192256424169E+03    0.11924E-03   -0.10556E-04  3690   0.166E-02    0.114E-01
RMM:   6    -0.192256400318E+03    0.23850E-04   -0.26527E-04  3681   0.252E-02    0.119E-01
RMM:   7    -0.192256299800E+03    0.10052E-03   -0.73106E-04  3682   0.413E-02    0.516E-02
RMM:   8    -0.192256312627E+03   -0.12827E-04   -0.11766E-04  3680   0.169E-02    0.410E-02
RMM:   9    -0.192256301397E+03    0.11230E-04   -0.12757E-05  3676   0.599E-03    0.283E-02
RMM:  10    -0.192256293556E+03    0.78411E-05   -0.92618E-06  3618   0.478E-03    0.216E-02
RMM:  11    -0.192256285913E+03    0.76431E-05   -0.26292E-05  3677   0.762E-03    0.784E-03
RMM:  12    -0.192256285817E+03    0.95482E-07   -0.61000E-06  3226   0.373E-03
  22 F= -.19225629E+03 E0= -.19213899E+03  d E =-.171389E-02
       N       E                     dE             d eps       ncg     rms          rms(c)
DAV:   1    -0.192255482096E+03    0.80382E-03   -0.10511E+00  3696   0.158E+00    0.757E-02
RMM:   2    -0.192256650999E+03   -0.11689E-02   -0.11885E-02  3681   0.233E-01    0.990E-02
RMM:   3    -0.192256607539E+03    0.43461E-04   -0.77022E-04  3742   0.487E-02    0.712E-02
RMM:   4    -0.192256586881E+03    0.20657E-04   -0.72200E-05  3675   0.148E-02    0.677E-02
RMM:   5    -0.192256567355E+03    0.19526E-04   -0.23245E-05  3684   0.778E-03    0.579E-02
RMM:   6    -0.192256565377E+03    0.19788E-05   -0.66936E-05  3678   0.126E-02    0.605E-02
RMM:   7    -0.192256546029E+03    0.19348E-04   -0.18920E-04  3674   0.210E-02    0.258E-02
RMM:   8    -0.192256549620E+03   -0.35917E-05   -0.29017E-05  3672   0.839E-03    0.204E-02
RMM:   9    -0.192256546809E+03    0.28108E-05   -0.29298E-06  2481   0.295E-03    0.143E-02
RMM:  10    -0.192256544846E+03    0.19636E-05   -0.21238E-06  1997   0.251E-03    0.112E-02
RMM:  11    -0.192256542881E+03    0.19647E-05   -0.75119E-06  3532   0.424E-03    0.410E-03
RMM:  12    -0.192256542818E+03    0.62719E-07   -0.14954E-06  1947   0.202E-03
  23 F= -.19225654E+03 E0= -.19213919E+03  d E =-.197089E-02
       N       E                     dE             d eps       ncg     rms          rms(c)
DAV:   1    -0.192255422045E+03    0.11208E-02   -0.19530E+00  3672   0.216E+00    0.111E-01
RMM:   2    -0.192257563819E+03   -0.21418E-02   -0.21995E-02  3683   0.318E-01    0.119E-01
RMM:   3    -0.192257536480E+03    0.27339E-04   -0.13926E-03  3718   0.656E-02    0.999E-02
RMM:   4    -0.192257466666E+03    0.69814E-04   -0.14812E-04  3675   0.214E-02    0.836E-02
RMM:   5    -0.192257446717E+03    0.19949E-04   -0.44940E-05  3689   0.106E-02    0.756E-02
RMM:   6    -0.192257449877E+03   -0.31608E-05   -0.15288E-04  3682   0.191E-02    0.841E-02
RMM:   7    -0.192257399871E+03    0.50006E-04   -0.26064E-04  3682   0.248E-02    0.320E-02
RMM:   8    -0.192257403764E+03   -0.38932E-05   -0.38518E-05  3674   0.982E-03    0.270E-02
RMM:   9    -0.192257396804E+03    0.69598E-05   -0.64590E-06  3094   0.425E-03    0.162E-02
RMM:  10    -0.192257394286E+03    0.25184E-05   -0.35096E-06  2593   0.308E-03    0.119E-02
RMM:  11    -0.192257392074E+03    0.22123E-05   -0.78965E-06  3669   0.434E-03    0.501E-03
RMM:  12    -0.192257391870E+03    0.20362E-06   -0.20320E-06  1971   0.231E-03
  24 F= -.19225739E+03 E0= -.19214010E+03  d E =-.849052E-03
