<?xml version="1.0" encoding="ISO-8859-1"?>
<modeling>
 <generator>
  <i name="program" type="string">vasp </i>
  <i name="version" type="string">5.4.1  </i>
  <i name="subversion" type="string">24Jun15 (build Mar 14 2019 10:18:33) complex                          parallel </i>
  <i name="platform" type="string">INTEL-19.0.2+OPENMPI-3.1.3 </i>
  <i name="date" type="string">2022 07 11 </i>
  <i name="time" type="string">15:22:43 </i>
 </generator>
 <incar>
  <i type="int" name="ISTART">     0</i>
  <i type="string" name="PREC">normal</i>
  <i type="string" name="ALGO"> Fast</i>
  <i type="int" name="NELM">   500</i>
  <i type="int" name="IBRION">     2</i>
  <i type="int" name="NFREE">     2</i>
  <i name="EDIFF">      0.00000100</i>
  <i name="EDIFFG">     -0.02000000</i>
  <i type="int" name="NSW">   500</i>
  <i type="int" name="ISIF">     0</i>
  <i type="int" name="ISYM">     2</i>
  <i name="ENCUT">    400.00000000</i>
  <i name="POTIM">      0.35000000</i>
  <i type="string" name="LREAL"> Auto</i>
  <i type="logical" name="LPLANE"> T  </i>
  <i type="int" name="ISMEAR">     0</i>
  <i name="SIGMA">      0.10000000</i>
  <i type="int" name="NWRITE">     1</i>
  <i type="logical" name="LWAVE"> F  </i>
  <i type="logical" name="LCHARG"> F  </i>
  <i type="logical" name="LVTOT"> F  </i>
  <i type="logical" name="LORBIT"> F  </i>
  <i type="logical" name="LAECHG"> F  </i>
  <v type="int" name="KPOINT_BSE">    -1     0     0     0</v>
  <i type="int" name="NELM">   500</i>
  <i type="string" name="GGA"> PE          ! optPBE-vdW XC-functional</i>
  <i type="int" name="VOSKOWN">     1</i>
  <i type="logical" name="LDIPOL"> T  </i>
  <i type="logical" name="LMONO"> F  </i>
  <i type="int" name="IDIPOL">     3</i>
  <v name="DIPOL">      0.00000000      0.00000000      0.50000000</v>
 </incar>
 <kpoints>
  <generation param="Monkhorst-Pack">
   <v type="int" name="divisions">       2        2        1 </v>
   <v name="usershift">      0.00000000       0.00000000       0.00000000 </v>
   <v name="genvec1">      0.50000000      -0.00000000       0.00000000 </v>
   <v name="genvec2">      0.00000000       0.50000000       0.00000000 </v>
   <v name="genvec3">      0.00000000       0.00000000       1.00000000 </v>
   <v name="shift">      0.50000000       0.50000000       0.00000000 </v>
  </generation>
  <varray name="kpointlist" >
   <v>       0.25000000       0.25000000       0.00000000 </v>
   <v>       0.00000000       0.25000000       0.00000000 </v>
   <v>      -0.25000000       0.00000000       0.00000000 </v>
   <v>      -0.25000000       0.25000000       0.00000000 </v>
   <v>       0.50000000      -0.25000000       0.00000000 </v>
   <v>      -0.25000000       0.50000000       0.00000000 </v>
  </varray>
  <varray name="weights" >
   <v>       0.16666667 </v>
   <v>       0.16666667 </v>
   <v>       0.16666667 </v>
   <v>       0.16666667 </v>
   <v>       0.16666667 </v>
   <v>       0.16666667 </v>
  </varray>
 </kpoints>
 <parameters>
  <separator name="general" >
   <i type="string" name="SYSTEM">unknown system</i>
   <i type="logical" name="LCOMPAT"> F  </i>
  </separator>
  <separator name="electronic" >
   <i type="string" name="PREC">normal</i>
   <i name="ENMAX">    400.00000000</i>
   <i name="ENAUG">    416.23000000</i>
   <i name="EDIFF">      0.00000100</i>
   <i type="int" name="IALGO">    68</i>
   <i type="int" name="IWAVPR">    11</i>
   <i type="int" name="NBANDS">   306</i>
   <i name="NELECT">    504.00000000</i>
   <i type="int" name="TURBO">     0</i>
   <i type="int" name="IRESTART">     0</i>
   <i type="int" name="NREBOOT">     0</i>
   <i type="int" name="NMIN">     0</i>
   <i name="EREF">      0.00000000</i>
   <separator name="electronic smearing" >
    <i type="int" name="ISMEAR">     0</i>
    <i name="SIGMA">      0.10000000</i>
    <i name="KSPACING">      0.50000000</i>
    <i type="logical" name="KGAMMA"> T  </i>
   </separator>
   <separator name="electronic projectors" >
    <i type="logical" name="LREAL"> T  </i>
    <v name="ROPT">     -0.00050000     -0.00050000</v>
    <i type="int" name="LMAXPAW">  -100</i>
    <i type="int" name="LMAXMIX">     2</i>
    <i type="logical" name="NLSPLINE"> F  </i>
   </separator>
   <separator name="electronic startup" >
    <i type="int" name="ISTART">     0</i>
    <i type="int" name="ICHARG">     2</i>
    <i type="int" name="INIWAV">     1</i>
   </separator>
   <separator name="electronic spin" >
    <i type="int" name="ISPIN">     1</i>
    <i type="logical" name="LNONCOLLINEAR"> F  </i>
    <v name="MAGMOM">      1.00000000      1.00000000      1.00000000      1.00000000      1.00000000      1.00000000      1.00000000      1.00000000      1.00000000      1.00000000      1.00000000      1.00000000      1.00000000      1.00000000      1.00000000      1.00000000      1.00000000      1.00000000      1.00000000      1.00000000
      1.00000000      1.00000000      1.00000000      1.00000000      1.00000000      1.00000000      1.00000000      1.00000000      1.00000000      1.00000000      1.00000000      1.00000000      1.00000000      1.00000000      1.00000000      1.00000000      1.00000000      1.00000000      1.00000000      1.00000000
      1.00000000      1.00000000      1.00000000      1.00000000      1.00000000      1.00000000      1.00000000      1.00000000</v>
    <i name="NUPDOWN">     -1.00000000</i>
    <i type="logical" name="LSORBIT"> F  </i>
    <v name="SAXIS">      0.00000000      0.00000000      1.00000000</v>
    <i type="logical" name="LSPIRAL"> F  </i>
    <v name="QSPIRAL">      0.00000000      0.00000000      0.00000000</v>
    <i type="logical" name="LZEROZ"> F  </i>
   </separator>
   <separator name="electronic exchange-correlation" >
    <i type="logical" name="LASPH"> F  </i>
    <i type="logical" name="LMETAGGA"> F  </i>
   </separator>
   <separator name="electronic convergence" >
    <i type="int" name="NELM">   500</i>
    <i type="int" name="NELMDL">    -5</i>
    <i type="int" name="NELMIN">     2</i>
    <i name="ENINI">    400.00000000</i>
    <separator name="electronic convergence detail" >
     <i type="logical" name="LDIAG"> T  </i>
     <i type="logical" name="LSUBROT"> F  </i>
     <i name="WEIMIN">      0.00100000</i>
     <i name="EBREAK">      0.00000000</i>
     <i name="DEPER">      0.30000000</i>
     <i type="int" name="NRMM">     4</i>
     <i name="TIME">      0.40000000</i>
    </separator>
   </separator>
   <separator name="electronic mixer" >
    <i name="AMIX">      0.40000000</i>
    <i name="BMIX">      1.00000000</i>
    <i name="AMIN">      0.10000000</i>
    <i name="AMIX_MAG">      1.60000000</i>
    <i name="BMIX_MAG">      1.00000000</i>
    <separator name="electronic mixer details" >
     <i type="int" name="IMIX">     4</i>
     <i type="logical" name="MIXFIRST"> F  </i>
     <i type="int" name="MAXMIX">   -45</i>
     <i name="WC">    100.00000000</i>
     <i type="int" name="INIMIX">     1</i>
     <i type="int" name="MIXPRE">     1</i>
     <i type="int" name="MREMOVE">     5</i>
    </separator>
   </separator>
   <separator name="electronic dipolcorrection" >
    <i type="logical" name="LDIPOL"> T  </i>
    <i type="logical" name="LMONO"> F  </i>
    <i type="int" name="IDIPOL">     3</i>
    <i name="EPSILON">      1.00000000</i>
    <v name="DIPOL">      0.00000000      0.00000000      0.50000000</v>
    <i name="EFIELD">      0.00000000</i>
   </separator>
  </separator>
  <separator name="grids" >
   <i type="int" name="NGX">    54</i>
   <i type="int" name="NGY">    54</i>
   <i type="int" name="NGZ">   120</i>
   <i type="int" name="NGXF">   108</i>
   <i type="int" name="NGYF">   108</i>
   <i type="int" name="NGZF">   240</i>
   <i type="logical" name="ADDGRID"> F  </i>
  </separator>
  <separator name="ionic" >
   <i type="int" name="NSW">   500</i>
   <i type="int" name="IBRION">     2</i>
   <i type="int" name="ISIF">     0</i>
   <i name="PSTRESS">      0.00000000</i>
   <i name="EDIFFG">     -0.02000000</i>
   <i type="int" name="NFREE">     2</i>
   <i name="POTIM">      0.35000000</i>
   <i name="SMASS">     -3.00000000</i>
   <i name="SCALEE">      1.00000000</i>
  </separator>
  <separator name="ionic md" >
   <i name="TEBEG">      0.00010000</i>
   <i name="TEEND">      0.00010000</i>
   <i type="int" name="NBLOCK">     1</i>
   <i type="int" name="KBLOCK">   500</i>
   <i type="int" name="NPACO">   256</i>
   <i name="APACO">     16.00000000</i>
  </separator>
  <separator name="symmetry" >
   <i type="int" name="ISYM">     2</i>
   <i name="SYMPREC">      0.00001000</i>
  </separator>
  <separator name="dos" >
   <i type="logical" name="LORBIT"> F  </i>
   <v name="RWIGS">     -1.00000000     -1.00000000</v>
   <i type="int" name="NEDOS">   301</i>
   <i name="EMIN">     10.00000000</i>
   <i name="EMAX">    -10.00000000</i>
   <i name="EFERMI">      0.00000000</i>
  </separator>
  <separator name="writing" >
   <i type="int" name="NWRITE">     1</i>
   <i type="logical" name="LWAVE"> F  </i>
   <i type="logical" name="LCHARG"> F  </i>
   <i type="logical" name="LPARD"> F  </i>
   <i type="logical" name="LVTOT"> F  </i>
   <i type="logical" name="LVHAR"> F  </i>
   <i type="logical" name="LELF"> F  </i>
   <i type="logical" name="LOPTICS"> F  </i>
   <v name="STM">      0.00000000      0.00000000      0.00000000      0.00000000      0.00000000      0.00000000      0.00000000</v>
  </separator>
  <separator name="performance" >
   <i type="int" name="NPAR">     6</i>
   <i type="int" name="NSIM">     4</i>
   <i type="int" name="NBLK">    -1</i>
   <i type="logical" name="LPLANE"> T  </i>
   <i type="logical" name="LSCALAPACK"> T  </i>
   <i type="logical" name="LSCAAWARE"> F  </i>
   <i type="logical" name="LSCALU"> F  </i>
   <i type="logical" name="LASYNC"> F  </i>
   <i type="logical" name="LORBITALREAL"> F  </i>
  </separator>
  <separator name="miscellaneous" >
   <i type="int" name="IDIOT">     3</i>
   <i type="logical" name="LMUSIC"> F  </i>
   <v name="POMASS">    196.96600000    106.42000000</v>
   <v name="DARWINR">      0.00000000      0.00000000</v>
   <v name="DARWINV">      1.00000000      1.00000000</v>
   <i type="logical" name="LCORR"> T  </i>
  </separator>
  <i type="logical" name="GGA_COMPAT"> T  </i>
  <i type="logical" name="LBERRY"> F  </i>
  <i type="int" name="ICORELEVEL">     0</i>
  <i type="logical" name="LDAU"> F  </i>
  <i type="int" name="I_CONSTRAINED_M">     0</i>
  <separator name="electronic exchange-correlation" >
   <i type="string" name="GGA">PE</i>
   <i type="int" name="VOSKOWN">     1</i>
   <i type="logical" name="LHFCALC"> F  </i>
   <i type="string" name="PRECFOCK"></i>
   <i type="logical" name="LSYMGRAD"> F  </i>
   <i type="logical" name="LHFONE"> F  </i>
   <i type="logical" name="LRHFCALC"> F  </i>
   <i type="logical" name="LTHOMAS"> F  </i>
   <i type="logical" name="LMODELHF"> F  </i>
   <i name="ENCUT4O">     -1.00000000</i>
   <i type="int" name="EXXOEP">     0</i>
   <i type="int" name="FOURORBIT">     0</i>
   <i name="AEXX">      0.00000000</i>
   <i name="HFALPHA">      0.00000000</i>
   <i name="MCALPHA">      0.00000000</i>
   <i name="ALDAX">      1.00000000</i>
   <i name="AGGAX">      1.00000000</i>
   <i name="ALDAC">      1.00000000</i>
   <i name="AGGAC">      1.00000000</i>
   <i type="int" name="NKREDX">     1</i>
   <i type="int" name="NKREDY">     1</i>
   <i type="int" name="NKREDZ">     1</i>
   <i type="logical" name="SHIFTRED"> F  </i>
   <i type="logical" name="ODDONLY"> F  </i>
   <i type="logical" name="EVENONLY"> F  </i>
   <i type="int" name="LMAXFOCK">     0</i>
   <i type="int" name="NMAXFOCKAE">     0</i>
   <i type="logical" name="LFOCKAEDFT"> F  </i>
   <i name="HFSCREEN">      0.00000000</i>
   <i name="HFSCREENC">      0.00000000</i>
   <i type="int" name="NBANDSGWLOW">     0</i>
  </separator>
  <separator name="vdW DFT" >
   <i type="logical" name="LUSE_VDW"> F  </i>
   <i name="Zab_VDW">     -0.84910000</i>
   <i name="PARAM1">      0.12340000</i>
   <i name="PARAM2">      1.00000000</i>
   <i name="PARAM3">      0.00000000</i>
  </separator>
  <separator name="model GW" >
   <i type="int" name="MODEL_GW">     0</i>
   <i name="MODEL_EPS0">     32.09595293</i>
   <i name="MODEL_ALPHA">      1.00000000</i>
  </separator>
  <separator name="linear response parameters" >
   <i type="logical" name="LEPSILON"> F  </i>
   <i type="logical" name="LRPA"> F  </i>
   <i type="logical" name="LNABLA"> F  </i>
   <i type="logical" name="LVEL"> F  </i>
   <i type="int" name="KINTER">     0</i>
   <i name="CSHIFT">      0.10000000</i>
   <i name="OMEGAMAX">     -1.00000000</i>
   <i name="DEG_THRESHOLD">      0.00200000</i>
  </separator>
  <separator name="orbital magnetization" >
   <i type="logical" name="NUCIND"> F  </i>
   <v name="MAGPOS">      0.00000000      0.00000000      0.00000000</v>
   <i type="logical" name="LNICSALL"> T  </i>
   <i type="logical" name="ORBITALMAG"> F  </i>
   <i type="logical" name="LMAGBLOCH"> F  </i>
   <i type="logical" name="LCHIMAG"> F  </i>
   <i type="logical" name="LGAUGE"> T  </i>
   <i type="int" name="MAGATOM">     0</i>
   <v name="MAGDIPOL">      0.00000000      0.00000000      0.00000000</v>
   <v name="AVECCONST">      0.00000000      0.00000000      0.00000000</v>
  </separator>
  <separator name="response functions" >
   <i type="logical" name="LADDER"> F  </i>
   <i type="logical" name="LFXC"> F  </i>
   <i type="logical" name="LHARTREE"> T  </i>
   <i type="int" name="IBSE">     0</i>
   <v type="int" name="KPOINT">    -1     0     0     0</v>
   <i type="logical" name="LTCTE"> F  </i>
   <i type="logical" name="LTETE"> F  </i>
   <i type="logical" name="LTRIPLET"> F  </i>
   <i type="logical" name="LFXCEPS"> F  </i>
   <i type="logical" name="LFXHEG"> F  </i>
   <i type="int" name="NATURALO">     0</i>
   <i type="logical" name="L2ORDER"> F  </i>
   <i type="logical" name="LUSEW"> F  </i>
   <i name="ENCUTGW">     -2.00000000</i>
   <i name="ENCUTGWSOFT">     -2.00000000</i>
   <i name="ENCUTLF">     -1.00000000</i>
   <i type="int" name="LMAXMP2">    -1</i>
   <i name="SCISSOR">      0.00000000</i>
   <i type="int" name="NOMEGA">     0</i>
   <i type="int" name="NOMEGAR">     0</i>
   <i type="int" name="NBANDSGW">    -1</i>
   <i type="int" name="NBANDSO">    -1</i>
   <i type="int" name="NBANDSV">    -1</i>
   <i type="int" name="NELM">   500</i>
   <i type="int" name="NELMHF">     1</i>
   <i type="int" name="DIM">     3</i>
   <i type="int" name="ANTIRES">     0</i>
   <i name="OMEGAMAX">    -30.00000000</i>
   <i name="OMEGAMIN">    -30.00000000</i>
   <i name="OMEGATL">   -200.00000000</i>
   <i type="int" name="OMEGAGRID">     0</i>
   <i name="CSHIFT">     -0.10000000</i>
   <i type="logical" name="SELFENERGY"> F  </i>
   <i type="logical" name="LSPECTRAL"> F  </i>
   <i type="logical" name="LSPECTRALGW"> F  </i>
   <i type="logical" name="LSINGLES"> F  </i>
   <i type="logical" name="LFERMIGW"> F  </i>
   <i type="logical" name="ODDONLYGW"> F  </i>
   <i type="logical" name="EVENONLYGW"> F  </i>
   <i type="int" name="NKREDLFX">     1</i>
   <i type="int" name="NKREDLFY">     1</i>
   <i type="int" name="NKREDLFZ">     1</i>
   <i type="int" name="MAXMEM">  1800</i>
   <i type="int" name="TELESCOPE">     0</i>
   <i type="int" name="TAUPAR">     1</i>
   <i type="int" name="OMEGAPAR">    -1</i>
   <i name="LAMBDA">      1.00000000</i>
  </separator>
  <separator name="External order field" >
   <i name="OFIELD_KAPPA">      0.00000000</i>
   <v name="OFIELD_K">      0.00000000      0.00000000      0.00000000</v>
   <i name="OFIELD_Q6_NEAR">      0.00000000</i>
   <i name="OFIELD_Q6_FAR">      0.00000000</i>
   <i name="OFIELD_A">      0.00000000</i>
  </separator>
 </parameters>
 <atominfo>
  <atoms>      48 </atoms>
  <types>       2 </types>
  <array name="atoms" >
   <dimension dim="1">ion</dimension>
   <field type="string">element</field>
   <field type="int">atomtype</field>
   <set>
    <rc><c>Au</c><c>   1</c></rc>
    <rc><c>Au</c><c>   1</c></rc>
    <rc><c>Au</c><c>   1</c></rc>
    <rc><c>Au</c><c>   1</c></rc>
    <rc><c>Au</c><c>   1</c></rc>
    <rc><c>Au</c><c>   1</c></rc>
    <rc><c>Au</c><c>   1</c></rc>
    <rc><c>Au</c><c>   1</c></rc>
    <rc><c>Au</c><c>   1</c></rc>
    <rc><c>Au</c><c>   1</c></rc>
    <rc><c>Au</c><c>   1</c></rc>
    <rc><c>Au</c><c>   1</c></rc>
    <rc><c>Au</c><c>   1</c></rc>
    <rc><c>Au</c><c>   1</c></rc>
    <rc><c>Au</c><c>   1</c></rc>
    <rc><c>Au</c><c>   1</c></rc>
    <rc><c>Au</c><c>   1</c></rc>
    <rc><c>Au</c><c>   1</c></rc>
    <rc><c>Au</c><c>   1</c></rc>
    <rc><c>Au</c><c>   1</c></rc>
    <rc><c>Au</c><c>   1</c></rc>
    <rc><c>Au</c><c>   1</c></rc>
    <rc><c>Au</c><c>   1</c></rc>
    <rc><c>Au</c><c>   1</c></rc>
    <rc><c>Pd</c><c>   2</c></rc>
    <rc><c>Pd</c><c>   2</c></rc>
    <rc><c>Pd</c><c>   2</c></rc>
    <rc><c>Pd</c><c>   2</c></rc>
    <rc><c>Pd</c><c>   2</c></rc>
    <rc><c>Pd</c><c>   2</c></rc>
    <rc><c>Pd</c><c>   2</c></rc>
    <rc><c>Pd</c><c>   2</c></rc>
    <rc><c>Pd</c><c>   2</c></rc>
    <rc><c>Pd</c><c>   2</c></rc>
    <rc><c>Pd</c><c>   2</c></rc>
    <rc><c>Pd</c><c>   2</c></rc>
    <rc><c>Pd</c><c>   2</c></rc>
    <rc><c>Pd</c><c>   2</c></rc>
    <rc><c>Pd</c><c>   2</c></rc>
    <rc><c>Pd</c><c>   2</c></rc>
    <rc><c>Pd</c><c>   2</c></rc>
    <rc><c>Pd</c><c>   2</c></rc>
    <rc><c>Pd</c><c>   2</c></rc>
    <rc><c>Pd</c><c>   2</c></rc>
    <rc><c>Pd</c><c>   2</c></rc>
    <rc><c>Pd</c><c>   2</c></rc>
    <rc><c>Pd</c><c>   2</c></rc>
    <rc><c>Pd</c><c>   2</c></rc>
   </set>
  </array>
  <array name="atomtypes" >
   <dimension dim="1">type</dimension>
   <field type="int">atomspertype</field>
   <field type="string">element</field>
   <field>mass</field>
   <field>valence</field>
   <field type="string">pseudopotential</field>
   <set>
    <rc><c>  24</c><c>Au</c><c>    196.96600000</c><c>     11.00000000</c><c>  PAW_PBE Au 04Oct2007                  </c></rc>
    <rc><c>  24</c><c>Pd</c><c>    106.42000000</c><c>     10.00000000</c><c>  PAW_PBE Pd 04Jan2005                  </c></rc>
   </set>
  </array>
 </atominfo>
 <structure name="initialpos" >
  <crystal>
   <varray name="basis" >
    <v>      11.00258152       0.00000000       0.00000000 </v>
    <v>       5.50129076       9.52851510       0.00000000 </v>
    <v>       0.00000000       0.00000000      24.49178509 </v>
   </varray>
   <i name="volume">   2567.67623402 </i>
   <varray name="rec_basis" >
    <v>       0.09088776      -0.05247407       0.00000000 </v>
    <v>       0.00000000       0.10494815       0.00000000 </v>
    <v>       0.00000000       0.00000000       0.04083002 </v>
   </varray>
  </crystal>
  <varray name="positions" >
   <v>       0.08333333       0.08333333       0.40830017 </v>
   <v>       0.41666667       0.91666667       0.50000000 </v>
   <v>       0.58333333       0.33333333       0.40830017 </v>
   <v>       0.50000000       0.00000000       0.59169983 </v>
   <v>       0.41666667       0.16666667       0.50000000 </v>
   <v>       0.83333333       0.08333333       0.40830017 </v>
   <v>       0.16666667       0.91666667       0.50000000 </v>
   <v>       0.33333333       0.83333333       0.40830017 </v>
   <v>       0.25000000       0.50000000       0.59169983 </v>
   <v>       0.16666667       0.66666667       0.50000000 </v>
   <v>       0.33333333       0.58333333       0.40830017 </v>
   <v>       0.25000000       0.25000000       0.59169983 </v>
   <v>       0.16666667       0.41666667       0.50000000 </v>
   <v>       0.66666667       0.16666667       0.50000000 </v>
   <v>       0.08333333       0.58333333       0.40830017 </v>
   <v>       0.91666667       0.16666667       0.50000000 </v>
   <v>       0.66666667       0.41666667       0.50000000 </v>
   <v>       0.00000000       0.75000000       0.59169983 </v>
   <v>       0.00000000       0.00000000       0.59169983 </v>
   <v>       0.83333333       0.58333333       0.40830017 </v>
   <v>       0.00000000       0.50000000       0.59169983 </v>
   <v>       0.66666667       0.66666667       0.50000000 </v>
   <v>       0.00000000       0.25000000       0.59169983 </v>
   <v>       0.75000000       0.50000000       0.59169983 </v>
   <v>       0.83333333       0.83333333       0.40830017 </v>
   <v>       0.75000000       0.00000000       0.59169983 </v>
   <v>       0.83333333       0.33333333       0.40830017 </v>
   <v>       0.75000000       0.25000000       0.59169983 </v>
   <v>       0.58333333       0.83333333       0.40830017 </v>
   <v>       0.50000000       0.75000000       0.59169983 </v>
   <v>       0.50000000       0.50000000       0.59169983 </v>
   <v>       0.25000000       0.75000000       0.59169983 </v>
   <v>       0.58333333       0.58333333       0.40830017 </v>
   <v>       0.50000000       0.25000000       0.59169983 </v>
   <v>       0.41666667       0.41666667       0.50000000 </v>
   <v>       0.58333333       0.08333333       0.40830017 </v>
   <v>       0.66666667       0.91666667       0.50000000 </v>
   <v>       0.33333333       0.33333333       0.40830017 </v>
   <v>       0.25000000       0.00000000       0.59169983 </v>
   <v>       0.16666667       0.16666667       0.50000000 </v>
   <v>       0.33333333       0.08333333       0.40830017 </v>
   <v>       0.91666667       0.91666667       0.50000000 </v>
   <v>       0.08333333       0.83333333       0.40830017 </v>
   <v>       0.91666667       0.66666667       0.50000000 </v>
   <v>       0.91666667       0.41666667       0.50000000 </v>
   <v>       0.08333333       0.33333333       0.40830017 </v>
   <v>       0.41666667       0.66666667       0.50000000 </v>
   <v>       0.75000000       0.75000000       0.59169983 </v>
  </varray>
 </structure>
 <calculation>
  <scstep>
   <time name="dav">    7.22    7.26</time>
   <time name="total">    7.28    7.33</time>
   <dipole>
    <v name="dipole">      0.00000000       0.00000000      -0.00000074 </v>
    <i name="Tr[quadrupol]"> -10258.82732332 </i>
    <i name="Echarged">      0.00000000 </i>
    <i name="Edipol_quadrupol">      0.00000000 </i>
    <i name="Eion">      0.00000000 </i>
   </dipole>
   <energy>
    <i name="alphaZ">    805.86936440 </i>
    <i name="ewald"> 200393.80871911 </i>
    <i name="hartreedc">-242808.76975659 </i>
    <i name="XCdc">   -327.56414491 </i>
    <i name="pawpsdc">  40340.05962942 </i>
    <i name="pawaedc"> -38292.62782345 </i>
    <i name="eentropy">     -0.13523003 </i>
    <i name="bandstr">   1431.16437960 </i>
    <i name="atom">  41659.78587232 </i>
    <i name="e_fr_energy">   3201.59100987 </i>
    <i name="e_wo_entrp">   3201.72623990 </i>
    <i name="e_0_energy">   3201.65862489 </i>
   </energy>
  </scstep>
  <scstep>
   <time name="dav">    8.67    8.70</time>
   <time name="total">    8.67    8.70</time>
   <dipole>
    <v name="dipole">      0.00000000       0.00000000      -0.00000074 </v>
    <i name="Tr[quadrupol]"> -10258.82732332 </i>
    <i name="Echarged">      0.00000000 </i>
    <i name="Edipol_quadrupol">      0.00000000 </i>
    <i name="Eion">      0.00000000 </i>
   </dipole>
   <energy>
    <i name="e_fr_energy">     15.24801767 </i>
    <i name="e_wo_entrp">     15.38151996 </i>
    <i name="e_0_energy">     15.31476881 </i>
   </energy>
  </scstep>
  <scstep>
   <time name="dav">    8.25    8.27</time>
   <time name="total">    8.25    8.27</time>
   <dipole>
    <v name="dipole">      0.00000000       0.00000000      -0.00000074 </v>
    <i name="Tr[quadrupol]"> -10258.82732332 </i>
    <i name="Echarged">      0.00000000 </i>
    <i name="Edipol_quadrupol">      0.00000000 </i>
    <i name="Eion">      0.00000000 </i>
   </dipole>
   <energy>
    <i name="e_fr_energy">   -199.81512415 </i>
    <i name="e_wo_entrp">   -199.60797725 </i>
    <i name="e_0_energy">   -199.71155070 </i>
   </energy>
  </scstep>
  <scstep>
   <time name="dav">    8.33    8.36</time>
   <time name="total">    8.33    8.36</time>
   <dipole>
    <v name="dipole">      0.00000000       0.00000000      -0.00000074 </v>
    <i name="Tr[quadrupol]"> -10258.82732332 </i>
    <i name="Echarged">      0.00000000 </i>
    <i name="Edipol_quadrupol">      0.00000000 </i>
    <i name="Eion">      0.00000000 </i>
   </dipole>
   <energy>
    <i name="e_fr_energy">   -205.63995296 </i>
    <i name="e_wo_entrp">   -205.42080717 </i>
    <i name="e_0_energy">   -205.53038007 </i>
   </energy>
  </scstep>
  <scstep>
   <time name="dav">    8.72    8.81</time>
   <time name="total">    8.95    9.04</time>
   <dipole>
    <v name="dipole">      0.00000000       0.00000000      -0.00000074 </v>
    <i name="Tr[quadrupol]"> -10258.82732332 </i>
    <i name="Echarged">      0.00000000 </i>
    <i name="Edipol_quadrupol">      0.00000000 </i>
    <i name="Eion">      0.00000000 </i>
   </dipole>
   <energy>
    <i name="e_fr_energy">   -205.84064342 </i>
    <i name="e_wo_entrp">   -205.62127345 </i>
    <i name="e_0_energy">   -205.73095844 </i>
   </energy>
  </scstep>
  <scstep>
   <time name="diag">    1.30    1.31</time>
   <time name="diis">    3.52    3.53</time>
   <time name="orth">    0.36    0.36</time>
   <time name="total">    5.45    5.47</time>
   <dipole>
    <v name="dipole">      0.00000000       0.00000000      -0.34257769 </v>
    <i name="Tr[quadrupol]"> -10259.54440010 </i>
    <i name="Echarged">      0.00000000 </i>
    <i name="Edipol_quadrupol">      0.00000000 </i>
    <i name="Eion">      0.00000000 </i>
   </dipole>
   <energy>
    <i name="e_fr_energy">   -197.10685777 </i>
    <i name="e_wo_entrp">   -196.88523002 </i>
    <i name="e_0_energy">   -196.99604390 </i>
   </energy>
  </scstep>
  <scstep>
   <time name="diag">    1.30    1.31</time>
   <time name="diis">    3.50    3.51</time>
   <time name="orth">    0.36    0.36</time>
   <time name="total">    5.43    5.45</time>
   <dipole>
    <v name="dipole">      0.00000000       0.00000000       0.90410023 </v>
    <i name="Tr[quadrupol]"> -10259.29857878 </i>
    <i name="Echarged">      0.00000000 </i>
    <i name="Edipol_quadrupol">      0.00000000 </i>
    <i name="Eion">      0.00000000 </i>
   </dipole>
   <energy>
    <i name="e_fr_energy">   -204.75097648 </i>
    <i name="e_wo_entrp">   -204.53943394 </i>
    <i name="e_0_energy">   -204.64520521 </i>
   </energy>
  </scstep>
  <scstep>
   <time name="diag">    1.30    1.31</time>
   <time name="diis">    3.49    3.50</time>
   <time name="orth">    0.35    0.35</time>
   <time name="total">    5.42    5.44</time>
   <dipole>
    <v name="dipole">      0.00000000       0.00000000      -2.02716133 </v>
    <i name="Tr[quadrupol]"> -10260.70862265 </i>
    <i name="Echarged">      0.00000000 </i>
    <i name="Edipol_quadrupol">      0.00000000 </i>
    <i name="Eion">      0.00000000 </i>
   </dipole>
   <energy>
    <i name="e_fr_energy">   -225.18075082 </i>
    <i name="e_wo_entrp">   -224.88176652 </i>
    <i name="e_0_energy">   -225.03125867 </i>
   </energy>
  </scstep>
  <scstep>
   <time name="diag">    1.29    1.29</time>
   <time name="diis">    3.48    3.49</time>
   <time name="orth">    0.35    0.35</time>
   <time name="total">    5.39    5.41</time>
   <dipole>
    <v name="dipole">      0.00000000       0.00000000       0.59265486 </v>
    <i name="Tr[quadrupol]"> -10261.52368712 </i>
    <i name="Echarged">      0.00000000 </i>
    <i name="Edipol_quadrupol">      0.00000000 </i>
    <i name="Eion">      0.00000000 </i>
   </dipole>
   <energy>
    <i name="e_fr_energy">   -205.48200875 </i>
    <i name="e_wo_entrp">   -205.25381138 </i>
    <i name="e_0_energy">   -205.36791006 </i>
   </energy>
  </scstep>
  <scstep>
   <time name="diag">    1.30    1.30</time>
   <time name="diis">    3.53    3.54</time>
   <time name="orth">    0.35    0.35</time>
   <time name="total">    5.44    5.46</time>
   <dipole>
    <v name="dipole">      0.00000000       0.00000000      -0.17339990 </v>
    <i name="Tr[quadrupol]"> -10260.54746954 </i>
    <i name="Echarged">      0.00000000 </i>
    <i name="Edipol_quadrupol">      0.00000000 </i>
    <i name="Eion">      0.00000000 </i>
   </dipole>
   <energy>
    <i name="e_fr_energy">   -193.68121154 </i>
    <i name="e_wo_entrp">   -193.49892102 </i>
    <i name="e_0_energy">   -193.59006628 </i>
   </energy>
  </scstep>
  <scstep>
   <time name="diag">    1.29    1.29</time>
   <time name="diis">    3.45    3.46</time>
   <time name="orth">    0.35    0.35</time>
   <time name="total">    5.35    5.37</time>
   <dipole>
    <v name="dipole">      0.00000000       0.00000000       0.00948842 </v>
    <i name="Tr[quadrupol]"> -10261.14316232 </i>
    <i name="Echarged">      0.00000000 </i>
    <i name="Edipol_quadrupol">      0.00000000 </i>
    <i name="Eion">      0.00000000 </i>
   </dipole>
   <energy>
    <i name="e_fr_energy">   -189.60559974 </i>
    <i name="e_wo_entrp">   -189.38793737 </i>
    <i name="e_0_energy">   -189.49676855 </i>
   </energy>
  </scstep>
  <scstep>
   <time name="diag">    1.29    1.30</time>
   <time name="diis">    3.53    3.53</time>
   <time name="orth">    0.35    0.36</time>
   <time name="total">    5.43    5.48</time>
   <dipole>
    <v name="dipole">      0.00000000       0.00000000      -0.03816595 </v>
    <i name="Tr[quadrupol]"> -10261.70192964 </i>
    <i name="Echarged">      0.00000000 </i>
    <i name="Edipol_quadrupol">      0.00000000 </i>
    <i name="Eion">      0.00000000 </i>
   </dipole>
   <energy>
    <i name="e_fr_energy">   -188.79732653 </i>
    <i name="e_wo_entrp">   -188.54066874 </i>
    <i name="e_0_energy">   -188.66899764 </i>
   </energy>
  </scstep>
  <scstep>
   <time name="diag">    1.29    1.33</time>
   <time name="diis">    3.50    3.51</time>
   <time name="orth">    0.35    0.35</time>
   <time name="total">    5.41    5.47</time>
   <dipole>
    <v name="dipole">      0.00000000       0.00000000      -0.02093541 </v>
    <i name="Tr[quadrupol]"> -10261.88351893 </i>
    <i name="Echarged">      0.00000000 </i>
    <i name="Edipol_quadrupol">      0.00000000 </i>
    <i name="Eion">      0.00000000 </i>
   </dipole>
   <energy>
    <i name="e_fr_energy">   -188.85456862 </i>
    <i name="e_wo_entrp">   -188.61680189 </i>
    <i name="e_0_energy">   -188.73568525 </i>
   </energy>
  </scstep>
  <scstep>
   <time name="diag">    1.30    1.31</time>
   <time name="diis">    3.52    3.53</time>
   <time name="orth">    0.35    0.35</time>
   <time name="total">    5.44    5.46</time>
   <dipole>
    <v name="dipole">      0.00000000       0.00000000      -0.04069412 </v>
    <i name="Tr[quadrupol]"> -10262.11907518 </i>
    <i name="Echarged">      0.00000000 </i>
    <i name="Edipol_quadrupol">      0.00000000 </i>
    <i name="Eion">      0.00000000 </i>
   </dipole>
   <energy>
    <i name="e_fr_energy">   -188.85426343 </i>
    <i name="e_wo_entrp">   -188.61271531 </i>
    <i name="e_0_energy">   -188.73348937 </i>
   </energy>
  </scstep>
  <scstep>
   <time name="diag">    1.30    1.30</time>
   <time name="diis">    3.50    3.51</time>
   <time name="orth">    0.34    0.35</time>
   <time name="total">    5.40    5.42</time>
   <dipole>
    <v name="dipole">      0.00000000       0.00000000      -0.05108764 </v>
    <i name="Tr[quadrupol]"> -10262.37903263 </i>
    <i name="Echarged">      0.00000000 </i>
    <i name="Edipol_quadrupol">      0.00000000 </i>
    <i name="Eion">      0.00000000 </i>
   </dipole>
   <energy>
    <i name="e_fr_energy">   -188.67518050 </i>
    <i name="e_wo_entrp">   -188.42048210 </i>
    <i name="e_0_energy">   -188.54783130 </i>
   </energy>
  </scstep>
  <scstep>
   <time name="diag">    1.29    1.29</time>
   <time name="diis">    3.50    3.51</time>
   <time name="orth">    0.34    0.35</time>
   <time name="total">    5.40    5.42</time>
   <dipole>
    <v name="dipole">      0.00000000       0.00000000      -0.03497470 </v>
    <i name="Tr[quadrupol]"> -10262.61180246 </i>
    <i name="Echarged">      0.00000000 </i>
    <i name="Edipol_quadrupol">      0.00000000 </i>
    <i name="Eion">      0.00000000 </i>
   </dipole>
   <energy>
    <i name="e_fr_energy">   -188.52995171 </i>
    <i name="e_wo_entrp">   -188.27480433 </i>
    <i name="e_0_energy">   -188.40237802 </i>
   </energy>
  </scstep>
  <scstep>
   <time name="diag">    1.29    1.29</time>
   <time name="diis">    3.52    3.52</time>
   <time name="orth">    0.34    0.35</time>
   <time name="total">    5.41    5.43</time>
   <dipole>
    <v name="dipole">      0.00000000       0.00000000      -0.02928983 </v>
    <i name="Tr[quadrupol]"> -10262.96167648 </i>
    <i name="Echarged">      0.00000000 </i>
    <i name="Edipol_quadrupol">      0.00000000 </i>
    <i name="Eion">      0.00000000 </i>
   </dipole>
   <energy>
    <i name="e_fr_energy">   -188.49363289 </i>
    <i name="e_wo_entrp">   -188.23095956 </i>
    <i name="e_0_energy">   -188.36229623 </i>
   </energy>
  </scstep>
  <scstep>
   <time name="diag">    1.29    1.29</time>
   <time name="diis">    3.45    3.48</time>
   <time name="orth">    0.34    0.35</time>
   <time name="total">    5.34    5.39</time>
   <dipole>
    <v name="dipole">      0.00000000       0.00000000      -0.02359707 </v>
    <i name="Tr[quadrupol]"> -10263.08616707 </i>
    <i name="Echarged">      0.00000000 </i>
    <i name="Edipol_quadrupol">      0.00000000 </i>
    <i name="Eion">      0.00000000 </i>
   </dipole>
   <energy>
    <i name="e_fr_energy">   -188.47832973 </i>
    <i name="e_wo_entrp">   -188.21491262 </i>
    <i name="e_0_energy">   -188.34662117 </i>
   </energy>
  </scstep>
  <scstep>
   <time name="diag">    1.29    1.29</time>
   <time name="diis">    3.51    3.52</time>
   <time name="orth">    0.34    0.35</time>
   <time name="total">    5.40    5.43</time>
   <dipole>
    <v name="dipole">      0.00000000       0.00000000      -0.01621248 </v>
    <i name="Tr[quadrupol]"> -10263.19720313 </i>
    <i name="Echarged">      0.00000000 </i>
    <i name="Edipol_quadrupol">      0.00000000 </i>
    <i name="Eion">      0.00000000 </i>
   </dipole>
   <energy>
    <i name="e_fr_energy">   -188.47769069 </i>
    <i name="e_wo_entrp">   -188.21296482 </i>
    <i name="e_0_energy">   -188.34532776 </i>
   </energy>
  </scstep>
  <scstep>
   <time name="diag">    1.29    1.29</time>
   <time name="diis">    3.45    3.54</time>
   <time name="orth">    0.35    0.35</time>
   <time name="total">    5.35    5.45</time>
   <dipole>
    <v name="dipole">      0.00000000       0.00000000      -0.01715394 </v>
    <i name="Tr[quadrupol]"> -10263.35724815 </i>
    <i name="Echarged">      0.00000000 </i>
    <i name="Edipol_quadrupol">      0.00000000 </i>
    <i name="Eion">      0.00000000 </i>
   </dipole>
   <energy>
    <i name="e_fr_energy">   -188.47426555 </i>
    <i name="e_wo_entrp">   -188.20935941 </i>
    <i name="e_0_energy">   -188.34181248 </i>
   </energy>
  </scstep>
  <scstep>
   <time name="diag">    1.28    1.29</time>
   <time name="diis">    3.51    3.52</time>
   <time name="orth">    0.35    0.35</time>
   <time name="total">    5.41    5.42</time>
   <dipole>
    <v name="dipole">      0.00000000       0.00000000      -0.01766438 </v>
    <i name="Tr[quadrupol]"> -10263.46948541 </i>
    <i name="Echarged">      0.00000000 </i>
    <i name="Edipol_quadrupol">      0.00000000 </i>
    <i name="Eion">      0.00000000 </i>
   </dipole>
   <energy>
    <i name="e_fr_energy">   -188.47341746 </i>
    <i name="e_wo_entrp">   -188.20850463 </i>
    <i name="e_0_energy">   -188.34096105 </i>
   </energy>
  </scstep>
  <scstep>
   <time name="diag">    1.30    1.30</time>
   <time name="diis">    3.49    3.51</time>
   <time name="orth">    0.35    0.35</time>
   <time name="total">    5.40    5.42</time>
   <dipole>
    <v name="dipole">      0.00000000       0.00000000      -0.01945747 </v>
    <i name="Tr[quadrupol]"> -10263.59429944 </i>
    <i name="Echarged">      0.00000000 </i>
    <i name="Edipol_quadrupol">      0.00000000 </i>
    <i name="Eion">      0.00000000 </i>
   </dipole>
   <energy>
    <i name="e_fr_energy">   -188.47292797 </i>
    <i name="e_wo_entrp">   -188.20793166 </i>
    <i name="e_0_energy">   -188.34042981 </i>
   </energy>
  </scstep>
  <scstep>
   <time name="diag">    1.28    1.29</time>
   <time name="diis">    3.50    3.51</time>
   <time name="orth">    0.35    0.35</time>
   <time name="total">    5.39    5.41</time>
   <dipole>
    <v name="dipole">      0.00000000       0.00000000      -0.01791739 </v>
    <i name="Tr[quadrupol]"> -10263.66476091 </i>
    <i name="Echarged">      0.00000000 </i>
    <i name="Edipol_quadrupol">      0.00000000 </i>
    <i name="Eion">      0.00000000 </i>
   </dipole>
   <energy>
    <i name="e_fr_energy">   -188.47286562 </i>
    <i name="e_wo_entrp">   -188.20750093 </i>
    <i name="e_0_energy">   -188.34018327 </i>
   </energy>
  </scstep>
  <scstep>
   <time name="diag">    1.30    1.30</time>
   <time name="diis">    3.48    3.49</time>
   <time name="orth">    0.34    0.34</time>
   <time name="total">    5.39    5.40</time>
   <dipole>
    <v name="dipole">      0.00000000       0.00000000      -0.01542681 </v>
    <i name="Tr[quadrupol]"> -10263.75269831 </i>
    <i name="Echarged">      0.00000000 </i>
    <i name="Edipol_quadrupol">      0.00000000 </i>
    <i name="Eion">      0.00000000 </i>
   </dipole>
   <energy>
    <i name="e_fr_energy">   -188.47312819 </i>
    <i name="e_wo_entrp">   -188.20758786 </i>
    <i name="e_0_energy">   -188.34035802 </i>
   </energy>
  </scstep>
  <scstep>
   <time name="diag">    1.28    1.29</time>
   <time name="diis">    3.52    3.53</time>
   <time name="orth">    0.34    0.34</time>
   <time name="total">    5.41    5.43</time>
   <dipole>
    <v name="dipole">      0.00000000       0.00000000      -0.01465177 </v>
    <i name="Tr[quadrupol]"> -10263.84233218 </i>
    <i name="Echarged">      0.00000000 </i>
    <i name="Edipol_quadrupol">      0.00000000 </i>
    <i name="Eion">      0.00000000 </i>
   </dipole>
   <energy>
    <i name="e_fr_energy">   -188.47355784 </i>
    <i name="e_wo_entrp">   -188.20796130 </i>
    <i name="e_0_energy">   -188.34075957 </i>
   </energy>
  </scstep>
  <scstep>
   <time name="diag">    1.29    1.30</time>
   <time name="diis">    3.60    3.61</time>
   <time name="orth">    0.34    0.35</time>
   <time name="total">    5.50    5.52</time>
   <dipole>
    <v name="dipole">      0.00000000       0.00000000      -0.01467459 </v>
    <i name="Tr[quadrupol]"> -10263.91072931 </i>
    <i name="Echarged">      0.00000000 </i>
    <i name="Edipol_quadrupol">      0.00000000 </i>
    <i name="Eion">      0.00000000 </i>
   </dipole>
   <energy>
    <i name="e_fr_energy">   -188.47399226 </i>
    <i name="e_wo_entrp">   -188.20835914 </i>
    <i name="e_0_energy">   -188.34117570 </i>
   </energy>
  </scstep>
  <scstep>
   <time name="diag">    1.29    1.29</time>
   <time name="diis">    3.46    3.55</time>
   <time name="orth">    0.34    0.34</time>
   <time name="total">    5.35    5.45</time>
   <dipole>
    <v name="dipole">      0.00000000       0.00000000      -0.01365121 </v>
    <i name="Tr[quadrupol]"> -10263.99595564 </i>
    <i name="Echarged">      0.00000000 </i>
    <i name="Edipol_quadrupol">      0.00000000 </i>
    <i name="Eion">      0.00000000 </i>
   </dipole>
   <energy>
    <i name="e_fr_energy">   -188.47466130 </i>
    <i name="e_wo_entrp">   -188.20901842 </i>
    <i name="e_0_energy">   -188.34183986 </i>
   </energy>
  </scstep>
  <scstep>
   <time name="diag">    1.29    1.29</time>
   <time name="diis">    3.67    3.68</time>
   <time name="orth">    0.34    0.34</time>
   <time name="total">    5.57    5.58</time>
   <dipole>
    <v name="dipole">      0.00000000       0.00000000      -0.01260498 </v>
    <i name="Tr[quadrupol]"> -10264.05827737 </i>
    <i name="Echarged">      0.00000000 </i>
    <i name="Edipol_quadrupol">      0.00000000 </i>
    <i name="Eion">      0.00000000 </i>
   </dipole>
   <energy>
    <i name="e_fr_energy">   -188.47526419 </i>
    <i name="e_wo_entrp">   -188.20959148 </i>
    <i name="e_0_energy">   -188.34242783 </i>
   </energy>
  </scstep>
  <scstep>
   <time name="diag">    1.29    1.29</time>
   <time name="diis">    3.42    3.45</time>
   <time name="orth">    0.34    0.35</time>
   <time name="total">    5.32    5.36</time>
   <dipole>
    <v name="dipole">      0.00000000       0.00000000      -0.01205087 </v>
    <i name="Tr[quadrupol]"> -10264.10104756 </i>
    <i name="Echarged">      0.00000000 </i>
    <i name="Edipol_quadrupol">      0.00000000 </i>
    <i name="Eion">      0.00000000 </i>
   </dipole>
   <energy>
    <i name="e_fr_energy">   -188.47571556 </i>
    <i name="e_wo_entrp">   -188.21005657 </i>
    <i name="e_0_energy">   -188.34288606 </i>
   </energy>
  </scstep>
  <scstep>
   <time name="diag">    1.28    1.29</time>
   <time name="diis">    3.21    3.22</time>
   <time name="orth">    0.34    0.34</time>
   <time name="total">    5.11    5.13</time>
   <dipole>
    <v name="dipole">      0.00000000       0.00000000      -0.01110655 </v>
    <i name="Tr[quadrupol]"> -10264.15043761 </i>
    <i name="Echarged">      0.00000000 </i>
    <i name="Edipol_quadrupol">      0.00000000 </i>
    <i name="Eion">      0.00000000 </i>
   </dipole>
   <energy>
    <i name="e_fr_energy">   -188.47619224 </i>
    <i name="e_wo_entrp">   -188.21058862 </i>
    <i name="e_0_energy">   -188.34339043 </i>
   </energy>
  </scstep>
  <scstep>
   <time name="diag">    1.28    1.28</time>
   <time name="diis">    2.97    2.98</time>
   <time name="orth">    0.34    0.34</time>
   <time name="total">    4.86    4.88</time>
   <dipole>
    <v name="dipole">      0.00000000       0.00000000      -0.01039763 </v>
    <i name="Tr[quadrupol]"> -10264.18691709 </i>
    <i name="Echarged">      0.00000000 </i>
    <i name="Edipol_quadrupol">      0.00000000 </i>
    <i name="Eion">      0.00000000 </i>
   </dipole>
   <energy>
    <i name="e_fr_energy">   -188.47646693 </i>
    <i name="e_wo_entrp">   -188.21079574 </i>
    <i name="e_0_energy">   -188.34363134 </i>
   </energy>
  </scstep>
  <scstep>
   <time name="diag">    1.29    1.29</time>
   <time name="diis">    2.59    2.60</time>
   <time name="orth">    0.34    0.34</time>
   <time name="total">    4.49    4.50</time>
   <dipole>
    <v name="dipole">      0.00000000       0.00000000      -0.01008429 </v>
    <i name="Tr[quadrupol]"> -10264.19768293 </i>
    <i name="Echarged">      0.00000000 </i>
    <i name="Edipol_quadrupol">      0.00000000 </i>
    <i name="Eion">      0.00000000 </i>
   </dipole>
   <energy>
    <i name="e_fr_energy">   -188.47656337 </i>
    <i name="e_wo_entrp">   -188.21090983 </i>
    <i name="e_0_energy">   -188.34373660 </i>
   </energy>
  </scstep>
  <scstep>
   <time name="diag">    1.29    1.29</time>
   <time name="diis">    2.39    2.40</time>
   <time name="orth">    0.34    0.34</time>
   <time name="total">    4.29    4.30</time>
   <dipole>
    <v name="dipole">      0.00000000       0.00000000      -0.00972677 </v>
    <i name="Tr[quadrupol]"> -10264.21139351 </i>
    <i name="Echarged">      0.00000000 </i>
    <i name="Edipol_quadrupol">      0.00000000 </i>
    <i name="Eion">      0.00000000 </i>
   </dipole>
   <energy>
    <i name="e_fr_energy">   -188.47667170 </i>
    <i name="e_wo_entrp">   -188.21102008 </i>
    <i name="e_0_energy">   -188.34384589 </i>
   </energy>
  </scstep>
  <scstep>
   <time name="diag">    1.29    1.29</time>
   <time name="diis">    2.19    2.20</time>
   <time name="orth">    0.34    0.34</time>
   <time name="total">    4.09    4.11</time>
   <dipole>
    <v name="dipole">      0.00000000       0.00000000      -0.00953474 </v>
    <i name="Tr[quadrupol]"> -10264.21794610 </i>
    <i name="Echarged">      0.00000000 </i>
    <i name="Edipol_quadrupol">      0.00000000 </i>
    <i name="Eion">      0.00000000 </i>
   </dipole>
   <energy>
    <i name="e_fr_energy">   -188.47671809 </i>
    <i name="e_wo_entrp">   -188.21107471 </i>
    <i name="e_0_energy">   -188.34389640 </i>
   </energy>
  </scstep>
  <scstep>
   <time name="diag">    1.28    1.28</time>
   <time name="diis">    2.15    2.16</time>
   <time name="orth">    0.34    0.34</time>
   <time name="total">    4.05    4.06</time>
   <dipole>
    <v name="dipole">      0.00000000       0.00000000      -0.00933160 </v>
    <i name="Tr[quadrupol]"> -10264.22459051 </i>
    <i name="Echarged">      0.00000000 </i>
    <i name="Edipol_quadrupol">      0.00000000 </i>
    <i name="Eion">      0.00000000 </i>
   </dipole>
   <energy>
    <i name="e_fr_energy">   -188.47675392 </i>
    <i name="e_wo_entrp">   -188.21109978 </i>
    <i name="e_0_energy">   -188.34392685 </i>
   </energy>
  </scstep>
  <scstep>
   <time name="diag">    1.27    1.34</time>
   <time name="diis">    2.13    2.14</time>
   <time name="orth">    0.34    0.34</time>
   <time name="total">    4.01    4.09</time>
   <dipole>
    <v name="dipole">      0.00000000       0.00000000      -0.00916118 </v>
    <i name="Tr[quadrupol]"> -10264.23046768 </i>
    <i name="Echarged">      0.00000000 </i>
    <i name="Edipol_quadrupol">      0.00000000 </i>
    <i name="Eion">      0.00000000 </i>
   </dipole>
   <energy>
    <i name="e_fr_energy">   -188.47677565 </i>
    <i name="e_wo_entrp">   -188.21111935 </i>
    <i name="e_0_energy">   -188.34394750 </i>
   </energy>
  </scstep>
  <scstep>
   <time name="diag">    1.28    1.29</time>
   <time name="diis">    1.96    1.96</time>
   <time name="orth">    0.34    0.34</time>
   <time name="total">    3.85    3.87</time>
   <dipole>
    <v name="dipole">      0.00000000       0.00000000      -0.00901622 </v>
    <i name="Tr[quadrupol]"> -10264.23489753 </i>
    <i name="Echarged">      0.00000000 </i>
    <i name="Edipol_quadrupol">      0.00000000 </i>
    <i name="Eion">      0.00000000 </i>
   </dipole>
   <energy>
    <i name="e_fr_energy">   -188.47678433 </i>
    <i name="e_wo_entrp">   -188.21113287 </i>
    <i name="e_0_energy">   -188.34395860 </i>
   </energy>
  </scstep>
  <scstep>
   <time name="diag">    1.29    1.29</time>
   <time name="diis">    1.67    1.68</time>
   <time name="orth">    0.34    0.34</time>
   <time name="total">    3.57    3.59</time>
   <dipole>
    <v name="dipole">      0.00000000       0.00000000      -0.00894111 </v>
    <i name="Tr[quadrupol]"> -10264.23781504 </i>
    <i name="Echarged">      0.00000000 </i>
    <i name="Edipol_quadrupol">      0.00000000 </i>
    <i name="Eion">      0.00000000 </i>
   </dipole>
   <energy>
    <i name="e_fr_energy">   -188.47678631 </i>
    <i name="e_wo_entrp">   -188.21113317 </i>
    <i name="e_0_energy">   -188.34395974 </i>
   </energy>
  </scstep>
  <scstep>
   <time name="diag">    1.28    1.28</time>
   <time name="diis">    1.51    1.52</time>
   <time name="orth">    0.34    0.34</time>
   <time name="total">    3.19    3.20</time>
   <dipole>
    <v name="dipole">      0.00000000       0.00000000      -0.00890641 </v>
    <i name="Tr[quadrupol]"> -10264.23922904 </i>
    <i name="Echarged">      0.00000000 </i>
    <i name="Edipol_quadrupol">      0.00000000 </i>
    <i name="Eion">      0.00000000 </i>
   </dipole>
   <energy>
    <i name="alphaZ">    805.87077118 </i>
    <i name="ewald"> 200393.80871911 </i>
    <i name="hartreedc">-242585.84798702 </i>
    <i name="XCdc">   -343.22028561 </i>
    <i name="pawpsdc">  49401.67787136 </i>
    <i name="pawaedc"> -47479.32487487 </i>
    <i name="eentropy">     -0.26565184 </i>
    <i name="bandstr">  -2040.96122153 </i>
    <i name="atom">  41659.78587232 </i>
    <i name="e_fr_energy">   -188.47678691 </i>
    <i name="e_wo_entrp">   -188.21113507 </i>
    <i name="e_0_energy">   -188.34396099 </i>
   </energy>
  </scstep>
  <structure>
   <crystal>
    <varray name="basis" >
     <v>      11.00258152       0.00000000       0.00000000 </v>
     <v>       5.50129076       9.52851510       0.00000000 </v>
     <v>       0.00000000       0.00000000      24.49178509 </v>
    </varray>
    <i name="volume">   2567.67623402 </i>
    <varray name="rec_basis" >
     <v>       0.09088776      -0.05247407       0.00000000 </v>
     <v>       0.00000000       0.10494815       0.00000000 </v>
     <v>       0.00000000       0.00000000       0.04083002 </v>
    </varray>
   </crystal>
   <varray name="positions" >
    <v>       0.08333333       0.08333333       0.40830017 </v>
    <v>       0.41666667       0.91666667       0.50000000 </v>
    <v>       0.58333333       0.33333333       0.40830017 </v>
    <v>       0.50000000       0.00000000       0.59169983 </v>
    <v>       0.41666667       0.16666667       0.50000000 </v>
    <v>       0.83333333       0.08333333       0.40830017 </v>
    <v>       0.16666667       0.91666667       0.50000000 </v>
    <v>       0.33333333       0.83333333       0.40830017 </v>
    <v>       0.25000000       0.50000000       0.59169983 </v>
    <v>       0.16666667       0.66666667       0.50000000 </v>
    <v>       0.33333333       0.58333333       0.40830017 </v>
    <v>       0.25000000       0.25000000       0.59169983 </v>
    <v>       0.16666667       0.41666667       0.50000000 </v>
    <v>       0.66666667       0.16666667       0.50000000 </v>
    <v>       0.08333333       0.58333333       0.40830017 </v>
    <v>       0.91666667       0.16666667       0.50000000 </v>
    <v>       0.66666667       0.41666667       0.50000000 </v>
    <v>       0.00000000       0.75000000       0.59169983 </v>
    <v>       0.00000000       0.00000000       0.59169983 </v>
    <v>       0.83333333       0.58333333       0.40830017 </v>
    <v>       0.00000000       0.50000000       0.59169983 </v>
    <v>       0.66666667       0.66666667       0.50000000 </v>
    <v>       0.00000000       0.25000000       0.59169983 </v>
    <v>       0.75000000       0.50000000       0.59169983 </v>
    <v>       0.83333333       0.83333333       0.40830017 </v>
    <v>       0.75000000       0.00000000       0.59169983 </v>
    <v>       0.83333333       0.33333333       0.40830017 </v>
    <v>       0.75000000       0.25000000       0.59169983 </v>
    <v>       0.58333333       0.83333333       0.40830017 </v>
    <v>       0.50000000       0.75000000       0.59169983 </v>
    <v>       0.50000000       0.50000000       0.59169983 </v>
    <v>       0.25000000       0.75000000       0.59169983 </v>
    <v>       0.58333333       0.58333333       0.40830017 </v>
    <v>       0.50000000       0.25000000       0.59169983 </v>
    <v>       0.41666667       0.41666667       0.50000000 </v>
    <v>       0.58333333       0.08333333       0.40830017 </v>
    <v>       0.66666667       0.91666667       0.50000000 </v>
    <v>       0.33333333       0.33333333       0.40830017 </v>
    <v>       0.25000000       0.00000000       0.59169983 </v>
    <v>       0.16666667       0.16666667       0.50000000 </v>
    <v>       0.33333333       0.08333333       0.40830017 </v>
    <v>       0.91666667       0.91666667       0.50000000 </v>
    <v>       0.08333333       0.83333333       0.40830017 </v>
    <v>       0.91666667       0.66666667       0.50000000 </v>
    <v>       0.91666667       0.41666667       0.50000000 </v>
    <v>       0.08333333       0.33333333       0.40830017 </v>
    <v>       0.41666667       0.66666667       0.50000000 </v>
    <v>       0.75000000       0.75000000       0.59169983 </v>
   </varray>
  </structure>
  <varray name="forces" >
   <v>       0.24285923       0.32443770      -1.57961010 </v>
   <v>       0.03699962      -0.04592362      -0.00311254 </v>
   <v>      -0.12583641       0.11141968      -1.60765534 </v>
   <v>       0.23422409      -0.26442750       1.55590326 </v>
   <v>       0.19154476       0.05700669      -0.55850980 </v>
   <v>      -0.16242112      -0.36837623      -1.61335778 </v>
   <v>       0.05318119      -0.23223676       0.29905506 </v>
   <v>       0.25680750      -0.12107386      -1.59725545 </v>
   <v>       0.67583463      -0.05697817       1.60236434 </v>
   <v>       0.19530817       0.31642239      -0.02029460 </v>
   <v>       0.14393172      -0.09352250      -1.40137696 </v>
   <v>       0.01340754      -0.30407611       1.66048628 </v>
   <v>      -0.28435886      -0.27357835      -0.58336334 </v>
   <v>      -0.35221463      -0.34229129       0.51776104 </v>
   <v>      -0.17129520       0.08026446      -1.51802925 </v>
   <v>       0.10422677       0.33236828       0.00935058 </v>
   <v>      -0.15343264       0.28333189       0.04569232 </v>
   <v>      -0.26980252       0.30631335       1.37237245 </v>
   <v>      -0.11793336      -0.08116800       1.56456273 </v>
   <v>      -0.11697904      -0.06534884      -1.30004746 </v>
   <v>      -0.25589452       0.28687830       1.40921238 </v>
   <v>       0.12349450       0.29474721      -0.01834086 </v>
   <v>       0.01886747      -0.14411040       1.41768439 </v>
   <v>      -0.23526042       0.16578768       1.52074126 </v>
   <v>      -0.06425348       0.18360948      -0.58162549 </v>
   <v>      -0.09415538      -0.00288726       0.70110635 </v>
   <v>       0.18362711       0.15187407      -0.92252032 </v>
   <v>      -0.34378596      -0.02180303       1.00388669 </v>
   <v>       0.21143043       0.21292767      -0.79110521 </v>
   <v>      -0.24704215      -0.02775636       0.83224500 </v>
   <v>      -0.14853305       0.01661020       0.70332824 </v>
   <v>       0.44864333      -0.10076598       0.85874600 </v>
   <v>       0.06199025       0.05198607      -0.89782267 </v>
   <v>       0.30708282       0.07246378       0.86643141 </v>
   <v>       0.13334939       0.04456854       0.16744385 </v>
   <v>      -0.22002886      -0.30733229      -0.83779233 </v>
   <v>       0.38348551      -0.23458265      -0.19092352 </v>
   <v>      -0.06391852      -0.23950689      -0.84634986 </v>
   <v>      -0.01148881      -0.17237211       0.92411511 </v>
   <v>       0.04009619       0.09115337      -0.21857165 </v>
   <v>       0.17745756       0.17584557      -0.83295888 </v>
   <v>      -0.49444640      -0.24824489      -0.10269690 </v>
   <v>      -0.27478880       0.03684596      -0.93634622 </v>
   <v>      -0.25088581       0.45005187      -0.06506252 </v>
   <v>       0.18469392      -0.10996517      -0.33558345 </v>
   <v>      -0.02452540      -0.19023198      -0.71598137 </v>
   <v>       0.03311964      -0.23319355       0.34743860 </v>
   <v>       0.02761800       0.23483958       0.69636654 </v>
  </varray>
  <energy>
   <i name="e_fr_energy">   -188.47678691 </i>
   <i name="e_wo_entrp">   -188.34396099 </i>
   <i name="e_0_energy">     -0.26565184 </i>
  </energy>
  <time name="totalsc">  215.34  216.50</time>
 </calculation>
 <calculation>
  <scstep>
   <time name="dav">    7.27    7.29</time>
   <time name="total">    7.54    7.56</time>
   <dipole>
    <v name="dipole">      0.00000000       0.00000000      -0.00885651 </v>
    <i name="Tr[quadrupol]"> -10262.03811076 </i>
    <i name="Echarged">      0.00000000 </i>
    <i name="Edipol_quadrupol">      0.00000000 </i>
    <i name="Eion">      0.00000000 </i>
   </dipole>
   <energy>
    <i name="alphaZ">    805.87078807 </i>
    <i name="ewald"> 197636.37593908 </i>
    <i name="hartreedc">-239845.00678421 </i>
    <i name="XCdc">   -345.49132436 </i>
    <i name="pawpsdc">  49401.67385610 </i>
    <i name="pawaedc"> -47479.32100969 </i>
    <i name="eentropy">     -0.25754865 </i>
    <i name="bandstr">  -2023.21933012 </i>
    <i name="atom">  41659.78587232 </i>
    <i name="e_fr_energy">   -189.58954147 </i>
    <i name="e_wo_entrp">   -189.33199282 </i>
    <i name="e_0_energy">   -189.46076714 </i>
   </energy>
  </scstep>
  <scstep>
   <time name="diag">    1.29    1.29</time>
   <time name="diis">    3.51    3.53</time>
   <time name="orth">    0.34    0.34</time>
   <time name="total">    5.41    5.43</time>
   <dipole>
    <v name="dipole">      0.00000000       0.00000000      -0.00725116 </v>
    <i name="Tr[quadrupol]"> -10261.78729003 </i>
    <i name="Echarged">      0.00000000 </i>
    <i name="Edipol_quadrupol">      0.00000000 </i>
    <i name="Eion">      0.00000000 </i>
   </dipole>
   <energy>
    <i name="e_fr_energy">   -189.97893237 </i>
    <i name="e_wo_entrp">   -189.72287318 </i>
    <i name="e_0_energy">   -189.85090278 </i>
   </energy>
  </scstep>
  <scstep>
   <time name="diag">    1.30    1.31</time>
   <time name="diis">    3.54    3.59</time>
   <time name="orth">    0.34    0.34</time>
   <time name="total">    5.45    5.51</time>
   <dipole>
    <v name="dipole">      0.00000000       0.00000000      -0.01404367 </v>
    <i name="Tr[quadrupol]"> -10262.23095676 </i>
    <i name="Echarged">      0.00000000 </i>
    <i name="Edipol_quadrupol">      0.00000000 </i>
    <i name="Eion">      0.00000000 </i>
   </dipole>
   <energy>
    <i name="e_fr_energy">   -190.03690555 </i>
    <i name="e_wo_entrp">   -189.77294252 </i>
    <i name="e_0_energy">   -189.90492403 </i>
   </energy>
  </scstep>
  <scstep>
   <time name="diag">    1.29    1.29</time>
   <time name="diis">    3.51    3.56</time>
   <time name="orth">    0.34    0.37</time>
   <time name="total">    5.41    5.50</time>
   <dipole>
    <v name="dipole">      0.00000000       0.00000000      -0.00225665 </v>
    <i name="Tr[quadrupol]"> -10262.12475167 </i>
    <i name="Echarged">      0.00000000 </i>
    <i name="Edipol_quadrupol">      0.00000000 </i>
    <i name="Eion">      0.00000000 </i>
   </dipole>
   <energy>
    <i name="e_fr_energy">   -189.96743782 </i>
    <i name="e_wo_entrp">   -189.70843379 </i>
    <i name="e_0_energy">   -189.83793580 </i>
   </energy>
  </scstep>
  <scstep>
   <time name="diag">    1.29    1.30</time>
   <time name="diis">    3.51    3.52</time>
   <time name="orth">    0.34    0.34</time>
   <time name="total">    5.40    5.43</time>
   <dipole>
    <v name="dipole">      0.00000000       0.00000000      -0.04570126 </v>
    <i name="Tr[quadrupol]"> -10262.10325112 </i>
    <i name="Echarged">      0.00000000 </i>
    <i name="Edipol_quadrupol">      0.00000000 </i>
    <i name="Eion">      0.00000000 </i>
   </dipole>
   <energy>
    <i name="e_fr_energy">   -189.99365578 </i>
    <i name="e_wo_entrp">   -189.74536259 </i>
    <i name="e_0_energy">   -189.86950918 </i>
   </energy>
  </scstep>
  <scstep>
   <time name="diag">    1.29    1.29</time>
   <time name="diis">    3.49    3.50</time>
   <time name="orth">    0.34    0.34</time>
   <time name="total">    5.38    5.40</time>
   <dipole>
    <v name="dipole">      0.00000000       0.00000000       0.02263099 </v>
    <i name="Tr[quadrupol]"> -10262.10686933 </i>
    <i name="Echarged">      0.00000000 </i>
    <i name="Edipol_quadrupol">      0.00000000 </i>
    <i name="Eion">      0.00000000 </i>
   </dipole>
   <energy>
    <i name="e_fr_energy">   -189.96867287 </i>
    <i name="e_wo_entrp">   -189.71041973 </i>
    <i name="e_0_energy">   -189.83954630 </i>
   </energy>
  </scstep>
  <scstep>
   <time name="diag">    1.28    1.29</time>
   <time name="diis">    3.56    3.57</time>
   <time name="orth">    0.34    0.34</time>
   <time name="total">    5.45    5.46</time>
   <dipole>
    <v name="dipole">      0.00000000       0.00000000      -0.01526665 </v>
    <i name="Tr[quadrupol]"> -10262.09509089 </i>
    <i name="Echarged">      0.00000000 </i>
    <i name="Edipol_quadrupol">      0.00000000 </i>
    <i name="Eion">      0.00000000 </i>
   </dipole>
   <energy>
    <i name="e_fr_energy">   -189.95533080 </i>
    <i name="e_wo_entrp">   -189.69438842 </i>
    <i name="e_0_energy">   -189.82485961 </i>
   </energy>
  </scstep>
  <scstep>
   <time name="diag">    1.29    1.29</time>
   <time name="diis">    3.49    3.50</time>
   <time name="orth">    0.34    0.34</time>
   <time name="total">    5.38    5.40</time>
   <dipole>
    <v name="dipole">      0.00000000       0.00000000      -0.00704437 </v>
    <i name="Tr[quadrupol]"> -10262.06790859 </i>
    <i name="Echarged">      0.00000000 </i>
    <i name="Edipol_quadrupol">      0.00000000 </i>
    <i name="Eion">      0.00000000 </i>
   </dipole>
   <energy>
    <i name="e_fr_energy">   -189.95254768 </i>
    <i name="e_wo_entrp">   -189.69276118 </i>
    <i name="e_0_energy">   -189.82265443 </i>
   </energy>
  </scstep>
  <scstep>
   <time name="diag">    1.29    1.29</time>
   <time name="diis">    3.54    3.55</time>
   <time name="orth">    0.34    0.35</time>
   <time name="total">    5.44    5.45</time>
   <dipole>
    <v name="dipole">      0.00000000       0.00000000      -0.00919686 </v>
    <i name="Tr[quadrupol]"> -10262.06008544 </i>
    <i name="Echarged">      0.00000000 </i>
    <i name="Edipol_quadrupol">      0.00000000 </i>
    <i name="Eion">      0.00000000 </i>
   </dipole>
   <energy>
    <i name="e_fr_energy">   -189.95198866 </i>
    <i name="e_wo_entrp">   -189.69233752 </i>
    <i name="e_0_energy">   -189.82216309 </i>
   </energy>
  </scstep>
  <scstep>
   <time name="diag">    1.29    1.29</time>
   <time name="diis">    3.53    3.54</time>
   <time name="orth">    0.34    0.34</time>
   <time name="total">    5.42    5.44</time>
   <dipole>
    <v name="dipole">      0.00000000       0.00000000      -0.00762569 </v>
    <i name="Tr[quadrupol]"> -10262.05962093 </i>
    <i name="Echarged">      0.00000000 </i>
    <i name="Edipol_quadrupol">      0.00000000 </i>
    <i name="Eion">      0.00000000 </i>
   </dipole>
   <energy>
    <i name="e_fr_energy">   -189.95182159 </i>
    <i name="e_wo_entrp">   -189.69095665 </i>
    <i name="e_0_energy">   -189.82138912 </i>
   </energy>
  </scstep>
  <scstep>
   <time name="diag">    1.28    1.29</time>
   <time name="diis">    3.67    3.68</time>
   <time name="orth">    0.34    0.34</time>
   <time name="total">    5.56    5.58</time>
   <dipole>
    <v name="dipole">      0.00000000       0.00000000      -0.00759017 </v>
    <i name="Tr[quadrupol]"> -10262.05751128 </i>
    <i name="Echarged">      0.00000000 </i>
    <i name="Edipol_quadrupol">      0.00000000 </i>
    <i name="Eion">      0.00000000 </i>
   </dipole>
   <energy>
    <i name="e_fr_energy">   -189.95167018 </i>
    <i name="e_wo_entrp">   -189.69143493 </i>
    <i name="e_0_energy">   -189.82155256 </i>
   </energy>
  </scstep>
  <scstep>
   <time name="diag">    1.28    1.33</time>
   <time name="diis">    3.50    3.54</time>
   <time name="orth">    0.34    0.34</time>
   <time name="total">    5.39    5.48</time>
   <dipole>
    <v name="dipole">      0.00000000       0.00000000      -0.00791855 </v>
    <i name="Tr[quadrupol]"> -10262.06171269 </i>
    <i name="Echarged">      0.00000000 </i>
    <i name="Edipol_quadrupol">      0.00000000 </i>
    <i name="Eion">      0.00000000 </i>
   </dipole>
   <energy>
    <i name="e_fr_energy">   -189.95166473 </i>
    <i name="e_wo_entrp">   -189.69124432 </i>
    <i name="e_0_energy">   -189.82145453 </i>
   </energy>
  </scstep>
  <scstep>
   <time name="diag">    1.29    1.29</time>
   <time name="diis">    3.54    3.55</time>
   <time name="orth">    0.34    0.34</time>
   <time name="total">    5.43    5.45</time>
   <dipole>
    <v name="dipole">      0.00000000       0.00000000      -0.00790034 </v>
    <i name="Tr[quadrupol]"> -10262.06644324 </i>
    <i name="Echarged">      0.00000000 </i>
    <i name="Edipol_quadrupol">      0.00000000 </i>
    <i name="Eion">      0.00000000 </i>
   </dipole>
   <energy>
    <i name="e_fr_energy">   -189.95165320 </i>
    <i name="e_wo_entrp">   -189.69135011 </i>
    <i name="e_0_energy">   -189.82150166 </i>
   </energy>
  </scstep>
  <scstep>
   <time name="diag">    1.31    1.31</time>
   <time name="diis">    3.52    3.57</time>
   <time name="orth">    0.34    0.34</time>
   <time name="total">    5.44    5.49</time>
   <dipole>
    <v name="dipole">      0.00000000       0.00000000      -0.00784355 </v>
    <i name="Tr[quadrupol]"> -10262.07007009 </i>
    <i name="Echarged">      0.00000000 </i>
    <i name="Edipol_quadrupol">      0.00000000 </i>
    <i name="Eion">      0.00000000 </i>
   </dipole>
   <energy>
    <i name="e_fr_energy">   -189.95165041 </i>
    <i name="e_wo_entrp">   -189.69140530 </i>
    <i name="e_0_energy">   -189.82152785 </i>
   </energy>
  </scstep>
  <scstep>
   <time name="diag">    1.29    1.29</time>
   <time name="diis">    2.61    2.62</time>
   <time name="orth">    0.34    0.34</time>
   <time name="total">    4.29    4.30</time>
   <dipole>
    <v name="dipole">      0.00000000       0.00000000      -0.00783512 </v>
    <i name="Tr[quadrupol]"> -10262.07213474 </i>
    <i name="Echarged">      0.00000000 </i>
    <i name="Edipol_quadrupol">      0.00000000 </i>
    <i name="Eion">      0.00000000 </i>
   </dipole>
   <energy>
    <i name="alphaZ">    805.87062415 </i>
    <i name="ewald"> 197636.37593908 </i>
    <i name="hartreedc">-239846.61886590 </i>
    <i name="XCdc">   -345.42871260 </i>
    <i name="pawpsdc">  48944.18637462 </i>
    <i name="pawaedc"> -47018.62670307 </i>
    <i name="eentropy">     -0.26024120 </i>
    <i name="bandstr">  -2025.23593712 </i>
    <i name="atom">  41659.78587232 </i>
    <i name="e_fr_energy">   -189.95164972 </i>
    <i name="e_wo_entrp">   -189.69140851 </i>
    <i name="e_0_energy">   -189.82152912 </i>
   </energy>
  </scstep>
  <structure>
   <crystal>
    <varray name="basis" >
     <v>      11.00258152       0.00000000       0.00000000 </v>
     <v>       5.50129076       9.52851510       0.00000000 </v>
     <v>       0.00000000       0.00000000      24.49178509 </v>
    </varray>
    <i name="volume">   2567.67623402 </i>
    <varray name="rec_basis" >
     <v>       0.09088776      -0.05247407       0.00000000 </v>
     <v>       0.00000000       0.10494815       0.00000000 </v>
     <v>       0.00000000       0.00000000       0.04083002 </v>
    </varray>
   </crystal>
   <varray name="positions" >
    <v>       0.08350382       0.08448317       0.40612217 </v>
    <v>       0.41686161       0.91650391       0.49999571 </v>
    <v>       0.58274967       0.33372821       0.40608350 </v>
    <v>       0.50118747      -0.00093715       0.59384515 </v>
    <v>       0.41715355       0.16686870       0.49922991 </v>
    <v>       0.83348760       0.08202778       0.40607563 </v>
    <v>       0.16724143       0.91584360       0.50041234 </v>
    <v>       0.33433609       0.83290424       0.40609784 </v>
    <v>       0.25217528       0.49979806       0.59390921 </v>
    <v>       0.16670541       0.66778809       0.49997202 </v>
    <v>       0.33394082       0.58300188       0.40636792 </v>
    <v>       0.25057999       0.24892233       0.59398935 </v>
    <v>       0.16627869       0.41569708       0.49919564 </v>
    <v>       0.66619218       0.16545356       0.50071390 </v>
    <v>       0.08266535       0.58361780       0.40620707 </v>
    <v>       0.91639760       0.16784461       0.50001289 </v>
    <v>       0.66569366       0.41767082       0.50006300 </v>
    <v>      -0.00137090       0.75108560       0.59359209 </v>
    <v>      -0.00021814      -0.00028767       0.59385709 </v>
    <v>       0.83309009       0.58310173       0.40650763 </v>
    <v>      -0.00129377       0.50101672       0.59364289 </v>
    <v>       0.66652340       0.66771128       0.49997471 </v>
    <v>       0.00031328       0.24948926       0.59365457 </v>
    <v>       0.74898414       0.50058757       0.59379667 </v>
    <v>       0.83281076       0.83398406       0.40749821 </v>
    <v>       0.74971613      -0.00001023       0.59266653 </v>
    <v>       0.83362781       0.33387159       0.40702818 </v>
    <v>       0.74898347       0.24992273       0.59308401 </v>
    <v>       0.58360495       0.83408797       0.40720937 </v>
    <v>       0.49929095       0.74990163       0.59284735 </v>
    <v>       0.49951468       0.50005887       0.59266960 </v>
    <v>       0.25155557       0.74964288       0.59288389 </v>
    <v>       0.58343148       0.58351758       0.40706223 </v>
    <v>       0.50081411       0.25025682       0.59289449 </v>
    <v>       0.41699697       0.41682462       0.50023088 </v>
    <v>       0.58320261       0.08224412       0.40714500 </v>
    <v>       0.66825938       0.91583529       0.49973675 </v>
    <v>       0.33356157       0.33248450       0.40713320 </v>
    <v>       0.25027019      -0.00061090       0.59297402 </v>
    <v>       0.16662820       0.16698972       0.49969863 </v>
    <v>       0.33356639       0.08395654       0.40715167 </v>
    <v>       0.91558898       0.91578687       0.49985840 </v>
    <v>       0.08242464       0.83346392       0.40700911 </v>
    <v>       0.91509912       0.66826169       0.49991029 </v>
    <v>       0.91742840       0.41627694       0.49953729 </v>
    <v>       0.08359516       0.33265914       0.40731296 </v>
    <v>       0.41718155       0.66584021       0.50047906 </v>
    <v>       0.74966862       0.75083229       0.59266000 </v>
   </varray>
  </structure>
  <varray name="forces" >
   <v>       0.11242084       0.10122853      -1.10968452 </v>
   <v>       0.03981553       0.03497959       0.00790419 </v>
   <v>      -0.03225711      -0.06141598      -1.10697827 </v>
   <v>       0.13876775      -0.11858728       1.05557240 </v>
   <v>       0.04469574      -0.03567031      -0.11629685 </v>
   <v>      -0.10438922      -0.11747003      -1.09605791 </v>
   <v>      -0.00536650       0.00865275       0.04894170 </v>
   <v>       0.12490665      -0.03401935      -1.11721770 </v>
   <v>       0.23693164      -0.02665627       1.07066511 </v>
   <v>      -0.01137470       0.01457311       0.01934608 </v>
   <v>       0.03728266      -0.03325871      -1.00976995 </v>
   <v>       0.09070902      -0.14096306       1.11807813 </v>
   <v>      -0.09784988       0.01967989      -0.09610596 </v>
   <v>      -0.04861233      -0.13001984       0.10385997 </v>
   <v>      -0.08566867       0.05797260      -1.10071965 </v>
   <v>      -0.00813878       0.07145094      -0.03184240 </v>
   <v>      -0.05887558       0.10490229      -0.01215980 </v>
   <v>      -0.07773126       0.10368485       1.01633296 </v>
   <v>      -0.08402546      -0.03791586       1.08694646 </v>
   <v>      -0.08308066      -0.01698190      -0.99102311 </v>
   <v>      -0.03466183       0.13551183       0.92399946 </v>
   <v>       0.09715663       0.09000551       0.00603293 </v>
   <v>      -0.01604589      -0.06471409       1.02787529 </v>
   <v>      -0.16811944       0.09118553       1.07567590 </v>
   <v>      -0.06731132       0.07297803      -0.54919343 </v>
   <v>      -0.06408251       0.01118177       0.63062577 </v>
   <v>       0.02824005       0.05649759      -0.69442510 </v>
   <v>      -0.18474183       0.00517484       0.75103461 </v>
   <v>       0.13121833       0.13713083      -0.64292587 </v>
   <v>      -0.13363528      -0.00754456       0.66513336 </v>
   <v>      -0.02771838      -0.01850562       0.61848507 </v>
   <v>       0.24967148      -0.05513539       0.72577049 </v>
   <v>       0.06988173       0.04542427      -0.67192739 </v>
   <v>       0.12304024       0.00280796       0.69776337 </v>
   <v>       0.00660209       0.06144784       0.02035545 </v>
   <v>      -0.08767222      -0.17939862      -0.69733264 </v>
   <v>       0.11647642      -0.09015677      -0.05226807 </v>
   <v>      -0.01826889      -0.10630294      -0.71248199 </v>
   <v>       0.01146124      -0.11445446       0.70044619 </v>
   <v>       0.00978276      -0.02075428      -0.04991420 </v>
   <v>       0.09952547       0.07118178      -0.68329670 </v>
   <v>      -0.16899092      -0.04574370      -0.01698688 </v>
   <v>      -0.08692826       0.04124993      -0.69456840 </v>
   <v>      -0.05257935       0.12596093      -0.04451391 </v>
   <v>       0.06787040       0.04122512      -0.05392799 </v>
   <v>      -0.00266056      -0.09948776      -0.67379602 </v>
   <v>       0.01792075      -0.09687227       0.07942771 </v>
   <v>      -0.04359060       0.14594074       0.57514213 </v>
  </varray>
  <energy>
   <i name="e_fr_energy">   -189.95164972 </i>
   <i name="e_wo_entrp">   -189.82152912 </i>
   <i name="e_0_energy">     -0.26024120 </i>
  </energy>
  <time name="totalsc">   84.90   85.40</time>
 </calculation>
 <calculation>
  <scstep>
   <time name="dav">    7.24    7.26</time>
   <time name="total">    7.50    7.53</time>
   <dipole>
    <v name="dipole">      0.00000000       0.00000000      -0.00781615 </v>
    <i name="Tr[quadrupol]"> -10256.32522858 </i>
    <i name="Echarged">      0.00000000 </i>
    <i name="Edipol_quadrupol">      0.00000000 </i>
    <i name="Eion">      0.00000000 </i>
   </dipole>
   <energy>
    <i name="alphaZ">    805.87068663 </i>
    <i name="ewald"> 189486.60983518 </i>
    <i name="hartreedc">-231739.76513232 </i>
    <i name="XCdc">   -351.11131550 </i>
    <i name="pawpsdc">  48944.07691857 </i>
    <i name="pawaedc"> -47018.51730102 </i>
    <i name="eentropy">     -0.23237634 </i>
    <i name="bandstr">  -1975.19495357 </i>
    <i name="atom">  41659.78587232 </i>
    <i name="e_fr_energy">   -188.47776606 </i>
    <i name="e_wo_entrp">   -188.24538972 </i>
    <i name="e_0_energy">   -188.36157789 </i>
   </energy>
  </scstep>
  <scstep>
   <time name="diag">    1.29    1.29</time>
   <time name="diis">    3.47    3.48</time>
   <time name="orth">    0.34    0.34</time>
   <time name="total">    5.37    5.38</time>
   <dipole>
    <v name="dipole">      0.00000000       0.00000000      -0.01041632 </v>
    <i name="Tr[quadrupol]"> -10255.51025361 </i>
    <i name="Echarged">      0.00000000 </i>
    <i name="Edipol_quadrupol">      0.00000000 </i>
    <i name="Eion">      0.00000000 </i>
   </dipole>
   <energy>
    <i name="e_fr_energy">   -191.90391929 </i>
    <i name="e_wo_entrp">   -191.68111426 </i>
    <i name="e_0_energy">   -191.79251677 </i>
   </energy>
  </scstep>
  <scstep>
   <time name="diag">    1.29    1.29</time>
   <time name="diis">    3.56    3.60</time>
   <time name="orth">    0.34    0.36</time>
   <time name="total">    5.45    5.53</time>
   <dipole>
    <v name="dipole">      0.00000000       0.00000000       0.02677084 </v>
    <i name="Tr[quadrupol]"> -10256.61473838 </i>
    <i name="Echarged">      0.00000000 </i>
    <i name="Edipol_quadrupol">      0.00000000 </i>
    <i name="Eion">      0.00000000 </i>
   </dipole>
   <energy>
    <i name="e_fr_energy">   -192.27365470 </i>
    <i name="e_wo_entrp">   -192.04908654 </i>
    <i name="e_0_energy">   -192.16137062 </i>
   </energy>
  </scstep>
  <scstep>
   <time name="diag">    1.29    1.30</time>
   <time name="diis">    3.49    3.50</time>
   <time name="orth">    0.34    0.34</time>
   <time name="total">    5.39    5.41</time>
   <dipole>
    <v name="dipole">      0.00000000       0.00000000      -0.02600336 </v>
    <i name="Tr[quadrupol]"> -10256.35082883 </i>
    <i name="Echarged">      0.00000000 </i>
    <i name="Edipol_quadrupol">      0.00000000 </i>
    <i name="Eion">      0.00000000 </i>
   </dipole>
   <energy>
    <i name="e_fr_energy">   -191.76022802 </i>
    <i name="e_wo_entrp">   -191.54039860 </i>
    <i name="e_0_energy">   -191.65031331 </i>
   </energy>
  </scstep>
  <scstep>
   <time name="diag">    1.28    1.29</time>
   <time name="diis">    3.49    3.50</time>
   <time name="orth">    0.34    0.34</time>
   <time name="total">    5.38    5.39</time>
   <dipole>
    <v name="dipole">      0.00000000       0.00000000       0.09016791 </v>
    <i name="Tr[quadrupol]"> -10256.49014618 </i>
    <i name="Echarged">      0.00000000 </i>
    <i name="Edipol_quadrupol">      0.00000000 </i>
    <i name="Eion">      0.00000000 </i>
   </dipole>
   <energy>
    <i name="e_fr_energy">   -191.98940563 </i>
    <i name="e_wo_entrp">   -191.77180534 </i>
    <i name="e_0_energy">   -191.88060548 </i>
   </energy>
  </scstep>
  <scstep>
   <time name="diag">    1.28    1.29</time>
   <time name="diis">    3.52    3.53</time>
   <time name="orth">    0.34    0.34</time>
   <time name="total">    5.41    5.42</time>
   <dipole>
    <v name="dipole">      0.00000000       0.00000000      -0.11756956 </v>
    <i name="Tr[quadrupol]"> -10256.51155731 </i>
    <i name="Echarged">      0.00000000 </i>
    <i name="Edipol_quadrupol">      0.00000000 </i>
    <i name="Eion">      0.00000000 </i>
   </dipole>
   <energy>
    <i name="e_fr_energy">   -191.87115931 </i>
    <i name="e_wo_entrp">   -191.65602430 </i>
    <i name="e_0_energy">   -191.76359181 </i>
   </energy>
  </scstep>
  <scstep>
   <time name="diag">    1.29    1.29</time>
   <time name="diis">    3.46    3.49</time>
   <time name="orth">    0.34    0.34</time>
   <time name="total">    5.35    5.39</time>
   <dipole>
    <v name="dipole">      0.00000000       0.00000000       0.03578357 </v>
    <i name="Tr[quadrupol]"> -10256.43644885 </i>
    <i name="Echarged">      0.00000000 </i>
    <i name="Edipol_quadrupol">      0.00000000 </i>
    <i name="Eion">      0.00000000 </i>
   </dipole>
   <energy>
    <i name="e_fr_energy">   -191.71885976 </i>
    <i name="e_wo_entrp">   -191.47963962 </i>
    <i name="e_0_energy">   -191.59924969 </i>
   </energy>
  </scstep>
  <scstep>
   <time name="diag">    1.28    1.29</time>
   <time name="diis">    3.48    3.48</time>
   <time name="orth">    0.34    0.34</time>
   <time name="total">    5.38    5.39</time>
   <dipole>
    <v name="dipole">      0.00000000       0.00000000      -0.01370562 </v>
    <i name="Tr[quadrupol]"> -10256.35003315 </i>
    <i name="Echarged">      0.00000000 </i>
    <i name="Edipol_quadrupol">      0.00000000 </i>
    <i name="Eion">      0.00000000 </i>
   </dipole>
   <energy>
    <i name="e_fr_energy">   -191.65957107 </i>
    <i name="e_wo_entrp">   -191.42135451 </i>
    <i name="e_0_energy">   -191.54046279 </i>
   </energy>
  </scstep>
  <scstep>
   <time name="diag">    1.28    1.29</time>
   <time name="diis">    3.54    3.56</time>
   <time name="orth">    0.34    0.34</time>
   <time name="total">    5.42    5.46</time>
   <dipole>
    <v name="dipole">      0.00000000       0.00000000      -0.00900737 </v>
    <i name="Tr[quadrupol]"> -10256.31764660 </i>
    <i name="Echarged">      0.00000000 </i>
    <i name="Edipol_quadrupol">      0.00000000 </i>
    <i name="Eion">      0.00000000 </i>
   </dipole>
   <energy>
    <i name="e_fr_energy">   -191.64405024 </i>
    <i name="e_wo_entrp">   -191.40254090 </i>
    <i name="e_0_energy">   -191.52329557 </i>
   </energy>
  </scstep>
  <scstep>
   <time name="diag">    1.29    1.29</time>
   <time name="diis">    3.49    3.50</time>
   <time name="orth">    0.34    0.34</time>
   <time name="total">    5.38    5.39</time>
   <dipole>
    <v name="dipole">      0.00000000       0.00000000      -0.00456653 </v>
    <i name="Tr[quadrupol]"> -10256.30235137 </i>
    <i name="Echarged">      0.00000000 </i>
    <i name="Edipol_quadrupol">      0.00000000 </i>
    <i name="Eion">      0.00000000 </i>
   </dipole>
   <energy>
    <i name="e_fr_energy">   -191.64315710 </i>
    <i name="e_wo_entrp">   -191.40207579 </i>
    <i name="e_0_energy">   -191.52261644 </i>
   </energy>
  </scstep>
  <scstep>
   <time name="diag">    1.28    1.30</time>
   <time name="diis">    3.40    3.49</time>
   <time name="orth">    0.34    0.34</time>
   <time name="total">    5.29    5.39</time>
   <dipole>
    <v name="dipole">      0.00000000       0.00000000      -0.00505160 </v>
    <i name="Tr[quadrupol]"> -10256.31177628 </i>
    <i name="Echarged">      0.00000000 </i>
    <i name="Edipol_quadrupol">      0.00000000 </i>
    <i name="Eion">      0.00000000 </i>
[...]
       <r>    2.2852    0.0000 </r>
       <r>    2.3769    0.0000 </r>
       <r>    2.4161    0.0000 </r>
       <r>    2.4848    0.0000 </r>
       <r>    2.6730    0.0000 </r>
       <r>    2.9611    0.0000 </r>
       <r>    3.1625    0.0000 </r>
       <r>    3.2627    0.0000 </r>
       <r>    3.5443    0.0000 </r>
       <r>    3.5831    0.0000 </r>
       <r>    3.7343    0.0000 </r>
       <r>    3.9879    0.0000 </r>
       <r>    4.0756    0.0000 </r>
       <r>    4.1871    0.0000 </r>
       <r>    4.4384    0.0000 </r>
       <r>    4.5137    0.0000 </r>
       <r>    4.5868    0.0000 </r>
       <r>    4.6290    0.0000 </r>
       <r>    4.6820    0.0000 </r>
       <r>    4.7828    0.0000 </r>
       <r>    4.8395    0.0000 </r>
       <r>    4.9195    0.0000 </r>
       <r>    4.9589    0.0000 </r>
       <r>    5.0467    0.0000 </r>
       <r>    5.0725    0.0000 </r>
       <r>    5.1335    0.0000 </r>
       <r>    5.2516    0.0000 </r>
       <r>    5.2833    0.0000 </r>
      </set>
     </set>
    </set>
   </array>
  </eigenvalues>
  <separator name="orbital magnetization" >
   <v name="MAGDIPOLOUT">      0.00000000      0.00000000      0.00000000</v>
  </separator>
  <dos>
   <i name="efermi">     -1.11494677 </i>
   <total>
    <array>
     <dimension dim="1">gridpoints</dimension>
     <dimension dim="2">spin</dimension>
     <field>energy</field>
     <field>total</field>
     <field>integrated</field>
     <set>
      <set comment="spin 1">
       <r>    -9.7315     0.0000     0.0000 </r>
       <r>    -9.6776     0.0000     0.0000 </r>
       <r>    -9.6238     0.0000     0.0000 </r>
       <r>    -9.5700     0.0000     0.0000 </r>
       <r>    -9.5162     0.0000     0.0000 </r>
       <r>    -9.4624     0.0000     0.0000 </r>
       <r>    -9.4085     0.0000     0.0000 </r>
       <r>    -9.3547     0.0000     0.0000 </r>
       <r>    -9.3009     0.0000     0.0000 </r>
       <r>    -9.2471     0.0000     0.0000 </r>
       <r>    -9.1933     0.0000     0.0000 </r>
       <r>    -9.1395     0.0000     0.0000 </r>
       <r>    -9.0856     0.0000     0.0000 </r>
       <r>    -9.0318     0.0002     0.0000 </r>
       <r>    -8.9780     0.0039     0.0002 </r>
       <r>    -8.9242     0.0503     0.0029 </r>
       <r>    -8.8704     0.3735     0.0230 </r>
       <r>    -8.8165     1.5902     0.1086 </r>
       <r>    -8.7627     3.8942     0.3182 </r>
       <r>    -8.7089     5.5129     0.6149 </r>
       <r>    -8.6551     4.6902     0.8673 </r>
       <r>    -8.6013     3.2439     1.0419 </r>
       <r>    -8.5475     3.8265     1.2478 </r>
       <r>    -8.4936     5.3758     1.5371 </r>
       <r>    -8.4398     4.9480     1.8034 </r>
       <r>    -8.3860     2.6639     1.9468 </r>
       <r>    -8.3322     0.8520     1.9926 </r>
       <r>    -8.2784     0.3673     2.0124 </r>
       <r>    -8.2245     1.1115     2.0722 </r>
       <r>    -8.1707     3.1780     2.2433 </r>
       <r>    -8.1169     5.5027     2.5394 </r>
       <r>    -8.0631     6.4861     2.8885 </r>
       <r>    -8.0093     7.4097     3.2872 </r>
       <r>    -7.9555     9.6700     3.8077 </r>
       <r>    -7.9016    10.3806     4.3663 </r>
       <r>    -7.8478     7.5952     4.7751 </r>
       <r>    -7.7940     4.4220     5.0131 </r>
       <r>    -7.7402     4.0004     5.2284 </r>
       <r>    -7.6864     5.4622     5.5223 </r>
       <r>    -7.6326     6.3320     5.8631 </r>
       <r>    -7.5787     6.4028     6.2077 </r>
       <r>    -7.5249     6.8977     6.5789 </r>
       <r>    -7.4711     8.0108     7.0100 </r>
       <r>    -7.4173     9.4012     7.5160 </r>
       <r>    -7.3635    10.4531     8.0786 </r>
       <r>    -7.3096    10.4699     8.6420 </r>
       <r>    -7.2558    10.1408     9.1878 </r>
       <r>    -7.2020    11.0739     9.7838 </r>
       <r>    -7.1482    14.2715    10.5518 </r>
       <r>    -7.0944    18.7915    11.5632 </r>
       <r>    -7.0406    21.5739    12.7242 </r>
       <r>    -6.9867    22.1762    13.9177 </r>
       <r>    -6.9329    24.8411    15.2546 </r>
       <r>    -6.8791    31.9095    16.9719 </r>
       <r>    -6.8253    39.6750    19.1072 </r>
       <r>    -6.7715    43.6625    21.4570 </r>
       <r>    -6.7176    44.3891    23.8459 </r>
       <r>    -6.6638    45.2583    26.2816 </r>
       <r>    -6.6100    47.3322    28.8290 </r>
       <r>    -6.5562    48.9116    31.4613 </r>
       <r>    -6.5024    49.3803    34.1189 </r>
       <r>    -6.4486    50.0133    36.8105 </r>
       <r>    -6.3947    52.1845    39.6190 </r>
       <r>    -6.3409    57.4525    42.7109 </r>
       <r>    -6.2871    65.7015    46.2469 </r>
       <r>    -6.2333    73.6606    50.2111 </r>
       <r>    -6.1795    79.4644    54.4878 </r>
       <r>    -6.1256    84.1987    59.0192 </r>
       <r>    -6.0718    87.7256    63.7404 </r>
       <r>    -6.0180    89.3826    68.5508 </r>
       <r>    -5.9642    89.6652    73.3764 </r>
       <r>    -5.9104    87.7542    78.0992 </r>
       <r>    -5.8566    83.1754    82.5755 </r>
       <r>    -5.8027    78.3502    86.7922 </r>
       <r>    -5.7489    74.2730    90.7894 </r>
       <r>    -5.6951    69.7529    94.5434 </r>
       <r>    -5.6413    65.6007    98.0739 </r>
       <r>    -5.5875    62.9564   101.4621 </r>
       <r>    -5.5336    61.7444   104.7851 </r>
       <r>    -5.4798    61.6414   108.1025 </r>
       <r>    -5.4260    62.6696   111.4753 </r>
       <r>    -5.3722    65.3839   114.9941 </r>
       <r>    -5.3184    69.6833   118.7443 </r>
       <r>    -5.2646    74.3211   122.7441 </r>
       <r>    -5.2107    78.3081   126.9585 </r>
       <r>    -5.1569    81.4096   131.3398 </r>
       <r>    -5.1031    82.8746   135.8000 </r>
       <r>    -5.0493    83.4273   140.2899 </r>
       <r>    -4.9955    85.8497   144.9102 </r>
       <r>    -4.9416    90.3267   149.7714 </r>
       <r>    -4.8878    93.5411   154.8056 </r>
       <r>    -4.8340    92.7001   159.7945 </r>
       <r>    -4.7802    88.5122   164.5581 </r>
       <r>    -4.7264    84.4699   169.1041 </r>
       <r>    -4.6726    82.7343   173.5567 </r>
       <r>    -4.6187    82.4777   177.9955 </r>
       <r>    -4.5649    83.0026   182.4626 </r>
       <r>    -4.5111    84.6618   187.0189 </r>
       <r>    -4.4573    86.6757   191.6836 </r>
       <r>    -4.4035    86.8616   196.3583 </r>
       <r>    -4.3496    85.0238   200.9342 </r>
       <r>    -4.2958    83.8114   205.4447 </r>
       <r>    -4.2420    84.3655   209.9851 </r>
       <r>    -4.1882    86.3414   214.6319 </r>
       <r>    -4.1344    89.8073   219.4651 </r>
       <r>    -4.0806    93.2036   224.4812 </r>
       <r>    -4.0267    93.4920   229.5127 </r>
       <r>    -3.9729    91.0680   234.4138 </r>
       <r>    -3.9191    89.9785   239.2563 </r>
       <r>    -3.8653    91.4352   244.1772 </r>
       <r>    -3.8115    92.8944   249.1766 </r>
       <r>    -3.7576    93.2836   254.1969 </r>
       <r>    -3.7038    92.9331   259.1984 </r>
       <r>    -3.6500    91.9334   264.1461 </r>
       <r>    -3.5962    91.8454   269.0890 </r>
       <r>    -3.5424    94.2019   274.1588 </r>
       <r>    -3.4886    98.3623   279.4525 </r>
       <r>    -3.4347   103.0171   284.9967 </r>
       <r>    -3.3809   106.2772   290.7163 </r>
       <r>    -3.3271   106.3412   296.4394 </r>
       <r>    -3.2733   103.8836   302.0302 </r>
       <r>    -3.2195   100.4166   307.4344 </r>
       <r>    -3.1656    96.7703   312.6424 </r>
       <r>    -3.1118    93.4966   317.6742 </r>
       <r>    -3.0580    90.5744   322.5488 </r>
       <r>    -3.0042    88.3793   327.3052 </r>
       <r>    -2.9504    88.0953   332.0463 </r>
       <r>    -2.8966    90.5057   336.9172 </r>
       <r>    -2.8427    94.3714   341.9960 </r>
       <r>    -2.7889    97.3490   347.2352 </r>
       <r>    -2.7351    98.8086   352.5529 </r>
       <r>    -2.6813    99.1114   357.8869 </r>
       <r>    -2.6275    98.2931   363.1768 </r>
       <r>    -2.5736    96.7905   368.3859 </r>
       <r>    -2.5198    95.0136   373.4994 </r>
       <r>    -2.4660    92.7171   378.4892 </r>
       <r>    -2.4122    89.7162   383.3176 </r>
       <r>    -2.3584    87.3223   388.0171 </r>
       <r>    -2.3046    87.3873   392.7201 </r>
       <r>    -2.2507    88.6623   397.4918 </r>
       <r>    -2.1969    89.8276   402.3261 </r>
       <r>    -2.1431    92.7305   407.3167 </r>
       <r>    -2.0893    97.4955   412.5637 </r>
       <r>    -2.0355   101.2143   418.0109 </r>
       <r>    -1.9816   101.7503   423.4869 </r>
       <r>    -1.9278    99.8767   428.8621 </r>
       <r>    -1.8740    99.0898   434.1949 </r>
       <r>    -1.8202   100.7303   439.6160 </r>
       <r>    -1.7664   102.7706   445.1469 </r>
       <r>    -1.7126   103.8526   450.7361 </r>
       <r>    -1.6587   102.8840   456.2731 </r>
       <r>    -1.6049    99.5783   461.6322 </r>
       <r>    -1.5511    96.7448   466.8388 </r>
       <r>    -1.4973    96.8075   472.0488 </r>
       <r>    -1.4435    98.2941   477.3388 </r>
       <r>    -1.3896    98.7499   482.6534 </r>
       <r>    -1.3358    96.7944   487.8627 </r>
       <r>    -1.2820    91.2217   492.7720 </r>
       <r>    -1.2282    81.2928   497.1471 </r>
       <r>    -1.1744    67.9761   500.8054 </r>
       <r>    -1.1206    54.4020   503.7332 </r>
       <r>    -1.0667    42.2289   506.0059 </r>
       <r>    -1.0129    29.9984   507.6204 </r>
       <r>    -0.9591    18.3831   508.6097 </r>
       <r>    -0.9053    11.5274   509.2301 </r>
       <r>    -0.8515    10.3813   509.7888 </r>
       <r>    -0.7976    10.6349   510.3611 </r>
       <r>    -0.7438     9.5338   510.8742 </r>
       <r>    -0.6900     8.6941   511.3421 </r>
       <r>    -0.6362     9.6081   511.8592 </r>
       <r>    -0.5824    12.4508   512.5293 </r>
       <r>    -0.5286    17.3971   513.4656 </r>
       <r>    -0.4747    22.6704   514.6857 </r>
       <r>    -0.4209    24.7846   516.0195 </r>
       <r>    -0.3671    22.8953   517.2517 </r>
       <r>    -0.3133    20.7785   518.3700 </r>
       <r>    -0.2595    21.3072   519.5167 </r>
       <r>    -0.2057    21.5456   520.6762 </r>
       <r>    -0.1518    18.6225   521.6785 </r>
       <r>    -0.0980    13.8326   522.4229 </r>
       <r>    -0.0442     9.7865   522.9496 </r>
       <r>     0.0096     8.6147   523.4132 </r>
       <r>     0.0634    10.3566   523.9706 </r>
       <r>     0.1173    13.3557   524.6894 </r>
       <r>     0.1711    15.6206   525.5300 </r>
       <r>     0.2249    15.6580   526.3727 </r>
       <r>     0.2787    15.2302   527.1924 </r>
       <r>     0.3325    17.1939   528.1177 </r>
       <r>     0.3863    20.2181   529.2058 </r>
       <r>     0.4402    21.2041   530.3470 </r>
       <r>     0.4940    20.4979   531.4501 </r>
       <r>     0.5478    20.2621   532.5406 </r>
       <r>     0.6016    21.1271   533.6776 </r>
       <r>     0.6554    22.8284   534.9062 </r>
       <r>     0.7093    24.2506   536.2113 </r>
       <r>     0.7631    23.5985   537.4814 </r>
       <r>     0.8169    20.3461   538.5764 </r>
       <r>     0.8707    15.8438   539.4290 </r>
       <r>     0.9245    11.8131   540.0648 </r>
       <r>     0.9783     8.9163   540.5446 </r>
       <r>     1.0322     7.3111   540.9381 </r>
       <r>     1.0860     7.3704   541.3348 </r>
       <r>     1.1398     8.6241   541.7989 </r>
       <r>     1.1936     9.2748   542.2981 </r>
       <r>     1.2474     8.6061   542.7612 </r>
       <r>     1.3013     7.6644   543.1737 </r>
       <r>     1.3551     7.3039   543.5668 </r>
       <r>     1.4089     8.2668   544.0117 </r>
       <r>     1.4627    11.3415   544.6221 </r>
       <r>     1.5165    15.2386   545.4422 </r>
       <r>     1.5703    17.4705   546.3824 </r>
       <r>     1.6242    17.2616   547.3114 </r>
       <r>     1.6780    15.8186   548.1627 </r>
       <r>     1.7318    15.3181   548.9871 </r>
       <r>     1.7856    16.5262   549.8765 </r>
       <r>     1.8394    17.0134   550.7922 </r>
       <r>     1.8933    14.5918   551.5775 </r>
       <r>     1.9471    11.0118   552.1701 </r>
       <r>     2.0009     8.5003   552.6276 </r>
       <r>     2.0547     7.3346   553.0223 </r>
       <r>     2.1085     8.8704   553.4997 </r>
       <r>     2.1623    13.9304   554.2494 </r>
       <r>     2.2162    20.0181   555.3267 </r>
       <r>     2.2700    23.7676   556.6059 </r>
       <r>     2.3238    24.2492   557.9109 </r>
       <r>     2.3776    23.8288   559.1933 </r>
       <r>     2.4314    24.8421   560.5303 </r>
       <r>     2.4853    25.6642   561.9115 </r>
       <r>     2.5391    23.8118   563.1930 </r>
       <r>     2.5929    21.1165   564.3294 </r>
       <r>     2.6467    20.7291   565.4450 </r>
       <r>     2.7005    21.3599   566.5946 </r>
       <r>     2.7543    19.4580   567.6418 </r>
       <r>     2.8082    14.4347   568.4186 </r>
       <r>     2.8620     9.1715   568.9122 </r>
       <r>     2.9158     6.6964   569.2726 </r>
       <r>     2.9696     6.2318   569.6080 </r>
       <r>     3.0234     5.1470   569.8850 </r>
       <r>     3.0773     4.1847   570.1102 </r>
       <r>     3.1311     5.4153   570.4016 </r>
       <r>     3.1849     8.4865   570.8584 </r>
       <r>     3.2387    11.9284   571.5003 </r>
       <r>     3.2925    13.7958   572.2428 </r>
       <r>     3.3463    12.5428   572.9178 </r>
       <r>     3.4002     9.9544   573.4536 </r>
       <r>     3.4540     9.1472   573.9459 </r>
       <r>     3.5078    11.2300   574.5502 </r>
       <r>     3.5616    14.7190   575.3424 </r>
       <r>     3.6154    17.0439   576.2596 </r>
       <r>     3.6693    18.3941   577.2496 </r>
       <r>     3.7231    19.7353   578.3117 </r>
       <r>     3.7769    18.6767   579.3168 </r>
       <r>     3.8307    14.3632   580.0898 </r>
       <r>     3.8845    10.2432   580.6411 </r>
       <r>     3.9383     9.5150   581.1532 </r>
       <r>     3.9922    12.8668   581.8457 </r>
       <r>     4.0460    16.6108   582.7396 </r>
       <r>     4.0998    16.0009   583.6008 </r>
       <r>     4.1536    13.2550   584.3141 </r>
       <r>     4.2074    12.1574   584.9684 </r>
       <r>     4.2613    10.6385   585.5410 </r>
       <r>     4.3151     7.8510   585.9635 </r>
       <r>     4.3689     7.7368   586.3799 </r>
       <r>     4.4227    11.3889   586.9928 </r>
       <r>     4.4765    15.4187   587.8226 </r>
       <r>     4.5303    18.7145   588.8298 </r>
       <r>     4.5842    22.7802   590.0558 </r>
       <r>     4.6380    26.6280   591.4888 </r>
       <r>     4.6918    27.2901   592.9575 </r>
       <r>     4.7456    24.8591   594.2954 </r>
       <r>     4.7994    23.0048   595.5335 </r>
       <r>     4.8533    23.7391   596.8111 </r>
       <r>     4.9071    26.0557   598.2133 </r>
       <r>     4.9609    28.8607   599.7666 </r>
       <r>     5.0147    31.4106   601.4570 </r>
       <r>     5.0685    32.4575   603.2038 </r>
       <r>     5.1223    30.6878   604.8554 </r>
       <r>     5.1762    28.0437   606.3647 </r>
       <r>     5.2300    27.9353   607.8681 </r>
       <r>     5.2838    27.6692   609.3572 </r>
       <r>     5.3376    22.4439   610.5651 </r>
       <r>     5.3914    14.3593   611.3379 </r>
       <r>     5.4453     7.6916   611.7518 </r>
       <r>     5.4991     3.3440   611.9318 </r>
       <r>     5.5529     1.0355   611.9875 </r>
       <r>     5.6067     0.2056   611.9986 </r>
       <r>     5.6605     0.0249   611.9999 </r>
       <r>     5.7143     0.0018   612.0000 </r>
       <r>     5.7682     0.0001   612.0000 </r>
       <r>     5.8220     0.0000   612.0000 </r>
       <r>     5.8758     0.0000   612.0000 </r>
       <r>     5.9296     0.0000   612.0000 </r>
       <r>     5.9834     0.0000   612.0000 </r>
       <r>     6.0373     0.0000   612.0000 </r>
       <r>     6.0911     0.0000   612.0000 </r>
       <r>     6.1449     0.0000   612.0000 </r>
       <r>     6.1987     0.0000   612.0000 </r>
       <r>     6.2525     0.0000   612.0000 </r>
       <r>     6.3063     0.0000   612.0000 </r>
       <r>     6.3602     0.0000   612.0000 </r>
       <r>     6.4140     0.0000   612.0000 </r>
      </set>
     </set>
    </array>
   </total>
  </dos>
 </calculation>
 <structure name="finalpos" >
  <crystal>
   <varray name="basis" >
    <v>      11.00258152       0.00000000       0.00000000 </v>
    <v>       5.50129076       9.52851510       0.00000000 </v>
    <v>       0.00000000       0.00000000      24.49178509 </v>
   </varray>
   <i name="volume">   2567.67623402 </i>
   <varray name="rec_basis" >
    <v>       0.09088776      -0.05247407       0.00000000 </v>
    <v>       0.00000000       0.10494815       0.00000000 </v>
    <v>       0.00000000       0.00000000       0.04083002 </v>
   </varray>
  </crystal>
  <varray name="positions" >
   <v>       0.08470385       0.08500014       0.39649654 </v>
   <v>       0.41585354       0.91740295       0.49983773 </v>
   <v>       0.58351667       0.33214288       0.39318569 </v>
   <v>       0.50342054      -0.00360898       0.60553769 </v>
   <v>       0.41562077       0.16757742       0.50115257 </v>
   <v>       0.83371038       0.08084366       0.39566161 </v>
   <v>       0.16557301       0.91786411       0.49937024 </v>
   <v>       0.33638491       0.83354203       0.39297938 </v>
   <v>       0.25495864       0.49850152       0.60301535 </v>
   <v>       0.16523036       0.66784044       0.49951606 </v>
   <v>       0.33429313       0.58265602       0.39535120 </v>
   <v>       0.25353127       0.24636821       0.60769120 </v>
   <v>       0.16425935       0.41731511       0.50062819 </v>
   <v>       0.66571999       0.16623388       0.49877280 </v>
   <v>       0.08250370       0.58368090       0.39673932 </v>
   <v>       0.91640552       0.16864330       0.49977262 </v>
   <v>       0.66373149       0.41929797       0.49803362 </v>
   <v>      -0.00095624       0.75107442       0.60325047 </v>
   <v>       0.00057019      -0.00147166       0.60373268 </v>
   <v>       0.83331112       0.58242529       0.39921187 </v>
   <v>      -0.00079343       0.50079851       0.60269731 </v>
   <v>       0.66713447       0.66774731       0.49969859 </v>
   <v>       0.00037056       0.24827294       0.60404761 </v>
   <v>       0.74654644       0.50092759       0.60373494 </v>
   <v>       0.83258929       0.83438887       0.40534465 </v>
   <v>       0.74922469       0.00068457       0.59767630 </v>
   <v>       0.83434143       0.33339302       0.40207057 </v>
   <v>       0.74796790       0.24943204       0.59684672 </v>
   <v>       0.58465806       0.83518349       0.40278304 </v>
   <v>       0.49852095       0.74899709       0.59610504 </v>
   <v>       0.50006689       0.49898777       0.59406822 </v>
   <v>       0.25434864       0.74824636       0.59602634 </v>
   <v>       0.58450920       0.58371045       0.40020901 </v>
   <v>       0.50244901       0.24904322       0.59708228 </v>
   <v>       0.41472564       0.41884412       0.49767573 </v>
   <v>       0.58299034       0.08095017       0.40227224 </v>
   <v>       0.66698470       0.91699620       0.50134741 </v>
   <v>       0.33378985       0.33107620       0.40252774 </v>
   <v>       0.25158467      -0.00266969       0.59827516 </v>
   <v>       0.16488685       0.16834192       0.50189522 </v>
   <v>       0.33429126       0.08467577       0.40364798 </v>
   <v>       0.91435308       0.91702134       0.50128708 </v>
   <v>       0.08281099       0.83397338       0.40191857 </v>
   <v>       0.91492492       0.66932791       0.50047117 </v>
   <v>       0.91599413       0.41805155       0.50186950 </v>
   <v>       0.08422858       0.33190627       0.40476033 </v>
   <v>       0.41497336       0.66760396       0.49644508 </v>
   <v>       0.74918534       0.75075805       0.59727934 </v>
  </varray>
 </structure>
</modeling>
