unknown system                          
           1
    11.002582    0.000000    0.000000
     5.501291    9.528515    0.000000
     0.000000    0.000000   24.491785
   Au   Pd
  24  24
Direct configuration=     1
   0.08333333  0.08333333  0.40830017
   0.41666667  0.91666667  0.50000000
   0.58333333  0.33333333  0.40830017
   0.50000000  0.00000000  0.59169983
   0.41666667  0.16666667  0.50000000
   0.83333333  0.08333333  0.40830017
   0.16666667  0.91666667  0.50000000
   0.33333333  0.83333333  0.40830017
   0.25000000  0.50000000  0.59169983
   0.16666667  0.66666667  0.50000000
   0.33333333  0.58333333  0.40830017
   0.25000000  0.25000000  0.59169983
   0.16666667  0.41666667  0.50000000
   0.66666667  0.16666667  0.50000000
   0.08333333  0.58333333  0.40830017
   0.91666667  0.16666667  0.50000000
   0.66666667  0.41666667  0.50000000
   0.00000000  0.75000000  0.59169983
   0.00000000  0.00000000  0.59169983
   0.83333333  0.58333333  0.40830017
   0.00000000  0.50000000  0.59169983
   0.66666667  0.66666667  0.50000000
   0.00000000  0.25000000  0.59169983
   0.75000000  0.50000000  0.59169983
   0.83333333  0.83333333  0.40830017
   0.75000000  0.00000000  0.59169983
   0.83333333  0.33333333  0.40830017
   0.75000000  0.25000000  0.59169983
   0.58333333  0.83333333  0.40830017
   0.50000000  0.75000000  0.59169983
   0.50000000  0.50000000  0.59169983
   0.25000000  0.75000000  0.59169983
   0.58333333  0.58333333  0.40830017
   0.50000000  0.25000000  0.59169983
   0.41666667  0.41666667  0.50000000
   0.58333333  0.08333333  0.40830017
   0.66666667  0.91666667  0.50000000
   0.33333333  0.33333333  0.40830017
   0.25000000  0.00000000  0.59169983
   0.16666667  0.16666667  0.50000000
   0.33333333  0.08333333  0.40830017
   0.91666667  0.91666667  0.50000000
   0.08333333  0.83333333  0.40830017
   0.91666667  0.66666667  0.50000000
   0.91666667  0.41666667  0.50000000
   0.08333333  0.33333333  0.40830017
   0.41666667  0.66666667  0.50000000
   0.75000000  0.75000000  0.59169983
Direct configuration=     2
   0.08350382  0.08448317  0.40612217
   0.41686161  0.91650391  0.49999571
   0.58274967  0.33372821  0.40608350
   0.50118747 -0.00093715  0.59384515
   0.41715355  0.16686870  0.49922991
   0.83348760  0.08202778  0.40607563
   0.16724143  0.91584360  0.50041234
   0.33433609  0.83290424  0.40609784
   0.25217528  0.49979806  0.59390921
   0.16670541  0.66778809  0.49997202
   0.33394082  0.58300188  0.40636792
   0.25057999  0.24892233  0.59398935
   0.16627869  0.41569708  0.49919564
   0.66619218  0.16545356  0.50071390
   0.08266535  0.58361780  0.40620707
   0.91639760  0.16784461  0.50001289
   0.66569366  0.41767082  0.50006300
  -0.00137090  0.75108560  0.59359209
  -0.00021814 -0.00028767  0.59385709
   0.83309009  0.58310173  0.40650763
  -0.00129377  0.50101672  0.59364289
   0.66652340  0.66771128  0.49997471
   0.00031328  0.24948926  0.59365457
   0.74898414  0.50058757  0.59379667
   0.83281076  0.83398406  0.40749821
   0.74971613 -0.00001023  0.59266653
   0.83362781  0.33387159  0.40702818
   0.74898347  0.24992273  0.59308401
   0.58360495  0.83408797  0.40720937
   0.49929095  0.74990163  0.59284735
   0.49951468  0.50005887  0.59266960
   0.25155557  0.74964288  0.59288389
   0.58343148  0.58351758  0.40706223
   0.50081411  0.25025682  0.59289449
   0.41699697  0.41682462  0.50023088
   0.58320261  0.08224412  0.40714500
   0.66825938  0.91583529  0.49973675
   0.33356157  0.33248450  0.40713320
   0.25027019 -0.00061090  0.59297402
   0.16662820  0.16698972  0.49969863
   0.33356639  0.08395654  0.40715167
   0.91558898  0.91578687  0.49985840
   0.08242464  0.83346392  0.40700911
   0.91509912  0.66826169  0.49991029
   0.91742840  0.41627694  0.49953729
   0.08359516  0.33265914  0.40731296
   0.41718155  0.66584021  0.50047906
   0.74966862  0.75083229  0.59266000
Direct configuration=     3
   0.08401526  0.08793267  0.39958815
   0.41744643  0.91601564  0.49998283
   0.58099867  0.33491286  0.39943348
   0.50474989 -0.00374861  0.60028110
   0.41861420  0.16747481  0.49691965
   0.83395039  0.07811111  0.39940202
   0.16896571  0.91337440  0.50164938
   0.33734437  0.83161695  0.39949083
   0.25870114  0.49919226  0.60053734
   0.16682162  0.67115238  0.49988807
   0.33576330  0.58200753  0.40057116
   0.25231995  0.24568931  0.60085790
   0.16511474  0.41278833  0.49678258
   0.66476872  0.16181423  0.50285561
   0.08066140  0.58447119  0.39992779
   0.91559038  0.17137843  0.50005157
   0.66277466  0.42068327  0.50025201
  -0.00548358  0.75434240  0.59926887
  -0.00087254 -0.00115066  0.60032886
   0.83236038  0.58240693  0.40113002
  -0.00517508  0.50406688  0.59947205
   0.66609360  0.67084510  0.49989884
   0.00125312  0.24795704  0.59951878
   0.74593656  0.50235026  0.60008717
   0.83124303  0.83593624  0.40509233
   0.74886451 -0.00004093  0.59556664
   0.83451123  0.33548635  0.40321220
   0.74593386  0.24969091  0.59723656
   0.58441981  0.83635187  0.40393699
   0.49716379  0.74960652  0.59628991
   0.49805871  0.50023547  0.59557889
   0.25622227  0.74857151  0.59643607
   0.58372591  0.58407031  0.40334841
   0.50325644  0.25102727  0.59647846
   0.41798790  0.41729849  0.50092350
   0.58281045  0.07897649  0.40367950
   0.67303751  0.91334114  0.49894700
   0.33424627  0.32993800  0.40363230
   0.25108075 -0.00244360  0.59679660
   0.16651282  0.16795889  0.49879451
   0.33426557  0.08582618  0.40370615
   0.91235592  0.91314746  0.49943360
   0.07969856  0.83385567  0.40313594
   0.91039648  0.67304675  0.49964116
   0.91971362  0.41510776  0.49814916
   0.08438063  0.33063654  0.40435132
   0.41872619  0.66336084  0.50191623
   0.74867449  0.75332916  0.59554050
Direct configuration=     4
   0.08429745  0.08583598  0.39827451
   0.41705241  0.91725917  0.50002855
   0.58302941  0.33254712  0.39816921
   0.50381535 -0.00287073  0.60150031
   0.41795118  0.16632831  0.49792821
   0.83283158  0.08063992  0.39819987
   0.16691633  0.91645081  0.50112795
   0.33632240  0.83263672  0.39812287
   0.25543630  0.49944000  0.60172078
   0.16642314  0.66771241  0.49998686
   0.33429693  0.58270334  0.39938138
   0.25303464  0.24663819  0.60204897
   0.16482813  0.41654171  0.49779388
   0.66676854  0.16346174  0.50193052
   0.08112775  0.58436384  0.39854235
   0.91537299  0.16922580  0.49992475
   0.66461629  0.41913512  0.50003023
  -0.00305144  0.75254856  0.60062048
  -0.00090233 -0.00090207  0.60160636
   0.83209130  0.58306996  0.39974070
  -0.00311173  0.50319847  0.60030013
   0.66699978  0.66881096  0.49996422
   0.00037225  0.24853074  0.60077413
   0.74571842  0.50200086  0.60137801
   0.83138716  0.83464115  0.40388553
   0.74867571  0.00042560  0.59688356
   0.83343566  0.33467330  0.40233222
   0.74675395  0.24998814  0.59812374
   0.58429092  0.83599241  0.40295187
   0.49782729  0.74988019  0.59726659
   0.50012524  0.49963156  0.59675971
   0.25491218  0.74901344  0.59770752
   0.58420718  0.58419563  0.40260766
   0.50229082  0.25008721  0.59761167
   0.41616154  0.41770042  0.50048206
   0.58342054  0.07978193  0.40241920
   0.66954627  0.91481422  0.49925256
   0.33410126  0.33101358  0.40227409
   0.25139900 -0.00247927  0.59763402
   0.16726667  0.16576877  0.49927946
   0.33439963  0.08472740  0.40261138
   0.91418338  0.91530256  0.49965036
   0.08129998  0.83390386  0.40236159
   0.91403762  0.66932247  0.49959473
   0.91765449  0.41744297  0.49882538
   0.08432781  0.33148391  0.40275399
   0.41825144  0.66450049  0.50118764
   0.74780717  0.75288115  0.59644824
Direct configuration=     5
   0.08441412  0.08496909  0.39773137
   0.41688950  0.91777331  0.50004746
   0.58386903  0.33156899  0.39764649
   0.50342897 -0.00250776  0.60200440
   0.41767706  0.16585428  0.49834520
   0.83236900  0.08168547  0.39770283
   0.16606901  0.91772277  0.50091236
   0.33589986  0.83305835  0.39755728
   0.25408643  0.49954243  0.60221007
   0.16625839  0.66629013  0.50002771
   0.33369065  0.58299103  0.39888946
   0.25333013  0.24703051  0.60254143
   0.16470963  0.41809357  0.49821201
   0.66759538  0.16414291  0.50154803
   0.08132056  0.58431946  0.39796954
   0.91528311  0.16833578  0.49987231
   0.66537772  0.41849503  0.49993854
  -0.00204586  0.75180689  0.60117931
  -0.00091465 -0.00079929  0.60213455
   0.83198005  0.58334410  0.39916627
  -0.00225863  0.50283942  0.60064251
   0.66737445  0.66796993  0.49999124
   0.00000806  0.24876794  0.60129317
   0.74562823  0.50185640  0.60191171
   0.83144675  0.83410568  0.40338657
   0.74859764  0.00061849  0.59742805
   0.83299095  0.33433713  0.40196839
   0.74709303  0.25011103  0.59849055
   0.58423763  0.83584380  0.40254457
   0.49810162  0.74999334  0.59767041
   0.50097966  0.49938187  0.59724793
   0.25437051  0.74919616  0.59823321
   0.58440616  0.58424744  0.40230139
   0.50189158  0.24969854  0.59808020
   0.41540642  0.41786660  0.50029954
   0.58367279  0.08011494  0.40189812
   0.66810280  0.91542328  0.49937890
   0.33404131  0.33145829  0.40171253
   0.25153058 -0.00249402  0.59798026
   0.16757836  0.16486326  0.49947997
   0.33445506  0.08427310  0.40215873
   0.91493896  0.91619359  0.49973998
   0.08196210  0.83392379  0.40204143
   0.91554307  0.66778264  0.49957553
   0.91680313  0.41840848  0.49910497
   0.08430597  0.33183425  0.40209356
   0.41805514  0.66497169  0.50088640
   0.74744857  0.75269592  0.59682355
Direct configuration=     6
   0.08410230  0.08469812  0.39729621
   0.41704148  0.91675784  0.50005082
   0.58350585  0.33192110  0.39721371
   0.50277326 -0.00206477  0.60250066
   0.41707888  0.16694649  0.49881742
   0.83288042  0.08149310  0.39725727
   0.16607736  0.91672954  0.50066102
   0.33575302  0.83311622  0.39711056
   0.25377917  0.49954481  0.60260144
   0.16622995  0.66720383  0.50015859
   0.33399633  0.58289308  0.39853612
   0.25283807  0.24751119  0.60292536
   0.16510218  0.41670734  0.49859269
   0.66673588  0.16514633  0.50103990
   0.08157274  0.58425882  0.39733648
   0.91620513  0.16817731  0.49979772
   0.66524311  0.41808170  0.49982385
  -0.00156661  0.75167699  0.60158682
  -0.00071590 -0.00073739  0.60257127
   0.83220459  0.58316729  0.39866081
  -0.00175080  0.50185724  0.60086631
   0.66754282  0.66766783  0.50002441
  -0.00004956  0.24923055  0.60159586
   0.74648575  0.50163776  0.60243071
   0.83188673  0.83403094  0.40319141
   0.74892470  0.00047970  0.59775098
   0.83330064  0.33383845  0.40181552
   0.74748894  0.25001312  0.59870572
   0.58400490  0.83555046  0.40227039
   0.49816024  0.75024728  0.59786221
   0.50063865  0.49909307  0.59747981
   0.25383264  0.74910133  0.59835820
   0.58400306  0.58409734  0.40212670
   0.50171983  0.24964858  0.59822023
   0.41583258  0.41740702  0.50005744
   0.58358359  0.08068204  0.40158964
   0.66823245  0.91567834  0.49965660
   0.33394534  0.33159316  0.40146489
   0.25132363 -0.00216539  0.59822118
   0.16628863  0.16673564  0.49967369
   0.33439996  0.08430407  0.40185617
   0.91553065  0.91585663  0.49990463
   0.08220233  0.83412773  0.40199433
   0.91562293  0.66820165  0.49954598
   0.91716583  0.41770431  0.49944313
   0.08422859  0.33196983  0.40193745
   0.41668163  0.66614800  0.50043256
   0.74793611  0.75203440  0.59698513
Direct configuration=     7
   0.08398002  0.08459187  0.39712557
   0.41710108  0.91635962  0.50005214
   0.58336343  0.33205918  0.39704400
   0.50251613 -0.00189105  0.60269527
   0.41684430  0.16737479  0.49900260
   0.83308097  0.08141766  0.39708254
   0.16608064  0.91634005  0.50056245
   0.33569544  0.83313891  0.39693538
   0.25365867  0.49954575  0.60275491
   0.16621880  0.66756214  0.50020992
   0.33411620  0.58285467  0.39839756
   0.25264511  0.24769969  0.60307592
   0.16525612  0.41616373  0.49874198
   0.66639883  0.16553983  0.50084063
   0.08167164  0.58423504  0.39708823
   0.91656670  0.16811516  0.49976847
   0.66519033  0.41791962  0.49977887
  -0.00137867  0.75162605  0.60174662
  -0.00063796 -0.00071312  0.60274253
   0.83229264  0.58309796  0.39846259
  -0.00155165  0.50147208  0.60095407
   0.66760884  0.66754936  0.50003742
  -0.00007216  0.24941197  0.60171457
   0.74682203  0.50155202  0.60263423
   0.83205927  0.83400163  0.40311488
   0.74905296  0.00042527  0.59787762
   0.83342208  0.33364289  0.40175557
   0.74764419  0.24997472  0.59879010
   0.58391364  0.83543542  0.40216287
   0.49818323  0.75034687  0.59793742
   0.50050493  0.49897982  0.59757074
   0.25362171  0.74906414  0.59840721
   0.58384498  0.58403848  0.40205820
   0.50165248  0.24962899  0.59827514
   0.41599970  0.41722680  0.49996251
   0.58354861  0.08090442  0.40146867
   0.66828329  0.91577836  0.49976550
   0.33390770  0.33164605  0.40136778
   0.25124248 -0.00203652  0.59831565
   0.16578286  0.16746990  0.49974966
   0.33437836  0.08431621  0.40173752
   0.91576268  0.91572449  0.49996920
   0.08229653  0.83420771  0.40197586
   0.91565424  0.66836596  0.49953439
   0.91730806  0.41742817  0.49957574
   0.08419824  0.33202299  0.40187623
   0.41614301  0.66660929  0.50025459
   0.74812730  0.75177498  0.59704849
Direct configuration=     8
   0.08403212  0.08484236  0.39685717
   0.41672324  0.91670746  0.50001190
   0.58306812  0.33248840  0.39665119
   0.50248097 -0.00194669  0.60299800
   0.41678499  0.16703876  0.49916007
   0.83335043  0.08093827  0.39679723
   0.16628611  0.91655426  0.50049560
   0.33575012  0.83319950  0.39657344
   0.25400846  0.49949129  0.60295978
   0.16640730  0.66720135  0.50026224
   0.33421694  0.58276892  0.39818220
   0.25240746  0.24767637  0.60347338
   0.16517542  0.41616933  0.49881015
   0.66645416  0.16522303  0.50061074
   0.08197355  0.58412423  0.39675804
   0.91694622  0.16795095  0.49976807
   0.66464006  0.41843421  0.49980829
  -0.00161866  0.75163408  0.60199855
  -0.00044653 -0.00053542  0.60297827
   0.83236826  0.58279599  0.39826614
  -0.00150076  0.50147360  0.60110249
   0.66784695  0.66723148  0.50001545
   0.00005136  0.24912655  0.60193330
   0.74678900  0.50161485  0.60294149
   0.83220814  0.83420946  0.40317742
   0.74919739  0.00037586  0.59788232
   0.83368536  0.33361236  0.40176354
   0.74770459  0.24981184  0.59873030
   0.58393932  0.83536574  0.40213465
   0.49813815  0.75018213  0.59791721
   0.50012634  0.49906609  0.59744224
   0.25372313  0.74894624  0.59836934
   0.58383291  0.58379611  0.40202501
   0.50189765  0.24965629  0.59824362
   0.41582066  0.41779108  0.49981745
   0.58335226  0.08099042  0.40146106
   0.66861755  0.91604384  0.49994179
   0.33366505  0.33159360  0.40137941
   0.25093486 -0.00184879  0.59830090
   0.16559995  0.16766860  0.49980110
   0.33435222  0.08452114  0.40183004
   0.91505758  0.91594596  0.50013604
   0.08234364  0.83405032  0.40197470
   0.91554787  0.66878497  0.49947149
   0.91721547  0.41732576  0.49971829
   0.08418382  0.33192571  0.40199356
   0.41603281  0.66640094  0.50001654
   0.74862800  0.75158120  0.59705877
Direct configuration=     9
   0.08407172  0.08503274  0.39665318
   0.41643607  0.91697183  0.49998131
   0.58284367  0.33281462  0.39635265
   0.50245424 -0.00198898  0.60322808
   0.41673991  0.16678336  0.49927975
   0.83355523  0.08057393  0.39658039
   0.16644228  0.91671707  0.50044478
   0.33579167  0.83324555  0.39629835
   0.25427432  0.49944989  0.60311548
   0.16655056  0.66692714  0.50030201
   0.33429351  0.58270374  0.39801851
   0.25222684  0.24765865  0.60377546
   0.16511409  0.41617358  0.49886196
   0.66649621  0.16498225  0.50043602
   0.08220302  0.58404001  0.39650709
   0.91723467  0.16782614  0.49976777
   0.66422184  0.41882532  0.49983065
  -0.00180107  0.75164018  0.60219002
  -0.00030103 -0.00040037  0.60315744
   0.83242573  0.58256649  0.39811684
  -0.00146208  0.50147476  0.60121529
   0.66802792  0.66698988  0.49999874
   0.00014524  0.24890963  0.60209955
   0.74676390  0.50166261  0.60317501
   0.83232129  0.83436742  0.40322496
   0.74930716  0.00033831  0.59788589
   0.83388547  0.33358915  0.40176960
   0.74775050  0.24968805  0.59868485
   0.58395884  0.83531279  0.40211321
   0.49810389  0.75005693  0.59790185
   0.49983859  0.49913165  0.59734458
   0.25380021  0.74885663  0.59834055
   0.58382374  0.58361191  0.40199978
   0.50208399  0.24967705  0.59821967
   0.41568458  0.41821995  0.49970720
   0.58320304  0.08105577  0.40145528
   0.66887159  0.91624561  0.50007578
   0.33348063  0.33155374  0.40138826
   0.25070105 -0.00170610  0.59828969
   0.16546093  0.16781962  0.49984020
   0.33433236  0.08467689  0.40190036
   0.91452168  0.91611428  0.50026285
   0.08237945  0.83393070  0.40197382
   0.91546702  0.66910343  0.49942368
   0.91714510  0.41724792  0.49982664
   0.08417286  0.33185177  0.40208273
   0.41594906  0.66624259  0.49983562
   0.74900854  0.75143391  0.59706659
Direct configuration=    10
   0.08426521  0.08509022  0.39633624
   0.41668193  0.91698238  0.49993501
   0.58302501  0.33266678  0.39583969
   0.50270816 -0.00235544  0.60356718
   0.41674617  0.16664061  0.49948325
   0.83349520  0.08066043  0.39625325
   0.16633970  0.91681291  0.50035195
   0.33595258  0.83334150  0.39580673
   0.25445080  0.49927314  0.60335395
   0.16620323  0.66695214  0.50036721
   0.33410327  0.58283012  0.39769953
   0.25230281  0.24758343  0.60433589
   0.16489805  0.41659652  0.49890595
   0.66647695  0.16530093  0.50015326
   0.08228959  0.58392099  0.39617320
   0.91684700  0.16788488  0.49975007
   0.66422360  0.41867926  0.49990090
  -0.00180279  0.75169936  0.60248449
  -0.00011595 -0.00061975  0.60338588
   0.83257313  0.58248223  0.39799565
  -0.00134278  0.50153955  0.60138263
   0.66793002  0.66739489  0.49996645
  -0.00001107  0.24884731  0.60241219
   0.74650125  0.50164051  0.60353074
   0.83234317  0.83429624  0.40337653
   0.74931790  0.00048606  0.59788305
   0.83389001  0.33346178  0.40187428
   0.74768268  0.24965996  0.59843961
   0.58420598  0.83521561  0.40224462
   0.49808276  0.74989479  0.59771130
   0.49984892  0.49923030  0.59709744
   0.25383487  0.74893822  0.59818974
   0.58401242  0.58347968  0.40194035
   0.50233046  0.24957042  0.59805346
   0.41552043  0.41822179  0.49950181
   0.58302440  0.08109761  0.40152840
   0.66862346  0.91607629  0.50024500
   0.33333893  0.33143598  0.40153982
   0.25068705 -0.00178184  0.59822072
   0.16558838  0.16769787  0.49991240
   0.33431159  0.08481334  0.40211043
   0.91454480  0.91627691  0.50048105
   0.08258218  0.83372231  0.40207197
   0.91546017  0.66916234  0.49929715
   0.91683348  0.41749626  0.50001557
   0.08414050  0.33189370  0.40233394
   0.41594974  0.66636124  0.49953640
   0.74910465  0.75144822  0.59702365
Direct configuration=    11
   0.08452494  0.08516738  0.39591083
   0.41701193  0.91699655  0.49987286
   0.58326841  0.33246834  0.39515116
   0.50304900 -0.00284734  0.60402233
   0.41675456  0.16644900  0.49975641
   0.83341462  0.08077654  0.39581415
   0.16620202  0.91694157  0.50022735
   0.33616856  0.83347029  0.39514685
   0.25468768  0.49903589  0.60367404
   0.16573701  0.66698570  0.50045472
   0.33384791  0.58299976  0.39727136
   0.25240477  0.24748247  0.60508814
   0.16460807  0.41716422  0.49896500
   0.66645111  0.16572869  0.49977373
   0.08240578  0.58376122  0.39572503
   0.91632665  0.16796373  0.49972631
   0.66422596  0.41848322  0.49999520
  -0.00180511  0.75177879  0.60287975
   0.00013248 -0.00091423  0.60369250
   0.83277098  0.58236913  0.39783298
  -0.00118265  0.50162652  0.60160725
   0.66779862  0.66793854  0.49992309
  -0.00022088  0.24876367  0.60283185
   0.74614871  0.50161085  0.60400823
   0.83237255  0.83420069  0.40357999
   0.74933232  0.00068437  0.59787924
   0.83389611  0.33329081  0.40201479
   0.74759165  0.24962225  0.59811042
   0.58453772  0.83508518  0.40242101
   0.49805440  0.74967715  0.59745553
   0.49986279  0.49936271  0.59676571
   0.25388139  0.74904772  0.59798731
   0.58426568  0.58330220  0.40186058
   0.50266130  0.24942729  0.59783036
   0.41530011  0.41822426  0.49922613
   0.58278462  0.08115377  0.40162654
   0.66829041  0.91584901  0.50047213
   0.33314873  0.33127791  0.40174327
   0.25066825 -0.00188350  0.59812815
   0.16575945  0.16753445  0.50000931
   0.33428373  0.08499648  0.40239239
   0.91457583  0.91649520  0.50077393
   0.08285429  0.83344259  0.40220372
   0.91545097  0.66924142  0.49912731
   0.91641521  0.41782959  0.50026918
   0.08409707  0.33194999  0.40267112
   0.41595066  0.66652050  0.49913476
   0.74923365  0.75146742  0.59696601
Direct configuration=    12
   0.08459892  0.08479150  0.39566859
   0.41677060  0.91679043  0.49985535
   0.58323462  0.33230474  0.39461224
   0.50315065 -0.00301619  0.60442393
   0.41658430  0.16712701  0.50016018
   0.83357289  0.08072875  0.39553346
   0.16601723  0.91699056  0.50002965
   0.33641017  0.83344412  0.39456703
   0.25469524  0.49891514  0.60384450
   0.16554597  0.66751188  0.50049095
   0.33403671  0.58287873  0.39690768
   0.25285249  0.24714106  0.60567645
   0.16448886  0.41705409  0.49916554
   0.66598259  0.16567442  0.49937952
   0.08220659  0.58374883  0.39544059
   0.91654326  0.16798811  0.49966881
   0.66424340  0.41892701  0.49986727
  -0.00142099  0.75163853  0.60319176
   0.00013618 -0.00116949  0.60391828
   0.83296814  0.58231732  0.39783360
  -0.00122536  0.50146270  0.60171019
   0.66784788  0.66753310  0.49991666
  -0.00038061  0.24906546  0.60313609
   0.74633576  0.50156404  0.60430105
   0.83240934  0.83417919  0.40385885
   0.74923644  0.00090978  0.59782596
   0.83380456  0.33321479  0.40220491
   0.74773137  0.24953279  0.59784776
   0.58476229  0.83506932  0.40256406
   0.49810680  0.74970043  0.59712805
   0.49988609  0.49935388  0.59643489
   0.25389703  0.74892859  0.59765780
   0.58442585  0.58325583  0.40178870
   0.50251251  0.24919097  0.59753662
   0.41502363  0.41808519  0.49891176
   0.58290824  0.08111095  0.40178159
   0.66810822  0.91632148  0.50063497
   0.33343455  0.33133469  0.40196201
   0.25100764 -0.00194420  0.59801297
   0.16527462  0.16784158  0.50025395
   0.33433371  0.08480562  0.40262964
   0.91480182  0.91655905  0.50095848
   0.08277381  0.83377625  0.40238245
   0.91536813  0.66905933  0.49906018
   0.91618875  0.41806240  0.50060007
   0.08387396  0.33211199  0.40303739
   0.41575433  0.66690245  0.49869513
   0.74918083  0.75122580  0.59693248
Direct configuration=    13
   0.08461537  0.08470792  0.39561472
   0.41671693  0.91674459  0.49985146
   0.58322711  0.33226836  0.39449240
   0.50317326 -0.00305374  0.60451323
   0.41654645  0.16727778  0.50024996
   0.83360809  0.08071813  0.39547105
   0.16597614  0.91700146  0.49998569
   0.33646389  0.83343829  0.39443810
   0.25469692  0.49888829  0.60388240
   0.16550349  0.66762889  0.50049900
   0.33407869  0.58285182  0.39682681
   0.25295205  0.24706515  0.60580726
   0.16446235  0.41702960  0.49921014
   0.66587841  0.16566235  0.49929187
   0.08216230  0.58374607  0.39537734
   0.91659142  0.16799353  0.49965603
   0.66424728  0.41902569  0.49983882
  -0.00133558  0.75160734  0.60326113
   0.00013700 -0.00122626  0.60396848
   0.83301199  0.58230580  0.39783374
  -0.00123486  0.50142627  0.60173308
   0.66785884  0.66744295  0.49991523
  -0.00041613  0.24913257  0.60320375
   0.74637735  0.50155363  0.60436616
   0.83241752  0.83417441  0.40392086
   0.74921512  0.00095990  0.59781412
   0.83378420  0.33319788  0.40224718
   0.74776244  0.24951290  0.59778935
   0.58481223  0.83506580  0.40259586
   0.49811845  0.74970561  0.59705523
   0.49989127  0.49935191  0.59636133
   0.25390051  0.74890210  0.59758453
   0.58446146  0.58324551  0.40177271
   0.50247942  0.24913843  0.59747130
   0.41496216  0.41805427  0.49884185
   0.58293573  0.08110143  0.40181606
   0.66806770  0.91642653  0.50067118
   0.33349810  0.33134731  0.40201065
   0.25108311 -0.00195769  0.59798736
   0.16516681  0.16790987  0.50030834
   0.33434482  0.08476318  0.40268240
   0.91485207  0.91657325  0.50099951
   0.08275592  0.83385044  0.40242219
   0.91534970  0.66901884  0.49904525
   0.91613839  0.41811417  0.50067365
   0.08382434  0.33214802  0.40311884
   0.41571067  0.66698738  0.49859737
   0.74916909  0.75117207  0.59692503
Direct configuration=    14
   0.08455697  0.08459022  0.39560152
   0.41626029  0.91712660  0.49981687
   0.58321913  0.33225573  0.39417470
   0.50325997 -0.00314605  0.60480160
   0.41582598  0.16738866  0.50057634
   0.83370046  0.08065256  0.39538153
   0.16588703  0.91737911  0.49981803
   0.33665791  0.83323667  0.39403030
   0.25460265  0.49884955  0.60385858
   0.16570361  0.66745737  0.50041100
   0.33418144  0.58282926  0.39659813
   0.25316056  0.24680270  0.60618876
   0.16429113  0.41705938  0.49948718
   0.66615816  0.16577564  0.49901329
   0.08224597  0.58387434  0.39538075
   0.91668335  0.16805419  0.49964545
   0.66400385  0.41907691  0.49960778
  -0.00120999  0.75125381  0.60340431
   0.00014943 -0.00100361  0.60406235
   0.83294936  0.58226535  0.39795992
  -0.00112701  0.50130335  0.60176364
   0.66789289  0.66728702  0.49991906
  -0.00012381  0.24896795  0.60337491
   0.74647809  0.50153198  0.60447152
   0.83253236  0.83430509  0.40419685
   0.74922430  0.00085125  0.59774147
   0.83381712  0.33319439  0.40235584
   0.74783807  0.24946047  0.59755058
   0.58484344  0.83511648  0.40270795
   0.49824702  0.74967495  0.59679229
   0.49988726  0.49917007  0.59601084
   0.25405133  0.74868473  0.59728497
   0.58450011  0.58328600  0.40162435
   0.50228402  0.24915605  0.59728824
   0.41479552  0.41864666  0.49860644
   0.58313363  0.08095144  0.40190855
   0.66788976  0.91667088  0.50079366
   0.33368312  0.33143652  0.40213431
   0.25112122 -0.00186307  0.59790052
   0.16501093  0.16803783  0.50060957
   0.33436866  0.08462476  0.40293156
   0.91470694  0.91671012  0.50109561
   0.08266783  0.83402603  0.40249499
   0.91529589  0.66896851  0.49914453
   0.91628420  0.41804622  0.50097946
   0.08381197  0.33195208  0.40341297
   0.41539364  0.66699027  0.49820033
   0.74920428  0.75103355  0.59688658
Direct configuration=    15
   0.08454146  0.08455896  0.39559801
   0.41613900  0.91722808  0.49980768
   0.58321701  0.33225238  0.39409031
   0.50328300 -0.00317057  0.60487820
   0.41563461  0.16741811  0.50066303
   0.83372500  0.08063514  0.39535775
   0.16586336  0.91747943  0.49977349
   0.33670945  0.83318311  0.39392197
   0.25457760  0.49883926  0.60385226
   0.16575677  0.66741182  0.50038763
   0.33420873  0.58282327  0.39653739
   0.25321595  0.24673299  0.60629010
   0.16424565  0.41706729  0.49956077
   0.66623247  0.16580574  0.49893929
   0.08226820  0.58390841  0.39538166
   0.91670776  0.16807031  0.49964265
   0.66393918  0.41909052  0.49954641
  -0.00117663  0.75115990  0.60344234
   0.00015274 -0.00094447  0.60408728
   0.83293272  0.58225461  0.39799343
  -0.00109836  0.50127070  0.60177176
   0.66790193  0.66724560  0.49992008
  -0.00004616  0.24892422  0.60342037
   0.74650484  0.50152622  0.60449951
   0.83256286  0.83433981  0.40427016
   0.74922673  0.00082239  0.59772217
   0.83382587  0.33319346  0.40238471
   0.74785816  0.24944654  0.59748716
   0.58485173  0.83512995  0.40273773
   0.49828117  0.74966680  0.59672245
   0.49988620  0.49912177  0.59591774
   0.25409139  0.74862700  0.59720540
   0.58451037  0.58329676  0.40158494
   0.50223212  0.24916074  0.59723962
   0.41475125  0.41880402  0.49854390
   0.58318619  0.08091160  0.40193312
   0.66784249  0.91673578  0.50082620
   0.33373227  0.33146021  0.40216716
   0.25113134 -0.00183793  0.59787745
   0.16496952  0.16807182  0.50068958
   0.33437499  0.08458799  0.40299775
   0.91466838  0.91674648  0.50112114
   0.08264442  0.83407268  0.40251432
   0.91528160  0.66895514  0.49917091
   0.91632293  0.41802816  0.50106069
   0.08380868  0.33190004  0.40349109
   0.41530943  0.66699103  0.49809486
   0.74921363  0.75099676  0.59687637
Direct configuration=    16
   0.08462197  0.08463746  0.39572573
   0.41626513  0.91719985  0.49976246
   0.58337312  0.33225371  0.39391422
   0.50339690 -0.00325977  0.60505279
   0.41565118  0.16740375  0.50079036
   0.83366419  0.08072018  0.39536483
   0.16580531  0.91755878  0.49967625
   0.33669246  0.83310490  0.39366130
   0.25461804  0.49872865  0.60372363
   0.16549029  0.66738204  0.50022435
   0.33411676  0.58294017  0.39633721
   0.25314626  0.24674985  0.60658395
   0.16428075  0.41729093  0.49976279
   0.66600551  0.16612539  0.49884591
   0.08240258  0.58388977  0.39560638
   0.91661998  0.16823492  0.49968073
   0.66387088  0.41896775  0.49928896
  -0.00127565  0.75126019  0.60341785
   0.00027580 -0.00100065  0.60406504
   0.83299682  0.58225819  0.39820126
  -0.00091190  0.50108746  0.60185420
   0.66757694  0.66756853  0.49989725
   0.00018537  0.24870460  0.60352926
   0.74643191  0.50138567  0.60443868
   0.83268841  0.83431899  0.40450131
   0.74935342  0.00060421  0.59765867
   0.83390173  0.33323561  0.40238487
   0.74777516  0.24949246  0.59730775
   0.58479142  0.83515520  0.40281817
   0.49835135  0.74952379  0.59652954
   0.49994323  0.49895382  0.59557761
   0.25413996  0.74868306  0.59696348
   0.58450624  0.58330963  0.40138121
   0.50230916  0.24925759  0.59710473
   0.41485719  0.41880886  0.49840443
   0.58311817  0.08089792  0.40202009
   0.66749086  0.91680222  0.50093468
   0.33362505  0.33137296  0.40227249
   0.25110004 -0.00200356  0.59789761
   0.16488066  0.16817181  0.50094319
   0.33433000  0.08465744  0.40319196
   0.91470014  0.91662602  0.50120622
   0.08278109  0.83391821  0.40248002
   0.91531456  0.66914923  0.49935831
   0.91628797  0.41786625  0.50127433
   0.08400504  0.33174471  0.40372494
   0.41515374  0.66723417  0.49779166
   0.74929480  0.75102708  0.59686734
Direct configuration=    17
   0.08466339  0.08467783  0.39579143
   0.41633001  0.91718534  0.49973919
   0.58345342  0.33225440  0.39382363
   0.50345550 -0.00330566  0.60514260