  56  56   0   0
  0.4903395E+02  0.1100258E-08  0.1100258E-08  0.2619179E-08  0.3500000E-15
  1.000000000000000E-004
  CAR 
 unknown system                          
      6.32690921    -21.52562259  301     -1.40682892      1.00000000
    -21.526  0.0000E+00  0.0000E+00
    -21.433  0.0000E+00  0.0000E+00
    -21.340  0.0000E+00  0.0000E+00
    -21.247  0.0000E+00  0.0000E+00
    -21.154  0.0000E+00  0.0000E+00
    -21.061  0.0000E+00  0.0000E+00
    -20.969  0.0000E+00  0.0000E+00
    -20.876  0.0000E+00  0.0000E+00
    -20.783  0.2884E-14  0.2677E-15
    -20.690  0.2442E-10  0.2268E-11
    -20.597  0.3843E-07  0.3570E-08
    -20.504  0.1145E-04  0.1067E-05
    -20.412  0.6677E-03  0.6306E-04
    -20.319  0.8016E-02  0.8072E-03
    -20.226  0.2195E-01  0.2845E-02
    -20.133  0.2380E-01  0.5055E-02
    -20.040  0.3279E-01  0.8099E-02
    -19.947  0.3044E-01  0.1092E-01
    -19.854  0.1225E-01  0.1206E-01
    -19.762  0.1338E-01  0.1330E-01
    -19.669  0.2068E-01  0.1522E-01
    -19.576  0.7749E-02  0.1594E-01
    -19.483  0.1775E-02  0.1611E-01
    -19.390  0.1097E-01  0.1713E-01
    -19.297  0.2841E-01  0.1976E-01
    -19.205  0.3985E-01  0.2346E-01
    -19.112  0.4884E-01  0.2800E-01
    -19.019  0.3410E-01  0.3116E-01
    -18.926  0.8442E-02  0.3195E-01
    -18.833  0.5493E-03  0.3200E-01
    -18.740  0.7910E-05  0.3200E-01
    -18.648  0.2289E-07  0.3200E-01
    -18.555  0.1266E-10  0.3200E-01
    -18.462  0.1303E-14  0.3200E-01
    -18.369  0.0000E+00  0.3200E-01
    -18.276  0.0000E+00  0.3200E-01
    -18.183  0.0000E+00  0.3200E-01
    -18.090  0.0000E+00  0.3200E-01
    -17.998  0.0000E+00  0.3200E-01
    -17.905  0.0000E+00  0.3200E-01
    -17.812  0.0000E+00  0.3200E-01
    -17.719  0.0000E+00  0.3200E-01
    -17.626  0.0000E+00  0.3200E-01
    -17.533  0.0000E+00  0.3200E-01
    -17.441  0.0000E+00  0.3200E-01
    -17.348  0.0000E+00  0.3200E-01
    -17.255  0.0000E+00  0.3200E-01
    -17.162  0.0000E+00  0.3200E-01
    -17.069  0.0000E+00  0.3200E-01
    -16.976  0.0000E+00  0.3200E-01
    -16.884  0.0000E+00  0.3200E-01
    -16.791  0.0000E+00  0.3200E-01
    -16.698  0.0000E+00  0.3200E-01
    -16.605  0.0000E+00  0.3200E-01
    -16.512  0.0000E+00  0.3200E-01
    -16.419  0.0000E+00  0.3200E-01
    -16.326  0.0000E+00  0.3200E-01
    -16.234  0.0000E+00  0.3200E-01
    -16.141  0.0000E+00  0.3200E-01
    -16.048  0.0000E+00  0.3200E-01
    -15.955  0.0000E+00  0.3200E-01
    -15.862  0.0000E+00  0.3200E-01
    -15.769  0.0000E+00  0.3200E-01
    -15.677  0.0000E+00  0.3200E-01
    -15.584  0.0000E+00  0.3200E-01
    -15.491  0.0000E+00  0.3200E-01
    -15.398  0.0000E+00  0.3200E-01
    -15.305  0.0000E+00  0.3200E-01
    -15.212  0.0000E+00  0.3200E-01
    -15.120  0.0000E+00  0.3200E-01
    -15.027  0.0000E+00  0.3200E-01
    -14.934  0.0000E+00  0.3200E-01
    -14.841  0.0000E+00  0.3200E-01
    -14.748  0.0000E+00  0.3200E-01
    -14.655  0.0000E+00  0.3200E-01
    -14.562  0.0000E+00  0.3200E-01
    -14.470  0.0000E+00  0.3200E-01
    -14.377  0.0000E+00  0.3200E-01
    -14.284  0.0000E+00  0.3200E-01
    -14.191  0.0000E+00  0.3200E-01
    -14.098  0.0000E+00  0.3200E-01
    -14.005  0.0000E+00  0.3200E-01
    -13.913  0.0000E+00  0.3200E-01
    -13.820  0.0000E+00  0.3200E-01
    -13.727  0.0000E+00  0.3200E-01
    -13.634  0.0000E+00  0.3200E-01
    -13.541  0.0000E+00  0.3200E-01
    -13.448  0.0000E+00  0.3200E-01
    -13.356  0.0000E+00  0.3200E-01
    -13.263  0.0000E+00  0.3200E-01
    -13.170  0.0000E+00  0.3200E-01
    -13.077  0.0000E+00  0.3200E-01
    -12.984  0.0000E+00  0.3200E-01
    -12.891  0.0000E+00  0.3200E-01
    -12.798  0.0000E+00  0.3200E-01
    -12.706  0.0000E+00  0.3200E-01
    -12.613  0.0000E+00  0.3200E-01
    -12.520  0.0000E+00  0.3200E-01
    -12.427  0.0000E+00  0.3200E-01
    -12.334  0.0000E+00  0.3200E-01
    -12.241  0.0000E+00  0.3200E-01
    -12.149  0.0000E+00  0.3200E-01
    -12.056  0.0000E+00  0.3200E-01
    -11.963  0.0000E+00  0.3200E-01
    -11.870  0.0000E+00  0.3200E-01
    -11.777  0.0000E+00  0.3200E-01
    -11.684  0.0000E+00  0.3200E-01
    -11.592  0.0000E+00  0.3200E-01
    -11.499  0.0000E+00  0.3200E-01
    -11.406  0.0000E+00  0.3200E-01
    -11.313  0.0000E+00  0.3200E-01
    -11.220  0.0000E+00  0.3200E-01
    -11.127  0.0000E+00  0.3200E-01
    -11.035  0.0000E+00  0.3200E-01
    -10.942  0.0000E+00  0.3200E-01
    -10.849  0.0000E+00  0.3200E-01
    -10.756  0.0000E+00  0.3200E-01
    -10.663  0.0000E+00  0.3200E-01
    -10.570  0.0000E+00  0.3200E-01
    -10.477  0.0000E+00  0.3200E-01
    -10.385  0.0000E+00  0.3200E-01
    -10.292  0.0000E+00  0.3200E-01
    -10.199  0.0000E+00  0.3200E-01
    -10.106  0.0000E+00  0.3200E-01
    -10.013  0.0000E+00  0.3200E-01
     -9.920  0.0000E+00  0.3200E-01
     -9.828  0.0000E+00  0.3200E-01
     -9.735  0.0000E+00  0.3200E-01
     -9.642  0.0000E+00  0.3200E-01
     -9.549  0.0000E+00  0.3200E-01
     -9.456  0.4339E-14  0.3200E-01
     -9.363  0.3002E-10  0.3200E-01
     -9.271  0.3884E-07  0.3200E-01
     -9.178  0.9596E-05  0.3200E-01
     -9.085  0.4681E-03  0.3204E-01
     -8.992  0.4747E-02  0.3249E-01
     -8.899  0.1096E-01  0.3350E-01
     -8.806  0.9901E-02  0.3442E-01
     -8.713  0.1380E-01  0.3570E-01
     -8.621  0.2121E-01  0.3767E-01
     -8.528  0.1999E-01  0.3953E-01
     -8.435  0.9754E-02  0.4043E-01
     -8.342  0.1284E-01  0.4163E-01
     -8.249  0.2192E-01  0.4366E-01
     -8.156  0.3536E-01  0.4694E-01
     -8.064  0.2782E-01  0.4953E-01
     -7.971  0.2247E-01  0.5161E-01
     -7.878  0.3014E-01  0.5441E-01
     -7.785  0.3959E-01  0.5809E-01
     -7.692  0.4460E-01  0.6223E-01
     -7.599  0.5188E-01  0.6704E-01
     -7.507  0.6261E-01  0.7286E-01
     -7.414  0.6039E-01  0.7846E-01
     -7.321  0.5954E-01  0.8399E-01
     -7.228  0.7815E-01  0.9125E-01
     -7.135  0.1043E+00  0.1009E+00
     -7.042  0.1261E+00  0.1126E+00
     -6.949  0.1387E+00  0.1255E+00
     -6.857  0.1424E+00  0.1387E+00
     -6.764  0.1349E+00  0.1513E+00
     -6.671  0.1382E+00  0.1641E+00
     -6.578  0.1518E+00  0.1782E+00
     -6.485  0.1559E+00  0.1927E+00
     -6.392  0.1610E+00  0.2076E+00
     -6.300  0.1674E+00  0.2231E+00
     -6.207  0.1644E+00  0.2384E+00
     -6.114  0.1673E+00  0.2539E+00
     -6.021  0.1655E+00  0.2693E+00
     -5.928  0.1601E+00  0.2842E+00
     -5.835  0.1686E+00  0.2998E+00
     -5.743  0.1698E+00  0.3156E+00
     -5.650  0.1630E+00  0.3307E+00
     -5.557  0.1551E+00  0.3451E+00
     -5.464  0.1567E+00  0.3597E+00
     -5.371  0.1654E+00  0.3750E+00
     -5.278  0.1737E+00  0.3912E+00
     -5.185  0.1743E+00  0.4073E+00
     -5.093  0.1722E+00  0.4233E+00
     -5.000  0.1758E+00  0.4397E+00
     -4.907  0.1876E+00  0.4571E+00
     -4.814  0.1985E+00  0.4755E+00
     -4.721  0.2053E+00  0.4946E+00
     -4.628  0.2031E+00  0.5134E+00
     -4.536  0.1961E+00  0.5316E+00
     -4.443  0.1880E+00  0.5491E+00
     -4.350  0.1857E+00  0.5663E+00
     -4.257  0.1871E+00  0.5837E+00
     -4.164  0.1872E+00  0.6011E+00
     -4.071  0.1856E+00  0.6183E+00
     -3.979  0.1865E+00  0.6356E+00
     -3.886  0.1896E+00  0.6532E+00
     -3.793  0.1962E+00  0.6714E+00
     -3.700  0.2076E+00  0.6907E+00
     -3.607  0.2081E+00  0.7100E+00
     -3.514  0.2007E+00  0.7287E+00
     -3.421  0.1953E+00  0.7468E+00
     -3.329  0.1892E+00  0.7644E+00
     -3.236  0.1831E+00  0.7814E+00
     -3.143  0.1818E+00  0.7982E+00
     -3.050  0.1876E+00  0.8157E+00
     -2.957  0.1845E+00  0.8328E+00
     -2.864  0.1781E+00  0.8493E+00
     -2.772  0.1707E+00  0.8652E+00
     -2.679  0.1752E+00  0.8814E+00
     -2.586  0.1901E+00  0.8991E+00
     -2.493  0.1926E+00  0.9170E+00
     -2.400  0.1859E+00  0.9342E+00
     -2.307  0.1878E+00  0.9517E+00
     -2.215  0.1909E+00  0.9694E+00
     -2.122  0.1906E+00  0.9871E+00
     -2.029  0.1893E+00  0.1005E+01
     -1.936  0.1921E+00  0.1022E+01
     -1.843  0.1911E+00  0.1040E+01
     -1.750  0.1782E+00  0.1057E+01
     -1.657  0.1652E+00  0.1072E+01
     -1.565  0.1488E+00  0.1086E+01
     -1.472  0.1250E+00  0.1098E+01
     -1.379  0.9543E-01  0.1106E+01
     -1.286  0.7173E-01  0.1113E+01
     -1.193  0.5318E-01  0.1118E+01
     -1.100  0.4318E-01  0.1122E+01
     -1.008  0.4863E-01  0.1127E+01
     -0.915  0.5340E-01  0.1131E+01
     -0.822  0.5755E-01  0.1137E+01
     -0.729  0.5631E-01  0.1142E+01
     -0.636  0.5243E-01  0.1147E+01
     -0.543  0.4727E-01  0.1151E+01
     -0.451  0.4000E-01  0.1155E+01
     -0.358  0.3708E-01  0.1158E+01
     -0.265  0.3564E-01  0.1162E+01
     -0.172  0.2730E-01  0.1164E+01
     -0.079  0.1531E-01  0.1166E+01
      0.014  0.1088E-01  0.1167E+01
      0.107  0.2110E-01  0.1169E+01
      0.199  0.2702E-01  0.1171E+01
      0.292  0.3186E-01  0.1174E+01
      0.385  0.3187E-01  0.1177E+01
      0.478  0.3619E-01  0.1180E+01
      0.571  0.3810E-01  0.1184E+01
      0.664  0.3347E-01  0.1187E+01
      0.756  0.3377E-01  0.1190E+01
      0.849  0.3068E-01  0.1193E+01
      0.942  0.2759E-01  0.1196E+01
      1.035  0.2184E-01  0.1198E+01
      1.128  0.2064E-01  0.1200E+01
      1.221  0.2600E-01  0.1202E+01
      1.313  0.3241E-01  0.1205E+01
      1.406  0.2985E-01  0.1208E+01
      1.499  0.2300E-01  0.1210E+01
      1.592  0.2614E-01  0.1212E+01
      1.685  0.3123E-01  0.1215E+01
      1.778  0.3161E-01  0.1218E+01
      1.871  0.3198E-01  0.1221E+01
      1.963  0.3148E-01  0.1224E+01
      2.056  0.4092E-01  0.1228E+01
      2.149  0.4295E-01  0.1232E+01
      2.242  0.3626E-01  0.1235E+01
      2.335  0.2932E-01  0.1238E+01
      2.428  0.2303E-01  0.1240E+01
      2.520  0.1897E-01  0.1242E+01
      2.613  0.2007E-01  0.1244E+01
      2.706  0.2374E-01  0.1246E+01
      2.799  0.2560E-01  0.1248E+01
      2.892  0.2705E-01  0.1251E+01
      2.985  0.3015E-01  0.1254E+01
      3.077  0.3409E-01  0.1257E+01
      3.170  0.3963E-01  0.1260E+01
      3.263  0.4193E-01  0.1264E+01
      3.356  0.3799E-01  0.1268E+01
      3.449  0.3504E-01  0.1271E+01
      3.542  0.3372E-01  0.1274E+01
      3.634  0.3467E-01  0.1277E+01
      3.727  0.3167E-01  0.1280E+01
      3.820  0.3287E-01  0.1283E+01
      3.913  0.4087E-01  0.1287E+01
      4.006  0.3274E-01  0.1290E+01
      4.099  0.3069E-01  0.1293E+01
      4.192  0.4064E-01  0.1297E+01
      4.284  0.4011E-01  0.1301E+01
      4.377  0.4165E-01  0.1305E+01
      4.470  0.4965E-01  0.1309E+01
      4.563  0.5199E-01  0.1314E+01
      4.656  0.5402E-01  0.1319E+01
      4.749  0.5348E-01  0.1324E+01
      4.841  0.5372E-01  0.1329E+01
      4.934  0.5779E-01  0.1334E+01
      5.027  0.5926E-01  0.1340E+01
      5.120  0.3675E-01  0.1343E+01
      5.213  0.8012E-02  0.1344E+01
      5.306  0.4642E-03  0.1344E+01
      5.398  0.6169E-05  0.1344E+01
      5.491  0.1721E-07  0.1344E+01
      5.584  0.9540E-11  0.1344E+01
      5.677  0.1014E-14  0.1344E+01
      5.770  0.0000E+00  0.1344E+01
      5.863  0.0000E+00  0.1344E+01
      5.956  0.0000E+00  0.1344E+01
      6.048  0.0000E+00  0.1344E+01
      6.141  0.0000E+00  0.1344E+01
      6.234  0.0000E+00  0.1344E+01
      6.327  0.0000E+00  0.1344E+01
