       N       E                     dE             d eps       ncg     rms          rms(c)
DAV:   1     0.359958602954E+04    0.35996E+04   -0.20996E+05  4080   0.112E+03
DAV:   2     0.499898258957E+02   -0.35496E+04   -0.32951E+04  4836   0.270E+02
DAV:   3    -0.253007757795E+03   -0.30300E+03   -0.28169E+03  4668   0.751E+01
DAV:   4    -0.263560206817E+03   -0.10552E+02   -0.10384E+02  4440   0.147E+01
DAV:   5    -0.263867511241E+03   -0.30730E+00   -0.30663E+00  4764   0.244E+00    0.648E+01
RMM:   6    -0.252430022750E+03    0.11437E+02   -0.16457E+02  4033   0.191E+01    0.595E+01
RMM:   7    -0.293606842455E+03   -0.41177E+02   -0.86345E+01  4032   0.120E+01    0.792E+01
RMM:   8    -0.242618630927E+03    0.50988E+02   -0.15638E+01  4032   0.560E+00    0.431E+01
RMM:   9    -0.256844563239E+03   -0.14226E+02   -0.67020E+01  4032   0.126E+01    0.493E+01
RMM:  10    -0.248406279921E+03    0.84383E+01   -0.17171E+01  4032   0.607E+00    0.333E+01
RMM:  11    -0.235572524339E+03    0.12834E+02   -0.13784E+01  4033   0.566E+00    0.183E+01
RMM:  12    -0.231018931685E+03    0.45536E+01   -0.70560E+00  4036   0.389E+00    0.113E+01
RMM:  13    -0.230139110209E+03    0.87982E+00   -0.19984E+00  4038   0.208E+00    0.701E+00
RMM:  14    -0.229950256754E+03    0.18885E+00   -0.28238E-01  4038   0.812E-01    0.496E+00
RMM:  15    -0.229865884036E+03    0.84373E-01   -0.12158E-01  4037   0.498E-01    0.448E+00
RMM:  16    -0.229857155460E+03    0.87286E-02   -0.16281E-01  4037   0.629E-01    0.362E+00
RMM:  17    -0.229778396359E+03    0.78759E-01   -0.16749E-01  4037   0.647E-01    0.205E+00
RMM:  18    -0.229743940304E+03    0.34456E-01   -0.52328E-02  4037   0.350E-01    0.114E+00
RMM:  19    -0.229731712558E+03    0.12228E-01   -0.10339E-02  4039   0.155E-01    0.594E-01
RMM:  20    -0.229730993318E+03    0.71924E-03   -0.19301E-03  4039   0.642E-02    0.500E-01
RMM:  21    -0.229731170196E+03   -0.17688E-03   -0.15638E-03  4036   0.611E-02    0.422E-01
RMM:  22    -0.229731550235E+03   -0.38004E-03   -0.23905E-03  4037   0.758E-02    0.326E-01
RMM:  23    -0.229731317130E+03    0.23310E-03   -0.15057E-03  4037   0.583E-02    0.147E-01
RMM:  24    -0.229731388907E+03   -0.71777E-04   -0.29601E-04  4037   0.259E-02    0.781E-02
RMM:  25    -0.229731715380E+03   -0.32647E-03   -0.12145E-04  4037   0.164E-02    0.588E-02
RMM:  26    -0.229732096797E+03   -0.38142E-03   -0.92392E-05  4036   0.139E-02    0.481E-02
RMM:  27    -0.229732395820E+03   -0.29902E-03   -0.52307E-05  4032   0.101E-02    0.315E-02
RMM:  28    -0.229732616731E+03   -0.22091E-03   -0.21883E-05  4026   0.626E-03    0.283E-02
RMM:  29    -0.229732853007E+03   -0.23628E-03   -0.16550E-05  4002   0.527E-03    0.275E-02
RMM:  30    -0.229733200646E+03   -0.34764E-03   -0.27563E-05  4021   0.641E-03    0.266E-02
RMM:  31    -0.229733545758E+03   -0.34511E-03   -0.42357E-05  4020   0.725E-03    0.181E-02
RMM:  32    -0.229733660097E+03   -0.11434E-03   -0.13876E-05  3647   0.411E-03    0.127E-02
RMM:  33    -0.229733730572E+03   -0.70474E-04   -0.52651E-06  2957   0.261E-03    0.937E-03
RMM:  34    -0.229733798473E+03   -0.67901E-04   -0.34018E-06  2753   0.234E-03    0.643E-03
RMM:  35    -0.229733837790E+03   -0.39317E-04   -0.13389E-06  2443   0.166E-03    0.791E-03
RMM:  36    -0.229733882632E+03   -0.44842E-04   -0.11818E-06  2421   0.162E-03    0.642E-03
RMM:  37    -0.229733915114E+03   -0.32483E-04   -0.75137E-07  2358   0.134E-03    0.555E-03
RMM:  38    -0.229733938767E+03   -0.23652E-04   -0.51936E-07  2339   0.109E-03    0.407E-03
RMM:  39    -0.229733958265E+03   -0.19498E-04   -0.49965E-07  2349   0.105E-03    0.250E-03
RMM:  40    -0.229733965306E+03   -0.70413E-05   -0.21322E-07  1882   0.611E-04    0.171E-03
RMM:  41    -0.229733969216E+03   -0.39099E-05   -0.99749E-08  1556   0.478E-04    0.106E-03
RMM:  42    -0.229733972623E+03   -0.34073E-05   -0.79715E-08  1586   0.450E-04    0.694E-04
RMM:  43    -0.229733975095E+03   -0.24718E-05   -0.61762E-08  1162   0.418E-04    0.415E-04
RMM:  44    -0.229733975769E+03   -0.67366E-06   -0.25064E-08   969   0.380E-04
   1 F= -.22973398E+03 E0= -.22961301E+03  d E =-.229734E+03
       N       E                     dE             d eps       ncg     rms          rms(c)
DAV:   1    -0.229734802280E+03   -0.82718E-03   -0.88288E-01  4164   0.158E+00    0.280E-01
RMM:   2    -0.229737153857E+03   -0.23516E-02   -0.22964E-02  4041   0.249E-01    0.294E-01
RMM:   3    -0.229736836043E+03    0.31781E-03   -0.16566E-03  4041   0.653E-02    0.203E-01
RMM:   4    -0.229736889991E+03   -0.53948E-04   -0.75642E-04  4042   0.424E-02    0.210E-01
RMM:   5    -0.229736701921E+03    0.18807E-03   -0.51016E-04  4039   0.343E-02    0.141E-01
RMM:   6    -0.229736842283E+03   -0.14036E-03   -0.25970E-04  4038   0.242E-02    0.171E-01
RMM:   7    -0.229736643081E+03    0.19920E-03   -0.13585E-04  4032   0.164E-02    0.103E-01
RMM:   8    -0.229736558847E+03    0.84234E-04   -0.54557E-05  4032   0.114E-02    0.258E-02
RMM:   9    -0.229736556621E+03    0.22266E-05   -0.78881E-06  3809   0.439E-03    0.140E-02
RMM:  10    -0.229736555594E+03    0.10269E-05   -0.22074E-06  2358   0.239E-03    0.924E-03
RMM:  11    -0.229736555664E+03   -0.70329E-07   -0.21127E-06  2268   0.247E-03
   2 F= -.22973656E+03 E0= -.22961554E+03  d E =-.257990E-02
       N       E                     dE             d eps       ncg     rms          rms(c)
DAV:   1    -0.229736564322E+03   -0.87280E-05   -0.37515E-02  4080   0.325E-01    0.581E-02
RMM:   2    -0.229736666124E+03   -0.10180E-03   -0.97986E-04  4041   0.516E-02    0.623E-02
RMM:   3    -0.229736653264E+03    0.12860E-04   -0.72640E-05  4041   0.136E-02    0.456E-02
RMM:   4    -0.229736698356E+03   -0.45092E-04   -0.42926E-05  4025   0.975E-03    0.795E-02
RMM:   5    -0.229736670802E+03    0.27554E-04   -0.35624E-05  4026   0.847E-03    0.628E-02
RMM:   6    -0.229736643781E+03    0.27022E-04   -0.19873E-05  4022   0.667E-03    0.256E-02
RMM:   7    -0.229736642035E+03    0.17455E-05   -0.80106E-06  3857   0.447E-03    0.162E-02
RMM:   8    -0.229736639987E+03    0.20479E-05   -0.22233E-06  2455   0.239E-03    0.557E-03
RMM:   9    -0.229736640033E+03   -0.46042E-07   -0.45883E-07  2124   0.115E-03
   3 F= -.22973664E+03 E0= -.22961560E+03  d E =-.266426E-02
       N       E                     dE             d eps       ncg     rms          rms(c)
DAV:   1    -0.229737097200E+03   -0.45721E-03   -0.51858E-01  4176   0.121E+00    0.148E-01
RMM:   2    -0.229738262142E+03   -0.11649E-02   -0.11223E-02  4041   0.182E-01    0.166E-01
RMM:   3    -0.229738540935E+03   -0.27879E-03   -0.75256E-04  4041   0.430E-02    0.235E-01
RMM:   4    -0.229738347999E+03    0.19294E-03   -0.37659E-04  4046   0.279E-02    0.195E-01
RMM:   5    -0.229738056231E+03    0.29177E-03   -0.19296E-04  4041   0.214E-02    0.929E-02
RMM:   6    -0.229738042783E+03    0.13447E-04   -0.10341E-04  4038   0.160E-02    0.615E-02
RMM:   7    -0.229738021246E+03    0.21537E-04   -0.64284E-05  4033   0.126E-02    0.280E-02
RMM:   8    -0.229738015711E+03    0.55348E-05   -0.12786E-05  4016   0.554E-03    0.149E-02
RMM:   9    -0.229738014212E+03    0.14989E-05   -0.18524E-06  2320   0.225E-03    0.705E-03
RMM:  10    -0.229738013926E+03    0.28653E-06   -0.84555E-07  2159   0.156E-03
   4 F= -.22973801E+03 E0= -.22961680E+03  d E =-.137389E-02
       N       E                     dE             d eps       ncg     rms          rms(c)
DAV:   1    -0.229737653534E+03    0.36068E-03   -0.48865E-01  4176   0.118E+00    0.145E-01
RMM:   2    -0.229738751856E+03   -0.10983E-02   -0.10611E-02  4041   0.177E-01    0.160E-01
RMM:   3    -0.229738999208E+03   -0.24735E-03   -0.71312E-04  4041   0.419E-02    0.224E-01
RMM:   4    -0.229738859483E+03    0.13973E-03   -0.35653E-04  4046   0.271E-02    0.196E-01
RMM:   5    -0.229738557935E+03    0.30155E-03   -0.18275E-04  4041   0.209E-02    0.900E-02
RMM:   6    -0.229738547102E+03    0.10833E-04   -0.98520E-05  4038   0.156E-02    0.600E-02
RMM:   7    -0.229738525613E+03    0.21489E-04   -0.60666E-05  4034   0.123E-02    0.254E-02
RMM:   8    -0.229738521676E+03    0.39375E-05   -0.11844E-05  4017   0.532E-03    0.150E-02
RMM:   9    -0.229738520080E+03    0.15955E-05   -0.21287E-06  2405   0.239E-03    0.724E-03
RMM:  10    -0.229738519901E+03    0.17951E-06   -0.86338E-07  2162   0.162E-03
   5 F= -.22973852E+03 E0= -.22961715E+03  d E =-.187987E-02
       N       E                     dE             d eps       ncg     rms          rms(c)
DAV:   1    -0.229738912841E+03   -0.39276E-03   -0.58194E-01  4080   0.128E+00    0.127E-01
RMM:   2    -0.229740080544E+03   -0.11677E-02   -0.11396E-02  4041   0.188E-01    0.152E-01
RMM:   3    -0.229740302037E+03   -0.22149E-03   -0.71152E-04  4042   0.423E-02    0.215E-01
RMM:   4    -0.229740038617E+03    0.26342E-03   -0.26818E-04  4045   0.242E-02    0.142E-01
RMM:   5    -0.229739899279E+03    0.13934E-03   -0.12604E-04  4041   0.172E-02    0.819E-02
RMM:   6    -0.229739884379E+03    0.14900E-04   -0.56166E-05  4039   0.110E-02    0.547E-02
RMM:   7    -0.229739884458E+03   -0.78922E-07   -0.63999E-05  4033   0.122E-02    0.346E-02
RMM:   8    -0.229739876169E+03    0.82889E-05   -0.13411E-05  4017   0.555E-03    0.125E-02
RMM:   9    -0.229739875155E+03    0.10144E-05   -0.19508E-06  2356   0.235E-03    0.860E-03
RMM:  10    -0.229739874562E+03    0.59242E-06   -0.10324E-06  2145   0.175E-03
   6 F= -.22973987E+03 E0= -.22961833E+03  d E =-.135466E-02
       N       E                     dE             d eps       ncg     rms          rms(c)
DAV:   1    -0.229738845167E+03    0.10300E-02   -0.15933E+00  4032   0.212E+00    0.211E-01
RMM:   2    -0.229742059582E+03   -0.32144E-02   -0.31174E-02  4041   0.311E-01    0.253E-01
RMM:   3    -0.229742731132E+03   -0.67155E-03   -0.19709E-03  4042   0.702E-02    0.366E-01
RMM:   4    -0.229741921924E+03    0.80921E-03   -0.73969E-04  4045   0.402E-02    0.230E-01
RMM:   5    -0.229741554708E+03    0.36722E-03   -0.34543E-04  4041   0.285E-02    0.135E-01
RMM:   6    -0.229741508169E+03    0.46538E-04   -0.15782E-04  4040   0.186E-02    0.906E-02
RMM:   7    -0.229741501201E+03    0.69687E-05   -0.17524E-04  4032   0.202E-02    0.536E-02
RMM:   8    -0.229741480695E+03    0.20506E-04   -0.32407E-05  4032   0.860E-03    0.209E-02
RMM:   9    -0.229741478005E+03    0.26894E-05   -0.55504E-06  3395   0.379E-03    0.152E-02
RMM:  10    -0.229741476139E+03    0.18666E-05   -0.24671E-06  2358   0.256E-03    0.105E-02
RMM:  11    -0.229741475483E+03    0.65533E-06   -0.27805E-06  2362   0.270E-03
   7 F= -.22974148E+03 E0= -.22961967E+03  d E =-.295558E-02
       N       E                     dE             d eps       ncg     rms          rms(c)
DAV:   1    -0.229731856561E+03    0.96196E-02   -0.63748E+00  4032   0.425E+00    0.419E-01
RMM:   2    -0.229744695088E+03   -0.12839E-01   -0.12446E-01  4041   0.622E-01    0.499E-01
RMM:   3    -0.229747303530E+03   -0.26084E-02   -0.78088E-03  4042   0.140E-01    0.723E-01
RMM:   4    -0.229744243963E+03    0.30596E-02   -0.29180E-03  4045   0.798E-02    0.463E-01
RMM:   5    -0.229742699458E+03    0.15445E-02   -0.13825E-03  4041   0.569E-02    0.270E-01
RMM:   6    -0.229742492609E+03    0.20685E-03   -0.62110E-04  4039   0.368E-02    0.180E-01
RMM:   7    -0.229742452889E+03    0.39720E-04   -0.70206E-04  4037   0.403E-02    0.112E-01
RMM:   8    -0.229742362351E+03    0.90538E-04   -0.13791E-04  4037   0.178E-02    0.400E-02
RMM:   9    -0.229742350513E+03    0.11838E-04   -0.23220E-05  4033   0.768E-03    0.270E-02
RMM:  10    -0.229742343903E+03    0.66108E-05   -0.11507E-05  4024   0.516E-03    0.188E-02
RMM:  11    -0.229742342375E+03    0.15280E-05   -0.10989E-05  4024   0.478E-03    0.171E-02
RMM:  12    -0.229742341806E+03    0.56853E-06   -0.72036E-06  3932   0.394E-03
   8 F= -.22974234E+03 E0= -.22962004E+03  d E =-.382191E-02
       N       E                     dE             d eps       ncg     rms          rms(c)
DAV:   1    -0.229742575154E+03   -0.23278E-03   -0.19431E-01  4152   0.756E-01    0.703E-02
RMM:   2    -0.229742947642E+03   -0.37249E-03   -0.39174E-03  4041   0.109E-01    0.526E-02
RMM:   3    -0.229742992083E+03   -0.44441E-04   -0.20129E-04  4042   0.231E-02    0.956E-02
RMM:   4    -0.229742957739E+03    0.34343E-04   -0.60206E-05  4049   0.116E-02    0.768E-02
RMM:   5    -0.229742910426E+03    0.47313E-04   -0.25985E-05  4037   0.769E-03    0.309E-02
RMM:   6    -0.229742914358E+03   -0.39314E-05   -0.18628E-05  4031   0.661E-03    0.288E-02
RMM:   7    -0.229742912400E+03    0.19573E-05   -0.17621E-05  4032   0.641E-03    0.170E-02
RMM:   8    -0.229742910525E+03    0.18752E-05   -0.38063E-06  2905   0.306E-03    0.820E-03
RMM:   9    -0.229742910179E+03    0.34644E-06   -0.72351E-07  2143   0.149E-03
   9 F= -.22974291E+03 E0= -.22962053E+03  d E =-.568372E-03
       N       E                     dE             d eps       ncg     rms          rms(c)
DAV:   1    -0.229741421129E+03    0.14894E-02   -0.17480E+00  4032   0.227E+00    0.212E-01
RMM:   2    -0.229744822726E+03   -0.34016E-02   -0.35301E-02  4041   0.326E-01    0.169E-01
RMM:   3    -0.229745791848E+03   -0.96912E-03   -0.19840E-03  4042   0.713E-02    0.378E-01
RMM:   4    -0.229744733205E+03    0.10586E-02   -0.62611E-04  4047   0.371E-02    0.197E-01
RMM:   5    -0.229744448988E+03    0.28422E-03   -0.22739E-04  4041   0.234E-02    0.886E-02
RMM:   6    -0.229744473234E+03   -0.24246E-04   -0.15946E-04  4039   0.191E-02    0.821E-02
RMM:   7    -0.229744449790E+03    0.23444E-04   -0.13802E-04  4034   0.178E-02    0.444E-02
RMM:   8    -0.229744438317E+03    0.11473E-04   -0.31121E-05  4032   0.846E-03    0.240E-02
RMM:   9    -0.229744433891E+03    0.44265E-05   -0.44915E-06  3158   0.348E-03    0.112E-02
RMM:  10    -0.229744432893E+03    0.99752E-06   -0.21750E-06  2241   0.250E-03
  10 F= -.22974443E+03 E0= -.22962191E+03  d E =-.209109E-02
       N       E                     dE             d eps       ncg     rms          rms(c)
DAV:   1    -0.229734716913E+03    0.97170E-02   -0.69937E+00  4032   0.454E+00    0.423E-01
RMM:   2    -0.229748320992E+03   -0.13604E-01   -0.14119E-01  4041   0.653E-01    0.329E-01
RMM:   3    -0.229751521469E+03   -0.32005E-02   -0.77238E-03  4042   0.141E-01    0.707E-01
RMM:   4    -0.229748219791E+03    0.33017E-02   -0.24099E-03  4047   0.729E-02    0.415E-01
RMM:   5    -0.229746859840E+03    0.13600E-02   -0.90689E-04  4041   0.463E-02    0.180E-01
RMM:   6    -0.229746932460E+03   -0.72621E-04   -0.62308E-04  4039   0.380E-02    0.165E-01
RMM:   7    -0.229746831260E+03    0.10120E-03   -0.58067E-04  4038   0.367E-02    0.884E-02
RMM:   8    -0.229746784603E+03    0.46657E-04   -0.12748E-04  4037   0.172E-02    0.494E-02
RMM:   9    -0.229746765649E+03    0.18954E-04   -0.19231E-05  4032   0.707E-03    0.232E-02
RMM:  10    -0.229746761653E+03    0.39963E-05   -0.86938E-06  3967   0.460E-03    0.183E-02
RMM:  11    -0.229746760597E+03    0.10558E-05   -0.88326E-06  4005   0.437E-03    0.153E-02
RMM:  12    -0.229746760836E+03   -0.23912E-06   -0.69450E-06  3869   0.388E-03
  11 F= -.22974676E+03 E0= -.22962388E+03  d E =-.441903E-02
       N       E                     dE             d eps       ncg     rms          rms(c)
DAV:   1    -0.229700412741E+03    0.46348E-01   -0.27990E+01  4032   0.907E+00    0.844E-01
RMM:   2    -0.229754949261E+03   -0.54537E-01   -0.56478E-01  4041   0.131E+00    0.650E-01
RMM:   3    -0.229765280902E+03   -0.10332E-01   -0.30373E-02  4042   0.281E-01    0.131E+00
RMM:   4    -0.229755495369E+03    0.97855E-02   -0.93506E-03  4047   0.144E-01    0.876E-01
RMM:   5    -0.229749109126E+03    0.63862E-02   -0.35652E-03  4041   0.909E-02    0.361E-01
RMM:   6    -0.229749299843E+03   -0.19072E-03   -0.24220E-03  4039   0.751E-02    0.332E-01
RMM:   7    -0.229748900011E+03    0.39983E-03   -0.23801E-03  4039   0.742E-02    0.186E-01
RMM:   8    -0.229748675134E+03    0.22488E-03   -0.56987E-04  4037   0.362E-02    0.993E-02
RMM:   9    -0.229748599264E+03    0.75871E-04   -0.81616E-05  4037   0.146E-02    0.462E-02
RMM:  10    -0.229748581797E+03    0.17466E-04   -0.39198E-05  4033   0.979E-03    0.351E-02
RMM:  11    -0.229748577742E+03    0.40557E-05   -0.37036E-05  4036   0.897E-03    0.276E-02
RMM:  12    -0.229748577200E+03    0.54208E-06   -0.25272E-05  4032   0.735E-03    0.173E-02
RMM:  13    -0.229748576260E+03    0.93962E-06   -0.34363E-06  2737   0.293E-03
  12 F= -.22974858E+03 E0= -.22962507E+03  d E =-.623445E-02
       N       E                     dE             d eps       ncg     rms          rms(c)
DAV:   1    -0.229744966581E+03    0.36106E-02   -0.48286E+00  4032   0.384E+00    0.393E-01
RMM:   2    -0.229755335504E+03   -0.10369E-01   -0.10418E-01  4041   0.551E-01    0.384E-01
RMM:   3    -0.229755819860E+03   -0.48436E-03   -0.57700E-03  4041   0.122E-01    0.499E-01
RMM:   4    -0.229756450094E+03   -0.63023E-03   -0.21414E-03  4045   0.692E-02    0.563E-01
RMM:   5    -0.229753708464E+03    0.27416E-02   -0.81756E-04  4041   0.441E-02    0.170E-01
RMM:   6    -0.229753830327E+03   -0.12186E-03   -0.59287E-04  4038   0.374E-02    0.166E-01
RMM:   7    -0.229753682739E+03    0.14759E-03   -0.44148E-04  4039   0.324E-02    0.829E-02
RMM:   8    -0.229753647288E+03    0.35451E-04   -0.11040E-04  4039   0.162E-02    0.405E-02
RMM:   9    -0.229753637052E+03    0.10236E-04   -0.17658E-05  4026   0.664E-03    0.219E-02
RMM:  10    -0.229753634211E+03    0.28417E-05   -0.58375E-06  3650   0.375E-03    0.165E-02
RMM:  11    -0.229753633576E+03    0.63504E-06   -0.65629E-06  3910   0.383E-03
  13 F= -.22975363E+03 E0= -.22963006E+03  d E =-.505732E-02
       N       E                     dE             d eps       ncg     rms          rms(c)
DAV:   1    -0.229733358926E+03    0.20275E-01   -0.14216E+01  4032   0.659E+00    0.677E-01
RMM:   2    -0.229764076660E+03   -0.30718E-01   -0.30756E-01  4041   0.947E-01    0.665E-01
RMM:   3    -0.229766038926E+03   -0.19623E-02   -0.17062E-02  4041   0.209E-01    0.896E-01
RMM:   4    -0.229767558593E+03   -0.15197E-02   -0.65591E-03  4046   0.121E-01    0.982E-01
RMM:   5    -0.229759305784E+03    0.82528E-02   -0.25067E-03  4041   0.777E-02    0.299E-01
RMM:   6    -0.229759574908E+03   -0.26912E-03   -0.17819E-03  4038   0.649E-02    0.288E-01
RMM:   7    -0.229759129876E+03    0.44503E-03   -0.12972E-03  4039   0.556E-02    0.150E-01
RMM:   8    -0.229759015508E+03    0.11437E-03   -0.34461E-04  4039   0.285E-02    0.754E-02
RMM:   9    -0.229758980449E+03    0.35059E-04   -0.57602E-05  4041   0.119E-02    0.416E-02
RMM:  10    -0.229758969444E+03    0.11005E-04   -0.18446E-05  4032   0.663E-03    0.284E-02
RMM:  11    -0.229758966111E+03    0.33335E-05   -0.19668E-05  4027   0.659E-03    0.222E-02
RMM:  12    -0.229758965625E+03    0.48592E-06   -0.15109E-05  4014   0.581E-03    0.145E-02
RMM:  13    -0.229758966136E+03   -0.51146E-06   -0.40971E-06  2975   0.317E-03
  14 F= -.22975897E+03 E0= -.22963528E+03  d E =-.103899E-01
       N       E                     dE             d eps       ncg     rms          rms(c)
DAV:   1    -0.229654093356E+03    0.10487E+00   -0.56925E+01  4032   0.132E+01    0.136E+00
RMM:   2    -0.229778959147E+03   -0.12487E+00   -0.12370E+00  4042   0.190E+00    0.138E+00
RMM:   3    -0.229791927210E+03   -0.12968E-01   -0.69268E-02  4041   0.419E-01    0.197E+00
RMM:   4    -0.229791894496E+03    0.32714E-04   -0.28283E-02  4043   0.249E-01    0.197E+00
RMM:   5    -0.229759205061E+03    0.32689E-01   -0.10829E-02  4041   0.163E-01    0.630E-01
RMM:   6    -0.229759720318E+03   -0.51526E-03   -0.73873E-03  4038   0.132E-01    0.594E-01
RMM:   7    -0.229757719637E+03    0.20007E-02   -0.51990E-03  4039   0.111E-01    0.307E-01
RMM:   8    -0.229757308490E+03    0.41115E-03   -0.15065E-03  4039   0.595E-02    0.172E-01
RMM:   9    -0.229757126836E+03    0.18165E-03   -0.28116E-04  4041   0.263E-02    0.942E-02
RMM:  10    -0.229757069782E+03    0.57054E-04   -0.92020E-05  4038   0.149E-02    0.589E-02
RMM:  11    -0.229757053639E+03    0.16143E-04   -0.82535E-05  4034   0.136E-02    0.455E-02
RMM:  12    -0.229757048318E+03    0.53211E-05   -0.58690E-05  4037   0.115E-02    0.298E-02
RMM:  13    -0.229757048456E+03   -0.13792E-06   -0.17779E-05  4032   0.643E-03    0.169E-02
RMM:  14    -0.229757048436E+03    0.20344E-07   -0.31561E-06  2737   0.292E-03
  15 F= -.22975705E+03 E0= -.22963305E+03  d E =-.847218E-02
       N       E                     dE             d eps       ncg     rms          rms(c)
DAV:   1    -0.229721567445E+03    0.35481E-01   -0.21392E+01  4032   0.808E+00    0.834E-01
RMM:   2    -0.229767823085E+03   -0.46256E-01   -0.46588E-01  4041   0.116E+00    0.803E-01
RMM:   3    -0.229767432974E+03    0.39011E-03   -0.25779E-02  4041   0.258E-01    0.903E-01
RMM:   4    -0.229767467998E+03   -0.35024E-04   -0.73285E-03  4044   0.133E-01    0.907E-01
RMM:   5    -0.229761135276E+03    0.63327E-02   -0.26953E-03  4041   0.783E-02    0.387E-01
RMM:   6    -0.229761232985E+03   -0.97709E-04   -0.26434E-03  4038   0.790E-02    0.359E-01
RMM:   7    -0.229760508666E+03    0.72432E-03   -0.19677E-03  4040   0.687E-02    0.182E-01
RMM:   8    -0.229760319348E+03    0.18932E-03   -0.46695E-04  4039   0.333E-02    0.892E-02
RMM:   9    -0.229760265825E+03    0.53522E-04   -0.79237E-05  4040   0.140E-02    0.493E-02
RMM:  10    -0.229760250554E+03    0.15271E-04   -0.25547E-05  4032   0.778E-03    0.348E-02
RMM:  11    -0.229760243372E+03    0.71824E-05   -0.28758E-05  4033   0.797E-03    0.268E-02
RMM:  12    -0.229760240302E+03    0.30696E-05   -0.22751E-05  4034   0.705E-03    0.157E-02
RMM:  13    -0.229760240505E+03   -0.20235E-06   -0.53705E-06  3239   0.362E-03
  16 F= -.22976024E+03 E0= -.22963640E+03  d E =-.116642E-01
       N       E                     dE             d eps       ncg     rms          rms(c)
DAV:   1    -0.229752602469E+03    0.76378E-02   -0.80517E+00  4032   0.487E+00    0.455E-01
RMM:   2    -0.229767791355E+03   -0.15189E-01   -0.15892E-01  4041   0.697E-01    0.305E-01
RMM:   3    -0.229772409237E+03   -0.46179E-02   -0.82580E-03  4041   0.146E-01    0.810E-01
RMM:   4    -0.229766996122E+03    0.54131E-02   -0.23670E-03  4048   0.734E-02    0.326E-01
RMM:   5    -0.229766406006E+03    0.59012E-03   -0.10192E-03  4040   0.503E-02    0.208E-01
RMM:   6    -0.229766420944E+03   -0.14938E-04   -0.70702E-04  4038   0.399E-02    0.187E-01
RMM:   7    -0.229766233488E+03    0.18746E-03   -0.64445E-04  4041   0.384E-02    0.853E-02
RMM:   8    -0.229766198509E+03    0.34980E-04   -0.13434E-04  4039   0.179E-02    0.538E-02
RMM:   9    -0.229766176655E+03    0.21854E-04   -0.21251E-05  4026   0.720E-03    0.267E-02
RMM:  10    -0.229766171187E+03    0.54679E-05   -0.12207E-05  4013   0.546E-03    0.218E-02
RMM:  11    -0.229766168128E+03    0.30587E-05   -0.89466E-06  4015   0.439E-03    0.129E-02
RMM:  12    -0.229766167220E+03    0.90875E-06   -0.79632E-06  3988   0.406E-03
  17 F= -.22976617E+03 E0= -.22964213E+03  d E =-.592671E-02
       N       E                     dE             d eps       ncg     rms          rms(c)
DAV:   1    -0.229656408092E+03    0.10976E+00   -0.70938E+01  4032   0.144E+01    0.135E+00
RMM:   2    -0.229790290826E+03   -0.13388E+00   -0.14051E+00  4041   0.207E+00    0.839E-01
RMM:   3    -0.229805997371E+03   -0.15707E-01   -0.65336E-02  4041   0.419E-01    0.174E+00
RMM:   4    -0.229788826230E+03    0.17171E-01   -0.17046E-02  4048   0.198E-01    0.113E+00
RMM:   5    -0.229779190744E+03    0.96355E-02   -0.85650E-03  4040   0.142E-01    0.602E-01
RMM:   6    -0.229779563193E+03   -0.37245E-03   -0.65498E-03  4038   0.122E-01    0.583E-01
RMM:   7    -0.229777442344E+03    0.21208E-02   -0.54669E-03  4040   0.112E-01    0.261E-01
RMM:   8    -0.229777108305E+03    0.33404E-03   -0.12244E-03  4039   0.543E-02    0.164E-01
RMM:   9    -0.229776905219E+03    0.20309E-03   -0.19504E-04  4040   0.217E-02    0.821E-02
RMM:  10    -0.229776850491E+03    0.54728E-04   -0.11564E-04  4038   0.166E-02    0.642E-02
RMM:  11    -0.229776831318E+03    0.19173E-04   -0.71092E-05  4033   0.124E-02    0.413E-02
RMM:  12    -0.229776822778E+03    0.85396E-05   -0.67545E-05  4038   0.119E-02    0.207E-02
RMM:  13    -0.229776821914E+03    0.86406E-06   -0.10074E-05  3913   0.496E-03    0.129E-02
RMM:  14    -0.229776820829E+03    0.10858E-05   -0.19410E-06  2325   0.236E-03    0.543E-03
RMM:  15    -0.229776821398E+03   -0.56974E-06   -0.70387E-07  2176   0.144E-03
  18 F= -.22977682E+03 E0= -.22965208E+03  d E =-.165809E-01
       N       E                     dE             d eps       ncg     rms          rms(c)
DAV:   1    -0.229266688137E+03    0.51013E+00   -0.28512E+02  4032   0.290E+01    0.272E+00
RMM:   2    -0.229816731028E+03   -0.55004E+00   -0.57632E+00  4040   0.417E+00    0.166E+00
RMM:   3    -0.229797576162E+03    0.19155E-01   -0.23943E-01  4041   0.812E-01    0.178E+00
RMM:   4    -0.229775244101E+03    0.22332E-01   -0.49172E-02  4047   0.368E-01    0.117E+00
RMM:   5    -0.229780680090E+03   -0.54360E-02   -0.26216E-02  4040   0.246E-01    0.137E+00
RMM:   6    -0.229806785044E+03   -0.26105E-01   -0.29029E-02  4039   0.242E-01    0.208E+00
RMM:   7    -0.229766981446E+03    0.39804E-01   -0.17248E-02  4038   0.193E-01    0.592E-01
RMM:   8    -0.229765666678E+03    0.13148E-02   -0.54994E-03  4038   0.117E-01    0.372E-01
RMM:   9    -0.229764719889E+03    0.94679E-03   -0.92887E-04  4040   0.469E-02    0.194E-01
RMM:  10    -0.229764388431E+03    0.33146E-03   -0.52449E-04  4038   0.347E-02    0.114E-01
RMM:  11    -0.229764362811E+03    0.25620E-04   -0.30238E-04  4038   0.256E-02    0.929E-02
RMM:  12    -0.229764317185E+03    0.45626E-04   -0.20797E-04  4037   0.210E-02    0.476E-02
RMM:  13    -0.229764309875E+03    0.73104E-05   -0.35889E-05  4032   0.935E-03    0.290E-02
RMM:  14    -0.229764306462E+03    0.34127E-05   -0.98564E-06  3975   0.493E-03    0.154E-02
RMM:  15    -0.229764307578E+03   -0.11160E-05   -0.28605E-06  2661   0.276E-03    0.800E-03
RMM:  16    -0.229764310465E+03   -0.28868E-05   -0.14043E-06  2255   0.195E-03    0.569E-03
RMM:  17    -0.229764313484E+03   -0.30187E-05   -0.71405E-07  2231   0.141E-03    0.280E-03
RMM:  18    -0.229764315372E+03   -0.18885E-05   -0.21793E-07  2201   0.791E-04    0.167E-03
RMM:  19    -0.229764317625E+03   -0.22533E-05   -0.70082E-08  1289   0.459E-04    0.882E-04
RMM:  20    -0.229764319548E+03   -0.19222E-05   -0.63369E-08  1313   0.442E-04    0.610E-04
RMM:  21    -0.229764321418E+03   -0.18705E-05   -0.93973E-08  1463   0.430E-04    0.514E-04
RMM:  22    -0.229764323263E+03   -0.18450E-05   -0.62486E-08  1044   0.401E-04    0.407E-04
RMM:  23    -0.229764324337E+03   -0.10738E-05   -0.72256E-08  1173   0.404E-04    0.334E-04
RMM:  24    -0.229764325200E+03   -0.86348E-06   -0.60693E-08   980   0.360E-04
  19 F= -.22976433E+03 E0= -.22963822E+03  d E =-.408470E-02
       N       E                     dE             d eps       ncg     rms          rms(c)
DAV:   1    -0.229487060662E+03    0.27726E+00   -0.16736E+02  4032   0.222E+01    0.210E+00
RMM:   2    -0.229828276600E+03   -0.34122E+00   -0.34394E+00  4040   0.321E+00    0.186E+00
RMM:   3    -0.230002317935E+03   -0.17404E+00   -0.20624E-01  4041   0.708E-01    0.449E+00
RMM:   4    -0.229789958110E+03    0.21236E+00   -0.65175E-02  4043   0.383E-01    0.119E+00
RMM:   5    -0.229782073219E+03    0.78849E-02   -0.19499E-02  4039   0.227E-01    0.751E-01
RMM:   6    -0.229784682106E+03   -0.26089E-02   -0.17689E-02  4039   0.200E-01    0.864E-01
RMM:   7    -0.229779087683E+03    0.55944E-02   -0.10080E-02  4039   0.151E-01    0.338E-01
RMM:   8    -0.229778986389E+03    0.10129E-03   -0.21421E-03  4039   0.723E-02    0.239E-01
RMM:   9    -0.229778460982E+03    0.52541E-03   -0.55094E-04  4039   0.374E-02    0.113E-01
RMM:  10    -0.229778373194E+03    0.87788E-04   -0.21736E-04  4038   0.229E-02    0.830E-02
RMM:  11    -0.229778350321E+03    0.22873E-04   -0.24146E-04  4039   0.227E-02    0.697E-02
RMM:  12    -0.229778317580E+03    0.32741E-04   -0.11541E-04  4038   0.159E-02    0.380E-02
RMM:  13    -0.229778315297E+03    0.22826E-05   -0.21645E-05  4026   0.728E-03    0.251E-02
RMM:  14    -0.229778312243E+03    0.30547E-05   -0.50323E-06  3285   0.371E-03    0.831E-03
RMM:  15    -0.229778313199E+03   -0.95690E-06   -0.14080E-06  2251   0.196E-03
  20 F= -.22977831E+03 E0= -.22965325E+03  d E =-.180727E-01
       N       E                     dE             d eps       ncg     rms          rms(c)
DAV:   1    -0.229764474939E+03    0.13837E-01   -0.12507E+01  4032   0.605E+00    0.554E-01
RMM:   2    -0.229787974237E+03   -0.23499E-01   -0.24415E-01  4042   0.863E-01    0.405E-01
RMM:   3    -0.229792764279E+03   -0.47900E-02   -0.11592E-02  4041   0.172E-01    0.906E-01
RMM:   4    -0.229787628089E+03    0.51362E-02   -0.37631E-03  4045   0.927E-02    0.524E-01
RMM:   5    -0.229785741518E+03    0.18866E-02   -0.14556E-03  4040   0.605E-02    0.260E-01
RMM:   6    -0.229785658189E+03    0.83329E-04   -0.12361E-03  4038   0.529E-02    0.225E-01
RMM:   7    -0.229785407828E+03    0.25036E-03   -0.91246E-04  4039   0.458E-02    0.112E-01
RMM:   8    -0.229785332235E+03    0.75594E-04   -0.22001E-04  4039   0.229E-02    0.536E-02
RMM:   9    -0.229785311336E+03    0.20899E-04   -0.33797E-05  4035   0.918E-03    0.355E-02
RMM:  10    -0.229785301147E+03    0.10189E-04   -0.14995E-05  4027   0.601E-03    0.242E-02
RMM:  11    -0.229785297389E+03    0.37587E-05   -0.17218E-05  4026   0.614E-03    0.196E-02
RMM:  12    -0.229785295802E+03    0.15864E-05   -0.12713E-05  4013   0.526E-03    0.111E-02
RMM:  13    -0.229785295318E+03    0.48480E-06   -0.21454E-06  2433   0.237E-03
  21 F= -.22978530E+03 E0= -.22966000E+03  d E =-.698212E-02
       N       E                     dE             d eps       ncg     rms          rms(c)
DAV:   1    -0.229605247674E+03    0.18005E+00   -0.11289E+02  4032   0.182E+01    0.167E+00
RMM:   2    -0.229823666368E+03   -0.21842E+00   -0.22312E+00  4042   0.261E+00    0.138E+00
RMM:   3    -0.229893024632E+03   -0.69358E-01   -0.11328E-01  4043   0.529E-01    0.317E+00
RMM:   4    -0.229813254571E+03    0.79770E-01   -0.39761E-02  4043   0.301E-01    0.143E+00
RMM:   5    -0.229801267059E+03    0.11988E-01   -0.13913E-02  4039   0.190E-01    0.850E-01
RMM:   6    -0.229798945459E+03    0.23216E-02   -0.11282E-02  4038   0.161E-01    0.661E-01
RMM:   7    -0.229797047550E+03    0.18979E-02   -0.82908E-03  4038   0.138E-01    0.374E-01
RMM:   8    -0.229796093232E+03    0.95432E-03   -0.22264E-03  4039   0.729E-02    0.166E-01
RMM:   9    -0.229795924396E+03    0.16884E-03   -0.33629E-04  4040   0.292E-02    0.114E-01
RMM:  10    -0.229795826817E+03    0.97579E-04   -0.17624E-04  4038   0.206E-02    0.793E-02
RMM:  11    -0.229795794769E+03    0.32048E-04   -0.15398E-04  4036   0.184E-02    0.654E-02
RMM:  12    -0.229795778116E+03    0.16653E-04   -0.10285E-04  4038   0.150E-02    0.371E-02
RMM:  13    -0.229795772192E+03    0.59238E-05   -0.22318E-05  4032   0.723E-03    0.181E-02
RMM:  14    -0.229795770848E+03    0.13441E-05   -0.37729E-06  2908   0.322E-03    0.694E-03
RMM:  15    -0.229795771924E+03   -0.10753E-05   -0.99518E-07  2200   0.168E-03    0.487E-03
RMM:  16    -0.229795773678E+03   -0.17546E-05   -0.78511E-07  2210   0.146E-03    0.356E-03
RMM:  17    -0.229795775313E+03   -0.16351E-05   -0.37001E-07  2204   0.101E-03    0.156E-03
RMM:  18    -0.229795776351E+03   -0.10381E-05   -0.11144E-07  1978   0.587E-04    0.101E-03
RMM:  19    -0.229795777584E+03   -0.12325E-05   -0.11025E-08   674   0.341E-04    0.508E-04
RMM:  20    -0.229795778770E+03   -0.11861E-05   -0.38408E-08   992   0.412E-04    0.487E-04
RMM:  21    -0.229795780200E+03   -0.14305E-05   -0.12191E-07  1727   0.487E-04    0.386E-04
RMM:  22    -0.229795780974E+03   -0.77319E-06   -0.26631E-08   739   0.301E-04
  22 F= -.22979578E+03 E0= -.22966977E+03  d E =-.174678E-01
       N       E                     dE             d eps       ncg     rms          rms(c)
DAV:   1    -0.229755197832E+03    0.40582E-01   -0.30550E+01  4032   0.956E+00    0.902E-01
RMM:   2    -0.229815552225E+03   -0.60354E-01   -0.62277E-01  4042   0.136E+00    0.718E-01
RMM:   3    -0.229816985301E+03   -0.14331E-02   -0.29109E-02  4044   0.274E-01    0.107E+00
RMM:   4    -0.229814462073E+03    0.25232E-02   -0.80848E-03  4044   0.140E-01    0.874E-01
RMM:   5    -0.229810265356E+03    0.41967E-02   -0.36275E-03  4040   0.929E-02    0.560E-01
RMM:   6    -0.229808538175E+03    0.17272E-02   -0.28744E-03  4039   0.808E-02    0.323E-01
RMM:   7    -0.229808012468E+03    0.52571E-03   -0.24955E-03  4038   0.764E-02    0.156E-01
RMM:   8    -0.229807914738E+03    0.97730E-04   -0.51715E-04  4038   0.351E-02    0.106E-01
RMM:   9    -0.229807827041E+03    0.87697E-04   -0.10193E-04  4041   0.159E-02    0.572E-02
RMM:  10    -0.229807802107E+03    0.24935E-04   -0.36239E-05  4033   0.932E-03    0.367E-02
RMM:  11    -0.229807797047E+03    0.50599E-05   -0.34939E-05  4037   0.870E-03    0.318E-02
RMM:  12    -0.229807793130E+03    0.39165E-05   -0.30204E-05  4033   0.808E-03    0.161E-02
RMM:  13    -0.229807794055E+03   -0.92419E-06   -0.57950E-06  3377   0.376E-03
  23 F= -.22980779E+03 E0= -.22968140E+03  d E =-.120131E-01
       N       E                     dE             d eps       ncg     rms          rms(c)
DAV:   1    -0.229763975188E+03    0.43818E-01   -0.28369E+01  4032   0.921E+00    0.871E-01
RMM:   2    -0.229820213704E+03   -0.56239E-01   -0.57921E-01  4042   0.131E+00    0.709E-01
RMM:   3    -0.229821545306E+03   -0.13316E-02   -0.27296E-02  4044   0.265E-01    0.104E+00
RMM:   4    -0.229819585131E+03    0.19602E-02   -0.76943E-03  4044   0.136E-01    0.878E-01
RMM:   5    -0.229815047412E+03    0.45377E-02   -0.35343E-03  4040   0.917E-02    0.535E-01
RMM:   6    -0.229813521151E+03    0.15263E-02   -0.26868E-03  4039   0.784E-02    0.314E-01
RMM:   7    -0.229813036348E+03    0.48480E-03   -0.23467E-03  4038   0.742E-02    0.154E-01
RMM:   8    -0.229812938371E+03    0.97976E-04   -0.50044E-04  4038   0.345E-02    0.101E-01
RMM:   9    -0.229812856587E+03    0.81784E-04   -0.98662E-05  4041   0.157E-02    0.544E-02
RMM:  10    -0.229812834929E+03    0.21658E-04   -0.33640E-05  4032   0.901E-03    0.358E-02
RMM:  11    -0.229812831405E+03    0.35241E-05   -0.31980E-05  4038   0.833E-03    0.313E-02
RMM:  12    -0.229812829320E+03    0.20850E-05   -0.28681E-05  4032   0.786E-03    0.161E-02
RMM:  13    -0.229812831512E+03   -0.21922E-05   -0.56127E-06  3355   0.371E-03    0.786E-03
RMM:  14    -0.229812832514E+03   -0.10017E-05   -0.10279E-06  2229   0.174E-03    0.448E-03
RMM:  15    -0.229812833889E+03   -0.13757E-05   -0.32310E-07  2185   0.999E-04    0.197E-03
RMM:  16    -0.229812836346E+03   -0.24567E-05   -0.22940E-07  2212   0.747E-04    0.173E-03
RMM:  17    -0.229812838590E+03   -0.22440E-05   -0.12949E-07  1888   0.572E-04    0.982E-04
RMM:  18    -0.229812839916E+03   -0.13259E-05   -0.35203E-08   965   0.395E-04    0.568E-04
RMM:  19    -0.229812841469E+03   -0.15528E-05   -0.36629E-08   963   0.388E-04    0.496E-04
RMM:  20    -0.229812842922E+03   -0.14528E-05   -0.85458E-08  1327   0.419E-04    0.403E-04
RMM:  21    -0.229812844334E+03   -0.14121E-05   -0.70143E-08  1176   0.385E-04    0.387E-04
RMM:  22    -0.229812845344E+03   -0.10100E-05   -0.67150E-08  1009   0.381E-04    0.230E-04
RMM:  23    -0.229812845877E+03   -0.53352E-06   -0.50187E-08   930   0.361E-04
  24 F= -.22981285E+03 E0= -.22968612E+03  d E =-.170649E-01
       N       E                     dE             d eps       ncg     rms          rms(c)
DAV:   1    -0.229778500217E+03    0.34345E-01   -0.26102E+01  4032   0.881E+00    0.861E-01
RMM:   2    -0.229830127790E+03   -0.51628E-01   -0.53418E-01  4041   0.126E+00    0.641E-01
RMM:   3    -0.229844003229E+03   -0.13875E-01   -0.27805E-02  4042   0.266E-01    0.144E+00
RMM:   4    -0.229829049508E+03    0.14954E-01   -0.95734E-03  4045   0.144E-01    0.786E-01
RMM:   5    -0.229824353092E+03    0.46964E-02   -0.36662E-03  4038   0.930E-02    0.344E-01
RMM:   6    -0.229824881587E+03   -0.52850E-03   -0.27633E-03  4038   0.806E-02    0.380E-01
RMM:   7    -0.229823888102E+03    0.99349E-03   -0.21890E-03  4038   0.724E-02    0.156E-01
RMM:   8    -0.229823782176E+03    0.10593E-03   -0.38227E-04  4040   0.295E-02    0.104E-01
RMM:   9    -0.229823701369E+03    0.80807E-04   -0.88310E-05  4038   0.147E-02    0.517E-02
RMM:  10    -0.229823678884E+03    0.22484E-04   -0.34090E-05  4033   0.897E-03    0.293E-02
RMM:  11    -0.229823674538E+03    0.43467E-05   -0.38979E-05  4036   0.916E-03    0.260E-02
RMM:  12    -0.229823670837E+03    0.37011E-05   -0.21206E-05  4032   0.683E-03    0.149E-02
RMM:  13    -0.229823669882E+03    0.95479E-06   -0.37919E-06  2946   0.315E-03
  25 F= -.22982367E+03 E0= -.22969666E+03  d E =-.108240E-01
       N       E                     dE             d eps       ncg     rms          rms(c)
DAV:   1    -0.229807382135E+03    0.16289E-01   -0.10702E+01  4056   0.564E+00    0.552E-01
RMM:   2    -0.229828578712E+03   -0.21197E-01   -0.21920E-01  4041   0.809E-01    0.416E-01
RMM:   3    -0.229834581267E+03   -0.60026E-02   -0.11556E-02  4042   0.172E-01    0.942E-01
RMM:   4    -0.229827978632E+03    0.66026E-02   -0.39824E-03  4045   0.931E-02    0.496E-01
RMM:   5    -0.229826144688E+03    0.18339E-02   -0.15406E-03  4038   0.606E-02    0.219E-01
RMM:   6    -0.229826343708E+03   -0.19902E-03   -0.11048E-03  4038   0.509E-02    0.235E-01
RMM:   7    -0.229825965361E+03    0.37835E-03   -0.85481E-04  4038   0.450E-02    0.917E-02
RMM:   8    -0.229825931265E+03    0.34096E-04   -0.14036E-04  4040   0.180E-02    0.614E-02
RMM:   9    -0.229825903068E+03    0.28197E-04   -0.32746E-05  4026   0.901E-03    0.329E-02
RMM:  10    -0.229825894527E+03    0.85411E-05   -0.13240E-05  4025   0.564E-03    0.187E-02
RMM:  11    -0.229825893332E+03    0.11953E-05   -0.15481E-05  4020   0.575E-03    0.175E-02
RMM:  12    -0.229825891997E+03    0.13348E-05   -0.84049E-06  3955   0.431E-03    0.989E-03
RMM:  13    -0.229825891909E+03    0.87566E-07   -0.15145E-06  2241   0.206E-03
  26 F= -.22982589E+03 E0= -.22969871E+03  d E =-.130460E-01
       N       E                     dE             d eps       ncg     rms          rms(c)
DAV:   1    -0.229798817761E+03    0.27074E-01   -0.19774E+01  4032   0.770E+00    0.734E-01
RMM:   2    -0.229837889897E+03   -0.39072E-01   -0.40690E-01  4043   0.110E+00    0.520E-01
RMM:   3    -0.229837426737E+03    0.46316E-03   -0.18835E-02  4041   0.222E-01    0.677E-01
RMM:   4    -0.229835352826E+03    0.20739E-02   -0.43132E-03  4046   0.105E-01    0.492E-01
RMM:   5    -0.229835107599E+03    0.24523E-03   -0.17676E-03  4044   0.593E-02    0.480E-01
RMM:   6    -0.229834020820E+03    0.10868E-02   -0.18384E-03  4038   0.661E-02    0.318E-01
RMM:   7    -0.229833580485E+03    0.44034E-03   -0.16287E-03  4039   0.617E-02    0.196E-01
RMM:   8    -0.229833351663E+03    0.22882E-03   -0.47439E-04  4038   0.335E-02    0.747E-02
RMM:   9    -0.229833313043E+03    0.38620E-04   -0.70541E-05  4038   0.133E-02    0.403E-02
RMM:  10    -0.229833295834E+03    0.17209E-04   -0.25379E-05  4032   0.783E-03    0.227E-02
RMM:  11    -0.229833295806E+03    0.28056E-07   -0.23488E-05  4026   0.715E-03    0.212E-02
RMM:  12    -0.229833295661E+03    0.14435E-06   -0.14635E-05  4019   0.565E-03    0.148E-02
RMM:  13    -0.229833295246E+03    0.41519E-06   -0.27216E-06  2536   0.273E-03
  27 F= -.22983330E+03 E0= -.22970589E+03  d E =-.740334E-02
       N       E                     dE             d eps       ncg     rms          rms(c)
DAV:   1    -0.229815363028E+03    0.17933E-01   -0.11322E+01  4032   0.583E+00    0.555E-01
RMM:   2    -0.229837732686E+03   -0.22370E-01   -0.23279E-01  4043   0.832E-01    0.398E-01
RMM:   3    -0.229837426648E+03    0.30604E-03   -0.10822E-02  4039   0.168E-01    0.512E-01
RMM:   4    -0.229836342899E+03    0.10837E-02   -0.24910E-03  4044   0.796E-02    0.385E-01
RMM:   5    -0.229836077559E+03    0.26534E-03   -0.10307E-03  4046   0.453E-02    0.359E-01
RMM:   6    -0.229835499561E+03    0.57800E-03   -0.10627E-03  4038   0.503E-02    0.241E-01
RMM:   7    -0.229835263520E+03    0.23604E-03   -0.94384E-04  4038   0.470E-02    0.149E-01
RMM:   8    -0.229835133256E+03    0.13026E-03   -0.27304E-04  4039   0.254E-02    0.565E-02
RMM:   9    -0.229835112336E+03    0.20920E-04   -0.40943E-05  4038   0.101E-02    0.304E-02
RMM:  10    -0.229835103040E+03    0.92957E-05   -0.14383E-05  4025   0.589E-03    0.170E-02
RMM:  11    -0.229835104202E+03   -0.11619E-05   -0.13520E-05  4008   0.542E-03    0.156E-02
RMM:  12    -0.229835105483E+03   -0.12812E-05   -0.86189E-06  3937   0.433E-03    0.106E-02
RMM:  13    -0.229835105901E+03   -0.41725E-06   -0.15178E-06  2286   0.206E-03
  28 F= -.22983511E+03 E0= -.22970754E+03  d E =-.921399E-02
       N       E                     dE             d eps       ncg     rms          rms(c)
DAV:   1    -0.229807371670E+03    0.27734E-01   -0.20102E+01  4032   0.781E+00    0.764E-01
RMM:   2    -0.229851752048E+03   -0.44380E-01   -0.42228E-01  4042   0.111E+00    0.924E-01
RMM:   3    -0.229862307806E+03   -0.10556E-01   -0.24836E-02  4041   0.243E-01    0.142E+00
RMM:   4    -0.229850095614E+03    0.12212E-01   -0.10846E-02  4040   0.155E-01    0.904E-01
RMM:   5    -0.229843439836E+03    0.66558E-02   -0.29859E-03  4039   0.873E-02    0.341E-01
RMM:   6    -0.229843661399E+03   -0.22156E-03   -0.22412E-03  4038   0.721E-02    0.314E-01
RMM:   7    -0.229843215010E+03    0.44639E-03   -0.17076E-03  4038   0.630E-02    0.193E-01
RMM:   8    -0.229842978868E+03    0.23614E-03   -0.47271E-04  4038   0.336E-02    0.731E-02
RMM:   9    -0.229842944493E+03    0.34375E-04   -0.74380E-05  4039   0.137E-02    0.404E-02
RMM:  10    -0.229842930379E+03    0.14114E-04   -0.27543E-05  4032   0.820E-03    0.286E-02
RMM:  11    -0.229842929874E+03    0.50453E-06   -0.21619E-05  4023   0.692E-03    0.288E-02
RMM:  12    -0.229842927080E+03    0.27943E-05   -0.17371E-05  4026   0.609E-03    0.172E-02
RMM:  13    -0.229842926787E+03    0.29301E-06   -0.50115E-06  3216   0.352E-03
  29 F= -.22984293E+03 E0= -.22971544E+03  d E =-.782089E-02
       N       E                     dE             d eps       ncg     rms          rms(c)
DAV:   1    -0.229820260085E+03    0.22667E-01   -0.14343E+01  4032   0.660E+00    0.646E-01
RMM:   2    -0.229851730349E+03   -0.31470E-01   -0.30127E-01  4042   0.941E-01    0.768E-01
RMM:   3    -0.229859166583E+03   -0.74362E-02   -0.17662E-02  4041   0.205E-01    0.119E+00
RMM:   4    -0.229850930769E+03    0.82358E-02   -0.77292E-03  4040   0.131E-01    0.777E-01
RMM:   5    -0.229845968302E+03    0.49625E-02   -0.21697E-03  4038   0.744E-02    0.285E-01
RMM:   6    -0.229846160656E+03   -0.19235E-03   -0.15919E-03  4038   0.608E-02    0.267E-01
RMM:   7    -0.229845841148E+03    0.31951E-03   -0.12307E-03  4038   0.535E-02    0.164E-01
RMM:   8    -0.229845670694E+03    0.17045E-03   -0.34139E-04  4039   0.286E-02    0.614E-02
RMM:   9    -0.229845646086E+03    0.24608E-04   -0.53017E-05  4037   0.115E-02    0.335E-02
RMM:  10    -0.229845636173E+03    0.99126E-05   -0.19272E-05  4032   0.686E-03    0.239E-02
RMM:  11    -0.229845635899E+03    0.27373E-06   -0.15712E-05  4007   0.590E-03    0.242E-02
RMM:  12    -0.229845634155E+03    0.17447E-05   -0.12457E-05  4018   0.516E-03    0.148E-02
RMM:  13    -0.229845634055E+03    0.99892E-07   -0.35424E-06  2875   0.300E-03
  30 F= -.22984563E+03 E0= -.22971822E+03  d E =-.105282E-01
       N       E                     dE             d eps       ncg     rms          rms(c)
DAV:   1    -0.229828044537E+03    0.17590E-01   -0.12937E+01  4032   0.645E+00    0.674E-01
RMM:   2    -0.229857317420E+03   -0.29273E-01   -0.29609E-01  4042   0.909E-01    0.603E-01
RMM:   3    -0.229863464008E+03   -0.61466E-02   -0.16932E-02  4041   0.202E-01    0.112E+00
RMM:   4    -0.229858196557E+03    0.52675E-02   -0.62650E-03  4040   0.117E-01    0.788E-01
RMM:   5    -0.229852818856E+03    0.53777E-02   -0.21423E-03  4038   0.734E-02    0.219E-01
RMM:   6    -0.229853171422E+03   -0.35257E-03   -0.15423E-03  4038   0.606E-02    0.251E-01
RMM:   7    -0.229852946818E+03    0.22460E-03   -0.11882E-03  4038   0.528E-02    0.166E-01
RMM:   8    -0.229852762288E+03    0.18453E-03   -0.35339E-04  4038   0.291E-02    0.693E-02
RMM:   9    -0.229852726774E+03    0.35513E-04   -0.56756E-05  4039   0.119E-02    0.322E-02
RMM:  10    -0.229852718888E+03    0.78868E-05   -0.15350E-05  4031   0.612E-03    0.223E-02
RMM:  11    -0.229852718603E+03    0.28502E-06   -0.11964E-05  4025   0.517E-03    0.207E-02
RMM:  12    -0.229852719955E+03   -0.13519E-05   -0.10606E-05  4019   0.474E-03    0.150E-02
RMM:  13    -0.229852720068E+03   -0.11322E-06   -0.32907E-06  2808   0.289E-03
  31 F= -.22985272E+03 E0= -.22972529E+03  d E =-.708601E-02
       N       E                     dE             d eps       ncg     rms          rms(c)
DAV:   1    -0.229822022880E+03    0.30697E-01   -0.17876E+01  4032   0.758E+00    0.792E-01
RMM:   2    -0.229862736690E+03   -0.40714E-01   -0.41034E-01  4042   0.107E+00    0.724E-01
RMM:   3    -0.229871413166E+03   -0.86765E-02   -0.23547E-02  4041   0.238E-01    0.133E+00
RMM:   4    -0.229863643173E+03    0.77700E-02   -0.87512E-03  4040   0.139E-01    0.921E-01
RMM:   5    -0.229856305643E+03    0.73375E-02   -0.29586E-03  4038   0.864E-02    0.256E-01
RMM:   6    -0.229856760334E+03   -0.45469E-03   -0.21404E-03  4038   0.714E-02    0.294E-01
RMM:   7    -0.229856434055E+03    0.32628E-03   -0.16360E-03  4038   0.619E-02    0.192E-01
RMM:   8    -0.229856189017E+03    0.24504E-03   -0.48695E-04  4038   0.342E-02    0.843E-02
RMM:   9    -0.229856136911E+03    0.52106E-04   -0.79416E-05  4039   0.140E-02    0.379E-02
RMM:  10    -0.229856125852E+03    0.11059E-04   -0.21824E-05  4032   0.729E-03    0.257E-02
RMM:  11    -0.229856126308E+03   -0.45641E-06   -0.17093E-05  4029   0.619E-03    0.244E-02
RMM:  12    -0.229856128209E+03   -0.19009E-05   -0.14111E-05  4031   0.547E-03    0.173E-02
RMM:  13    -0.229856128714E+03   -0.50545E-06   -0.44802E-06  3078   0.333E-03
  32 F= -.22985613E+03 E0= -.22972867E+03  d E =-.104947E-01
       N       E                     dE             d eps       ncg     rms          rms(c)
DAV:   1    -0.229850215827E+03    0.59124E-02   -0.56119E+00  4080   0.428E+00    0.449E-01
RMM:   2    -0.229862786018E+03   -0.12570E-01   -0.12842E-01  4042   0.596E-01    0.395E-01
RMM:   3    -0.229864873902E+03   -0.20879E-02   -0.69932E-03  4040   0.130E-01    0.667E-01
RMM:   4    -0.229863653848E+03    0.12201E-02   -0.27255E-03  4040   0.763E-02    0.553E-01
RMM:   5    -0.229860991172E+03    0.26627E-02   -0.10801E-03  4038   0.512E-02    0.162E-01
RMM:   6    -0.229861139034E+03   -0.14786E-03   -0.66965E-04  4038   0.397E-02    0.182E-01
RMM:   7    -0.229860983769E+03    0.15527E-03   -0.52327E-04  4038   0.351E-02    0.922E-02
RMM:   8    -0.229860937948E+03    0.45820E-04   -0.12640E-04  4037   0.173E-02    0.516E-02
RMM:   9    -0.229860916492E+03    0.21456E-04   -0.25554E-05  4032   0.791E-03    0.214E-02
RMM:  10    -0.229860912795E+03    0.36977E-05   -0.69339E-06  3788   0.408E-03    0.137E-02
RMM:  11    -0.229860912836E+03   -0.41757E-07   -0.68234E-06  3870   0.397E-03
  33 F= -.22986091E+03 E0= -.22973342E+03  d E =-.478412E-02
       N       E                     dE             d eps       ncg     rms          rms(c)
DAV:   1    -0.229844225755E+03    0.16687E-01   -0.11130E+01  4032   0.603E+00    0.634E-01
RMM:   2    -0.229869393821E+03   -0.25168E-01   -0.25586E-01  4041   0.841E-01    0.570E-01
RMM:   3    -0.229873962420E+03   -0.45686E-02   -0.13991E-02  4040   0.183E-01    0.969E-01
RMM:   4    -0.229870907045E+03    0.30554E-02   -0.55646E-03  4040   0.109E-01    0.773E-01
RMM:   5    -0.229865723230E+03    0.51838E-02   -0.21700E-03  4038   0.729E-02    0.231E-01
RMM:   6    -0.229865968890E+03   -0.24566E-03   -0.13499E-03  4038   0.565E-02    0.254E-01
RMM:   7    -0.229865661794E+03    0.30710E-03   -0.10494E-03  4038   0.498E-02    0.130E-01
RMM:   8    -0.229865568688E+03    0.93106E-04   -0.25074E-04  4038   0.244E-02    0.734E-02
RMM:   9    -0.229865525137E+03    0.43551E-04   -0.50990E-05  4033   0.112E-02    0.309E-02
RMM:  10    -0.229865516969E+03    0.81677E-05   -0.14096E-05  4028   0.578E-03    0.193E-02
RMM:  11    -0.229865515819E+03    0.11501E-05   -0.13690E-05  4013   0.556E-03    0.156E-02
RMM:  12    -0.229865515900E+03   -0.80538E-07   -0.83320E-06  3947   0.426E-03
  34 F= -.22986552E+03 E0= -.22973799E+03  d E =-.938719E-02
       N       E                     dE             d eps       ncg     rms          rms(c)
DAV:   1    -0.229780876796E+03    0.84639E-01   -0.44513E+01  4032   0.121E+01    0.127E+00
RMM:   2    -0.229884425554E+03   -0.10355E+00   -0.10371E+00  4040   0.169E+00    0.123E+00
RMM:   3    -0.229905645484E+03   -0.21220E-01   -0.57354E-02  4040   0.369E-01    0.204E+00
RMM:   4    -0.229887630810E+03    0.18015E-01   -0.23617E-02  4039   0.225E-01    0.151E+00
RMM:   5    -0.229868137931E+03    0.19493E-01   -0.85900E-03  4038   0.146E-01    0.467E-01
RMM:   6    -0.229868780092E+03   -0.64216E-03   -0.54141E-03  4038   0.113E-01    0.501E-01
RMM:   7    -0.229867545864E+03    0.12342E-02   -0.41747E-03  4038   0.996E-02    0.246E-01
RMM:   8    -0.229867249917E+03    0.29595E-03   -0.10375E-03  4038   0.495E-02    0.164E-01
RMM:   9    -0.229867040199E+03    0.20972E-03   -0.22645E-04  4038   0.235E-02    0.672E-02
RMM:  10    -0.229867002095E+03    0.38105E-04   -0.63744E-05  4035   0.123E-02    0.405E-02
RMM:  11    -0.229866995434E+03    0.66611E-05   -0.55178E-05  4035   0.112E-02    0.321E-02
RMM:  12    -0.229866994543E+03    0.89064E-06   -0.31556E-05  4032   0.834E-03    0.236E-02
RMM:  13    -0.229866993129E+03    0.14141E-05   -0.83009E-06  3849   0.448E-03    0.133E-02
RMM:  14    -0.229866993585E+03   -0.45654E-06   -0.15568E-06  2299   0.216E-03
  35 F= -.22986699E+03 E0= -.22973940E+03  d E =-.108649E-01
       N       E                     dE             d eps       ncg     rms          rms(c)
DAV:   1    -0.229855145419E+03    0.11848E-01   -0.65541E+00  4032   0.463E+00    0.488E-01
RMM:   2    -0.229869795666E+03   -0.14650E-01   -0.15030E-01  4040   0.645E-01    0.416E-01
RMM:   3    -0.229871371387E+03   -0.15757E-02   -0.81480E-03  4039   0.141E-01    0.640E-01
RMM:   4    -0.229871200561E+03    0.17083E-03   -0.29895E-03  4042   0.797E-02    0.613E-01
RMM:   5    -0.229867807514E+03    0.33930E-02   -0.13113E-03  4038   0.555E-02    0.180E-01
RMM:   6    -0.229867961520E+03   -0.15401E-03   -0.77936E-04  4038   0.428E-02    0.200E-01
RMM:   7    -0.229867768210E+03    0.19331E-03   -0.57179E-04  4038   0.367E-02    0.950E-02
RMM:   8    -0.229867725970E+03    0.42240E-04   -0.14319E-04  4038   0.184E-02    0.580E-02
RMM:   9    -0.229867699193E+03    0.26776E-04   -0.30593E-05  4032   0.871E-03    0.240E-02
RMM:  10    -0.229867694644E+03    0.45494E-05   -0.79173E-06  3891   0.439E-03    0.146E-02
RMM:  11    -0.229867693769E+03    0.87456E-06   -0.72442E-06  3823   0.408E-03
  36 F= -.22986769E+03 E0= -.22974016E+03  d E =-.115651E-01
       N       E                     dE             d eps       ncg     rms          rms(c)
DAV:   1    -0.229852904585E+03    0.14790E-01   -0.10824E+01  4032   0.608E+00    0.623E-01
RMM:   2    -0.229878746369E+03   -0.25842E-01   -0.25751E-01  4039   0.829E-01    0.604E-01
RMM:   3    -0.229890443510E+03   -0.11697E-01   -0.15431E-02  4039   0.188E-01    0.131E+00
RMM:   4    -0.229876735626E+03    0.13708E-01   -0.62628E-03  4039   0.118E-01    0.557E-01
RMM:   5    -0.229874395624E+03    0.23400E-02   -0.16354E-03  4038   0.649E-02    0.195E-01
RMM:   6    -0.229874598415E+03   -0.20279E-03   -0.11214E-03  4038   0.522E-02    0.214E-01
RMM:   7    -0.229874365767E+03    0.23265E-03   -0.86488E-04  4038   0.455E-02    0.104E-01
RMM:   8    -0.229874315042E+03    0.50726E-04   -0.19681E-04  4038   0.214E-02    0.708E-02
RMM:   9    -0.229874277386E+03    0.37656E-04   -0.45310E-05  4032   0.105E-02    0.307E-02
RMM:  10    -0.229874269171E+03    0.82149E-05   -0.11503E-05  4025   0.526E-03    0.164E-02
RMM:  11    -0.229874269226E+03   -0.55174E-07   -0.11117E-05  4009   0.499E-03    0.146E-02
RMM:  12    -0.229874269128E+03    0.98138E-07   -0.67159E-06  3552   0.390E-03
  37 F= -.22987427E+03 E0= -.22974661E+03  d E =-.657536E-02
       N       E                     dE             d eps       ncg     rms          rms(c)
DAV:   1    -0.229687975189E+03    0.18629E+00   -0.97319E+01  4032   0.182E+01    0.190E+00
RMM:   2    -0.229939769717E+03   -0.25179E+00   -0.24333E+00  4038   0.251E+00    0.209E+00
RMM:   3    -0.230030436444E+03   -0.90667E-01   -0.14116E-01  4038   0.566E-01    0.370E+00
RMM:   4    -0.229913787514E+03    0.11665E+00   -0.58115E-02  4038   0.357E-01    0.166E+00
RMM:   5    -0.229891521552E+03    0.22266E-01   -0.14499E-02  4038   0.192E-01    0.629E-01
RMM:   6    -0.229892251254E+03   -0.72970E-03   -0.10233E-02  4038   0.158E-01    0.626E-01
RMM:   7    -0.229890554909E+03    0.16963E-02   -0.76940E-03  4036   0.136E-01    0.373E-01
RMM:   8    -0.229889906666E+03    0.64824E-03   -0.25771E-03  4036   0.778E-02    0.259E-01
RMM:   9    -0.229889439537E+03    0.46713E-03   -0.59492E-04  4038   0.380E-02    0.116E-01
RMM:  10    -0.229889334707E+03    0.10483E-03   -0.14354E-04  4038   0.184E-02    0.584E-02
RMM:  11    -0.229889336966E+03   -0.22598E-05   -0.90822E-05  4032   0.143E-02    0.541E-02
RMM:  12    -0.229889329117E+03    0.78493E-05   -0.66270E-05  4038   0.123E-02    0.374E-02
RMM:  13    -0.229889328403E+03    0.71402E-06   -0.20714E-05  4030   0.706E-03    0.195E-02
RMM:  14    -0.229889329771E+03   -0.13679E-05   -0.45542E-06  3129   0.344E-03    0.101E-02
RMM:  15    -0.229889332425E+03   -0.26545E-05   -0.10175E-06  2245   0.169E-03    0.509E-03
RMM:  16    -0.229889337499E+03   -0.50734E-05   -0.65755E-07  2253   0.130E-03    0.395E-03
RMM:  17    -0.229889341747E+03   -0.42481E-05   -0.37976E-07  2241   0.958E-04    0.222E-03
RMM:  18    -0.229889344957E+03   -0.32095E-05   -0.17860E-07  2078   0.643E-04    0.123E-03
RMM:  19    -0.229889348546E+03   -0.35896E-05   -0.80212E-08  1272   0.449E-04    0.979E-04
RMM:  20    -0.229889351472E+03   -0.29263E-05   -0.10062E-07  1491   0.460E-04    0.701E-04
RMM:  21    -0.229889355031E+03   -0.35589E-05   -0.13637E-07  1464   0.483E-04    0.604E-04
RMM:  22    -0.229889358684E+03   -0.36527E-05   -0.22921E-07  1860   0.547E-04    0.455E-04
RMM:  23    -0.229889359810E+03   -0.11261E-05   -0.40831E-08   826   0.334E-04    0.344E-04
RMM:  24    -0.229889360753E+03   -0.94328E-06   -0.45731E-08   940   0.368E-04
  38 F= -.22988936E+03 E0= -.22976147E+03  d E =-.216670E-01
       N       E                     dE             d eps       ncg     rms          rms(c)
DAV:   1    -0.228987267915E+03    0.90209E+00   -0.38766E+02  4032   0.362E+01    0.396E+00
RMM:   2    -0.230168818913E+03   -0.11816E+01   -0.10996E+01  4039   0.515E+00    0.501E+00
RMM:   3    -0.230463395040E+03   -0.29458E+00   -0.61597E-01  4039   0.117E+00    0.668E+00
RMM:   4    -0.229982118751E+03    0.48128E+00   -0.24218E-01  4038   0.717E-01    0.303E+00
RMM:   5    -0.229909468541E+03    0.72650E-01   -0.56932E-02  4038   0.375E-01    0.140E+00
RMM:   6    -0.229905341444E+03    0.41271E-02   -0.38084E-02  4038   0.302E-01    0.115E+00
RMM:   7    -0.229901832351E+03    0.35091E-02   -0.28381E-02  4036   0.259E-01    0.886E-01
RMM:   8    -0.229898652102E+03    0.31802E-02   -0.14008E-02  4036   0.181E-01    0.580E-01
RMM:   9    -0.229896508178E+03    0.21439E-02   -0.40214E-03  4036   0.991E-02    0.319E-01
RMM:  10    -0.229895728291E+03    0.77989E-03   -0.10731E-03  4036   0.511E-02    0.151E-01
RMM:  11    -0.229895703275E+03    0.25017E-04   -0.40858E-04  4036   0.306E-02    0.136E-01
RMM:  12    -0.229895592385E+03    0.11089E-03   -0.25006E-04  4036   0.239E-02    0.773E-02
RMM:  13    -0.229895592765E+03   -0.37995E-06   -0.12108E-04  4033   0.169E-02    0.420E-02
RMM:  14    -0.229895593438E+03   -0.67357E-06   -0.33466E-05  4032   0.897E-03    0.230E-02
RMM:  15    -0.229895598895E+03   -0.54561E-05   -0.77711E-06  3656   0.440E-03    0.122E-02
RMM:  16    -0.229895610341E+03   -0.11446E-04   -0.25848E-06  2560   0.257E-03    0.905E-03
RMM:  17    -0.229895617884E+03   -0.75436E-05   -0.93296E-07  2275   0.154E-03    0.605E-03
RMM:  18    -0.229895627903E+03   -0.10019E-04   -0.79938E-07  2285   0.139E-03    0.427E-03
RMM:  19    -0.229895638222E+03   -0.10319E-04   -0.50633E-07  2285   0.104E-03    0.226E-03
RMM:  20    -0.229895645500E+03   -0.72779E-05   -0.26220E-07  2122   0.671E-04    0.137E-03
RMM:  21    -0.229895653501E+03   -0.80018E-05   -0.23194E-07  1937   0.584E-04    0.134E-03
RMM:  22    -0.229895663277E+03   -0.97753E-05   -0.39030E-07  2185   0.690E-04    0.917E-04
RMM:  23    -0.229895669593E+03   -0.63161E-05   -0.27797E-07  1766   0.574E-04    0.774E-04
RMM:  24    -0.229895673236E+03   -0.36429E-05   -0.20295E-07  1644   0.517E-04    0.653E-04
RMM:  25    -0.229895675157E+03   -0.19211E-05   -0.10300E-07  1262   0.401E-04    0.406E-04
RMM:  26    -0.229895676900E+03   -0.17432E-05   -0.81433E-08  1176   0.407E-04    0.234E-04
RMM:  27    -0.229895677933E+03   -0.10329E-05   -0.48484E-08  1099   0.404E-04    0.231E-04
RMM:  28    -0.229895678299E+03   -0.36606E-06   -0.29271E-08   891   0.336E-04
  39 F= -.22989568E+03 E0= -.22976721E+03  d E =-.279845E-01
       N       E                     dE             d eps       ncg     rms          rms(c)
DAV:   1    -0.229795361385E+03    0.10032E+00   -0.49948E+01  4032   0.130E+01    0.138E+00
RMM:   2    -0.229912645738E+03   -0.11728E+00   -0.12185E+00  4038   0.179E+00    0.101E+00
RMM:   3    -0.229925650060E+03   -0.13004E-01   -0.64078E-02  4038   0.398E-01    0.176E+00
RMM:   4    -0.229917083239E+03    0.85668E-02   -0.18473E-02  4040   0.200E-01    0.143E+00
RMM:   5    -0.229899229767E+03    0.17853E-01   -0.88458E-03  4038   0.141E-01    0.539E-01
RMM:   6    -0.229899538919E+03   -0.30915E-03   -0.56049E-03  4038   0.117E-01    0.523E-01
RMM:   7    -0.229897936443E+03    0.16025E-02   -0.39587E-03  4036   0.974E-02    0.268E-01
RMM:   8    -0.229897636452E+03    0.29999E-03   -0.11727E-03  4036   0.530E-02    0.165E-01
RMM:   9    -0.229897441788E+03    0.19466E-03   -0.24984E-04  4038   0.247E-02    0.719E-02
RMM:  10    -0.229897404736E+03    0.37052E-04   -0.59825E-05  4036   0.122E-02    0.416E-02
RMM:  11    -0.229897404163E+03    0.57301E-06   -0.45807E-05  4032   0.100E-02    0.422E-02
RMM:  12    -0.229897400053E+03    0.41099E-05   -0.36638E-05  4032   0.894E-03    0.277E-02
RMM:  13    -0.229897399838E+03    0.21568E-06   -0.13735E-05  4025   0.567E-03    0.112E-02
RMM:  14    -0.229897401342E+03   -0.15047E-05   -0.17944E-06  2337   0.226E-03    0.465E-03
RMM:  15    -0.229897402747E+03   -0.14047E-05   -0.51412E-07  2216   0.124E-03    0.302E-03
RMM:  16    -0.229897405091E+03   -0.23441E-05   -0.31137E-07  2235   0.870E-04    0.212E-03
RMM:  17    -0.229897407786E+03   -0.26949E-05   -0.25564E-07  2241   0.720E-04    0.102E-03
RMM:  18    -0.229897409114E+03   -0.13284E-05   -0.52149E-08  1117   0.418E-04    0.646E-04
RMM:  19    -0.229897410563E+03   -0.14486E-05   -0.32054E-08   883   0.389E-04    0.456E-04
RMM:  20    -0.229897411881E+03   -0.13185E-05   -0.73461E-08  1254   0.424E-04    0.379E-04
RMM:  21    -0.229897413740E+03   -0.18585E-05   -0.13907E-07  1581   0.470E-04    0.358E-04
RMM:  22    -0.229897414547E+03   -0.80682E-06   -0.47965E-08   877   0.339E-04
  40 F= -.22989741E+03 E0= -.22976921E+03  d E =-.297208E-01
       N       E                     dE             d eps       ncg     rms          rms(c)
DAV:   1    -0.229888532472E+03    0.88813E-02   -0.78633E+00  4032   0.523E+00    0.544E-01
RMM:   2    -0.229908085140E+03   -0.19553E-01   -0.19434E-01  4038   0.710E-01    0.529E-01
RMM:   3    -0.229916101888E+03   -0.80167E-02   -0.11668E-02  4038   0.163E-01    0.112E+00
RMM:   4    -0.229906368821E+03    0.97331E-02   -0.43292E-03  4038   0.968E-02    0.483E-01
RMM:   5    -0.229904586659E+03    0.17822E-02   -0.13042E-03  4038   0.574E-02    0.171E-01
RMM:   6    -0.229904703879E+03   -0.11722E-03   -0.82652E-04  4038   0.446E-02    0.178E-01
RMM:   7    -0.229904578748E+03    0.12513E-03   -0.66382E-04  4037   0.398E-02    0.114E-01
RMM:   8    -0.229904501956E+03    0.76792E-04   -0.18027E-04  4037   0.206E-02    0.600E-02
RMM:   9    -0.229904475872E+03    0.26084E-04   -0.39095E-05  4032   0.978E-03    0.266E-02
RMM:  10    -0.229904470215E+03    0.56572E-05   -0.88242E-06  3964   0.471E-03    0.150E-02
RMM:  11    -0.229904470060E+03    0.15461E-06   -0.78629E-06  3863   0.421E-03
  41 F= -.22990447E+03 E0= -.22977629E+03  d E =-.705551E-02
       N       E                     dE             d eps       ncg     rms          rms(c)
DAV:   1    -0.229775120499E+03    0.12935E+00   -0.70674E+01  4032   0.157E+01    0.166E+00
RMM:   2    -0.229962134810E+03   -0.18701E+00   -0.18231E+00  4038   0.214E+00    0.175E+00
RMM:   3    -0.230027469543E+03   -0.65335E-01   -0.10722E-01  4038   0.494E-01    0.319E+00
RMM:   4    -0.229942412341E+03    0.85057E-01   -0.39789E-02  4038   0.291E-01    0.143E+00
RMM:   5    -0.229925706131E+03    0.16706E-01   -0.11840E-02  4038   0.172E-01    0.550E-01
RMM:   6    -0.229926183687E+03   -0.47756E-03   -0.75983E-03  4038   0.135E-01    0.541E-01
RMM:   7    -0.229925058503E+03    0.11252E-02   -0.59393E-03  4036   0.119E-01    0.372E-01
RMM:   8    -0.229924260222E+03    0.79828E-03   -0.19823E-03  4036   0.686E-02    0.200E-01
RMM:   9    -0.229923982487E+03    0.27773E-03   -0.43941E-04  4038   0.328E-02    0.960E-02
RMM:  10    -0.229923914158E+03    0.68329E-04   -0.98199E-05  4038   0.157E-02    0.544E-02
RMM:  11    -0.229923910992E+03    0.31661E-05   -0.66268E-05  4032   0.122E-02    0.496E-02
RMM:  12    -0.229923901644E+03    0.93480E-05   -0.48560E-05  4038   0.103E-02    0.284E-02
RMM:  13    -0.229923905357E+03   -0.37130E-05   -0.17194E-05  4031   0.637E-03    0.170E-02
RMM:  14    -0.229923905946E+03   -0.58972E-06   -0.36388E-06  2882   0.307E-03
  42 F= -.22992391E+03 E0= -.22979566E+03  d E =-.264914E-01
       N       E                     dE             d eps       ncg     rms          rms(c)
DAV:   1    -0.229287465163E+03    0.63644E+00   -0.28139E+02  4032   0.312E+01    0.346E+00
RMM:   2    -0.230126906297E+03   -0.83944E+00   -0.80503E+00  4038   0.439E+00    0.395E+00
RMM:   3    -0.230328048459E+03   -0.20114E+00   -0.44754E-01  4038   0.101E+00    0.568E+00
RMM:   4    -0.230022697096E+03    0.30535E+00   -0.16114E-01  4038   0.578E-01    0.289E+00
RMM:   5    -0.229958472025E+03    0.64225E-01   -0.52129E-02  4038   0.356E-01    0.138E+00
RMM:   6    -0.229955089539E+03    0.33825E-02   -0.32315E-02  4038   0.278E-01    0.114E+00
RMM:   7    -0.229950653441E+03    0.44361E-02   -0.24533E-02  4038   0.241E-01    0.859E-01
RMM:   8    -0.229946350518E+03    0.43029E-02   -0.10750E-02  4037   0.161E-01    0.451E-01
RMM:   9    -0.229945162935E+03    0.11876E-02   -0.25936E-03  4036   0.796E-02    0.269E-01
RMM:  10    -0.229944663723E+03    0.49921E-03   -0.63465E-04  4037   0.397E-02    0.147E-01
RMM:  11    -0.229944613275E+03    0.50448E-04   -0.32562E-04  4035   0.271E-02    0.121E-01
RMM:  12    -0.229944527246E+03    0.86028E-04   -0.21489E-04  4038   0.218E-02    0.620E-02
RMM:  13    -0.229944540907E+03   -0.13661E-04   -0.10340E-04  4032   0.155E-02    0.447E-02
RMM:  14    -0.229944534150E+03    0.67570E-05   -0.27847E-05  4013   0.819E-03    0.176E-02
RMM:  15    -0.229944541157E+03   -0.70064E-05   -0.56022E-06  3332   0.380E-03    0.921E-03
RMM:  16    -0.229944551466E+03   -0.10309E-04   -0.18045E-06  2366   0.217E-03    0.784E-03
RMM:  17    -0.229944561063E+03   -0.95972E-05   -0.10101E-06  2284   0.158E-03    0.536E-03
RMM:  18    -0.229944569223E+03   -0.81596E-05   -0.67107E-07  2262   0.127E-03    0.349E-03
RMM:  19    -0.229944576450E+03   -0.72273E-05   -0.32286E-07  2256   0.819E-04    0.185E-03
RMM:  20    -0.229944583342E+03   -0.68917E-05   -0.21200E-07  1876   0.584E-04    0.136E-03
RMM:  21    -0.229944589647E+03   -0.63051E-05   -0.18333E-07  1772   0.542E-04    0.107E-03
RMM:  22    -0.229944599626E+03   -0.99796E-05   -0.47052E-07  2253   0.755E-04    0.664E-04
RMM:  23    -0.229944604322E+03   -0.46955E-05   -0.22108E-07  1458   0.505E-04    0.760E-04
RMM:  24    -0.229944606422E+03   -0.20997E-05   -0.13148E-07  1413   0.455E-04    0.644E-04
RMM:  25    -0.229944608513E+03   -0.20919E-05   -0.13316E-07  1533   0.438E-04    0.389E-04
RMM:  26    -0.229944609583E+03   -0.10694E-05   -0.34137E-08   763   0.345E-04    0.188E-04
RMM:  27    -0.229944610194E+03   -0.61097E-06   -0.35131E-08   882   0.380E-04
  43 F= -.22994461E+03 E0= -.22981563E+03  d E =-.471956E-01
       N       E                     dE             d eps       ncg     rms          rms(c)
DAV:   1    -0.229895714998E+03    0.48895E-01   -0.37687E+01  4032   0.114E+01    0.123E+00
RMM:   2    -0.229997925885E+03   -0.10221E+00   -0.98429E-01  4039   0.156E+00    0.149E+00
RMM:   3    -0.229994488174E+03    0.34377E-02   -0.51187E-02  4039   0.357E-01    0.142E+00
RMM:   4    -0.230004108725E+03   -0.96206E-02   -0.20512E-02  4038   0.204E-01    0.178E+00
RMM:   5    -0.229976644183E+03    0.27465E-01   -0.10432E-02  4038   0.151E-01    0.652E-01
RMM:   6    -0.229975613045E+03    0.10311E-02   -0.44030E-03  4038   0.102E-01    0.469E-01
RMM:   7    -0.229975058472E+03    0.55457E-03   -0.39243E-03  4035   0.969E-02    0.340E-01
RMM:   8    -0.229974224287E+03    0.83419E-03   -0.15160E-03  4037   0.607E-02    0.141E-01
RMM:   9    -0.229974128747E+03    0.95540E-04   -0.23210E-04  4037   0.238E-02    0.808E-02
RMM:  10    -0.229974094101E+03    0.34646E-04   -0.60894E-05  4033   0.122E-02    0.599E-02
RMM:  11    -0.229974082006E+03    0.12094E-04   -0.40258E-05  4032   0.965E-03    0.421E-02
RMM:  12    -0.229974076798E+03    0.52084E-05   -0.36455E-05  4032   0.882E-03    0.206E-02
RMM:  13    -0.229974080276E+03   -0.34783E-05   -0.11213E-05  3976   0.506E-03    0.154E-02
RMM:  14    -0.229974080939E+03   -0.66312E-06   -0.26307E-06  2663   0.264E-03
  44 F= -.22997408E+03 E0= -.22984502E+03  d E =-.294707E-01
       N       E                     dE             d eps       ncg     rms          rms(c)
DAV:   1    -0.229381215678E+03    0.59286E+00   -0.26065E+02  4032   0.299E+01    0.345E+00
RMM:   2    -0.230200736556E+03   -0.81952E+00   -0.77998E+00  4041   0.415E+00    0.449E+00
RMM:   3    -0.230136190726E+03    0.64546E-01   -0.36191E-01  4043   0.944E-01    0.344E+00
RMM:   4    -0.230274049490E+03   -0.13786E+00   -0.16737E-01  4038   0.580E-01    0.532E+00
RMM:   5    -0.230040521351E+03    0.23353E+00   -0.88798E-02  4038   0.438E-01    0.226E+00
RMM:   6    -0.230018068248E+03    0.22453E-01   -0.34747E-02  4038   0.287E-01    0.126E+00
RMM:   7    -0.230015609643E+03    0.24586E-02   -0.32540E-02  4035   0.279E-01    0.101E+00
RMM:   8    -0.230009125481E+03    0.64842E-02   -0.12332E-02  4038   0.173E-01    0.585E-01
RMM:   9    -0.230007593951E+03    0.15315E-02   -0.24345E-03  4037   0.768E-02    0.348E-01
RMM:  10    -0.230007064294E+03    0.52966E-03   -0.69996E-04  4037   0.406E-02    0.255E-01
RMM:  11    -0.230006789384E+03    0.27491E-03   -0.39512E-04  4037   0.304E-02    0.158E-01
RMM:  12    -0.230006681800E+03    0.10758E-03   -0.33690E-04  4038   0.270E-02    0.820E-02
RMM:  13    -0.230006665329E+03    0.16471E-04   -0.10587E-04  4037   0.155E-02    0.427E-02
RMM:  14    -0.230006675124E+03   -0.97953E-05   -0.25538E-05  4032   0.796E-03    0.232E-02
RMM:  15    -0.230006684932E+03   -0.98077E-05   -0.61042E-06  3385   0.398E-03    0.141E-02
RMM:  16    -0.230006700755E+03   -0.15823E-04   -0.36594E-06  2800   0.285E-03    0.119E-02
RMM:  17    -0.230006715610E+03   -0.14855E-04   -0.20875E-06  2440   0.222E-03    0.529E-03
RMM:  18    -0.230006722512E+03   -0.69018E-05   -0.68260E-07  2258   0.132E-03    0.255E-03
RMM:  19    -0.230006731899E+03   -0.93869E-05   -0.35123E-07  2265   0.824E-04    0.230E-03
RMM:  20    -0.230006740084E+03   -0.81848E-05   -0.25705E-07  1970   0.643E-04    0.157E-03
RMM:  21    -0.230006750040E+03   -0.99563E-05   -0.36564E-07  2280   0.696E-04    0.111E-03
RMM:  22    -0.230006758449E+03   -0.84083E-05   -0.33636E-07  1962   0.613E-04    0.840E-04
RMM:  23    -0.230006763348E+03   -0.48998E-05   -0.22103E-07  1581   0.527E-04    0.562E-04
RMM:  24    -0.230006767489E+03   -0.41410E-05   -0.25236E-07  1824   0.550E-04    0.505E-04
RMM:  25    -0.230006770095E+03   -0.26054E-05   -0.14072E-07  1279   0.446E-04    0.357E-04
RMM:  26    -0.230006771306E+03   -0.12115E-05   -0.89812E-08  1225   0.414E-04    0.192E-04
RMM:  27    -0.230006771776E+03   -0.46974E-06   -0.36170E-08   858   0.337E-04
  45 F= -.23000677E+03 E0= -.22987681E+03  d E =-.621616E-01
       N       E                     dE             d eps       ncg     rms          rms(c)
DAV:   1    -0.229981046377E+03    0.25725E-01   -0.12920E+01  4080   0.664E+00    0.776E-01
RMM:   2    -0.230016925877E+03   -0.35880E-01   -0.34322E-01  4039   0.921E-01    0.100E+00
RMM:   3    -0.230010255744E+03    0.66701E-02   -0.17112E-02  4039   0.210E-01    0.497E-01
RMM:   4    -0.230010224760E+03    0.30984E-04   -0.45428E-03  4040   0.106E-01    0.574E-01
RMM:   5    -0.230009478778E+03    0.74598E-03   -0.26153E-03  4038   0.781E-02    0.456E-01
RMM:   6    -0.230011996171E+03   -0.25174E-02   -0.21144E-03  4038   0.633E-02    0.657E-01
RMM:   7    -0.230008444035E+03    0.35521E-02   -0.18146E-03  4038   0.629E-02    0.237E-01
RMM:   8    -0.230008039367E+03    0.40467E-03   -0.52822E-04  4038   0.360E-02    0.813E-02
RMM:   9    -0.230008017303E+03    0.22064E-04   -0.73034E-05  4038   0.131E-02    0.448E-02
RMM:  10    -0.230008005703E+03    0.11599E-04   -0.24588E-05  4032   0.761E-03    0.324E-02
RMM:  11    -0.230008000293E+03    0.54108E-05   -0.19528E-05  4021   0.667E-03    0.213E-02
RMM:  12    -0.230007999784E+03    0.50837E-06   -0.13262E-05  4014   0.546E-03    0.117E-02
RMM:  13    -0.230008000002E+03   -0.21811E-06   -0.29094E-06  2664   0.268E-03
  46 F= -.23000800E+03 E0= -.22987831E+03  d E =-.633898E-01
       N       E                     dE             d eps       ncg     rms          rms(c)
DAV:   1    -0.230029957117E+03   -0.21957E-01   -0.10302E+01  4056   0.565E+00    0.756E-01
RMM:   2    -0.230059123652E+03   -0.29167E-01   -0.25323E-01  4039   0.808E-01    0.114E+00
RMM:   3    -0.230051340166E+03    0.77835E-02   -0.14498E-02  4039   0.192E-01    0.526E-01
RMM:   4    -0.230055622552E+03   -0.42824E-02   -0.55797E-03  4040   0.111E-01    0.846E-01
RMM:   5    -0.230055456393E+03    0.16616E-03   -0.48974E-03  4038   0.971E-02    0.854E-01
RMM:   6    -0.230050096874E+03    0.53595E-02   -0.30976E-03  4038   0.827E-02    0.368E-01
RMM:   7    -0.230049529246E+03    0.56763E-03   -0.17291E-03  4036   0.653E-02    0.220E-01
RMM:   8    -0.230049134457E+03    0.39479E-03   -0.53153E-04  4036   0.361E-02    0.831E-02
RMM:   9    -0.230049101839E+03    0.32618E-04   -0.69496E-05  4036   0.130E-02    0.449E-02
RMM:  10    -0.230049093067E+03    0.87714E-05   -0.20944E-05  4026   0.705E-03    0.351E-02
RMM:  11    -0.230049087042E+03    0.60248E-05   -0.21243E-05  4031   0.691E-03    0.210E-02
RMM:  12    -0.230049086922E+03    0.12005E-06   -0.13013E-05  4009   0.537E-03    0.133E-02
RMM:  13    -0.230049086899E+03    0.23792E-07   -0.23448E-06  2468   0.248E-03
  47 F= -.23004909E+03 E0= -.22991953E+03  d E =-.410869E-01
       N       E                     dE             d eps       ncg     rms          rms(c)
DAV:   1    -0.229960116761E+03    0.88970E-01   -0.74545E+01  4032   0.151E+01    0.211E+00
RMM:   2    -0.230174105706E+03   -0.21399E+00   -0.18686E+00  4038   0.218E+00    0.310E+00
RMM:   3    -0.230117813135E+03    0.56293E-01   -0.10318E-01  4038   0.511E-01    0.140E+00
RMM:   4    -0.230138875015E+03   -0.21062E-01   -0.43406E-02  4039   0.310E-01    0.206E+00
RMM:   5    -0.230169125182E+03   -0.30250E-01   -0.39974E-02  4038   0.277E-01    0.274E+00
RMM:   6    -0.230109084759E+03    0.60040E-01   -0.23111E-02  4038   0.222E-01    0.100E+00
RMM:   7    -0.230105067204E+03    0.40176E-02   -0.12783E-02  4036   0.178E-01    0.606E-01
RMM:   8    -0.230102131196E+03    0.29360E-02   -0.37958E-03  4036   0.963E-02    0.250E-01
RMM:   9    -0.230101840609E+03    0.29059E-03   -0.50522E-04  4038   0.353E-02    0.141E-01
RMM:  10    -0.230101764177E+03    0.76433E-04   -0.17644E-04  4036   0.203E-02    0.115E-01
RMM:  11    -0.230101694104E+03    0.70073E-04   -0.15856E-04  4038   0.189E-02    0.627E-02
RMM:  12    -0.230101691626E+03    0.24782E-05   -0.10043E-04  4034   0.149E-02    0.409E-02
RMM:  13    -0.230101690047E+03    0.15785E-05   -0.20336E-05  4032   0.692E-03    0.202E-02
RMM:  14    -0.230101695385E+03   -0.53373E-05   -0.60043E-06  3419   0.384E-03    0.137E-02
RMM:  15    -0.230101699287E+03   -0.39023E-05   -0.14948E-06  2321   0.197E-03    0.773E-03
RMM:  16    -0.230101705977E+03   -0.66901E-05   -0.94095E-07  2254   0.152E-03    0.460E-03
RMM:  17    -0.230101714929E+03   -0.89519E-05   -0.68540E-07  2275   0.124E-03    0.230E-03
RMM:  18    -0.230101719611E+03   -0.46818E-05   -0.25761E-07  2222   0.731E-04    0.126E-03
RMM:  19    -0.230101724836E+03   -0.52251E-05   -0.15594E-07  1551   0.532E-04    0.132E-03
RMM:  20    -0.230101730016E+03   -0.51804E-05   -0.19751E-07  1928   0.549E-04    0.960E-04
RMM:  21    -0.230101736385E+03   -0.63687E-05   -0.30418E-07  1898   0.614E-04    0.720E-04
RMM:  22    -0.230101739591E+03   -0.32058E-05   -0.16915E-07  1447   0.481E-04    0.432E-04
RMM:  23    -0.230101741701E+03   -0.21107E-05   -0.14616E-07  1399   0.438E-04    0.325E-04
RMM:  24    -0.230101743035E+03   -0.13340E-05   -0.84994E-08  1101   0.387E-04    0.269E-04
RMM:  25    -0.230101743819E+03   -0.78390E-06   -0.35784E-08   773   0.359E-04
  48 F= -.23010174E+03 E0= -.22997225E+03  d E =-.937438E-01
       N       E                     dE             d eps       ncg     rms          rms(c)
DAV:   1    -0.230109585043E+03   -0.78420E-02   -0.14791E+01  4032   0.627E+00    0.701E-01
RMM:   2    -0.230138528177E+03   -0.28943E-01   -0.29258E-01  4040   0.957E-01    0.674E-01
RMM:   3    -0.230136725979E+03    0.18022E-02   -0.17061E-02  4039   0.208E-01    0.589E-01
RMM:   4    -0.230135066884E+03    0.16591E-02   -0.44601E-03  4042   0.107E-01    0.424E-01
RMM:   5    -0.230135673480E+03   -0.60660E-03   -0.28346E-03  4039   0.790E-02    0.499E-01
RMM:   6    -0.230137596144E+03   -0.19227E-02   -0.24795E-03  4038   0.699E-02    0.665E-01
RMM:   7    -0.230133862875E+03    0.37333E-02   -0.17801E-03  4038   0.612E-02    0.203E-01
RMM:   8    -0.230133647767E+03    0.21511E-03   -0.60608E-04  4038   0.381E-02    0.791E-02
RMM:   9    -0.230133602200E+03    0.45568E-04   -0.94787E-05  4038   0.149E-02    0.471E-02
RMM:  10    -0.230133583381E+03    0.18819E-04   -0.25896E-05  4032   0.790E-03    0.296E-02
RMM:  11    -0.230133578821E+03    0.45601E-05   -0.25776E-05  4021   0.746E-03    0.235E-02
RMM:  12    -0.230133577652E+03    0.11689E-05   -0.19991E-05  4031   0.648E-03    0.165E-02
RMM:  13    -0.230133577697E+03   -0.44740E-07   -0.48504E-06  3235   0.339E-03
  49 F= -.23013358E+03 E0= -.23000371E+03  d E =-.318339E-01
       N       E                     dE             d eps       ncg     rms          rms(c)
DAV:   1    -0.230126734470E+03    0.68432E-02   -0.96270E+00  4032   0.506E+00    0.581E-01
RMM:   2    -0.230145492879E+03   -0.18758E-01   -0.19050E-01  4039   0.773E-01    0.542E-01
RMM:   3    -0.230144410093E+03    0.10828E-02   -0.11167E-02  4039   0.169E-01    0.479E-01
RMM:   4    -0.230143615692E+03    0.79440E-03   -0.30821E-03  4042   0.886E-02    0.394E-01
RMM:   5    -0.230145399136E+03   -0.17834E-02   -0.21363E-03  4038   0.666E-02    0.577E-01
RMM:   6    -0.230143944593E+03    0.14545E-02   -0.19135E-03  4038   0.610E-02    0.439E-01
RMM:   7    -0.230142511118E+03    0.14335E-02   -0.11959E-03  4038   0.522E-02    0.154E-01
RMM:   8    -0.230142378303E+03    0.13282E-03   -0.38833E-04  4038   0.304E-02    0.642E-02
RMM:   9    -0.230142349011E+03    0.29292E-04   -0.63877E-05  4038   0.122E-02    0.371E-02
RMM:  10    -0.230142337841E+03    0.11170E-04   -0.16347E-05  4026   0.628E-03    0.227E-02
RMM:  11    -0.230142336741E+03    0.10998E-05   -0.16618E-05  4020   0.598E-03    0.188E-02
RMM:  12    -0.230142337653E+03   -0.91187E-06   -0.12167E-05  4013   0.505E-03    0.136E-02
RMM:  13    -0.230142338671E+03   -0.10182E-05   -0.29313E-06  2560   0.271E-03    0.759E-03
RMM:  14    -0.230142339751E+03   -0.10802E-05   -0.73536E-07  2204   0.154E-03    0.246E-03
RMM:  15    -0.230142340861E+03   -0.11102E-05   -0.15861E-07  2165   0.703E-04    0.145E-03
RMM:  16    -0.230142342826E+03   -0.19642E-05   -0.12741E-07  1939   0.561E-04    0.163E-03
RMM:  17    -0.230142344344E+03   -0.15187E-05   -0.64179E-08  1383   0.452E-04    0.104E-03
RMM:  18    -0.230142345334E+03   -0.98973E-06   -0.29930E-08   941   0.376E-04
  50 F= -.23014235E+03 E0= -.23001216E+03  d E =-.406015E-01
       N       E                     dE             d eps       ncg     rms          rms(c)
DAV:   1    -0.230153036990E+03   -0.10693E-01   -0.52403E+00  4056   0.376E+00    0.385E-01
RMM:   2    -0.230163329750E+03   -0.10293E-01   -0.10093E-01  4039   0.569E-01    0.458E-01
RMM:   3    -0.230163388172E+03   -0.58422E-04   -0.56720E-03  4039   0.120E-01    0.438E-01
RMM:   4    -0.230166050489E+03   -0.26623E-02   -0.27530E-03  4040   0.744E-02    0.721E-01
RMM:   5    -0.230161755022E+03    0.42955E-02   -0.11797E-03  4038   0.518E-02    0.271E-01
RMM:   6    -0.230161856384E+03   -0.10136E-03   -0.86574E-04  4038   0.445E-02    0.258E-01
RMM:   7    -0.230161473553E+03    0.38283E-03   -0.68592E-04  4034   0.398E-02    0.106E-01
RMM:   8    -0.230161405174E+03    0.68379E-04   -0.17816E-04  4034   0.203E-02    0.521E-02
RMM:   9    -0.230161388479E+03    0.16695E-04   -0.28359E-05  4020   0.821E-03    0.291E-02
RMM:  10    -0.230161381907E+03    0.65713E-05   -0.85188E-06  3944   0.452E-03    0.200E-02
RMM:  11    -0.230161379891E+03    0.20169E-05   -0.10326E-05  4009   0.470E-03    0.160E-02
RMM:  12    -0.230161379214E+03    0.67635E-06   -0.99619E-06  4002   0.454E-03
  51 F= -.23016138E+03 E0= -.23003087E+03  d E =-.190339E-01
       N       E                     dE             d eps       ncg     rms          rms(c)
DAV:   1    -0.230136140116E+03    0.25240E-01   -0.32465E+01  4032   0.936E+00    0.943E-01
RMM:   2    -0.230198995866E+03   -0.62856E-01   -0.62389E-01  4039   0.142E+00    0.105E+00
RMM:   3    -0.230198999618E+03   -0.37524E-05   -0.34770E-02  4039   0.298E-01    0.102E+00
RMM:   4    -0.230215263306E+03   -0.16264E-01   -0.15403E-02  4040   0.177E-01    0.172E+00
RMM:   5    -0.230190066885E+03    0.25196E-01   -0.64492E-03  4038   0.120E-01    0.607E-01
RMM:   6    -0.230190932542E+03   -0.86566E-03   -0.51677E-03  4038   0.109E-01    0.638E-01
RMM:   7    -0.230188541530E+03    0.23910E-02   -0.41239E-03  4035   0.975E-02    0.265E-01
RMM:   8    -0.230188082634E+03    0.45890E-03   -0.11043E-03  4035   0.506E-02    0.126E-01
RMM:   9    -0.230187980924E+03    0.10171E-03   -0.17556E-04  4038   0.204E-02    0.733E-02
[...]
       N       E                     dE             d eps       ncg     rms          rms(c)
DAV:   1    -0.231225343977E+03    0.13781E-03   -0.13596E-01  4032   0.665E-01    0.774E-02
RMM:   2    -0.231225671324E+03   -0.32735E-03   -0.32088E-03  4037   0.923E-02    0.836E-02
RMM:   3    -0.231225688247E+03   -0.16923E-04   -0.18525E-04  4041   0.216E-02    0.880E-02
RMM:   4    -0.231225765308E+03   -0.77061E-04   -0.10497E-04  4038   0.144E-02    0.125E-01
RMM:   5    -0.231225614611E+03    0.15070E-03   -0.46485E-05  4032   0.100E-02    0.418E-02
RMM:   6    -0.231225618785E+03   -0.41736E-05   -0.20209E-05  4032   0.691E-03    0.358E-02
RMM:   7    -0.231225612237E+03    0.65475E-05   -0.15565E-05  4026   0.616E-03    0.161E-02
RMM:   8    -0.231225610235E+03    0.20021E-05   -0.34223E-06  2803   0.292E-03    0.615E-03
RMM:   9    -0.231225610100E+03    0.13519E-06   -0.67973E-07  2173   0.143E-03
 191 F= -.23122561E+03 E0= -.23111345E+03  d E =-.504427E-03
       N       E                     dE             d eps       ncg     rms          rms(c)
DAV:   1    -0.231224548602E+03    0.10616E-02   -0.54384E-01  4032   0.133E+00    0.154E-01
RMM:   2    -0.231225858819E+03   -0.13102E-02   -0.12785E-02  4037   0.184E-01    0.170E-01
RMM:   3    -0.231225880530E+03   -0.21712E-04   -0.72452E-04  4041   0.427E-02    0.165E-01
RMM:   4    -0.231226241222E+03   -0.36069E-03   -0.40893E-04  4038   0.284E-02    0.253E-01
RMM:   5    -0.231225622825E+03    0.61840E-03   -0.18267E-04  4036   0.198E-02    0.841E-02
RMM:   6    -0.231225637181E+03   -0.14356E-04   -0.82754E-05  4033   0.140E-02    0.716E-02
RMM:   7    -0.231225610491E+03    0.26690E-04   -0.63356E-05  4035   0.124E-02    0.328E-02
RMM:   8    -0.231225602094E+03    0.83970E-05   -0.14336E-05  4029   0.581E-03    0.121E-02
RMM:   9    -0.231225601367E+03    0.72665E-06   -0.20764E-06  2427   0.233E-03
 192 F= -.23122560E+03 E0= -.23111341E+03  d E =-.495694E-03
       N       E                     dE             d eps       ncg     rms          rms(c)
DAV:   1    -0.231225268448E+03    0.33365E-03   -0.20114E-01  4032   0.808E-01    0.918E-02
RMM:   2    -0.231225746494E+03   -0.47805E-03   -0.46803E-03  4037   0.112E-01    0.104E-01
RMM:   3    -0.231225724461E+03    0.22033E-04   -0.25820E-04  4041   0.256E-02    0.864E-02
RMM:   4    -0.231225875772E+03   -0.15131E-03   -0.13580E-04  4038   0.165E-02    0.152E-01
RMM:   5    -0.231225654248E+03    0.22152E-03   -0.60693E-05  4032   0.113E-02    0.500E-02
RMM:   6    -0.231225661083E+03   -0.68355E-05   -0.31325E-05  4032   0.858E-03    0.428E-02
RMM:   7    -0.231225651749E+03    0.93345E-05   -0.24104E-05  4032   0.767E-03    0.213E-02
RMM:   8    -0.231225648035E+03    0.37139E-05   -0.52622E-06  3242   0.357E-03    0.722E-03
RMM:   9    -0.231225647669E+03    0.36590E-06   -0.87755E-07  2187   0.159E-03
 193 F= -.23122565E+03 E0= -.23111348E+03  d E =-.541996E-03
       N       E                     dE             d eps       ncg     rms          rms(c)
DAV:   1    -0.231225323632E+03    0.32440E-03   -0.34540E-01  4032   0.104E+00    0.109E-01
RMM:   2    -0.231226117413E+03   -0.79378E-03   -0.76311E-03  4039   0.145E-01    0.117E-01
RMM:   3    -0.231226403039E+03   -0.28563E-03   -0.49869E-04  4039   0.341E-02    0.203E-01
RMM:   4    -0.231226046705E+03    0.35633E-03   -0.20622E-04  4044   0.210E-02    0.975E-02
RMM:   5    -0.231225979190E+03    0.67516E-04   -0.80523E-05  4036   0.140E-02    0.546E-02
RMM:   6    -0.231225977647E+03    0.15425E-05   -0.38187E-05  4032   0.926E-03    0.420E-02
RMM:   7    -0.231225968007E+03    0.96404E-05   -0.31433E-05  4032   0.871E-03    0.217E-02
RMM:   8    -0.231225964926E+03    0.30807E-05   -0.67904E-06  3592   0.403E-03    0.110E-02
RMM:   9    -0.231225964032E+03    0.89414E-06   -0.10482E-06  2166   0.174E-03
 194 F= -.23122596E+03 E0= -.23111375E+03  d E =-.316363E-03
       N       E                     dE             d eps       ncg     rms          rms(c)
DAV:   1    -0.231225926303E+03    0.38623E-04   -0.46499E-02  4032   0.381E-01    0.415E-02
RMM:   2    -0.231226030756E+03   -0.10445E-03   -0.10460E-03  4039   0.536E-02    0.384E-02
RMM:   3    -0.231226078395E+03   -0.47639E-04   -0.69499E-05  4039   0.128E-02    0.770E-02
RMM:   4    -0.231226027239E+03    0.51156E-04   -0.29778E-05  4040   0.791E-03    0.388E-02
RMM:   5    -0.231226016384E+03    0.10855E-04   -0.11119E-05  3967   0.524E-03    0.196E-02
RMM:   6    -0.231226016791E+03   -0.40656E-06   -0.48653E-06  3211   0.338E-03
 195 F= -.23122602E+03 E0= -.23111376E+03  d E =-.369122E-03
       N       E                     dE             d eps       ncg     rms          rms(c)
DAV:   1    -0.231225788767E+03    0.22762E-03   -0.29758E-01  4032   0.957E-01    0.102E-01
RMM:   2    -0.231226445953E+03   -0.65719E-03   -0.64879E-03  4037   0.136E-01    0.105E-01
RMM:   3    -0.231226617046E+03   -0.17109E-03   -0.39542E-04  4039   0.310E-02    0.163E-01
RMM:   4    -0.231226477748E+03    0.13930E-03   -0.18643E-04  4045   0.195E-02    0.120E-01
RMM:   5    -0.231226349849E+03    0.12790E-03   -0.77910E-05  4037   0.134E-02    0.559E-02
RMM:   6    -0.231226348951E+03    0.89739E-06   -0.42012E-05  4032   0.980E-03    0.388E-02
RMM:   7    -0.231226338681E+03    0.10270E-04   -0.25127E-05  4032   0.776E-03    0.166E-02
RMM:   8    -0.231226337286E+03    0.13948E-05   -0.39755E-06  2930   0.316E-03    0.835E-03
RMM:   9    -0.231226336752E+03    0.53472E-06   -0.93130E-07  2173   0.166E-03
 196 F= -.23122634E+03 E0= -.23111411E+03  d E =-.319961E-03
       N       E                     dE             d eps       ncg     rms          rms(c)
DAV:   1    -0.231226320006E+03    0.17280E-04   -0.36326E-02  4032   0.334E-01    0.366E-02
RMM:   2    -0.231226401910E+03   -0.81904E-04   -0.81033E-04  4038   0.478E-02    0.381E-02
RMM:   3    -0.231226419810E+03   -0.17901E-04   -0.50643E-05  4039   0.112E-02    0.548E-02
RMM:   4    -0.231226409700E+03    0.10110E-04   -0.23929E-05  4023   0.697E-03    0.470E-02
RMM:   5    -0.231226389797E+03    0.19902E-04   -0.10661E-05  3984   0.496E-03    0.201E-02
RMM:   6    -0.231226390363E+03   -0.56590E-06   -0.45239E-06  3094   0.329E-03
 197 F= -.23122639E+03 E0= -.23111414E+03  d E =-.373572E-03
       N       E                     dE             d eps       ncg     rms          rms(c)
DAV:   1    -0.231226134413E+03    0.25538E-03   -0.14524E-01  4032   0.669E-01    0.720E-02
RMM:   2    -0.231226453676E+03   -0.31926E-03   -0.31628E-03  4038   0.947E-02    0.746E-02
RMM:   3    -0.231226507138E+03   -0.53462E-04   -0.18903E-04  4039   0.217E-02    0.101E-01
RMM:   4    -0.231226495959E+03    0.11179E-04   -0.91745E-05  4046   0.136E-02    0.980E-02
RMM:   5    -0.231226405113E+03    0.90846E-04   -0.39496E-05  4036   0.946E-03    0.376E-02
RMM:   6    -0.231226408265E+03   -0.31521E-05   -0.22243E-05  4032   0.723E-03    0.296E-02
RMM:   7    -0.231226401347E+03    0.69184E-05   -0.12303E-05  4018   0.543E-03    0.941E-03
RMM:   8    -0.231226401070E+03    0.27640E-06   -0.13876E-06  2228   0.195E-03
 198 F= -.23122640E+03 E0= -.23111415E+03  d E =-.384280E-03
       N       E                     dE             d eps       ncg     rms          rms(c)
DAV:   1    -0.231226340695E+03    0.60652E-04   -0.39249E-02  4032   0.348E-01    0.361E-02
RMM:   2    -0.231226431553E+03   -0.90858E-04   -0.85380E-04  4038   0.493E-02    0.447E-02
RMM:   3    -0.231226440452E+03   -0.88987E-05   -0.50433E-05  4039   0.111E-02    0.526E-02
RMM:   4    -0.231226431814E+03    0.86382E-05   -0.22999E-05  4024   0.690E-03    0.446E-02
RMM:   5    -0.231226414043E+03    0.17771E-04   -0.11015E-05  4003   0.505E-03    0.214E-02
RMM:   6    -0.231226414379E+03   -0.33633E-06   -0.56191E-06  3412   0.364E-03
 199 F= -.23122641E+03 E0= -.23111418E+03  d E =-.397588E-03
       N       E                     dE             d eps       ncg     rms          rms(c)
DAV:   1    -0.231226240238E+03    0.17380E-03   -0.22041E-01  4032   0.821E-01    0.808E-02
RMM:   2    -0.231226688745E+03   -0.44851E-03   -0.46199E-03  4039   0.115E-01    0.651E-02
RMM:   3    -0.231226689676E+03   -0.93067E-06   -0.23134E-04  4040   0.245E-02    0.760E-02
RMM:   4    -0.231226702758E+03   -0.13083E-04   -0.72288E-05  4042   0.127E-02    0.853E-02
RMM:   5    -0.231226640182E+03    0.62576E-04   -0.34068E-05  4020   0.843E-03    0.433E-02
RMM:   6    -0.231226635367E+03    0.48155E-05   -0.21654E-05  4032   0.720E-03    0.283E-02
RMM:   7    -0.231226630503E+03    0.48642E-05   -0.18985E-05  4032   0.670E-03    0.109E-02
RMM:   8    -0.231226629646E+03    0.85701E-06   -0.24239E-06  2521   0.250E-03
 200 F= -.23122663E+03 E0= -.23111441E+03  d E =-.215267E-03
       N       E                     dE             d eps       ncg     rms          rms(c)
DAV:   1    -0.231226575949E+03    0.54554E-04   -0.79728E-02  4032   0.494E-01    0.497E-02
RMM:   2    -0.231226737185E+03   -0.16124E-03   -0.16774E-03  4039   0.691E-02    0.368E-02
RMM:   3    -0.231226736250E+03    0.93488E-06   -0.84455E-05  4040   0.149E-02    0.417E-02
RMM:   4    -0.231226723064E+03    0.13185E-04   -0.23438E-05  4022   0.767E-03    0.256E-02
RMM:   5    -0.231226728055E+03   -0.49910E-05   -0.75349E-06  3732   0.404E-03    0.319E-02
RMM:   6    -0.231226725172E+03    0.28835E-05   -0.76755E-06  3720   0.400E-03    0.264E-02
RMM:   7    -0.231226719693E+03    0.54793E-05   -0.68059E-06  3735   0.405E-03    0.899E-03
RMM:   8    -0.231226719275E+03    0.41757E-06   -0.12184E-06  2189   0.184E-03
 201 F= -.23122672E+03 E0= -.23111451E+03  d E =-.304896E-03
       N       E                     dE             d eps       ncg     rms          rms(c)
DAV:   1    -0.231226262597E+03    0.45710E-03   -0.31902E-01  4032   0.987E-01    0.978E-02
RMM:   2    -0.231226905886E+03   -0.64329E-03   -0.66639E-03  4038   0.138E-01    0.760E-02
RMM:   3    -0.231226896458E+03    0.94279E-05   -0.33235E-04  4040   0.294E-02    0.839E-02
RMM:   4    -0.231226843154E+03    0.53304E-04   -0.88575E-05  4043   0.148E-02    0.497E-02
RMM:   5    -0.231226855211E+03   -0.12057E-04   -0.31511E-05  4036   0.848E-03    0.560E-02
RMM:   6    -0.231226865135E+03   -0.99241E-05   -0.30611E-05  4032   0.779E-03    0.626E-02
RMM:   7    -0.231226830484E+03    0.34651E-04   -0.28829E-05  4032   0.812E-03    0.188E-02
RMM:   8    -0.231226828916E+03    0.15677E-05   -0.49743E-06  3090   0.353E-03    0.898E-03
RMM:   9    -0.231226828190E+03    0.72574E-06   -0.10081E-06  2174   0.173E-03
 202 F= -.23122683E+03 E0= -.23111463E+03  d E =-.413811E-03
       N       E                     dE             d eps       ncg     rms          rms(c)
DAV:   1    -0.231226721281E+03    0.10763E-03   -0.19442E-01  4032   0.759E-01    0.821E-02
RMM:   2    -0.231227129125E+03   -0.40784E-03   -0.41213E-03  4040   0.109E-01    0.814E-02
RMM:   3    -0.231227091092E+03    0.38033E-04   -0.22572E-04  4039   0.245E-02    0.524E-02
RMM:   4    -0.231227081027E+03    0.10065E-04   -0.52567E-05  4043   0.116E-02    0.503E-02
RMM:   5    -0.231227095714E+03   -0.14687E-04   -0.28709E-05  4031   0.795E-03    0.588E-02
RMM:   6    -0.231227091090E+03    0.46239E-05   -0.25089E-05  4026   0.696E-03    0.536E-02
RMM:   7    -0.231227067513E+03    0.23577E-04   -0.20851E-05  4026   0.704E-03    0.170E-02
RMM:   8    -0.231227065745E+03    0.17676E-05   -0.36335E-06  2842   0.299E-03    0.649E-03
RMM:   9    -0.231227065564E+03    0.18146E-06   -0.65825E-07  2139   0.140E-03
 203 F= -.23122707E+03 E0= -.23111489E+03  d E =-.237373E-03
       N       E                     dE             d eps       ncg     rms          rms(c)
DAV:   1    -0.231227059805E+03    0.59405E-05   -0.34332E-02  4056   0.319E-01    0.350E-02
RMM:   2    -0.231227132114E+03   -0.72310E-04   -0.73326E-04  4041   0.460E-02    0.339E-02
RMM:   3    -0.231227126483E+03    0.56313E-05   -0.41313E-05  4039   0.104E-02    0.233E-02
RMM:   4    -0.231227124096E+03    0.23872E-05   -0.98628E-06  4005   0.502E-03    0.206E-02
RMM:   5    -0.231227126337E+03   -0.22411E-05   -0.47896E-06  3171   0.331E-03    0.245E-02
RMM:   6    -0.231227126734E+03   -0.39715E-06   -0.47290E-06  3134   0.319E-03
 204 F= -.23122713E+03 E0= -.23111501E+03  d E =-.298544E-03
       N       E                     dE             d eps       ncg     rms          rms(c)
DAV:   1    -0.231226910830E+03    0.21551E-03   -0.13729E-01  4032   0.638E-01    0.693E-02
RMM:   2    -0.231227205060E+03   -0.29423E-03   -0.28816E-03  4041   0.915E-02    0.748E-02
RMM:   3    -0.231227206473E+03   -0.14130E-05   -0.16853E-04  4039   0.207E-02    0.735E-02
RMM:   4    -0.231227255534E+03   -0.49062E-04   -0.72746E-05  4045   0.121E-02    0.101E-01
RMM:   5    -0.231227156270E+03    0.99264E-04   -0.45343E-05  4032   0.100E-02    0.373E-02
RMM:   6    -0.231227162071E+03   -0.58012E-05   -0.23059E-05  4032   0.741E-03    0.341E-02
RMM:   7    -0.231227153463E+03    0.86083E-05   -0.15076E-05  4026   0.608E-03    0.128E-02
RMM:   8    -0.231227152352E+03    0.11107E-05   -0.20533E-06  2393   0.235E-03    0.584E-03
RMM:   9    -0.231227152141E+03    0.21154E-06   -0.46247E-07  2126   0.119E-03
 205 F= -.23122715E+03 E0= -.23111501E+03  d E =-.323951E-03
       N       E                     dE             d eps       ncg     rms          rms(c)
DAV:   1    -0.231227120748E+03    0.31604E-04   -0.19294E-02  4032   0.239E-01    0.252E-02
RMM:   2    -0.231227161274E+03   -0.40526E-04   -0.40189E-04  4040   0.342E-02    0.277E-02
RMM:   3    -0.231227156414E+03    0.48603E-05   -0.21800E-05  4039   0.757E-03    0.182E-02
RMM:   4    -0.231227164167E+03   -0.77528E-05   -0.70525E-06  3729   0.391E-03    0.325E-02
RMM:   5    -0.231227154921E+03    0.92456E-05   -0.44194E-06  3079   0.307E-03    0.167E-02
RMM:   6    -0.231227154450E+03    0.47079E-06   -0.27588E-06  2508   0.269E-03
 206 F= -.23122715E+03 E0= -.23111500E+03  d E =-.326260E-03
       N       E                     dE             d eps       ncg     rms          rms(c)
DAV:   1    -0.231226997820E+03    0.15710E-03   -0.19606E-01  4032   0.759E-01    0.740E-02
RMM:   2    -0.231227390394E+03   -0.39257E-03   -0.40275E-03  4040   0.109E-01    0.614E-02
RMM:   3    -0.231227454977E+03   -0.64584E-04   -0.23280E-04  4041   0.244E-02    0.105E-01
RMM:   4    -0.231227398690E+03    0.56288E-04   -0.76833E-05  4043   0.128E-02    0.799E-02
RMM:   5    -0.231227342477E+03    0.56213E-04   -0.30986E-05  4030   0.856E-03    0.316E-02
RMM:   6    -0.231227345130E+03   -0.26537E-05   -0.17561E-05  4026   0.646E-03    0.300E-02
RMM:   7    -0.231227340723E+03    0.44070E-05   -0.19517E-05  4032   0.682E-03    0.149E-02
RMM:   8    -0.231227339151E+03    0.15724E-05   -0.37900E-06  2891   0.303E-03    0.808E-03
RMM:   9    -0.231227338667E+03    0.48360E-06   -0.68779E-07  2135   0.148E-03
 207 F= -.23122734E+03 E0= -.23111519E+03  d E =-.184217E-03
       N       E                     dE             d eps       ncg     rms          rms(c)
DAV:   1    -0.231227326206E+03    0.12945E-04   -0.26150E-02  4032   0.277E-01    0.279E-02
RMM:   2    -0.231227378001E+03   -0.51795E-04   -0.54173E-04  4040   0.398E-02    0.200E-02
RMM:   3    -0.231227390186E+03   -0.12185E-04   -0.30913E-05  4041   0.890E-03    0.401E-02
RMM:   4    -0.231227379537E+03    0.10649E-04   -0.10521E-05  3990   0.473E-03    0.276E-02
RMM:   5    -0.231227373058E+03    0.64790E-05   -0.41032E-06  3005   0.320E-03    0.107E-02
RMM:   6    -0.231227373864E+03   -0.80653E-06   -0.24473E-06  2419   0.260E-03
 208 F= -.23122737E+03 E0= -.23111525E+03  d E =-.219414E-03
       N       E                     dE             d eps       ncg     rms          rms(c)
DAV:   1    -0.231227205377E+03    0.16768E-03   -0.10461E-01  4032   0.554E-01    0.545E-02
RMM:   2    -0.231227410697E+03   -0.20532E-03   -0.21279E-03  4040   0.791E-02    0.426E-02
RMM:   3    -0.231227434839E+03   -0.24142E-04   -0.11908E-04  4041   0.176E-02    0.666E-02
RMM:   4    -0.231227425793E+03    0.90451E-05   -0.40038E-05  4048   0.928E-03    0.634E-02
RMM:   5    -0.231227388746E+03    0.37047E-04   -0.17816E-05  4020   0.641E-03    0.233E-02
RMM:   6    -0.231227391755E+03   -0.30090E-05   -0.11076E-05  4005   0.511E-03    0.234E-02
RMM:   7    -0.231227388121E+03    0.36339E-05   -0.93104E-06  4010   0.470E-03    0.953E-03
RMM:   8    -0.231227387647E+03    0.47436E-06   -0.13754E-06  2242   0.192E-03
 209 F= -.23122739E+03 E0= -.23111525E+03  d E =-.233197E-03
       N       E                     dE             d eps       ncg     rms          rms(c)
DAV:   1    -0.231227222771E+03    0.16535E-03   -0.17265E-01  4032   0.721E-01    0.708E-02
RMM:   2    -0.231227571872E+03   -0.34910E-03   -0.36215E-03  4038   0.102E-01    0.512E-02
RMM:   3    -0.231227585349E+03   -0.13477E-04   -0.18216E-04  4040   0.221E-02    0.716E-02
RMM:   4    -0.231227584209E+03    0.11403E-05   -0.59733E-05  4043   0.117E-02    0.738E-02
RMM:   5    -0.231227538297E+03    0.45912E-04   -0.22936E-05  4032   0.705E-03    0.350E-02
RMM:   6    -0.231227536951E+03    0.13464E-05   -0.15971E-05  4032   0.610E-03    0.277E-02
RMM:   7    -0.231227533092E+03    0.38585E-05   -0.16714E-05  4032   0.633E-03    0.146E-02
RMM:   8    -0.231227531288E+03    0.18041E-05   -0.32281E-06  2745   0.284E-03    0.522E-03
RMM:   9    -0.231227531095E+03    0.19380E-06   -0.52994E-07  2126   0.129E-03
 210 F= -.23122753E+03 E0= -.23111539E+03  d E =-.143448E-03
       N       E                     dE             d eps       ncg     rms          rms(c)
DAV:   1    -0.231227490613E+03    0.40675E-04   -0.54674E-02  4032   0.406E-01    0.403E-02
RMM:   2    -0.231227600749E+03   -0.11014E-03   -0.11505E-03  4038   0.574E-02    0.268E-02
RMM:   3    -0.231227604163E+03   -0.34135E-05   -0.55893E-05  4040   0.123E-02    0.380E-02
RMM:   4    -0.231227603271E+03    0.89104E-06   -0.17872E-05  4013   0.648E-03    0.386E-02
RMM:   5    -0.231227591363E+03    0.11908E-04   -0.63435E-06  3403   0.374E-03    0.194E-02
RMM:   6    -0.231227591066E+03    0.29734E-06   -0.51391E-06  3331   0.352E-03
 211 F= -.23122759E+03 E0= -.23111548E+03  d E =-.203419E-03
       N       E                     dE             d eps       ncg     rms          rms(c)
DAV:   1    -0.231227262603E+03    0.32876E-03   -0.21861E-01  4032   0.811E-01    0.799E-02
RMM:   2    -0.231227699387E+03   -0.43678E-03   -0.45284E-03  4038   0.114E-01    0.564E-02
RMM:   3    -0.231227705430E+03   -0.60426E-05   -0.23229E-04  4040   0.250E-02    0.717E-02
RMM:   4    -0.231227718984E+03   -0.13554E-04   -0.71930E-05  4043   0.130E-02    0.848E-02
RMM:   5    -0.231227653118E+03    0.65866E-04   -0.27482E-05  4026   0.768E-03    0.321E-02
RMM:   6    -0.231227654271E+03   -0.11526E-05   -0.26836E-05  4032   0.795E-03    0.245E-02
RMM:   7    -0.231227649794E+03    0.44774E-05   -0.12090E-05  4018   0.530E-03    0.108E-02
RMM:   8    -0.231227649009E+03    0.78477E-06   -0.16577E-06  2311   0.212E-03
 212 F= -.23122765E+03 E0= -.23111551E+03  d E =-.261362E-03
       N       E                     dE             d eps       ncg     rms          rms(c)
DAV:   1    -0.231227668914E+03   -0.19120E-04   -0.61712E-02  4032   0.431E-01    0.543E-02
RMM:   2    -0.231227829746E+03   -0.16083E-03   -0.15059E-03  4040   0.642E-02    0.654E-02
RMM:   3    -0.231227818401E+03    0.11346E-04   -0.91455E-05  4042   0.151E-02    0.521E-02
RMM:   4    -0.231227882456E+03   -0.64056E-04   -0.52839E-05  4045   0.102E-02    0.949E-02
RMM:   5    -0.231227793153E+03    0.89303E-04   -0.28581E-05  4032   0.786E-03    0.301E-02
RMM:   6    -0.231227795428E+03   -0.22748E-05   -0.12392E-05  4025   0.542E-03    0.233E-02
RMM:   7    -0.231227791799E+03    0.36287E-05   -0.73920E-06  3729   0.424E-03    0.918E-03
RMM:   8    -0.231227791218E+03    0.58091E-06   -0.13242E-06  2219   0.188E-03
 213 F= -.23122779E+03 E0= -.23111564E+03  d E =-.142210E-03
