  56  56   0   0
  0.4903395E+02  0.1100258E-08  0.1100258E-08  0.2619179E-08  0.3500000E-15
  1.000000000000000E-004
  CAR 
 unknown system                          
      6.38979145    -21.59429287  301     -1.16870710      1.00000000
    -21.594  0.0000E+00  0.0000E+00
    -21.501  0.0000E+00  0.0000E+00
    -21.408  0.0000E+00  0.0000E+00
    -21.314  0.0000E+00  0.0000E+00
    -21.221  0.0000E+00  0.0000E+00
    -21.128  0.0000E+00  0.0000E+00
    -21.035  0.0000E+00  0.0000E+00
    -20.941  0.0000E+00  0.0000E+00
    -20.848  0.1811E-14  0.1689E-15
    -20.755  0.1722E-10  0.1606E-11
    -20.661  0.2993E-07  0.2794E-08
    -20.568  0.9701E-05  0.9077E-06
    -20.475  0.6054E-03  0.5738E-04
    -20.382  0.7652E-02  0.7712E-03
    -20.288  0.2152E-01  0.2779E-02
    -20.195  0.2418E-01  0.5034E-02
    -20.102  0.3909E-01  0.8681E-02
    -20.009  0.2997E-01  0.1148E-01
    -19.915  0.1359E-01  0.1274E-01
    -19.822  0.4167E-01  0.1663E-01
    -19.729  0.7642E-01  0.2376E-01
    -19.635  0.6466E-01  0.2979E-01
    -19.542  0.2160E-01  0.3181E-01
    -19.449  0.2042E-02  0.3200E-01
    -19.356  0.4445E-04  0.3200E-01
    -19.262  0.1997E-06  0.3200E-01
    -19.169  0.1744E-09  0.3200E-01
    -19.076  0.2857E-13  0.3200E-01
    -18.982  0.0000E+00  0.3200E-01
    -18.889  0.0000E+00  0.3200E-01
    -18.796  0.0000E+00  0.3200E-01
    -18.703  0.0000E+00  0.3200E-01
    -18.609  0.0000E+00  0.3200E-01
    -18.516  0.0000E+00  0.3200E-01
    -18.423  0.0000E+00  0.3200E-01
    -18.329  0.0000E+00  0.3200E-01
    -18.236  0.0000E+00  0.3200E-01
    -18.143  0.0000E+00  0.3200E-01
    -18.050  0.0000E+00  0.3200E-01
    -17.956  0.0000E+00  0.3200E-01
    -17.863  0.0000E+00  0.3200E-01
    -17.770  0.0000E+00  0.3200E-01
    -17.677  0.0000E+00  0.3200E-01
    -17.583  0.0000E+00  0.3200E-01
    -17.490  0.0000E+00  0.3200E-01
    -17.397  0.0000E+00  0.3200E-01
    -17.303  0.0000E+00  0.3200E-01
    -17.210  0.0000E+00  0.3200E-01
    -17.117  0.0000E+00  0.3200E-01
    -17.024  0.0000E+00  0.3200E-01
    -16.930  0.0000E+00  0.3200E-01
    -16.837  0.0000E+00  0.3200E-01
    -16.744  0.0000E+00  0.3200E-01
    -16.650  0.0000E+00  0.3200E-01
    -16.557  0.0000E+00  0.3200E-01
    -16.464  0.0000E+00  0.3200E-01
    -16.371  0.0000E+00  0.3200E-01
    -16.277  0.0000E+00  0.3200E-01
    -16.184  0.0000E+00  0.3200E-01
    -16.091  0.0000E+00  0.3200E-01
    -15.997  0.0000E+00  0.3200E-01
    -15.904  0.0000E+00  0.3200E-01
    -15.811  0.0000E+00  0.3200E-01
    -15.718  0.0000E+00  0.3200E-01
    -15.624  0.0000E+00  0.3200E-01
    -15.531  0.0000E+00  0.3200E-01
    -15.438  0.0000E+00  0.3200E-01
    -15.345  0.0000E+00  0.3200E-01
    -15.251  0.0000E+00  0.3200E-01
    -15.158  0.0000E+00  0.3200E-01
    -15.065  0.0000E+00  0.3200E-01
    -14.971  0.0000E+00  0.3200E-01
    -14.878  0.0000E+00  0.3200E-01
    -14.785  0.0000E+00  0.3200E-01
    -14.692  0.0000E+00  0.3200E-01
    -14.598  0.0000E+00  0.3200E-01
    -14.505  0.0000E+00  0.3200E-01
    -14.412  0.0000E+00  0.3200E-01
    -14.318  0.0000E+00  0.3200E-01
    -14.225  0.0000E+00  0.3200E-01
    -14.132  0.0000E+00  0.3200E-01
    -14.039  0.0000E+00  0.3200E-01
    -13.945  0.0000E+00  0.3200E-01
    -13.852  0.0000E+00  0.3200E-01
    -13.759  0.0000E+00  0.3200E-01
    -13.665  0.0000E+00  0.3200E-01
    -13.572  0.0000E+00  0.3200E-01
    -13.479  0.0000E+00  0.3200E-01
    -13.386  0.0000E+00  0.3200E-01
    -13.292  0.0000E+00  0.3200E-01
    -13.199  0.0000E+00  0.3200E-01
    -13.106  0.0000E+00  0.3200E-01
    -13.013  0.0000E+00  0.3200E-01
    -12.919  0.0000E+00  0.3200E-01
    -12.826  0.0000E+00  0.3200E-01
    -12.733  0.0000E+00  0.3200E-01
    -12.639  0.0000E+00  0.3200E-01
    -12.546  0.0000E+00  0.3200E-01
    -12.453  0.0000E+00  0.3200E-01
    -12.360  0.0000E+00  0.3200E-01
    -12.266  0.0000E+00  0.3200E-01
    -12.173  0.0000E+00  0.3200E-01
    -12.080  0.0000E+00  0.3200E-01
    -11.986  0.0000E+00  0.3200E-01
    -11.893  0.0000E+00  0.3200E-01
    -11.800  0.0000E+00  0.3200E-01
    -11.707  0.0000E+00  0.3200E-01
    -11.613  0.0000E+00  0.3200E-01
    -11.520  0.0000E+00  0.3200E-01
    -11.427  0.0000E+00  0.3200E-01
    -11.333  0.0000E+00  0.3200E-01
    -11.240  0.0000E+00  0.3200E-01
    -11.147  0.0000E+00  0.3200E-01
    -11.054  0.0000E+00  0.3200E-01
    -10.960  0.0000E+00  0.3200E-01
    -10.867  0.0000E+00  0.3200E-01
    -10.774  0.0000E+00  0.3200E-01
    -10.680  0.0000E+00  0.3200E-01
    -10.587  0.0000E+00  0.3200E-01
    -10.494  0.0000E+00  0.3200E-01
    -10.401  0.0000E+00  0.3200E-01
    -10.307  0.0000E+00  0.3200E-01
    -10.214  0.0000E+00  0.3200E-01
    -10.121  0.0000E+00  0.3200E-01
    -10.028  0.1190E-17  0.3200E-01
     -9.934  0.2686E-13  0.3200E-01
     -9.841  0.1412E-09  0.3200E-01
     -9.748  0.1363E-06  0.3200E-01
     -9.654  0.2476E-04  0.3200E-01
     -9.561  0.8785E-03  0.3208E-01
     -9.468  0.6427E-02  0.3268E-01
     -9.375  0.1027E-01  0.3364E-01
     -9.281  0.4765E-02  0.3409E-01
     -9.188  0.7501E-02  0.3479E-01
     -9.095  0.9853E-02  0.3571E-01
     -9.001  0.2969E-02  0.3598E-01
     -8.908  0.2308E-03  0.3600E-01
     -8.815  0.1225E-02  0.3612E-01
     -8.722  0.8969E-02  0.3695E-01
     -8.628  0.1895E-01  0.3872E-01
     -8.535  0.1589E-01  0.4020E-01
     -8.442  0.1243E-01  0.4136E-01
     -8.348  0.7129E-02  0.4203E-01
     -8.255  0.7568E-02  0.4273E-01
     -8.162  0.1651E-01  0.4427E-01
     -8.069  0.3300E-01  0.4735E-01
     -7.975  0.4707E-01  0.5174E-01
     -7.882  0.5336E-01  0.5672E-01
     -7.789  0.8207E-01  0.6438E-01
     -7.696  0.9417E-01  0.7316E-01
     -7.602  0.9801E-01  0.8230E-01
     -7.509  0.9437E-01  0.9111E-01
     -7.416  0.6772E-01  0.9742E-01
     -7.322  0.6075E-01  0.1031E+00
     -7.229  0.7153E-01  0.1098E+00
     -7.136  0.8352E-01  0.1176E+00
     -7.043  0.1056E+00  0.1274E+00
     -6.949  0.1521E+00  0.1416E+00
     -6.856  0.1700E+00  0.1574E+00
     -6.763  0.1503E+00  0.1715E+00
     -6.669  0.1384E+00  0.1844E+00
     -6.576  0.1476E+00  0.1981E+00
     -6.483  0.1587E+00  0.2129E+00
     -6.390  0.1596E+00  0.2278E+00
     -6.296  0.1486E+00  0.2417E+00
     -6.203  0.1466E+00  0.2554E+00
     -6.110  0.1560E+00  0.2699E+00
     -6.016  0.1676E+00  0.2856E+00
     -5.923  0.1802E+00  0.3024E+00
     -5.830  0.1784E+00  0.3190E+00
     -5.737  0.1622E+00  0.3341E+00
     -5.643  0.1582E+00  0.3489E+00
     -5.550  0.1620E+00  0.3640E+00
     -5.457  0.1687E+00  0.3797E+00
     -5.364  0.1716E+00  0.3957E+00
     -5.270  0.1763E+00  0.4122E+00
     -5.177  0.1861E+00  0.4295E+00
     -5.084  0.1869E+00  0.4470E+00
     -4.990  0.1729E+00  0.4631E+00
     -4.897  0.1630E+00  0.4783E+00
     -4.804  0.1832E+00  0.4954E+00
     -4.711  0.1991E+00  0.5140E+00
     -4.617  0.1996E+00  0.5326E+00
     -4.524  0.1983E+00  0.5511E+00
     -4.431  0.1965E+00  0.5694E+00
     -4.337  0.1998E+00  0.5881E+00
     -4.244  0.2130E+00  0.6079E+00
     -4.151  0.2040E+00  0.6270E+00
     -4.058  0.1974E+00  0.6454E+00
     -3.964  0.2018E+00  0.6642E+00
     -3.871  0.1981E+00  0.6827E+00
     -3.778  0.1922E+00  0.7006E+00
     -3.684  0.1949E+00  0.7188E+00
     -3.591  0.2113E+00  0.7385E+00
     -3.498  0.2238E+00  0.7594E+00
     -3.405  0.2237E+00  0.7803E+00
     -3.311  0.2055E+00  0.7994E+00
     -3.218  0.1775E+00  0.8160E+00
     -3.125  0.1582E+00  0.8307E+00
     -3.032  0.1610E+00  0.8458E+00
     -2.938  0.1658E+00  0.8612E+00
     -2.845  0.1641E+00  0.8765E+00
     -2.752  0.1568E+00  0.8912E+00
     -2.658  0.1599E+00  0.9061E+00
     -2.565  0.1679E+00  0.9217E+00
     -2.472  0.1702E+00  0.9376E+00
     -2.379  0.1727E+00  0.9537E+00
     -2.285  0.1692E+00  0.9695E+00
     -2.192  0.1657E+00  0.9850E+00
     -2.099  0.1559E+00  0.9995E+00
     -2.005  0.1504E+00  0.1014E+01
     -1.912  0.1541E+00  0.1028E+01
     -1.819  0.1438E+00  0.1041E+01
     -1.726  0.1328E+00  0.1054E+01
     -1.632  0.1288E+00  0.1066E+01
     -1.539  0.1172E+00  0.1077E+01
     -1.446  0.9580E-01  0.1086E+01
     -1.352  0.7439E-01  0.1093E+01
     -1.259  0.6166E-01  0.1098E+01
     -1.166  0.6334E-01  0.1104E+01
     -1.073  0.7241E-01  0.1111E+01
     -0.979  0.8970E-01  0.1119E+01
     -0.886  0.9402E-01  0.1128E+01
     -0.793  0.8061E-01  0.1136E+01
     -0.700  0.5620E-01  0.1141E+01
     -0.606  0.4120E-01  0.1145E+01
     -0.513  0.4506E-01  0.1149E+01
     -0.420  0.4404E-01  0.1153E+01
     -0.326  0.2870E-01  0.1156E+01
     -0.233  0.1569E-01  0.1157E+01
     -0.140  0.1193E-01  0.1158E+01
     -0.047  0.2183E-01  0.1160E+01
      0.047  0.4331E-01  0.1164E+01
      0.140  0.4476E-01  0.1168E+01
      0.233  0.3234E-01  0.1172E+01
      0.327  0.3949E-01  0.1175E+01
      0.420  0.5557E-01  0.1180E+01
      0.513  0.5497E-01  0.1186E+01
      0.606  0.3899E-01  0.1189E+01
      0.700  0.2552E-01  0.1192E+01
      0.793  0.2256E-01  0.1194E+01
      0.886  0.2674E-01  0.1196E+01
      0.980  0.1868E-01  0.1198E+01
      1.073  0.1778E-01  0.1200E+01
      1.166  0.2381E-01  0.1202E+01
      1.259  0.2680E-01  0.1204E+01
      1.353  0.3111E-01  0.1207E+01
      1.446  0.2822E-01  0.1210E+01
      1.539  0.2931E-01  0.1213E+01
      1.632  0.3981E-01  0.1216E+01
      1.726  0.3961E-01  0.1220E+01
      1.819  0.3385E-01  0.1223E+01
      1.912  0.3629E-01  0.1226E+01
      2.006  0.3282E-01  0.1230E+01
      2.099  0.2231E-01  0.1232E+01
      2.192  0.2307E-01  0.1234E+01
      2.285  0.2074E-01  0.1236E+01
      2.379  0.1519E-01  0.1237E+01
      2.472  0.2277E-01  0.1239E+01
      2.565  0.2362E-01  0.1241E+01
      2.659  0.1688E-01  0.1243E+01
      2.752  0.2136E-01  0.1245E+01
      2.845  0.3010E-01  0.1248E+01
      2.938  0.3101E-01  0.1251E+01
      3.032  0.3150E-01  0.1254E+01
      3.125  0.3436E-01  0.1257E+01
      3.218  0.3316E-01  0.1260E+01
      3.312  0.2905E-01  0.1263E+01
      3.405  0.2388E-01  0.1265E+01
      3.498  0.2659E-01  0.1267E+01
      3.591  0.2739E-01  0.1270E+01
      3.685  0.3256E-01  0.1273E+01
      3.778  0.4132E-01  0.1277E+01
      3.871  0.4589E-01  0.1281E+01
      3.965  0.4829E-01  0.1286E+01
      4.058  0.4026E-01  0.1289E+01
      4.151  0.3967E-01  0.1293E+01
      4.244  0.4287E-01  0.1297E+01
      4.338  0.4491E-01  0.1301E+01
      4.431  0.4385E-01  0.1305E+01
      4.524  0.4649E-01  0.1310E+01
      4.617  0.5412E-01  0.1315E+01
      4.711  0.5619E-01  0.1320E+01
      4.804  0.6037E-01  0.1326E+01
      4.897  0.5525E-01  0.1331E+01
      4.991  0.5419E-01  0.1336E+01
      5.084  0.5231E-01  0.1341E+01
      5.177  0.2923E-01  0.1343E+01
      5.270  0.6074E-02  0.1344E+01
      5.364  0.3429E-03  0.1344E+01
      5.457  0.4379E-05  0.1344E+01
      5.550  0.1148E-07  0.1344E+01
      5.644  0.5870E-11  0.1344E+01
      5.737  0.5681E-15  0.1344E+01
      5.830  0.0000E+00  0.1344E+01
      5.923  0.0000E+00  0.1344E+01
      6.017  0.0000E+00  0.1344E+01
      6.110  0.0000E+00  0.1344E+01
      6.203  0.0000E+00  0.1344E+01
      6.297  0.0000E+00  0.1344E+01
      6.390  0.0000E+00  0.1344E+01
