unknown system                          
           1
    11.002582    0.000000    0.000000
     5.501291    9.528515    0.000000
     0.000000    0.000000   26.191785
   Au   O    Pd
  24   8  24
Direct configuration=     1
   0.08333333  0.08333333  0.38179910
   0.33333333  0.83333333  0.38179910
   0.08333333  0.83333333  0.38179910
   0.66666667  0.91666667  0.46754708
   0.83333333  0.83333333  0.38179910
   0.08333333  0.33333333  0.38179910
   0.66666667  0.66666667  0.46754708
   0.83333333  0.58333333  0.38179910
   0.08333333  0.58333333  0.38179910
   0.91666667  0.66666667  0.46754708
   0.66666667  0.41666667  0.46754708
   0.83333333  0.08333333  0.38179910
   0.83333333  0.33333333  0.38179910
   0.33333333  0.08333333  0.38179910
   0.16666667  0.16666667  0.46754708
   0.41666667  0.91666667  0.46754708
   0.58333333  0.83333333  0.38179910
   0.33333333  0.33333333  0.38179910
   0.16666667  0.41666667  0.46754708
   0.41666667  0.66666667  0.46754708
   0.33333333  0.58333333  0.38179910
   0.58333333  0.58333333  0.38179910
   0.58333333  0.33333333  0.38179910
   0.58333333  0.08333333  0.38179910
   0.33333333  0.83333333  0.61820090
   0.08333333  0.08333333  0.61820090
   0.83333333  0.83333333  0.61820090
   0.83333333  0.58333333  0.61820090
   0.58333333  0.58333333  0.61820090
   0.83333333  0.33333333  0.61820090
   0.58333333  0.83333333  0.61820090
   0.83333333  0.08333333  0.61820090
   0.16666667  0.66666667  0.46754708
   0.41666667  0.41666667  0.46754708
   0.50000000  0.25000000  0.55329505
   0.25000000  0.50000000  0.55329505
   0.50000000  0.00000000  0.55329505
   0.41666667  0.16666667  0.46754708
   0.75000000  0.75000000  0.55329505
   0.25000000  0.25000000  0.55329505
   0.25000000  0.75000000  0.55329505
   0.25000000  0.00000000  0.55329505
   0.16666667  0.91666667  0.46754708
   0.00000000  0.75000000  0.55329505
   0.66666667  0.16666667  0.46754708
   0.75000000  0.00000000  0.55329505
   0.91666667  0.91666667  0.46754708
   0.00000000  0.50000000  0.55329505
   0.75000000  0.25000000  0.55329505
   0.00000000  0.25000000  0.55329505
   0.91666667  0.41666667  0.46754708
   0.75000000  0.50000000  0.55329505
   0.00000000  0.00000000  0.55329505
   0.91666667  0.16666667  0.46754708
   0.50000000  0.50000000  0.55329505
   0.50000000  0.75000000  0.55329505
Direct configuration=     2
   0.08333333  0.08333333  0.38179910
   0.33333333  0.83333333  0.38179910
   0.08333333  0.83333333  0.38179910
   0.66715384  0.91853583  0.46890777
   0.83333333  0.83333333  0.38179910
   0.08333333  0.33333333  0.38179910
   0.66769199  0.66562126  0.46904581
   0.83333333  0.58333333  0.38179910
   0.08333333  0.58333333  0.38179910
   0.91752444  0.66686606  0.46873338
   0.66810314  0.41433673  0.46889028
   0.83333333  0.08333333  0.38179910
   0.83333333  0.33333333  0.38179910
   0.33333333  0.08333333  0.38179910
   0.16541582  0.16653281  0.46910081
   0.41533656  0.91754959  0.46892507
   0.58333333  0.83333333  0.38179910
   0.33333333  0.33333333  0.38179910
   0.16743291  0.41681917  0.46911716
   0.41463471  0.66687341  0.46871805
   0.33333333  0.58333333  0.38179910
   0.58333333  0.58333333  0.38179910
   0.58333333  0.33333333  0.38179910
   0.58333333  0.08333333  0.38179910
   0.33218975  0.83320578  0.61402087
   0.08407549  0.08339052  0.61415143
   0.83456474  0.83342190  0.61403448
   0.83592826  0.58205883  0.61422129
   0.58204658  0.58178242  0.61424234
   0.83333872  0.33312086  0.61426020
   0.58202256  0.83616838  0.61427882
   0.83255964  0.08321952  0.61414528
   0.16640168  0.66785948  0.46901213
   0.41690412  0.41617751  0.46877189
   0.49921335  0.25033395  0.55376318
   0.25033946  0.49979568  0.55392792
   0.50013274 -0.00009037  0.55560545
   0.41750571  0.16697811  0.46874397
   0.75050477  0.75014385  0.55811360
   0.25078210  0.25027480  0.55413385
   0.24998664  0.75022316  0.55538968
   0.24934418 -0.00045902  0.55681211
   0.16486437  0.91696053  0.46836852
  -0.00024329  0.75032255  0.55540733
   0.66711021  0.16653242  0.46879587
   0.75089486 -0.00021621  0.55654978
   0.91753665  0.91762211  0.46836988
  -0.00086967  0.50043257  0.55566803
   0.75046847  0.24936577  0.55659472
  -0.00006780  0.24949543  0.55666308
   0.91661303  0.41563695  0.46858383
   0.75066810  0.49925172  0.55769465
  -0.00049159  0.00072706  0.55644325
   0.91670153  0.16584692  0.46795975
   0.49986078  0.50028099  0.55555814
   0.49910870  0.75039576  0.55808407
Direct configuration=     3
   0.08333333  0.08333333  0.38179910
   0.33333333  0.83333333  0.38179910
   0.08333333  0.83333333  0.38179910
   0.66861535  0.92414332  0.47298987
   0.83333333  0.83333333  0.38179910
   0.08333333  0.33333333  0.38179910
   0.67076798  0.66248503  0.47354200
   0.83333333  0.58333333  0.38179910
   0.08333333  0.58333333  0.38179910
   0.92009777  0.66746426  0.47229228
   0.67241255  0.40734694  0.47291991
   0.83333333  0.08333333  0.38179910
   0.83333333  0.33333333  0.38179910
   0.33333333  0.08333333  0.38179910
   0.16166330  0.16613123  0.47376201
   0.41134624  0.92019835  0.47305904
   0.58333333  0.83333333  0.38179910
   0.33333333  0.33333333  0.38179910
   0.16973164  0.41727669  0.47382740
   0.40853882  0.66749366  0.47223096
   0.33333333  0.58333333  0.38179910
   0.58333333  0.58333333  0.38179910
   0.58333333  0.33333333  0.38179910
   0.58333333  0.08333333  0.38179910
   0.32875902  0.83282311  0.60148076
   0.08630195  0.08356210  0.60200301
   0.83825896  0.83368760  0.60153523
   0.84371302  0.57823530  0.60228245
   0.57818632  0.57712969  0.60236665
   0.83335488  0.33248345  0.60243811
   0.57809023  0.84467354  0.60251256
   0.83023857  0.08287810  0.60197841
   0.16560672  0.67143793  0.47340728
   0.41761650  0.41471004  0.47244633
   0.49685340  0.25133579  0.55516756
   0.25135784  0.49918273  0.55582653
   0.50053098 -0.00036149  0.56253664
   0.42002286  0.16791244  0.47233463
   0.75201907  0.75057542  0.57256923
   0.25312838  0.25109920  0.55665026
   0.24994656  0.75089265  0.56167358
   0.24737671 -0.00183607  0.56736327
   0.15945750  0.91784212  0.47083284
  -0.00097317  0.75129021  0.56174416
   0.66844086  0.16612967  0.47254226
   0.75357945 -0.00086482  0.56631396
   0.92014660  0.92048844  0.47083828
  -0.00347868  0.50173030  0.56278696
   0.75187389  0.24746308  0.56649373
  -0.00027121  0.24798173  0.56676716
   0.91645212  0.41254779  0.47169410
   0.75267239  0.49700687  0.57089345
  -0.00196634  0.00290826  0.56588784
   0.91680613  0.16338767  0.46919777
   0.49944313  0.50112395  0.56234741
   0.49643481  0.75158302  0.57245114
Direct configuration=     4
   0.08333333  0.08333333  0.38179910
   0.33333333  0.83333333  0.38179910
   0.08333333  0.83333333  0.38179910
   0.66769872  0.92062641  0.47042966
   0.83333333  0.83333333  0.38179910
   0.08333333  0.33333333  0.38179910
   0.66883878  0.66445201  0.47072207
   0.83333333  0.58333333  0.38179910
   0.08333333  0.58333333  0.38179910
   0.91848383  0.66708908  0.47006020
   0.66970977  0.41173081  0.47039260
   0.83333333  0.08333333  0.38179910
   0.83333333  0.33333333  0.38179910
   0.33333333  0.08333333  0.38179910
   0.16401681  0.16638309  0.47083860
   0.41384889  0.91853709  0.47046629
   0.58333333  0.83333333  0.38179910
   0.33333333  0.33333333  0.38179910
   0.16828992  0.41698974  0.47087323
   0.41236205  0.66710465  0.47002773
   0.33333333  0.58333333  0.38179910
   0.58333333  0.58333333  0.38179910
   0.58333333  0.33333333  0.38179910
   0.58333333  0.08333333  0.38179910
   0.33091071  0.83306311  0.60934568
   0.08490555  0.08345449  0.60962227
   0.83594201  0.83352096  0.60937452
   0.83883057  0.58063334  0.60977026
   0.58060740  0.58004779  0.60981485
   0.83334475  0.33288322  0.60985270
   0.58055651  0.83933927  0.60989213
   0.83169430  0.08309223  0.60960924
   0.16610530  0.66919360  0.47065072
   0.41716971  0.41563041  0.47014179
   0.49833351  0.25070745  0.55428676
   0.25071913  0.49956716  0.55463576
   0.50028121 -0.00019145  0.55818953
   0.41844415  0.16732644  0.47008264
   0.75106933  0.75030475  0.56350293
   0.25165684  0.25058215  0.55507202
   0.24997170  0.75047276  0.55773244
   0.24861067 -0.00097241  0.56074578
   0.16284859  0.91728920  0.46928727
  -0.00051540  0.75068331  0.55776982
   0.66760630  0.16638227  0.47019260
   0.75189573 -0.00045802  0.56019005
   0.91850969  0.91869073  0.46929014
  -0.00184236  0.50091639  0.55832210
   0.75099244  0.24865641  0.56028526
  -0.00014364  0.24893110  0.56043008
   0.91655304  0.41448525  0.46974340
   0.75141534  0.49841479  0.56261542
  -0.00104140  0.00154025  0.55996437
   0.91674053  0.16493006  0.46842131
   0.49970507  0.50059526  0.55808931
   0.49811182  0.75083839  0.56344039
Direct configuration=     5
   0.08333333  0.08333333  0.38179910
   0.33333333  0.83333333  0.38179910
   0.08333333  0.83333333  0.38179910
   0.66803940  0.92193355  0.47138122
   0.83333333  0.83333333  0.38179910
   0.08333333  0.33333333  0.38179910
   0.66955581  0.66372094  0.47177016
   0.83333333  0.58333333  0.38179910
   0.08333333  0.58333333  0.38179910
   0.91908369  0.66722852  0.47088981
   0.67071432  0.41010144  0.47133193
   0.83333333  0.08333333  0.38179910
   0.83333333  0.33333333  0.38179910
   0.33333333  0.08333333  0.38179910
   0.16314207  0.16628948  0.47192515
   0.41291872  0.91915454  0.47142995
   0.58333333  0.83333333  0.38179910
   0.33333333  0.33333333  0.38179910
   0.16882577  0.41709639  0.47197121
   0.41094106  0.66724923  0.47084661
   0.33333333  0.58333333  0.38179910
   0.58333333  0.58333333  0.38179910
   0.58333333  0.33333333  0.38179910
   0.58333333  0.08333333  0.38179910
   0.33011098  0.83297391  0.60642250
   0.08542456  0.08349448  0.60679039
   0.83680316  0.83358289  0.60646087
   0.84064525  0.57974205  0.60698724
   0.57970755  0.57896321  0.60704655
   0.83334851  0.33273464  0.60709689
   0.57963986  0.84132188  0.60714934
   0.83115325  0.08301265  0.60677306
   0.16591999  0.67002776  0.47167526
   0.41733577  0.41528833  0.47099832
   0.49778339  0.25094099  0.55461413
   0.25095652  0.49942428  0.55507834
   0.50037404 -0.00025465  0.55980524
   0.41903092  0.16754424  0.47091964
   0.75142232  0.75040535  0.56687264
   0.25220377  0.25077432  0.55565861
   0.24996235  0.75062882  0.55919726
   0.24815204 -0.00129341  0.56320533
   0.16158821  0.91749471  0.46986172
  -0.00068554  0.75090888  0.55924697
   0.66791648  0.16628838  0.47106591
   0.75252152 -0.00060922  0.56246615
   0.91911808  0.91935889  0.46986555
  -0.00245054  0.50121890  0.55998157
   0.75132005  0.24821288  0.56259278
  -0.00019105  0.24857824  0.56278540
   0.91651553  0.41376515  0.47046842
   0.75188255  0.49789150  0.56569214
  -0.00138518  0.00204870  0.56216597
   0.91676491  0.16435679  0.46870990
   0.49960772  0.50079176  0.55967194
   0.49748852  0.75111515  0.56678945
Direct configuration=     6
   0.08333333  0.08333333  0.38179910
   0.33333333  0.83333333  0.38179910
   0.08333333  0.83333333  0.38179910
   0.66793718  0.92154134  0.47109570
   0.83333333  0.83333333  0.38179910
   0.08333333  0.33333333  0.38179910
   0.66934067  0.66394029  0.47145569
   0.83333333  0.58333333  0.38179910
   0.08333333  0.58333333  0.38179910
   0.91890370  0.66718669  0.47064089
   0.67041291  0.41059033  0.47105009
   0.83333333  0.08333333  0.38179910
   0.83333333  0.33333333  0.38179910
   0.33333333  0.08333333  0.38179910
   0.16340453  0.16631757  0.47159913
   0.41319782  0.91896928  0.47114081
   0.58333333  0.83333333  0.38179910
   0.33333333  0.33333333  0.38179910
   0.16866499  0.41706439  0.47164177
   0.41136742  0.66720585  0.47060091
   0.33333333  0.58333333  0.38179910
   0.58333333  0.58333333  0.38179910
   0.58333333  0.33333333  0.38179910
   0.58333333  0.08333333  0.38179910
   0.33035094  0.83300067  0.60729959
   0.08526883  0.08348248  0.60764009
   0.83654478  0.83356431  0.60733510
   0.84010076  0.58000948  0.60782228
   0.57997755  0.57928864  0.60787717
   0.83334738  0.33277922  0.60792377
   0.57991490  0.84072700  0.60797231
   0.83131559  0.08303653  0.60762405
   0.16597559  0.66977747  0.47136785
   0.41728594  0.41539097  0.47074132
   0.49794846  0.25087092  0.55451590
   0.25088530  0.49946715  0.55494554
   0.50034619 -0.00023569  0.55932045
   0.41885486  0.16747889  0.47066850
   0.75131641  0.75037517  0.56586157
   0.25203967  0.25071666  0.55548261
   0.24996516  0.75058199  0.55875775
   0.24828965 -0.00119709  0.56246735
   0.16196638  0.91743305  0.46968935
  -0.00063449  0.75084120  0.55880376
   0.66782341  0.16631655  0.47080387
   0.75233375 -0.00056385  0.56178321
   0.91893554  0.91915841  0.46969290
  -0.00226805  0.50112813  0.55948365
   0.75122175  0.24834596  0.56190042
  -0.00017683  0.24868412  0.56207869
   0.91652678  0.41398122  0.47025088
   0.75174237  0.49804852  0.56476898
  -0.00128203  0.00189615  0.56150539
   0.91675759  0.16452880  0.46862331
   0.49963693  0.50073280  0.55919707
   0.49767554  0.75103211  0.56578457
Direct configuration=     7
   0.08333333  0.08333333  0.38179910
   0.33333333  0.83333333  0.38179910
   0.08333333  0.83333333  0.38179910
   0.66888843  0.92053787  0.47302122
   0.83333333  0.83333333  0.38179910
   0.08333333  0.33333333  0.38179910
   0.66854831  0.66456268  0.47393160
   0.83333333  0.58333333  0.38179910
   0.08333333  0.58333333  0.38179910
   0.91830691  0.66785169  0.47220124
   0.67013709  0.41072526  0.47297421
   0.83333333  0.08333333  0.38179910
   0.83333333  0.33333333  0.38179910
   0.33333333  0.08333333  0.38179910
   0.16286621  0.16607849  0.47329453
   0.41330439  0.91823367  0.47311477
   0.58333333  0.83333333  0.38179910
   0.33333333  0.33333333  0.38179910
   0.16716334  0.41747626  0.47250375
   0.41255220  0.66712433  0.47208225
   0.33333333  0.58333333  0.38179910
   0.58333333  0.58333333  0.38179910
   0.58333333  0.33333333  0.38179910
   0.58333333  0.08333333  0.38179910
   0.32661126  0.83273704  0.60696890
   0.08550812  0.08397325  0.60694248
   0.84021576  0.83359815  0.60674751
   0.84530873  0.57691983  0.60781025
   0.57752696  0.57635381  0.60752491
   0.83389132  0.33162365  0.60720568
   0.57689624  0.84658541  0.60763300
   0.83010745  0.08359637  0.60676374
   0.16500978  0.67067170  0.47276705
   0.41850961  0.41578021  0.47163110
   0.49762185  0.25098248  0.55556967
   0.25084266  0.50008690  0.55635760
   0.49781690  0.00512487  0.55994004
   0.41903151  0.16650972  0.47153175
   0.75077760  0.75095502  0.56614906
   0.25253124  0.25059634  0.55678821
   0.24692662  0.74753219  0.55951180
   0.25077133  0.00231136  0.56306307
   0.16163444  0.91801087  0.47114610
   0.00538039  0.74781089  0.55947770
   0.66900229  0.16597132  0.47205395
   0.74682228  0.00266226  0.56244647
   0.91858731  0.91960510  0.47110532
   0.00394314  0.49811602  0.56015613
   0.74494680  0.25098202  0.56281174
   0.00336642  0.25129471  0.56295652
   0.91699986  0.41361230  0.47186077
   0.75099509  0.49792066  0.56504143
   0.00167277 -0.00376926  0.56236186
   0.91672305  0.16415443  0.46992188
   0.49715872  0.49795995  0.55987023
   0.49832549  0.75065773  0.56608465
Direct configuration=     8
   0.08333333  0.08333333  0.38179910
   0.33333333  0.83333333  0.38179910
   0.08333333  0.83333333  0.38179910
   0.67007659  0.91928449  0.47542628
   0.83333333  0.83333333  0.38179910
   0.08333333  0.33333333  0.38179910
   0.66755862  0.66534008  0.47702415
   0.83333333  0.58333333  0.38179910
   0.08333333  0.58333333  0.38179910
   0.91756148  0.66868231  0.47415021
   0.66979258  0.41089380  0.47537753
   0.83333333  0.08333333  0.38179910
   0.83333333  0.33333333  0.38179910
   0.33333333  0.08333333  0.38179910
   0.16219381  0.16577986  0.47541217
   0.41343752  0.91731486  0.47558036
   0.58333333  0.83333333  0.38179910
   0.33333333  0.33333333  0.38179910
   0.16528771  0.41799071  0.47358042
   0.41403205  0.66702251  0.47393252
   0.33333333  0.58333333  0.38179910
   0.58333333  0.58333333  0.38179910
   0.58333333  0.33333333  0.38179910
   0.58333333  0.08333333  0.38179910
   0.32194019  0.83240775  0.60655586
   0.08580700  0.08458624  0.60607113
   0.84480101  0.83364041  0.60601357
   0.85181376  0.57306068  0.60779521
   0.57446603  0.57268806  0.60708492
   0.83457074  0.33018027  0.60630874
   0.57312579  0.85390289  0.60720918
   0.82859842  0.08429565  0.60568916
   0.16380343  0.67178864  0.47451473
   0.42003805  0.41626638  0.47274249
   0.49721391  0.25112184  0.55688588
   0.25078940  0.50086100  0.55812133
   0.49465769  0.01182050  0.56071393
   0.41925217  0.16529917  0.47261000
   0.75010461  0.75167929  0.56650816
   0.25314523  0.25044606  0.55841897
   0.24313133  0.74372281  0.56045366
   0.25387107  0.00669360  0.56380715
   0.16121983  0.91873260  0.47296566
   0.01289330  0.74402588  0.56031948
   0.67047476  0.16554010  0.47361536
   0.73993815  0.00669185  0.56327491
   0.91815236  0.92016303  0.47286952
   0.01170126  0.49435373  0.56099609
   0.73710906  0.25427460  0.56395004
   0.00779212  0.25455549  0.56405297
   0.91759076  0.41315150  0.47387160
   0.75006171  0.49776097  0.56538173
   0.00536347 -0.01084566  0.56343163
   0.91667989  0.16368683  0.47154387
   0.49406331  0.49449651  0.56071104
   0.49913731  0.75019010  0.56645947
Direct configuration=     9
   0.08333333  0.08333333  0.38179910
   0.33333333  0.83333333  0.38179910
   0.08333333  0.83333333  0.38179910
   0.66962588  0.91892801  0.47615756
   0.83333333  0.83333333  0.38179910
   0.08333333  0.33333333  0.38179910
   0.66793877  0.66518967  0.47820550
   0.83333333  0.58333333  0.38179910
   0.08333333  0.58333333  0.38179910
   0.91674179  0.66888852  0.47518922
   0.67042959  0.41154033  0.47601820
   0.83333333  0.08333333  0.38179910
   0.83333333  0.33333333  0.38179910
   0.33333333  0.08333333  0.38179910
   0.16285757  0.16559313  0.47559266
   0.41386886  0.91712693  0.47637565
   0.58333333  0.83333333  0.38179910
   0.33333333  0.33333333  0.38179910
   0.16684670  0.41737165  0.47372142
   0.41385741  0.66734409  0.47491033
   0.33333333  0.58333333  0.38179910
   0.58333333  0.58333333  0.38179910
   0.58333333  0.33333333  0.38179910
   0.58333333  0.08333333  0.38179910
   0.31968553  0.83129160  0.60588779
   0.08597415  0.08457849  0.60644802
   0.84841729  0.83236456  0.60554703
   0.85590508  0.57091649  0.60775020
   0.57205196  0.57083268  0.60784970
   0.83580293  0.32788768  0.60642138
   0.57030845  0.85928257  0.60809851
   0.82836278  0.08484595  0.60612830
   0.16469400  0.67084121  0.47420912
   0.41891545  0.41596393  0.47309812
   0.49367848  0.25292300  0.55804606
   0.25268310  0.49719711  0.55958188
   0.49266874  0.01597023  0.56166474
   0.41865170  0.16588229  0.47282163
   0.75315580  0.75067645  0.56735614
   0.25503784  0.25237365  0.55989069
   0.24583189  0.74378601  0.56195463
   0.25622882  0.00485992  0.56525348
   0.16222620  0.91800351  0.47398172
   0.01065558  0.74362807  0.56177527
   0.67026901  0.16529604  0.47389972
   0.73886757  0.00581479  0.56415532
   0.91775070  0.91998830  0.47383265
   0.01450265  0.49417772  0.56241145
   0.73632509  0.25508022  0.56497618
   0.00685483  0.25646475  0.56518090
   0.91657146  0.41406857  0.47483631
   0.75066595  0.49918508  0.56574872
   0.00580267 -0.01150821  0.56403297
   0.91641917  0.16410681  0.47287914
   0.49043791  0.49380646  0.56155784
   0.49563020  0.75098588  0.56732831
Direct configuration=    10
   0.08333333  0.08333333  0.38179910
   0.33333333  0.83333333  0.38179910
   0.08333333  0.83333333  0.38179910
   0.66959600  0.91890439  0.47620603
   0.83333333  0.83333333  0.38179910
   0.08333333  0.33333333  0.38179910
   0.66796397  0.66517970  0.47828379
   0.83333333  0.58333333  0.38179910
   0.08333333  0.58333333  0.38179910
   0.91668747  0.66890219  0.47525808
   0.67047181  0.41158317  0.47606066
   0.83333333  0.08333333  0.38179910
   0.83333333  0.33333333  0.38179910
   0.33333333  0.08333333  0.38179910
   0.16290156  0.16558075  0.47560462
   0.41389745  0.91711448  0.47642836
   0.58333333  0.83333333  0.38179910
   0.33333333  0.33333333  0.38179910
   0.16695002  0.41733062  0.47373077
   0.41384583  0.66736541  0.47497514
   0.33333333  0.58333333  0.38179910
   0.58333333  0.58333333  0.38179910
   0.58333333  0.33333333  0.38179910
   0.58333333  0.08333333  0.38179910
   0.31953611  0.83121763  0.60584352
   0.08598523  0.08457798  0.60647300
   0.84865695  0.83228000  0.60551611
   0.85617623  0.57077439  0.60774721
   0.57189197  0.57070972  0.60790038
   0.83588459  0.32773575  0.60642884
   0.57012174  0.85963910  0.60815745
   0.82834716  0.08488242  0.60615740
   0.16475302  0.67077842  0.47418887
   0.41884105  0.41594388  0.47312168
   0.49344417  0.25304237  0.55812295
   0.25280860  0.49695429  0.55967868
   0.49253693  0.01624524  0.56172775
   0.41861190  0.16592094  0.47283565
   0.75335801  0.75060999  0.56741234
   0.25516327  0.25250139  0.55998822
   0.24601086  0.74379020  0.56205410
   0.25638508  0.00473839  0.56534933
   0.16229289  0.91795520  0.47404905
   0.01050728  0.74360171  0.56187175
   0.67025538  0.16527987  0.47391857
   0.73879662  0.00575667  0.56421367
   0.91772408  0.91997672  0.47389648
   0.01468830  0.49416605  0.56250525
   0.73627314  0.25513361  0.56504418
   0.00679271  0.25659128  0.56525565
   0.91650391  0.41412934  0.47490025
   0.75070599  0.49927946  0.56577304
   0.00583178 -0.01155212  0.56407282
   0.91640189  0.16413465  0.47296764
   0.49019764  0.49376072  0.56161396
   0.49539778  0.75103862  0.56738589
Direct configuration=    11
   0.08333333  0.08333333  0.38179910
   0.33333333  0.83333333  0.38179910
   0.08333333  0.83333333  0.38179910
   0.66828754  0.91925793  0.47640516
   0.83333333  0.83333333  0.38179910
   0.08333333  0.33333333  0.38179910
   0.66802135  0.66536314  0.47881369
   0.83333333  0.58333333  0.38179910
   0.08333333  0.58333333  0.38179910
   0.91696179  0.66822507  0.47577710
   0.67019226  0.41220702  0.47630698
   0.83333333  0.08333333  0.38179910
   0.83333333  0.33333333  0.38179910
   0.33333333  0.08333333  0.38179910
   0.16363041  0.16587419  0.47581519
   0.41450899  0.91733675  0.47668276
   0.58333333  0.83333333  0.38179910
   0.33333333  0.33333333  0.38179910
   0.16823282  0.41694479  0.47379400
   0.41362927  0.66714231  0.47546917
   0.33333333  0.58333333  0.38179910
   0.58333333  0.58333333  0.38179910
   0.58333333  0.33333333  0.38179910
   0.58333333  0.08333333  0.38179910
   0.31881823  0.83099619  0.60722977
   0.08592579  0.08477232  0.60742051
   0.84946804  0.83211435  0.60671444
   0.85827050  0.56989579  0.60848205
   0.57040375  0.56948565  0.60862308
   0.83545649  0.32813877  0.60718746
   0.56856617  0.86279662  0.60893178
   0.82839474  0.08477201  0.60720714
   0.16580011  0.66935854  0.47417620
   0.41777622  0.41564638  0.47318485
   0.49213865  0.25400305  0.55907783
   0.25286530  0.49576236  0.56088597
   0.49181496  0.01783420  0.56291691
   0.41812930  0.16658991  0.47278430
   0.75316183  0.75027049  0.56861357
   0.25500573  0.25386487  0.56119391
   0.24569113  0.74195468  0.56235503
   0.25620674  0.00526431  0.56641810
   0.16305596  0.91707671  0.47473568
   0.01270852  0.74162622  0.56224956
   0.66907848  0.16562705  0.47412949
   0.73907698  0.00583073  0.56505559
   0.91792330  0.91937726  0.47454472
   0.01742336  0.49369091  0.56365971
   0.73635024  0.25490520  0.56560863
   0.00766192  0.25581522  0.56593084
   0.91636458  0.41502743  0.47547780
   0.75022189  0.49990909  0.56693207
   0.00508117 -0.01023821  0.56441697
   0.91644389  0.16446161  0.47404935
   0.48869830  0.49378681  0.56265415
   0.49569098  0.75078881  0.56863711
Direct configuration=    12
   0.08333333  0.08333333  0.38179910
   0.33333333  0.83333333  0.38179910
   0.08333333  0.83333333  0.38179910
   0.66696152  0.91961621  0.47660697
   0.83333333  0.83333333  0.38179910
   0.08333333  0.33333333  0.38179910
   0.66807950  0.66554904  0.47935069
   0.83333333  0.58333333  0.38179910
   0.08333333  0.58333333  0.38179910
   0.91723980  0.66753887  0.47630309
   0.66990896  0.41283924  0.47655661
   0.83333333  0.08333333  0.38179910
   0.83333333  0.33333333  0.38179910
   0.33333333  0.08333333  0.38179910
   0.16436903  0.16617157  0.47602859
   0.41512874  0.91756199  0.47694057
   0.58333333  0.83333333  0.38179910
   0.33333333  0.33333333  0.38179910
   0.16953283  0.41655378  0.47385807
   0.41340981  0.66691621  0.47596983
   0.33333333  0.58333333  0.38179910
   0.58333333  0.58333333  0.38179910
   0.58333333  0.33333333  0.38179910
   0.58333333  0.08333333  0.38179910
   0.31809073  0.83077178  0.60863462
   0.08586555  0.08496927  0.60838073
   0.85029002  0.83194647  0.60792884
   0.86039287  0.56900540  0.60922675
   0.56889556  0.56824515  0.60935548
   0.83502264  0.32854720  0.60795625
   0.56698973  0.86599649  0.60971649
   0.82844297  0.08466013  0.60827095
   0.16686124  0.66791961  0.47416335
   0.41669711  0.41534490  0.47324887
   0.49081560  0.25497662  0.56004551
   0.25292277  0.49455445  0.56210945
   0.49108331  0.01944448  0.56412202
   0.41764022  0.16726787  0.47273226
   0.75296303  0.74992645  0.56983091
   0.25484608  0.25524663  0.56241578
   0.24536710  0.74009454  0.56265999
   0.25602601  0.00579729  0.56750121
   0.16382927  0.91618644  0.47543151
   0.01493929  0.73962424  0.56263243
   0.66788579  0.16597888  0.47434325
   0.73936109  0.00590578  0.56590880
   0.91812518  0.91876977  0.47520167
   0.02019511  0.49320940  0.56482967
   0.73642837  0.25467373  0.56618066
   0.00854278  0.25502874  0.56661509
   0.91622338  0.41593757  0.47606310
   0.74973129  0.50054717  0.56810665
   0.00432050 -0.00890667  0.56476574
   0.91648646  0.16479295  0.47514558
   0.48717884  0.49381324  0.56370830
   0.49598811  0.75053564  0.56990512
Direct configuration=    13
   0.08333333  0.08333333  0.38179910
   0.33333333  0.83333333  0.38179910
   0.08333333  0.83333333  0.38179910
   0.66679587  0.91998521  0.47721762
   0.83333333  0.83333333  0.38179910
   0.08333333  0.33333333  0.38179910
   0.66752309  0.66596340  0.47990140
   0.83333333  0.58333333  0.38179910
   0.08333333  0.58333333  0.38179910
   0.91771885  0.66721740  0.47686658
   0.66877080  0.41298124  0.47711902
   0.83333333  0.08333333  0.38179910
   0.83333333  0.33333333  0.38179910
   0.33333333  0.08333333  0.38179910
   0.16464422  0.16644236  0.47675134
   0.41493656  0.91778506  0.47763349
   0.58333333  0.83333333  0.38179910
   0.33333333  0.33333333  0.38179910
   0.16897093  0.41654163  0.47437243
   0.41418707  0.66638013  0.47643910
   0.33333333  0.58333333  0.38179910
   0.58333333  0.58333333  0.38179910
   0.58333333  0.33333333  0.38179910
   0.58333333  0.08333333  0.38179910
   0.31766243  0.82959849  0.60987423
   0.08563004  0.08491346  0.60996526
   0.85148326  0.83069542  0.60895834
   0.86142949  0.56860810  0.61064284
   0.56842941  0.56817894  0.61080346
   0.83453313  0.32960655  0.60898095
   0.56713547  0.86568295  0.61133849
   0.82829942  0.08478530  0.60965350
   0.16716537  0.66674897  0.47445669
   0.41733230  0.41528749  0.47364528
   0.49274040  0.25415945  0.56076273
   0.25288375  0.49519068  0.56314585
   0.49015521  0.02144696  0.56475709
   0.41757606  0.16737322  0.47317853
   0.75182871  0.75150464  0.57180919
   0.25394810  0.25404236  0.56339276
   0.24572000  0.74084461  0.56359660
   0.25556127  0.00551798  0.56881115
   0.16400171  0.91624404  0.47607971
   0.01379737  0.74043078  0.56351416
   0.66692400  0.16654395  0.47493794
   0.74084687  0.00521318  0.56698011
   0.91824261  0.91818514  0.47577716
   0.02017774  0.49269647  0.56602408
   0.73677839  0.25417751  0.56683490
   0.00842684  0.25498161  0.56739735
   0.91738126  0.41593241  0.47690567
   0.74937548  0.50023988  0.56990405
   0.00355460 -0.00745135  0.56529971
   0.91680085  0.16477720  0.47584587
   0.48750045  0.49292955  0.56439608
   0.49604851  0.75135135  0.57209683
Direct configuration=    14
   0.08333333  0.08333333  0.38179910
   0.33333333  0.83333333  0.38179910
   0.08333333  0.83333333  0.38179910
   0.66663852  0.92033572  0.47779767
   0.83333333  0.83333333  0.38179910
   0.08333333  0.33333333  0.38179910
   0.66699455  0.66635699  0.48042452
   0.83333333  0.58333333  0.38179910
   0.08333333  0.58333333  0.38179910
   0.91817389  0.66691203  0.47740184
   0.66768966  0.41311612  0.47765326
   0.83333333  0.08333333  0.38179910
   0.83333333  0.33333333  0.38179910
   0.33333333  0.08333333  0.38179910
   0.16490561  0.16669958  0.47743788
   0.41475400  0.91799695  0.47829169
   0.58333333  0.83333333  0.38179910
   0.33333333  0.33333333  0.38179910
   0.16843718  0.41653009  0.47486102
   0.41492538  0.66587090  0.47688486
   0.33333333  0.58333333  0.38179910
   0.58333333  0.58333333  0.38179910
   0.58333333  0.33333333  0.38179910
   0.58333333  0.08333333  0.38179910
   0.31725559  0.82848399  0.61105172
   0.08540632  0.08486044  0.61147040
   0.85261672  0.82950705  0.60993626
   0.86241417  0.56823070  0.61198797
   0.56798661  0.56811605  0.61217888
   0.83406815  0.33061283  0.60995431
   0.56727392  0.86538512  0.61287921
   0.82816306  0.08490421  0.61096677
   0.16745426  0.66563698  0.47473533
   0.41793567  0.41523295  0.47402183
   0.49456875  0.25338322  0.56144402
   0.25284668  0.49579504  0.56413033
   0.48927362  0.02334910  0.56536034
   0.41751512  0.16747329  0.47360245
   0.75075122  0.75300377  0.57368835
   0.25309511  0.25289844  0.56432079
   0.24605523  0.74155710  0.56448628
   0.25511981  0.00525267  0.57005545
   0.16416552  0.91629875  0.47669542
   0.01271266  0.74119691  0.56435170
   0.66601040  0.16708071  0.47550282