       N       E                     dE             d eps       ncg     rms          rms(c)
DAV:   1     0.320094823865E+04    0.32009E+04   -0.18983E+05  3672   0.112E+03
DAV:   2     0.125037515130E+02   -0.31884E+04   -0.29374E+04  4428   0.263E+02
DAV:   3    -0.201013121605E+03   -0.21352E+03   -0.19882E+03  4140   0.650E+01
DAV:   4    -0.206553735798E+03   -0.55406E+01   -0.54866E+01  4260   0.107E+01
DAV:   5    -0.206731238112E+03   -0.17750E+00   -0.17693E+00  4428   0.192E+00    0.624E+01
RMM:   6    -0.202541951195E+03    0.41893E+01   -0.96486E+01  3678   0.153E+01    0.562E+01
RMM:   7    -0.212981232513E+03   -0.10439E+02   -0.59021E+01  3681   0.125E+01    0.477E+01
RMM:   8    -0.225491492614E+03   -0.12510E+02   -0.92221E+01  3676   0.145E+01    0.483E+01
RMM:   9    -0.214023629318E+03    0.11468E+02   -0.65765E+01  3678   0.116E+01    0.381E+01
RMM:  10    -0.198684248127E+03    0.15339E+02   -0.18483E+01  3680   0.733E+00    0.228E+01
RMM:  11    -0.194114654898E+03    0.45696E+01   -0.15105E+01  3681   0.621E+00    0.170E+01
RMM:  12    -0.189529377479E+03    0.45853E+01   -0.67378E+00  3680   0.400E+00    0.919E+00
RMM:  13    -0.189061036733E+03    0.46834E+00   -0.16369E+00  3681   0.199E+00    0.672E+00
RMM:  14    -0.189111259594E+03   -0.50223E-01   -0.82018E-01  3679   0.138E+00    0.669E+00
RMM:  15    -0.189118375766E+03   -0.71162E-02   -0.45803E-01  3680   0.106E+00    0.605E+00
RMM:  16    -0.188930417309E+03    0.18796E+00   -0.34119E-01  3679   0.922E-01    0.413E+00
RMM:  17    -0.188776159495E+03    0.15426E+00   -0.14520E-01  3679   0.590E-01    0.263E+00
RMM:  18    -0.188705695774E+03    0.70464E-01   -0.93653E-02  3678   0.449E-01    0.157E+00
RMM:  19    -0.188680823351E+03    0.24872E-01   -0.28203E-02  3680   0.245E-01    0.913E-01
RMM:  20    -0.188677748118E+03    0.30752E-02   -0.84814E-03  3683   0.141E-01    0.777E-01
RMM:  21    -0.188673040675E+03    0.47074E-02   -0.22979E-03  3681   0.719E-02    0.515E-01
RMM:  22    -0.188671325652E+03    0.17150E-02   -0.19404E-03  3679   0.652E-02    0.415E-01
RMM:  23    -0.188670330571E+03    0.99508E-03   -0.18683E-03  3680   0.646E-02    0.327E-01
RMM:  24    -0.188669089943E+03    0.12406E-02   -0.15890E-03  3678   0.573E-02    0.106E-01
RMM:  25    -0.188669164183E+03   -0.74239E-04   -0.26184E-04  3679   0.235E-02    0.746E-02
RMM:  26    -0.188669554275E+03   -0.39009E-03   -0.18095E-04  3681   0.180E-02    0.563E-02
RMM:  27    -0.188669862005E+03   -0.30773E-03   -0.74970E-05  3681   0.124E-02    0.444E-02
RMM:  28    -0.188670434691E+03   -0.57269E-03   -0.48231E-05  3672   0.944E-03    0.373E-02
RMM:  29    -0.188670778904E+03   -0.34421E-03   -0.27067E-05  3670   0.754E-03    0.211E-02
RMM:  30    -0.188671472124E+03   -0.69322E-03   -0.35581E-05  3670   0.785E-03    0.188E-02
RMM:  31    -0.188672035972E+03   -0.56385E-03   -0.34757E-05  3666   0.820E-03    0.165E-02
RMM:  32    -0.188672376393E+03   -0.34042E-03   -0.24843E-05  3304   0.630E-03    0.813E-03
RMM:  33    -0.188672478496E+03   -0.10210E-03   -0.58973E-06  2700   0.296E-03    0.643E-03
RMM:  34    -0.188672583577E+03   -0.10508E-03   -0.32430E-06  2507   0.235E-03    0.331E-03
RMM:  35    -0.188672648320E+03   -0.64743E-04   -0.14106E-06  2229   0.161E-03    0.308E-03
RMM:  36    -0.188672684937E+03   -0.36617E-04   -0.70574E-07  2152   0.115E-03    0.142E-03
RMM:  37    -0.188672712955E+03   -0.28018E-04   -0.48879E-07  2133   0.982E-04    0.135E-03
RMM:  38    -0.188672727015E+03   -0.14060E-04   -0.31985E-07  2045   0.823E-04    0.113E-03
RMM:  39    -0.188672733139E+03   -0.61236E-05   -0.18524E-07  1414   0.564E-04    0.531E-04
RMM:  40    -0.188672734211E+03   -0.10724E-05   -0.50514E-08  1032   0.404E-04    0.404E-04
RMM:  41    -0.188672735160E+03   -0.94900E-06   -0.27719E-08   836   0.371E-04
   1 F= -.18867274E+03 E0= -.18855086E+03  d E =-.188673E+03
       N       E                     dE             d eps       ncg     rms          rms(c)
DAV:   1    -0.189778134827E+03   -0.11054E+01   -0.38418E+02  3672   0.301E+01    0.387E+00
RMM:   2    -0.190172924103E+03   -0.39479E+00   -0.40198E+00  3678   0.434E+00    0.242E+00
RMM:   3    -0.190319411490E+03   -0.14649E+00   -0.40621E-01  3702   0.110E+00    0.407E+00
RMM:   4    -0.190171235984E+03    0.14818E+00   -0.18280E-01  3687   0.703E-01    0.191E+00
RMM:   5    -0.190228897633E+03   -0.57662E-01   -0.97262E-02  3686   0.478E-01    0.296E+00
RMM:   6    -0.190159110175E+03    0.69787E-01   -0.60425E-02  3685   0.385E-01    0.125E+00
RMM:   7    -0.190142839712E+03    0.16270E-01   -0.19120E-02  3681   0.219E-01    0.489E-01
RMM:   8    -0.190140538203E+03    0.23015E-02   -0.54406E-03  3683   0.117E-01    0.276E-01
RMM:   9    -0.190139647983E+03    0.89022E-03   -0.21353E-03  3685   0.728E-02    0.130E-01
RMM:  10    -0.190139565147E+03    0.82836E-04   -0.63839E-04  3685   0.396E-02    0.985E-02
RMM:  11    -0.190139487156E+03    0.77991E-04   -0.16794E-04  3687   0.208E-02    0.545E-02
RMM:  12    -0.190139483447E+03    0.37088E-05   -0.48252E-05  3682   0.112E-02    0.412E-02
RMM:  13    -0.190139473836E+03    0.96112E-05   -0.27990E-05  3672   0.866E-03    0.240E-02
RMM:  14    -0.190139471670E+03    0.21655E-05   -0.11132E-05  3521   0.538E-03    0.137E-02
RMM:  15    -0.190139470725E+03    0.94505E-06   -0.34268E-06  2588   0.306E-03
   2 F= -.19013947E+03 E0= -.19001959E+03  d E =-.146674E+01
       N       E                     dE             d eps       ncg     rms          rms(c)
DAV:   1    -0.188589896618E+03    0.15496E+01   -0.35575E+03  3672   0.939E+01    0.917E+00
RMM:   2    -0.192039263763E+03   -0.34494E+01   -0.35215E+01  3681   0.129E+01    0.574E+00
RMM:   3    -0.192745712099E+03   -0.70645E+00   -0.26020E+00  3707   0.278E+00    0.919E+00
RMM:   4    -0.191834001548E+03    0.91171E+00   -0.87331E-01  3686   0.156E+00    0.362E+00
RMM:   5    -0.192272224305E+03   -0.43822E+00   -0.61779E-01  3686   0.122E+00    0.681E+00
RMM:   6    -0.191933466006E+03    0.33876E+00   -0.45375E-01  3686   0.104E+00    0.397E+00
RMM:   7    -0.191787864436E+03    0.14560E+00   -0.18785E-01  3681   0.676E-01    0.177E+00
RMM:   8    -0.191758279828E+03    0.29585E-01   -0.60221E-02  3683   0.387E-01    0.103E+00
RMM:   9    -0.191744479300E+03    0.13801E-01   -0.21026E-02  3685   0.229E-01    0.353E-01
RMM:  10    -0.191743837972E+03    0.64133E-03   -0.54331E-03  3685   0.114E-01    0.267E-01
RMM:  11    -0.191743445510E+03    0.39246E-03   -0.16067E-03  3687   0.635E-02    0.194E-01
RMM:  12    -0.191743308537E+03    0.13697E-03   -0.54726E-04  3683   0.384E-02    0.127E-01
RMM:  13    -0.191743253380E+03    0.55157E-04   -0.32392E-04  3682   0.290E-02    0.885E-02
RMM:  14    -0.191743195943E+03    0.57436E-04   -0.10869E-04  3683   0.170E-02    0.375E-02
RMM:  15    -0.191743192165E+03    0.37779E-05   -0.27575E-05  3678   0.828E-03    0.203E-02
RMM:  16    -0.191743198204E+03   -0.60384E-05   -0.87196E-06  3251   0.474E-03    0.126E-02
RMM:  17    -0.191743203262E+03   -0.50584E-05   -0.28700E-06  2434   0.281E-03    0.960E-03
RMM:  18    -0.191743211206E+03   -0.79442E-05   -0.11374E-06  2123   0.189E-03    0.397E-03
RMM:  19    -0.191743214928E+03   -0.37219E-05   -0.40419E-07  2042   0.108E-03    0.166E-03
RMM:  20    -0.191743222130E+03   -0.72021E-05   -0.21396E-07  1629   0.655E-04    0.118E-03
RMM:  21    -0.191743226337E+03   -0.42064E-05   -0.13375E-07  1395   0.553E-04    0.894E-04
RMM:  22    -0.191743235689E+03   -0.93520E-05   -0.39295E-07  1954   0.711E-04    0.103E-03
RMM:  23    -0.191743239873E+03   -0.41847E-05   -0.21625E-07  1350   0.520E-04    0.893E-04
RMM:  24    -0.191743242513E+03   -0.26394E-05   -0.19364E-07  1379   0.493E-04    0.389E-04
RMM:  25    -0.191743243956E+03   -0.14429E-05   -0.99456E-08  1017   0.424E-04    0.331E-04
RMM:  26    -0.191743244576E+03   -0.61988E-06   -0.51411E-08   744   0.383E-04
   3 F= -.19174324E+03 E0= -.19162837E+03  d E =-.307051E+01
       N       E                     dE             d eps       ncg     rms          rms(c)
DAV:   1    -0.191896552977E+03   -0.15331E+00   -0.32706E+02  3672   0.280E+01    0.255E+00
RMM:   2    -0.192249672975E+03   -0.35312E+00   -0.36857E+00  3687   0.410E+00    0.173E+00
RMM:   3    -0.192360501925E+03   -0.11083E+00   -0.28427E-01  3710   0.916E-01    0.374E+00
RMM:   4    -0.192251521591E+03    0.10898E+00   -0.83636E-02  3687   0.476E-01    0.167E+00
RMM:   5    -0.192241765192E+03    0.97564E-02   -0.36012E-02  3684   0.294E-01    0.139E+00
RMM:   6    -0.192233393968E+03    0.83712E-02   -0.46617E-02  3684   0.340E-01    0.919E-01
RMM:   7    -0.192224421516E+03    0.89725E-02   -0.16616E-02  3683   0.205E-01    0.340E-01
RMM:   8    -0.192223278058E+03    0.11435E-02   -0.39112E-03  3683   0.984E-02    0.278E-01
RMM:   9    -0.192222319321E+03    0.95874E-03   -0.13851E-03  3682   0.599E-02    0.101E-01
RMM:  10    -0.192222256375E+03    0.62946E-04   -0.33222E-04  3685   0.275E-02    0.680E-02
RMM:  11    -0.192222210684E+03    0.45691E-04   -0.14549E-04  3682   0.190E-02    0.370E-02
RMM:  12    -0.192222210683E+03    0.10186E-08   -0.46914E-05  3682   0.109E-02    0.290E-02
RMM:  13    -0.192222206188E+03    0.44945E-05   -0.16381E-05  3676   0.660E-03    0.150E-02
RMM:  14    -0.192222206069E+03    0.11961E-06   -0.38217E-06  2711   0.336E-03
   4 F= -.19222221E+03 E0= -.19210926E+03  d E =-.478961E+00
       N       E                     dE             d eps       ncg     rms          rms(c)
DAV:   1    -0.192203940546E+03    0.18266E-01   -0.65255E+01  3720   0.125E+01    0.102E+00
RMM:   2    -0.192276345831E+03   -0.72405E-01   -0.74766E-01  3685   0.184E+00    0.820E-01
RMM:   3    -0.192293672516E+03   -0.17327E-01   -0.57789E-02  3709   0.414E-01    0.155E+00
RMM:   4    -0.192276994348E+03    0.16678E-01   -0.14878E-02  3687   0.200E-01    0.829E-01
RMM:   5    -0.192271751826E+03    0.52425E-02   -0.56519E-03  3686   0.119E-01    0.464E-01
RMM:   6    -0.192271860737E+03   -0.10891E-03   -0.97306E-03  3683   0.154E-01    0.414E-01
RMM:   7    -0.192270093571E+03    0.17672E-02   -0.38734E-03  3682   0.987E-02    0.150E-01
RMM:   8    -0.192269847762E+03    0.24581E-03   -0.72125E-04  3686   0.430E-02    0.112E-01
RMM:   9    -0.192269684200E+03    0.16356E-03   -0.25888E-04  3681   0.258E-02    0.468E-02
RMM:  10    -0.192269665530E+03    0.18670E-04   -0.74532E-05  3681   0.129E-02    0.310E-02
RMM:  11    -0.192269656207E+03    0.93227E-05   -0.33465E-05  3678   0.897E-03    0.169E-02
RMM:  12    -0.192269656862E+03   -0.65489E-06   -0.11788E-05  3674   0.539E-03    0.118E-02
RMM:  13    -0.192269657430E+03   -0.56782E-06   -0.37418E-06  2615   0.322E-03
   5 F= -.19226966E+03 E0= -.19215733E+03  d E =-.526413E+00
       N       E                     dE             d eps       ncg     rms          rms(c)
DAV:   1    -0.192280778095E+03   -0.11121E-01   -0.42037E+01  3696   0.100E+01    0.804E-01
RMM:   2    -0.192324495459E+03   -0.43717E-01   -0.46745E-01  3682   0.146E+00    0.506E-01
RMM:   3    -0.192329438400E+03   -0.49429E-02   -0.27771E-02  3703   0.293E-01    0.817E-01
RMM:   4    -0.192325919315E+03    0.35191E-02   -0.68362E-03  3689   0.135E-01    0.597E-01
RMM:   5    -0.192324048772E+03    0.18705E-02   -0.46774E-03  3681   0.106E-01    0.429E-01
RMM:   6    -0.192323661236E+03    0.38754E-03   -0.51687E-03  3681   0.114E-01    0.369E-01
RMM:   7    -0.192322456014E+03    0.12052E-02   -0.21384E-03  3684   0.736E-02    0.138E-01
RMM:   8    -0.192322310491E+03    0.14552E-03   -0.44234E-04  3682   0.343E-02    0.880E-02
RMM:   9    -0.192322218777E+03    0.91714E-04   -0.20009E-04  3684   0.227E-02    0.489E-02
RMM:  10    -0.192322189062E+03    0.29715E-04   -0.57225E-05  3682   0.116E-02    0.207E-02
RMM:  11    -0.192322185317E+03    0.37454E-05   -0.17202E-05  3678   0.648E-03    0.141E-02
RMM:  12    -0.192322184651E+03    0.66587E-06   -0.84529E-06  3672   0.445E-03
   6 F= -.19232218E+03 E0= -.19221064E+03  d E =-.525272E-01
       N       E                     dE             d eps       ncg     rms          rms(c)
DAV:   1    -0.192322166106E+03    0.19211E-04   -0.11362E+00  3744   0.165E+00    0.129E-01
RMM:   2    -0.192323347902E+03   -0.11818E-02   -0.12653E-02  3682   0.240E-01    0.854E-02
RMM:   3    -0.192323512043E+03   -0.16414E-03   -0.79251E-04  3703   0.493E-02    0.151E-01
RMM:   4    -0.192323358437E+03    0.15361E-03   -0.18817E-04  3687   0.228E-02    0.918E-02
RMM:   5    -0.192323332564E+03    0.25874E-04   -0.11077E-04  3681   0.164E-02    0.741E-02
RMM:   6    -0.192323319540E+03    0.13023E-04   -0.14781E-04  3681   0.191E-02    0.618E-02
RMM:   7    -0.192323284287E+03    0.35253E-04   -0.70256E-05  3682   0.134E-02    0.223E-02
RMM:   8    -0.192323281305E+03    0.29824E-05   -0.12768E-05  3671   0.584E-03    0.155E-02
RMM:   9    -0.192323278714E+03    0.25904E-05   -0.53953E-06  3027   0.383E-03    0.885E-03
RMM:  10    -0.192323277597E+03    0.11176E-05   -0.19799E-06  2064   0.233E-03    0.378E-03
RMM:  11    -0.192323277497E+03    0.99462E-07   -0.73256E-07  1944   0.162E-03
   7 F= -.19232328E+03 E0= -.19221186E+03  d E =-.536201E-01
       N       E                     dE             d eps       ncg     rms          rms(c)
DAV:   1    -0.192327643393E+03   -0.43658E-02   -0.64973E+00  3684   0.391E+00    0.227E-01
RMM:   2    -0.192334434426E+03   -0.67910E-02   -0.71511E-02  3681   0.574E-01    0.202E-01
RMM:   3    -0.192334915602E+03   -0.48118E-03   -0.42484E-03  3739   0.116E-01    0.263E-01
RMM:   4    -0.192334544298E+03    0.37130E-03   -0.77813E-04  3681   0.458E-02    0.215E-01
RMM:   5    -0.192334258715E+03    0.28558E-03   -0.46103E-04  3687   0.340E-02    0.156E-01
RMM:   6    -0.192334150716E+03    0.10800E-03   -0.76115E-04  3682   0.429E-02    0.133E-01
RMM:   7    -0.192334076367E+03    0.74349E-04   -0.56401E-04  3684   0.375E-02    0.804E-02
RMM:   8    -0.192334034223E+03    0.42144E-04   -0.11901E-04  3682   0.176E-02    0.391E-02
RMM:   9    -0.192334015386E+03    0.18837E-04   -0.31614E-05  3680   0.899E-03    0.283E-02
RMM:  10    -0.192334001151E+03    0.14234E-04   -0.26011E-05  3678   0.772E-03    0.140E-02
RMM:  11    -0.192333998636E+03    0.25153E-05   -0.96487E-06  3671   0.467E-03    0.858E-03
RMM:  12    -0.192333997943E+03    0.69294E-06   -0.66820E-06  3664   0.383E-03
   8 F= -.19233400E+03 E0= -.19222265E+03  d E =-.107204E-01
       N       E                     dE             d eps       ncg     rms          rms(c)
DAV:   1    -0.192331887023E+03    0.21116E-02   -0.60919E+00  3672   0.379E+00    0.217E-01
RMM:   2    -0.192338250236E+03   -0.63632E-02   -0.66950E-02  3681   0.556E-01    0.194E-01
RMM:   3    -0.192338712972E+03   -0.46274E-03   -0.39646E-03  3739   0.112E-01    0.256E-01
RMM:   4    -0.192338329865E+03    0.38311E-03   -0.71595E-04  3681   0.439E-02    0.203E-01
RMM:   5    -0.192338076244E+03    0.25362E-03   -0.42329E-04  3687   0.327E-02    0.149E-01
RMM:   6    -0.192337976274E+03    0.99970E-04   -0.71863E-04  3682   0.417E-02    0.127E-01
RMM:   7    -0.192337910100E+03    0.66174E-04   -0.52834E-04  3684   0.363E-02    0.775E-02
RMM:   8    -0.192337870757E+03    0.39343E-04   -0.11001E-04  3683   0.169E-02    0.379E-02
RMM:   9    -0.192337853368E+03    0.17389E-04   -0.29666E-05  3679   0.870E-03    0.283E-02
RMM:  10    -0.192337839916E+03    0.13452E-04   -0.23664E-05  3677   0.738E-03    0.144E-02
RMM:  11    -0.192337837322E+03    0.25943E-05   -0.90262E-06  3671   0.453E-03    0.880E-03
RMM:  12    -0.192337836546E+03    0.77545E-06   -0.67909E-06  3668   0.386E-03
   9 F= -.19233784E+03 E0= -.19222656E+03  d E =-.145590E-01
       N       E                     dE             d eps       ncg     rms          rms(c)
DAV:   1    -0.192339076352E+03   -0.12390E-02   -0.82920E+00  3672   0.441E+00    0.225E-01
RMM:   2    -0.192347814147E+03   -0.87378E-02   -0.90117E-02  3680   0.650E-01    0.243E-01
RMM:   3    -0.192348092449E+03   -0.27830E-03   -0.55118E-03  3834   0.133E-01    0.257E-01
RMM:   4    -0.192347791420E+03    0.30103E-03   -0.72936E-04  3676   0.447E-02    0.223E-01
RMM:   5    -0.192347517666E+03    0.27375E-03   -0.39737E-04  3688   0.316E-02    0.180E-01
RMM:   6    -0.192347344354E+03    0.17331E-03   -0.90666E-04  3683   0.463E-02    0.162E-01
RMM:   7    -0.192347225213E+03    0.11914E-03   -0.11168E-03  3682   0.520E-02    0.912E-02
RMM:   8    -0.192347197065E+03    0.28148E-04   -0.21562E-04  3682   0.234E-02    0.534E-02
RMM:   9    -0.192347169968E+03    0.27097E-04   -0.33945E-05  3682   0.940E-03    0.428E-02
RMM:  10    -0.192347138867E+03    0.31101E-04   -0.48032E-05  3682   0.105E-02    0.229E-02
RMM:  11    -0.192347131320E+03    0.75466E-05   -0.27354E-05  3678   0.776E-03    0.124E-02
RMM:  12    -0.192347129928E+03    0.13917E-05   -0.18154E-05  3672   0.627E-03    0.494E-03
RMM:  13    -0.192347130102E+03   -0.17359E-06   -0.14880E-06  2012   0.213E-03
  10 F= -.19234713E+03 E0= -.19223550E+03  d E =-.929356E-02
       N       E                     dE             d eps       ncg     rms          rms(c)
DAV:   1    -0.192336359220E+03    0.10771E-01   -0.17074E+01  3672   0.632E+00    0.319E-01
RMM:   2    -0.192354367795E+03   -0.18009E-01   -0.18525E-01  3680   0.931E-01    0.345E-01
RMM:   3    -0.192354927583E+03   -0.55979E-03   -0.11269E-02  3826   0.190E-01    0.363E-01
RMM:   4    -0.192354323247E+03    0.60434E-03   -0.14710E-03  3676   0.636E-02    0.317E-01
RMM:   5    -0.192353759387E+03    0.56386E-03   -0.78508E-04  3688   0.444E-02    0.254E-01
RMM:   6    -0.192353397342E+03    0.36204E-03   -0.18478E-03  3683   0.660E-02    0.233E-01
RMM:   7    -0.192353131196E+03    0.26615E-03   -0.22961E-03  3682   0.745E-02    0.131E-01
RMM:   8    -0.192353073877E+03    0.57319E-04   -0.44543E-04  3682   0.336E-02    0.775E-02
RMM:   9    -0.192353017773E+03    0.56104E-04   -0.70246E-05  3687   0.135E-02    0.615E-02
RMM:  10    -0.192352953907E+03    0.63866E-04   -0.98844E-05  3681   0.151E-02    0.332E-02
RMM:  11    -0.192352937750E+03    0.16157E-04   -0.57726E-05  3679   0.113E-02    0.178E-02
RMM:  12    -0.192352934762E+03    0.29885E-05   -0.37330E-05  3682   0.896E-03    0.742E-03
RMM:  13    -0.192352935085E+03   -0.32364E-06   -0.35318E-06  2540   0.317E-03
  11 F= -.19235294E+03 E0= -.19224079E+03  d E =-.150985E-01
       N       E                     dE             d eps       ncg     rms          rms(c)
DAV:   1    -0.192348579053E+03    0.43557E-02   -0.12189E+01  3672   0.536E+00    0.264E-01
RMM:   2    -0.192361438732E+03   -0.12860E-01   -0.13200E-01  3680   0.788E-01    0.288E-01
RMM:   3    -0.192361521511E+03   -0.82779E-04   -0.80388E-03  3773   0.161E-01    0.269E-01
RMM:   4    -0.192361013409E+03    0.50810E-03   -0.83805E-04  3677   0.509E-02    0.194E-01
RMM:   5    -0.192361269314E+03   -0.25590E-03   -0.58087E-04  3687   0.375E-02    0.277E-01
RMM:   6    -0.192360727929E+03    0.54138E-03   -0.92409E-04  3683   0.462E-02    0.192E-01
RMM:   7    -0.192360502511E+03    0.22542E-03   -0.17042E-03  3681   0.640E-02    0.963E-02
RMM:   8    -0.192360490255E+03    0.12256E-04   -0.30253E-04  3681   0.275E-02    0.607E-02
RMM:   9    -0.192360458634E+03    0.31621E-04   -0.40291E-05  3684   0.104E-02    0.481E-02
RMM:  10    -0.192360422140E+03    0.36494E-04   -0.52397E-05  3680   0.111E-02    0.278E-02
RMM:  11    -0.192360410134E+03    0.12006E-04   -0.41686E-05  3681   0.964E-03    0.142E-02
RMM:  12    -0.192360408634E+03    0.14998E-05   -0.25889E-05  3681   0.750E-03    0.663E-03
RMM:  13    -0.192360408831E+03   -0.19731E-06   -0.18577E-06  2084   0.239E-03
  12 F= -.19236041E+03 E0= -.19224802E+03  d E =-.747375E-02
       N       E                     dE             d eps       ncg     rms          rms(c)
DAV:   1    -0.192355793990E+03    0.46146E-02   -0.68418E+00  3684   0.402E+00    0.197E-01
RMM:   2    -0.192362993610E+03   -0.71996E-02   -0.74070E-02  3680   0.590E-01    0.214E-01
RMM:   3    -0.192363034206E+03   -0.40596E-04   -0.44985E-03  3772   0.121E-01    0.201E-01
RMM:   4    -0.192362755623E+03    0.27858E-03   -0.46466E-04  3677   0.379E-02    0.146E-01
RMM:   5    -0.192362898697E+03   -0.14307E-03   -0.31582E-04  3687   0.276E-02    0.207E-01
RMM:   6    -0.192362592010E+03    0.30669E-03   -0.51697E-04  3683   0.346E-02    0.142E-01
RMM:   7    -0.192362481926E+03    0.11008E-03   -0.96902E-04  3681   0.482E-02    0.722E-02
RMM:   8    -0.192362477113E+03    0.48130E-05   -0.17252E-04  3681   0.208E-02    0.458E-02
RMM:   9    -0.192362459306E+03    0.17807E-04   -0.22618E-05  3681   0.780E-03    0.363E-02
RMM:  10    -0.192362438671E+03    0.20635E-04   -0.29439E-05  3682   0.830E-03    0.210E-02
RMM:  11    -0.192362431782E+03    0.68890E-05   -0.24659E-05  3678   0.742E-03    0.104E-02
RMM:  12    -0.192362431049E+03    0.73258E-06   -0.14948E-05  3672   0.569E-03    0.364E-03
RMM:  13    -0.192362431255E+03   -0.20628E-06   -0.78473E-07  1961   0.159E-03
  13 F= -.19236243E+03 E0= -.19224985E+03  d E =-.949617E-02
       N       E                     dE             d eps       ncg     rms          rms(c)
DAV:   1    -0.192357947659E+03    0.44834E-02   -0.81714E+00  3672   0.441E+00    0.214E-01
RMM:   2    -0.192366683827E+03   -0.87362E-02   -0.88073E-02  3680   0.644E-01    0.259E-01
RMM:   3    -0.192367097083E+03   -0.41326E-03   -0.56246E-03  3737   0.132E-01    0.313E-01
RMM:   4    -0.192366317503E+03    0.77958E-03   -0.69410E-04  3679   0.447E-02    0.178E-01
RMM:   5    -0.192366127890E+03    0.18961E-03   -0.21546E-04  3687   0.243E-02    0.140E-01
RMM:   6    -0.192366017906E+03    0.10998E-03   -0.54295E-04  3683   0.363E-02    0.134E-01
RMM:   7    -0.192365890849E+03    0.12706E-03   -0.12089E-03  3682   0.536E-02    0.557E-02
RMM:   8    -0.192365906850E+03   -0.16001E-04   -0.14653E-04  3676   0.192E-02    0.436E-02
RMM:   9    -0.192365889818E+03    0.17032E-04   -0.21786E-05  3682   0.773E-03    0.325E-02
RMM:  10    -0.192365875536E+03    0.14282E-04   -0.21522E-05  3681   0.718E-03    0.207E-02
RMM:  11    -0.192365869775E+03    0.57607E-05   -0.18403E-05  3672   0.649E-03    0.109E-02
RMM:  12    -0.192365869235E+03    0.54041E-06   -0.12024E-05  3674   0.516E-03    0.571E-03
RMM:  13    -0.192365869280E+03   -0.45213E-07   -0.13922E-06  1996   0.201E-03
  14 F= -.19236587E+03 E0= -.19225314E+03  d E =-.343802E-02
       N       E                     dE             d eps       ncg     rms          rms(c)
DAV:   1    -0.192365613787E+03    0.25545E-03   -0.40318E-01  3744   0.980E-01    0.474E-02
RMM:   2    -0.192366037350E+03   -0.42356E-03   -0.43321E-03  3680   0.143E-01    0.574E-02
RMM:   3    -0.192366049921E+03   -0.12571E-04   -0.27479E-04  3736   0.293E-02    0.669E-02
RMM:   4    -0.192366015155E+03    0.34766E-04   -0.32712E-05  3676   0.975E-03    0.396E-02
RMM:   5    -0.192366007899E+03    0.72558E-05   -0.10211E-05  3652   0.529E-03    0.315E-02
RMM:   6    -0.192366005963E+03    0.19366E-05   -0.27213E-05  3680   0.814E-03    0.303E-02
RMM:   7    -0.192366002992E+03    0.29712E-05   -0.62405E-05  3677   0.122E-02    0.127E-02
RMM:   8    -0.192366004191E+03   -0.11998E-05   -0.74507E-06  3459   0.435E-03    0.999E-03
RMM:   9    -0.192366003351E+03    0.84069E-06   -0.10832E-06  1979   0.184E-03
  15 F= -.19236600E+03 E0= -.19225324E+03  d E =-.357210E-02
       N       E                     dE             d eps       ncg     rms          rms(c)
DAV:   1    -0.192360859736E+03    0.51445E-02   -0.84668E+00  3672   0.450E+00    0.206E-01
RMM:   2    -0.192370423414E+03   -0.95637E-02   -0.93316E-02  3679   0.660E-01    0.319E-01
RMM:   3    -0.192370575192E+03   -0.15178E-03   -0.62552E-03  3743   0.138E-01    0.314E-01
RMM:   4    -0.192369741685E+03    0.83351E-03   -0.76745E-04  3676   0.465E-02    0.180E-01
RMM:   5    -0.192369528208E+03    0.21348E-03   -0.17506E-04  3689   0.226E-02    0.138E-01
RMM:   6    -0.192369452158E+03    0.76050E-04   -0.46057E-04  3682   0.334E-02    0.150E-01
RMM:   7    -0.192369260793E+03    0.19136E-03   -0.14554E-03  3682   0.584E-02    0.556E-02
RMM:   8    -0.192369296079E+03   -0.35286E-04   -0.18570E-04  3676   0.213E-02    0.515E-02
RMM:   9    -0.192369278625E+03    0.17454E-04   -0.22929E-05  3684   0.791E-03    0.362E-02
RMM:  10    -0.192369263916E+03    0.14710E-04   -0.21342E-05  3679   0.718E-03    0.257E-02
RMM:  11    -0.192369255038E+03    0.88783E-05   -0.29749E-05  3678   0.819E-03    0.111E-02
RMM:  12    -0.192369255000E+03    0.37362E-07   -0.12052E-05  3672   0.518E-03    0.644E-03
RMM:  13    -0.192369255058E+03   -0.57407E-07   -0.19216E-06  2032   0.233E-03
  16 F= -.19236926E+03 E0= -.19225625E+03  d E =-.325171E-02
       N       E                     dE             d eps       ncg     rms          rms(c)
DAV:   1    -0.192365726863E+03    0.35281E-02   -0.45367E+00  3672   0.329E+00    0.149E-01
RMM:   2    -0.192370803968E+03   -0.50771E-02   -0.49793E-02  3679   0.482E-01    0.232E-01
RMM:   3    -0.192370854708E+03   -0.50741E-04   -0.33174E-03  3744   0.101E-01    0.225E-01
RMM:   4    -0.192370432767E+03    0.42194E-03   -0.39758E-04  3676   0.336E-02    0.132E-01
RMM:   5    -0.192370325602E+03    0.10716E-03   -0.88977E-05  3689   0.161E-02    0.102E-01
RMM:   6    -0.192370289904E+03    0.35698E-04   -0.25252E-04  3682   0.247E-02    0.111E-01
RMM:   7    -0.192370194880E+03    0.95024E-04   -0.81447E-04  3682   0.437E-02    0.422E-02
RMM:   8    -0.192370214272E+03   -0.19392E-04   -0.10249E-04  3676   0.159E-02    0.385E-02
RMM:   9    -0.192370204553E+03    0.97194E-05   -0.12532E-05  3638   0.586E-03    0.270E-02
RMM:  10    -0.192370196404E+03    0.81485E-05   -0.12084E-05  3672   0.541E-03    0.189E-02
RMM:  11    -0.192370191770E+03    0.46347E-05   -0.16481E-05  3676   0.609E-03    0.805E-03
RMM:  12    -0.192370191890E+03   -0.12045E-06   -0.67841E-06  3536   0.390E-03
  17 F= -.19237019E+03 E0= -.19225700E+03  d E =-.418854E-02
       N       E                     dE             d eps       ncg     rms          rms(c)
DAV:   1    -0.192366025671E+03    0.41661E-02   -0.60222E+00  3672   0.379E+00    0.195E-01
RMM:   2    -0.192372810557E+03   -0.67849E-02   -0.68325E-02  3682   0.559E-01    0.252E-01
RMM:   3    -0.192372901228E+03   -0.90670E-04   -0.45045E-03  3736   0.117E-01    0.245E-01
RMM:   4    -0.192372536390E+03    0.36484E-03   -0.58544E-04  3676   0.402E-02    0.182E-01
RMM:   5    -0.192372296192E+03    0.24020E-03   -0.22729E-04  3689   0.246E-02    0.130E-01
RMM:   6    -0.192372311637E+03   -0.15444E-04   -0.67093E-04  3682   0.399E-02    0.157E-01
RMM:   7    -0.192372143670E+03    0.16797E-03   -0.89582E-04  3683   0.460E-02    0.627E-02
RMM:   8    -0.192372153940E+03   -0.10270E-04   -0.12610E-04  3680   0.177E-02    0.501E-02
RMM:   9    -0.192372131606E+03    0.22333E-04   -0.19180E-05  3674   0.726E-03    0.335E-02
RMM:  10    -0.192372119773E+03    0.11833E-04   -0.15190E-05  3672   0.600E-03    0.254E-02
RMM:  11    -0.192372108116E+03    0.11658E-04   -0.38264E-05  3677   0.915E-03    0.105E-02
RMM:  12    -0.192372107482E+03    0.63392E-06   -0.90521E-06  3657   0.450E-03
  18 F= -.19237211E+03 E0= -.19225873E+03  d E =-.191559E-02
       N       E                     dE             d eps       ncg     rms          rms(c)
DAV:   1    -0.192372106757E+03    0.13585E-05   -0.33644E-04  3858   0.289E-02    0.445E-03
RMM:   2    -0.192372107658E+03   -0.90107E-06   -0.63627E-06  3273   0.488E-03
  19 F= -.19237211E+03 E0= -.19225873E+03  d E =-.191577E-02
       N       E                     dE             d eps       ncg     rms          rms(c)
DAV:   1    -0.192370154238E+03    0.19525E-02   -0.28897E+00  3672   0.262E+00    0.134E-01
RMM:   2    -0.192373379476E+03   -0.32252E-02   -0.32951E-02  3681   0.387E-01    0.157E-01
RMM:   3    -0.192373296932E+03    0.82544E-04   -0.21374E-03  3742   0.813E-02    0.113E-01
RMM:   4    -0.192373193993E+03    0.10294E-03   -0.20390E-04  3675   0.253E-02    0.888E-02
RMM:   5    -0.192373214504E+03   -0.20511E-04   -0.13102E-04  3684   0.182E-02    0.108E-01
RMM:   6    -0.192373304540E+03   -0.90036E-04   -0.31502E-04  3682   0.266E-02    0.149E-01
RMM:   7    -0.192373107908E+03    0.19663E-03   -0.30506E-04  3683   0.267E-02    0.435E-02
RMM:   8    -0.192373122755E+03   -0.14847E-04   -0.51933E-05  3682   0.115E-02    0.335E-02
RMM:   9    -0.192373112424E+03    0.10331E-04   -0.88881E-06  3503   0.493E-03    0.215E-02
RMM:  10    -0.192373107930E+03    0.44940E-05   -0.63192E-06  3216   0.393E-03    0.163E-02
RMM:  11    -0.192373103409E+03    0.45206E-05   -0.15835E-05  3672   0.595E-03    0.699E-03
RMM:  12    -0.192373103036E+03    0.37254E-06   -0.35424E-06  2500   0.296E-03
  20 F= -.19237310E+03 E0= -.19225965E+03  d E =-.995378E-03
       N       E                     dE             d eps       ncg     rms          rms(c)
DAV:   1    -0.192373059505E+03    0.43904E-04   -0.70012E-02  3708   0.408E-01    0.205E-02
RMM:   2    -0.192373136893E+03   -0.77388E-04   -0.79391E-04  3681   0.604E-02    0.260E-02
RMM:   3    -0.192373133191E+03    0.37024E-05   -0.51330E-05  3747   0.126E-02    0.188E-02
RMM:   4    -0.192373131956E+03    0.12346E-05   -0.45238E-06  2767   0.384E-03    0.179E-02
RMM:   5    -0.192373131040E+03    0.91566E-06   -0.19090E-06  2123   0.247E-03
  21 F= -.19237313E+03 E0= -.19225967E+03  d E =-.102338E-02
       N       E                     dE             d eps       ncg     rms          rms(c)
DAV:   1    -0.192371882085E+03    0.12499E-02   -0.19304E+00  3672   0.214E+00    0.108E-01
RMM:   2    -0.192373999554E+03   -0.21175E-02   -0.21629E-02  3678   0.315E-01    0.135E-01
RMM:   3    -0.192373966880E+03    0.32674E-04   -0.14239E-03  3738   0.661E-02    0.111E-01
RMM:   4    -0.192373888919E+03    0.77961E-04   -0.15655E-04  3678   0.216E-02    0.907E-02
RMM:   5    -0.192373847575E+03    0.41345E-04   -0.43604E-05  3684   0.107E-02    0.729E-02
RMM:   6    -0.192373846019E+03    0.15555E-05   -0.16598E-04  3680   0.200E-02    0.790E-02
RMM:   7    -0.192373810487E+03    0.35532E-04   -0.28443E-04  3683   0.259E-02    0.308E-02
RMM:   8    -0.192373815999E+03   -0.55123E-05   -0.37649E-05  3677   0.971E-03    0.275E-02
RMM:   9    -0.192373808992E+03    0.70072E-05   -0.62059E-06  3099   0.416E-03    0.165E-02
RMM:  10    -0.192373806427E+03    0.25655E-05   -0.40141E-06  2683   0.325E-03    0.125E-02
RMM:  11    -0.192373804004E+03    0.24229E-05   -0.10302E-05  3672   0.491E-03    0.493E-03
RMM:  12    -0.192373803933E+03    0.70671E-07   -0.15002E-06  1971   0.201E-03
  22 F= -.19237380E+03 E0= -.19226030E+03  d E =-.672893E-03
       N       E                     dE             d eps       ncg     rms          rms(c)
DAV:   1    -0.192373781514E+03    0.22489E-04   -0.42466E-02  3732   0.318E-01    0.157E-02
RMM:   2    -0.192373826964E+03   -0.45450E-04   -0.47705E-04  3679   0.470E-02    0.179E-02
RMM:   3    -0.192373825387E+03    0.15772E-05   -0.29859E-05  3730   0.965E-03    0.143E-02
RMM:   4    -0.192373823781E+03    0.16058E-05   -0.22994E-06  2115   0.296E-03    0.103E-02
RMM:   5    -0.192373823941E+03   -0.15958E-06   -0.15182E-06  2008   0.227E-03
  23 F= -.19237382E+03 E0= -.19226031E+03  d E =-.692900E-03
       N       E                     dE             d eps       ncg     rms          rms(c)
DAV:   1    -0.192372859537E+03    0.96424E-03   -0.13671E+00  3672   0.180E+00    0.966E-02
RMM:   2    -0.192374464004E+03   -0.16045E-02   -0.15204E-02  3681   0.265E-01    0.154E-01
RMM:   3    -0.192374451936E+03    0.12068E-04   -0.10871E-03  3732   0.568E-02    0.145E-01
RMM:   4    -0.192374269076E+03    0.18286E-03   -0.15256E-04  3675   0.207E-02    0.754E-02
RMM:   5    -0.192374234961E+03    0.34116E-04   -0.51460E-05  3684   0.121E-02    0.567E-02
RMM:   6    -0.192374246483E+03   -0.11522E-04   -0.20384E-04  3681   0.221E-02    0.646E-02
RMM:   7    -0.192374218792E+03    0.27691E-04   -0.14096E-04  3681   0.183E-02    0.226E-02
RMM:   8    -0.192374219925E+03   -0.11334E-05   -0.14695E-05  3664   0.619E-03    0.197E-02
RMM:   9    -0.192374216179E+03    0.37461E-05   -0.34438E-06  2593   0.311E-03    0.127E-02
RMM:  10    -0.192374214546E+03    0.16326E-05   -0.28410E-06  2238   0.284E-03    0.987E-03
RMM:  11    -0.192374213074E+03    0.14720E-05   -0.65255E-06  3533   0.399E-03    0.388E-03
RMM:  12    -0.192374213006E+03    0.67914E-07   -0.81755E-07  1940   0.155E-03
  24 F= -.19237421E+03 E0= -.19226066E+03  d E =-.389066E-03
