  56  56   0   0
  0.4903395E+02  0.1100258E-08  0.1100258E-08  0.2619179E-08  0.3500000E-15
  1.000000000000000E-004
  CAR 
 unknown system                          
      6.38765435    -21.71701022  301     -1.27514348      1.00000000
    -21.717  0.0000E+00  0.0000E+00
    -21.623  0.0000E+00  0.0000E+00
    -21.530  0.0000E+00  0.0000E+00
    -21.436  0.0000E+00  0.0000E+00
    -21.342  0.0000E+00  0.0000E+00
    -21.249  0.0000E+00  0.0000E+00
    -21.155  0.0000E+00  0.0000E+00
    -21.061  0.0000E+00  0.0000E+00
    -20.968  0.9631E-15  0.9022E-16
    -20.874  0.1036E-10  0.9703E-12
    -20.780  0.2025E-07  0.1898E-08
    -20.687  0.7381E-05  0.6933E-06
    -20.593  0.5263E-03  0.5000E-04
    -20.499  0.8073E-02  0.8063E-03
    -20.405  0.3198E-01  0.3802E-02
    -20.312  0.4746E-01  0.8248E-02
    -20.218  0.5158E-01  0.1308E-01
    -20.124  0.6152E-01  0.1884E-01
    -20.031  0.6938E-01  0.2534E-01
    -19.937  0.5033E-01  0.3006E-01
    -19.843  0.1836E-01  0.3178E-01
    -19.750  0.2298E-02  0.3199E-01
    -19.656  0.6897E-04  0.3200E-01
    -19.562  0.4187E-06  0.3200E-01
    -19.469  0.4796E-09  0.3200E-01
    -19.375  0.1005E-12  0.3200E-01
    -19.281  0.1580E-17  0.3200E-01
    -19.188  0.0000E+00  0.3200E-01
    -19.094  0.0000E+00  0.3200E-01
    -19.000  0.0000E+00  0.3200E-01
    -18.907  0.0000E+00  0.3200E-01
    -18.813  0.0000E+00  0.3200E-01
    -18.719  0.0000E+00  0.3200E-01
    -18.625  0.0000E+00  0.3200E-01
    -18.532  0.0000E+00  0.3200E-01
    -18.438  0.0000E+00  0.3200E-01
    -18.344  0.0000E+00  0.3200E-01
    -18.251  0.0000E+00  0.3200E-01
    -18.157  0.0000E+00  0.3200E-01
    -18.063  0.0000E+00  0.3200E-01
    -17.970  0.0000E+00  0.3200E-01
    -17.876  0.0000E+00  0.3200E-01
    -17.782  0.0000E+00  0.3200E-01
    -17.689  0.0000E+00  0.3200E-01
    -17.595  0.0000E+00  0.3200E-01
    -17.501  0.0000E+00  0.3200E-01
    -17.408  0.0000E+00  0.3200E-01
    -17.314  0.0000E+00  0.3200E-01
    -17.220  0.0000E+00  0.3200E-01
    -17.127  0.0000E+00  0.3200E-01
    -17.033  0.0000E+00  0.3200E-01
    -16.939  0.0000E+00  0.3200E-01
    -16.846  0.0000E+00  0.3200E-01
    -16.752  0.0000E+00  0.3200E-01
    -16.658  0.0000E+00  0.3200E-01
    -16.564  0.0000E+00  0.3200E-01
    -16.471  0.0000E+00  0.3200E-01
    -16.377  0.0000E+00  0.3200E-01
    -16.283  0.0000E+00  0.3200E-01
    -16.190  0.0000E+00  0.3200E-01
    -16.096  0.0000E+00  0.3200E-01
    -16.002  0.0000E+00  0.3200E-01
    -15.909  0.0000E+00  0.3200E-01
    -15.815  0.0000E+00  0.3200E-01
    -15.721  0.0000E+00  0.3200E-01
    -15.628  0.0000E+00  0.3200E-01
    -15.534  0.0000E+00  0.3200E-01
    -15.440  0.0000E+00  0.3200E-01
    -15.347  0.0000E+00  0.3200E-01
    -15.253  0.0000E+00  0.3200E-01
    -15.159  0.0000E+00  0.3200E-01
    -15.066  0.0000E+00  0.3200E-01
    -14.972  0.0000E+00  0.3200E-01
    -14.878  0.0000E+00  0.3200E-01
    -14.785  0.0000E+00  0.3200E-01
    -14.691  0.0000E+00  0.3200E-01
    -14.597  0.0000E+00  0.3200E-01
    -14.503  0.0000E+00  0.3200E-01
    -14.410  0.0000E+00  0.3200E-01
    -14.316  0.0000E+00  0.3200E-01
    -14.222  0.0000E+00  0.3200E-01
    -14.129  0.0000E+00  0.3200E-01
    -14.035  0.0000E+00  0.3200E-01
    -13.941  0.0000E+00  0.3200E-01
    -13.848  0.0000E+00  0.3200E-01
    -13.754  0.0000E+00  0.3200E-01
    -13.660  0.0000E+00  0.3200E-01
    -13.567  0.0000E+00  0.3200E-01
    -13.473  0.0000E+00  0.3200E-01
    -13.379  0.0000E+00  0.3200E-01
    -13.286  0.0000E+00  0.3200E-01
    -13.192  0.0000E+00  0.3200E-01
    -13.098  0.0000E+00  0.3200E-01
    -13.005  0.0000E+00  0.3200E-01
    -12.911  0.0000E+00  0.3200E-01
    -12.817  0.0000E+00  0.3200E-01
    -12.724  0.0000E+00  0.3200E-01
    -12.630  0.0000E+00  0.3200E-01
    -12.536  0.0000E+00  0.3200E-01
    -12.442  0.0000E+00  0.3200E-01
    -12.349  0.0000E+00  0.3200E-01
    -12.255  0.0000E+00  0.3200E-01
    -12.161  0.0000E+00  0.3200E-01
    -12.068  0.0000E+00  0.3200E-01
    -11.974  0.0000E+00  0.3200E-01
    -11.880  0.0000E+00  0.3200E-01
    -11.787  0.0000E+00  0.3200E-01
    -11.693  0.0000E+00  0.3200E-01
    -11.599  0.0000E+00  0.3200E-01
    -11.506  0.0000E+00  0.3200E-01
    -11.412  0.0000E+00  0.3200E-01
    -11.318  0.0000E+00  0.3200E-01
    -11.225  0.0000E+00  0.3200E-01
    -11.131  0.0000E+00  0.3200E-01
    -11.037  0.0000E+00  0.3200E-01
    -10.944  0.0000E+00  0.3200E-01
    -10.850  0.0000E+00  0.3200E-01
    -10.756  0.0000E+00  0.3200E-01
    -10.663  0.0000E+00  0.3200E-01
    -10.569  0.0000E+00  0.3200E-01
    -10.475  0.0000E+00  0.3200E-01
    -10.381  0.0000E+00  0.3200E-01
    -10.288  0.0000E+00  0.3200E-01
    -10.194  0.0000E+00  0.3200E-01
    -10.100  0.2261E-14  0.3200E-01
    -10.007  0.1901E-10  0.3200E-01
     -9.913  0.2884E-07  0.3200E-01
     -9.819  0.8064E-05  0.3200E-01
     -9.726  0.4300E-03  0.3204E-01
     -9.632  0.4604E-02  0.3247E-01
     -9.538  0.1052E-01  0.3346E-01
     -9.445  0.6102E-02  0.3403E-01
     -9.351  0.6910E-02  0.3468E-01
     -9.257  0.1021E-01  0.3563E-01
     -9.164  0.3633E-02  0.3597E-01
     -9.070  0.3845E-03  0.3601E-01
     -8.976  0.1713E-02  0.3617E-01
     -8.883  0.7981E-02  0.3692E-01
     -8.789  0.1536E-01  0.3836E-01
     -8.695  0.1850E-01  0.4009E-01
     -8.602  0.1555E-01  0.4155E-01
     -8.508  0.8438E-02  0.4234E-01
     -8.414  0.9995E-02  0.4327E-01
     -8.320  0.1115E-01  0.4432E-01
     -8.227  0.1950E-01  0.4614E-01
     -8.133  0.2535E-01  0.4852E-01
     -8.039  0.2890E-01  0.5123E-01
     -7.946  0.6634E-01  0.5744E-01
     -7.852  0.1108E+00  0.6783E-01
     -7.758  0.1198E+00  0.7905E-01
     -7.665  0.1159E+00  0.8990E-01
     -7.571  0.1129E+00  0.1005E+00
     -7.477  0.1007E+00  0.1099E+00
     -7.384  0.9931E-01  0.1192E+00
     -7.290  0.9861E-01  0.1285E+00
     -7.196  0.1003E+00  0.1378E+00
     -7.103  0.1265E+00  0.1497E+00
     -7.009  0.1454E+00  0.1633E+00
     -6.915  0.1472E+00  0.1771E+00
     -6.822  0.1515E+00  0.1913E+00
     -6.728  0.1612E+00  0.2064E+00
     -6.634  0.1718E+00  0.2225E+00
     -6.540  0.1860E+00  0.2399E+00
     -6.447  0.1875E+00  0.2575E+00
     -6.353  0.1542E+00  0.2719E+00
     -6.259  0.1245E+00  0.2836E+00
     -6.166  0.1190E+00  0.2947E+00
     -6.072  0.1433E+00  0.3082E+00
     -5.978  0.1736E+00  0.3244E+00
     -5.885  0.1810E+00  0.3414E+00
     -5.791  0.1740E+00  0.3577E+00
     -5.697  0.1658E+00  0.3732E+00
     -5.604  0.1677E+00  0.3889E+00
     -5.510  0.1751E+00  0.4053E+00
     -5.416  0.1783E+00  0.4220E+00
     -5.323  0.1762E+00  0.4385E+00
     -5.229  0.1635E+00  0.4539E+00
     -5.135  0.1617E+00  0.4690E+00
     -5.042  0.1699E+00  0.4849E+00
     -4.948  0.1841E+00  0.5022E+00
     -4.854  0.1924E+00  0.5202E+00
     -4.761  0.1855E+00  0.5376E+00
     -4.667  0.1876E+00  0.5552E+00
     -4.573  0.1826E+00  0.5723E+00
     -4.479  0.1918E+00  0.5902E+00
     -4.386  0.2158E+00  0.6105E+00
     -4.292  0.2277E+00  0.6318E+00
     -4.198  0.2226E+00  0.6526E+00
     -4.105  0.2187E+00  0.6731E+00
     -4.011  0.2073E+00  0.6926E+00
     -3.917  0.1899E+00  0.7103E+00
     -3.824  0.1843E+00  0.7276E+00
     -3.730  0.1866E+00  0.7451E+00
     -3.636  0.2091E+00  0.7647E+00
     -3.543  0.2227E+00  0.7855E+00
     -3.449  0.2000E+00  0.8043E+00
     -3.355  0.1689E+00  0.8201E+00
     -3.262  0.1575E+00  0.8349E+00
     -3.168  0.1573E+00  0.8496E+00
     -3.074  0.1550E+00  0.8641E+00
     -2.981  0.1525E+00  0.8784E+00
     -2.887  0.1574E+00  0.8932E+00
     -2.793  0.1647E+00  0.9086E+00
     -2.700  0.1678E+00  0.9243E+00
     -2.606  0.1752E+00  0.9407E+00
     -2.512  0.1733E+00  0.9569E+00
     -2.418  0.1648E+00  0.9724E+00
     -2.325  0.1647E+00  0.9878E+00
     -2.231  0.1603E+00  0.1003E+01
     -2.137  0.1499E+00  0.1017E+01
     -2.044  0.1326E+00  0.1029E+01
     -1.950  0.1230E+00  0.1041E+01
     -1.856  0.1186E+00  0.1052E+01
     -1.763  0.1092E+00  0.1062E+01
     -1.669  0.9981E-01  0.1072E+01
     -1.575  0.9294E-01  0.1080E+01
     -1.482  0.8472E-01  0.1088E+01
     -1.388  0.8075E-01  0.1096E+01
     -1.294  0.7428E-01  0.1103E+01
     -1.201  0.6836E-01  0.1109E+01
     -1.107  0.7744E-01  0.1116E+01
     -1.013  0.8710E-01  0.1124E+01
     -0.920  0.7211E-01  0.1131E+01
     -0.826  0.5674E-01  0.1137E+01
     -0.732  0.5004E-01  0.1141E+01
     -0.639  0.4968E-01  0.1146E+01
     -0.545  0.5212E-01  0.1151E+01
     -0.451  0.5505E-01  0.1156E+01
     -0.357  0.4732E-01  0.1160E+01
     -0.264  0.3414E-01  0.1164E+01
     -0.170  0.2658E-01  0.1166E+01
     -0.076  0.3219E-01  0.1169E+01
      0.017  0.3277E-01  0.1172E+01
      0.111  0.3704E-01  0.1176E+01
      0.205  0.3754E-01  0.1179E+01
      0.298  0.3462E-01  0.1182E+01
      0.392  0.3886E-01  0.1186E+01
      0.486  0.3912E-01  0.1190E+01
      0.579  0.2770E-01  0.1192E+01
      0.673  0.2325E-01  0.1194E+01
      0.767  0.1855E-01  0.1196E+01
      0.860  0.1679E-01  0.1198E+01
      0.954  0.1738E-01  0.1199E+01
      1.048  0.1896E-01  0.1201E+01
      1.141  0.1858E-01  0.1203E+01
      1.235  0.2732E-01  0.1205E+01
      1.329  0.3433E-01  0.1209E+01
      1.422  0.2856E-01  0.1211E+01
      1.516  0.3431E-01  0.1215E+01
      1.610  0.4569E-01  0.1219E+01
      1.704  0.4482E-01  0.1223E+01
      1.797  0.3200E-01  0.1226E+01
      1.891  0.2938E-01  0.1229E+01
      1.985  0.3138E-01  0.1232E+01
      2.078  0.2484E-01  0.1234E+01
      2.172  0.1607E-01  0.1236E+01
      2.266  0.1264E-01  0.1237E+01
      2.359  0.1847E-01  0.1239E+01
      2.453  0.2145E-01  0.1241E+01
      2.547  0.1441E-01  0.1242E+01
      2.640  0.1224E-01  0.1243E+01
      2.734  0.1978E-01  0.1245E+01
      2.828  0.2658E-01  0.1247E+01
      2.921  0.3401E-01  0.1251E+01
      3.015  0.3387E-01  0.1254E+01
      3.109  0.2379E-01  0.1256E+01
      3.202  0.2731E-01  0.1258E+01
      3.296  0.2757E-01  0.1261E+01
      3.390  0.2463E-01  0.1263E+01
      3.484  0.2419E-01  0.1266E+01
      3.577  0.2663E-01  0.1268E+01
      3.671  0.3697E-01  0.1272E+01
      3.765  0.5240E-01  0.1277E+01
      3.858  0.4878E-01  0.1281E+01
      3.952  0.4118E-01  0.1285E+01
      4.046  0.3817E-01  0.1289E+01
      4.139  0.3945E-01  0.1292E+01
      4.233  0.4397E-01  0.1296E+01
      4.327  0.4290E-01  0.1300E+01
      4.420  0.4069E-01  0.1304E+01
      4.514  0.4540E-01  0.1308E+01
      4.608  0.5115E-01  0.1313E+01
      4.701  0.5465E-01  0.1318E+01
      4.795  0.5506E-01  0.1323E+01
      4.889  0.5466E-01  0.1329E+01
      4.982  0.6308E-01  0.1335E+01
      5.076  0.6137E-01  0.1340E+01
      5.170  0.3281E-01  0.1343E+01
      5.263  0.6601E-02  0.1344E+01
      5.357  0.3695E-03  0.1344E+01
      5.451  0.4722E-05  0.1344E+01
      5.545  0.1232E-07  0.1344E+01
      5.638  0.6176E-11  0.1344E+01
      5.732  0.5744E-15  0.1344E+01
      5.826  0.0000E+00  0.1344E+01
      5.919  0.0000E+00  0.1344E+01
      6.013  0.0000E+00  0.1344E+01
      6.107  0.0000E+00  0.1344E+01
      6.200  0.0000E+00  0.1344E+01
      6.294  0.0000E+00  0.1344E+01
      6.388  0.0000E+00  0.1344E+01
