 vasp.5.4.1 24Jun15 (build Mar 14 2019 10:18:33) complex                        
  
 executed on INTEL-19.0.2+OPENMPI date 2023.03.12  18:14:57
 running on   36 total cores
 distrk:  each k-point on   36 cores,    1 groups
 distr:  one band on NCORES_PER_BAND=   6 cores,    6 groups


--------------------------------------------------------------------------------------------------------


 INCAR:
 POTCAR:    PAW_PBE Au 04Oct2007                  
 POTCAR:    PAW_PBE O 08Apr2002                   
 POTCAR:    PAW_PBE Pd 04Jan2005                  
 POTCAR:    PAW_PBE Au 04Oct2007                  
  local pseudopotential read in
  partial core-charges read in
  partial kinetic energy density read in
  atomic valenz-charges read in
  non local Contribution for L=           2  read in
    real space projection operators read in
  non local Contribution for L=           2  read in
    real space projection operators read in
  non local Contribution for L=           0  read in
    real space projection operators read in
  non local Contribution for L=           0  read in
    real space projection operators read in
  non local Contribution for L=           1  read in
    real space projection operators read in
  non local Contribution for L=           1  read in
    real space projection operators read in
    PAW grid and wavefunctions read in
 
   number of l-projection  operators is LMAX  =           6
   number of lm-projection operators is LMMAX =          18
 
 POTCAR:    PAW_PBE O 08Apr2002                   
  local pseudopotential read in
  partial core-charges read in
  partial kinetic energy density read in
  kinetic energy density of atom read in
  atomic valenz-charges read in
  non local Contribution for L=           0  read in
    real space projection operators read in
  non local Contribution for L=           0  read in
    real space projection operators read in
  non local Contribution for L=           1  read in
    real space projection operators read in
  non local Contribution for L=           1  read in
    real space projection operators read in
    PAW grid and wavefunctions read in
 
   number of l-projection  operators is LMAX  =           4
   number of lm-projection operators is LMMAX =           8
 
 POTCAR:    PAW_PBE Pd 04Jan2005                  
  local pseudopotential read in
  partial core-charges read in
  partial kinetic energy density read in
  atomic valenz-charges read in
  non local Contribution for L=           2  read in
    real space projection operators read in
  non local Contribution for L=           2  read in
    real space projection operators read in
  non local Contribution for L=           0  read in
    real space projection operators read in
  non local Contribution for L=           0  read in
    real space projection operators read in
  non local Contribution for L=           1  read in
    real space projection operators read in
  non local Contribution for L=           1  read in
    real space projection operators read in
    PAW grid and wavefunctions read in
 
   number of l-projection  operators is LMAX  =           6
   number of lm-projection operators is LMMAX =          18
 
 Optimization of the real space projectors (new method)

 maximal supplied QI-value         = 15.12
 optimisation between [QCUT,QGAM] = [ 10.13, 20.41] = [ 28.73,116.64] Ry 
 Optimized for a Real-space Cutoff    1.51 Angstroem

   l    n(q)    QCUT    max X(q) W(low)/X(q) W(high)/X(q)  e(spline) 
   2      8    10.129    60.898    0.46E-03    0.46E-03    0.14E-06
   2      8    10.129    58.894    0.47E-03    0.47E-03    0.14E-06
   0      9    10.129   109.617    0.16E-03    0.11E-03    0.54E-07
   0      9    10.129    75.026    0.15E-03    0.11E-03    0.52E-07
   1      9    10.129    16.344    0.96E-04    0.15E-03    0.14E-06
   1      9    10.129    10.160    0.81E-04    0.12E-03    0.11E-06
 Optimization of the real space projectors (new method)

 maximal supplied QI-value         = 24.76
 optimisation between [QCUT,QGAM] = [ 10.15, 20.30] = [ 28.85,115.39] Ry 
 Optimized for a Real-space Cutoff    1.38 Angstroem

   l    n(q)    QCUT    max X(q) W(low)/X(q) W(high)/X(q)  e(spline) 
   0      8    10.150    20.381    0.22E-03    0.32E-03    0.29E-06
   0      8    10.150    15.268    0.23E-03    0.35E-03    0.30E-06
   1      8    10.150     5.964    0.46E-03    0.53E-03    0.21E-06
   1      8    10.150     5.382    0.38E-03    0.45E-03    0.19E-06
 Optimization of the real space projectors (new method)

 maximal supplied QI-value         = 14.36
 optimisation between [QCUT,QGAM] = [ 10.20, 20.39] = [ 29.12,116.47] Ry 
 Optimized for a Real-space Cutoff    1.51 Angstroem

   l    n(q)    QCUT    max X(q) W(low)/X(q) W(high)/X(q)  e(spline) 
   2      8    10.197    59.108    0.26E-03    0.14E-03    0.96E-07
   2      8    10.197    58.101    0.27E-03    0.14E-03    0.98E-07
   0      9    10.197   102.235    0.54E-04    0.60E-05    0.72E-07
   0      9    10.197    58.388    0.52E-04    0.60E-05    0.68E-07
   1      9    10.197    22.191    0.18E-03    0.25E-03    0.79E-07
   1      9    10.197    15.590    0.15E-03    0.21E-03    0.69E-07
  PAW_PBE Au 04Oct2007                  :
 energy of atom  1       EATOM= -926.0867
 kinetic energy error for atom=    0.0062 (will be added to EATOM!!)
  PAW_PBE O 08Apr2002                   :
 energy of atom  2       EATOM= -432.3788
 kinetic energy error for atom=    0.1156 (will be added to EATOM!!)
  PAW_PBE Pd 04Jan2005                  :
 energy of atom  3       EATOM= -809.7530
 kinetic energy error for atom=    0.0091 (will be added to EATOM!!)
 
 
 POSCAR: Au  O Pd                                
  positions in cartesian coordinates
  No initial velocities read in
 exchange correlation table for  LEXCH =        8
   RHO(1)=    0.500       N(1)  =     2000
   RHO(2)=  100.500       N(2)  =     4000

 VTST: version 3.2, (02/03/18)

 CHAIN: initializing optimizer
 
 OPT: Using VASP Conjugate-Gradient optimizer
 CHAIN: Read ICHAIN            0
 
 POSCAR: Au  O Pd                                
  positions in cartesian coordinates
  No initial velocities read in
 


--------------------------------------------------------------------------------------------------------


 ion  position               nearest neighbor table
   1  0.083  0.083  0.382-  53 2.75  49 2.75  36 2.75  23 2.75   2 2.75   8 2.75  10 2.75  11 2.75
                            21 2.75
   2  0.083  0.833  0.382-  36 2.75  14 2.75   3 2.75   1 2.75  21 2.75  24 2.75   6 2.75   5 2.75
                            10 2.75
   3  0.917  0.917  0.468-   5 2.75   2 2.75  21 2.75  14 2.75  22 2.75  39 2.75  49 2.75   9 2.75
                            36 2.75  56 2.75  50 2.75  51 2.75
   4  0.833  0.583  0.382-  39 2.75  35 2.75   7 2.75  19 2.75  23 2.75   5 2.75   8 2.75   6 2.75
                            18 2.75
   5  0.833  0.833  0.382-   3 2.75   9 2.75  39 2.75   4 2.75  15 2.75  21 2.75   6 2.75   2 2.75
                            19 2.75
   6  0.083  0.583  0.382-  14 2.75  12 2.75  39 2.75   2 2.75  13 2.75   5 2.75   8 2.75  24 2.75
                             4 2.75
   7  0.917  0.417  0.468-  23 2.75   8 2.75   4 2.75  35 2.75  39 2.75  49 2.75  53 2.75  12 2.75
                            48 2.75  43 2.75  46 2.75  33 2.75
   8  0.083  0.333  0.382-  12 2.75   7 2.75  53 2.75   1 2.75  11 2.75   4 2.75   6 2.75  23 2.75
                            13 2.75
   9  0.667  0.917  0.468-  19 2.75  15 2.75   5 2.75  16 2.75  22 2.75  35 2.75  39 2.75  20 2.75
                             3 2.75  38 2.75  40 2.75  50 2.75
  10  0.333  0.833  0.382-  20 2.75  36 2.75  55 2.75   1 2.75  24 2.75  11 2.75  18 2.75   2 2.75
                            19 2.75
  11  0.333  0.083  0.382-  16 2.75  20 2.75  53 2.75   8 2.75  19 2.75  10 2.75  13 2.75   1 2.75
                            15 2.75
  12  0.167  0.417  0.468-   8 2.75   6 2.75  13 2.75  14 2.75  16 2.75  39 2.75  53 2.75  41 2.75
                             7 2.75  44 2.75  33 2.75  34 2.75
  13  0.333  0.333  0.382-  41 2.75  16 2.75  12 2.75  15 2.75  11 2.75  24 2.75   6 2.75   8 2.75
                            17 2.75
  14  0.167  0.667  0.468-   6 2.75   2 2.75  24 2.75  12 2.75   3 2.75  36 2.75  41 2.75  39 2.75
                            55 2.75  34 2.75  56 2.75  37 2.75
  15  0.583  0.083  0.382-  22 2.75  16 2.75   9 2.75   5 2.75  17 2.75  19 2.75  13 2.75  21 2.75
                            11 2.75
  16  0.417  0.167  0.468-  11 2.75  13 2.75  15 2.75   9 2.75  12 2.75  20 2.75  41 2.75  22 2.75
                            53 2.75  40 2.75  44 2.75  42 2.75
  17  0.583  0.333  0.382-  48 2.75  41 2.75  22 2.75  15 2.75  24 2.75  18 2.75  21 2.75  23 2.75
                            13 2.75
  18  0.583  0.583  0.382-  35 2.75  48 2.75  55 2.75  23 2.75  10 2.75  17 2.75  19 2.75  24 2.75
                             4 2.75
  19  0.583  0.833  0.382-   9 2.75  20 2.75  35 2.75  15 2.75  18 2.75   4 2.75  11 2.75  10 2.75
                             5 2.75
  20  0.417  0.917  0.468-  10 2.75  11 2.75  19 2.75  16 2.75  35 2.75  53 2.75  55 2.75   9 2.75
                            36 2.75  52 2.75  54 2.75  40 2.75
  21  0.833  0.083  0.382-  49 2.75  22 2.75   3 2.75  17 2.75   2 2.75  23 2.75   5 2.75   1 2.75
                            15 2.75
  22  0.667  0.167  0.468-  15 2.75  17 2.75  21 2.75   9 2.75   3 2.75  41 2.75  48 2.75  16 2.75
                            49 2.75  50 2.75  42 2.75  47 2.75
  23  0.833  0.333  0.382-   7 2.75  48 2.75  49 2.75  18 2.75  21 2.75   4 2.75   1 2.75   8 2.75
                            17 2.75
  24  0.333  0.583  0.382-  55 2.75  41 2.75  14 2.75   2 2.75  17 2.75  10 2.75  13 2.75   6 2.75
                            18 2.75
  25  0.083  0.083  0.618-  43 2.33  54 2.33  51 2.33
  26  0.583  0.833  0.618-  40 2.33  38 2.33  52 2.33
  27  0.333  0.083  0.618-  44 2.33  40 2.33  54 2.33
  28  0.083  0.833  0.618-  51 2.33  37 2.33  56 2.33
  29  0.833  0.083  0.618-  47 2.33  51 2.33  50 2.33
  30  0.333  0.583  0.618-  37 2.33  45 2.33  34 2.33
  31  0.333  0.333  0.618-  34 2.33  42 2.33  44 2.33
  32  0.583  0.333  0.618-  45 2.33  47 2.33  42 2.33
  33  0.000  0.500  0.553-  38 2.75  43 2.75  44 2.75  56 2.75  46 2.75  34 2.75  39 2.75  12 2.75
                             7 2.75
  34  0.250  0.500  0.553-  31 2.33  30 2.33  37 2.75  42 2.75  44 2.75  56 2.75  45 2.75  33 2.75
                            14 2.75  41 2.75  12 2.75
  35  0.667  0.667  0.468-  18 2.75   4 2.75  19 2.75   7 2.75   9 2.75  20 2.75  48 2.75  39 2.75
                            55 2.75  46 2.75  52 2.75  38 2.75
  36  0.167  0.917  0.468-   2 2.75   1 2.75  10 2.75  14 2.75  49 2.75  53 2.75  55 2.75  20 2.75
                             3 2.75  37 2.75  51 2.75  54 2.75
  37  0.250  0.750  0.553-  30 2.33  28 2.33  34 2.75  45 2.75  51 2.75  54 2.75  52 2.75  56 2.75
                            36 2.75  55 2.75  14 2.75
  38  0.750  0.750  0.553-  26 2.33  33 2.75  40 2.75  46 2.75  50 2.75  52 2.75  56 2.75   9 2.75
                            39 2.75  35 2.75
  39  0.917  0.667  0.468-   4 2.75   5 2.75   6 2.75   3 2.75   7 2.75   9 2.75  12 2.75  14 2.75
                            35 2.75  33 2.75  38 2.75  56 2.75
  40  0.500  0.000  0.553-  26 2.33  27 2.33  38 2.75  42 2.75  44 2.75  52 2.75  50 2.75  54 2.75
                            16 2.75   9 2.75  20 2.75
  41  0.417  0.417  0.468-  13 2.75  17 2.75  24 2.75  14 2.75  22 2.75  16 2.75  55 2.75  48 2.75
                            12 2.75  42 2.75  34 2.75  45 2.75
  42  0.500  0.250  0.553-  31 2.33  32 2.33  34 2.75  40 2.75  45 2.75  50 2.75  47 2.75  44 2.75
                            41 2.75  22 2.75  16 2.75
  43  0.000  0.250  0.553-  25 2.33  33 2.75  46 2.75  51 2.75  54 2.75  44 2.75  47 2.75   7 2.75
                            53 2.75  49 2.75
  44  0.250  0.250  0.553-  27 2.33  31 2.33  33 2.75  34 2.75  40 2.75  54 2.75  43 2.75  42 2.75
                            12 2.75  16 2.75  53 2.75
  45  0.500  0.500  0.553-  32 2.33  30 2.33  37 2.75  42 2.75  47 2.75  52 2.75  34 2.75  46 2.75
                            55 2.75  48 2.75  41 2.75
  46  0.750  0.500  0.553-  38 2.75  43 2.75  47 2.75  52 2.75  33 2.75  45 2.75  35 2.75   7 2.75
                            48 2.75
  47  0.750  0.250  0.553-  29 2.33  32 2.33  45 2.75  46 2.75  50 2.75  51 2.75  42 2.75  43 2.75
                            48 2.75  49 2.75  22 2.75
  48  0.667  0.417  0.468-  17 2.75  18 2.75  23 2.75  22 2.75  35 2.75  49 2.75  55 2.75   7 2.75
                            41 2.75  47 2.75  45 2.75  46 2.75
  49  0.917  0.167  0.468-  21 2.75   1 2.75  23 2.75   3 2.75   7 2.75  36 2.75  48 2.75  22 2.75
                            53 2.75  51 2.75  47 2.75  43 2.75
  50  0.750  0.000  0.553-  29 2.33  38 2.75  42 2.75  47 2.75  56 2.75  51 2.75  40 2.75  22 2.75
                             3 2.75   9 2.75
  51  0.000  0.000  0.553-  28 2.33  29 2.33  25 2.33  37 2.75  43 2.75  47 2.75  56 2.75  54 2.75
                            50 2.75  49 2.75  36 2.75   3 2.75
  52  0.500  0.750  0.553-  26 2.33  40 2.75  45 2.75  46 2.75  54 2.75  37 2.75  38 2.75  20 2.75
                            35 2.75  55 2.75
  53  0.167  0.167  0.468-   1 2.75   8 2.75  11 2.75   7 2.75  12 2.75  20 2.75  36 2.75  16 2.75
                            49 2.75  54 2.75  43 2.75  44 2.75
  54  0.250  0.000  0.553-  25 2.33  27 2.33  37 2.75  43 2.75  44 2.75  52 2.75  51 2.75  40 2.75
                            53 2.75  20 2.75  36 2.75
  55  0.417  0.667  0.468-  24 2.75  18 2.75  10 2.75  20 2.75  36 2.75  41 2.75  48 2.75  35 2.75
                            14 2.75  45 2.75  37 2.75  52 2.75
  56  0.000  0.750  0.553-  28 2.33  33 2.75  34 2.75  50 2.75  51 2.75  37 2.75  38 2.75   3 2.75
                            14 2.75  39 2.75
 
  LATTYP: Found a hexagonal cell.
 ALAT       =    11.0025815153
 C/A-ratio  =     2.3805127059
  
  Lattice vectors:
  
 A1 = (   5.5012907576,  -9.5285150994,   0.0000000000)
 A2 = ( -11.0025815153,   0.0000000000,   0.0000000000)
 A3 = (   0.0000000000,   0.0000000000, -26.1917850943)


Analysis of symmetry for initial positions (statically):
=====================================================================
 Subroutine PRICEL returns:
 Original cell was already a primitive cell.
 

 Routine SETGRP: Setting up the symmetry group for a 
 hexagonal supercell.


 Subroutine GETGRP returns: Found  1 space group operations
 (whereof  1 operations were pure point group operations)
 out of a pool of 24 trial point group operations.


The static configuration has the point symmetry C_1 .


Analysis of symmetry for dynamics (positions and initial velocities):
=====================================================================
 Subroutine PRICEL returns:
 Original cell was already a primitive cell.
 

 Routine SETGRP: Setting up the symmetry group for a 
 hexagonal supercell.


 Subroutine GETGRP returns: Found  1 space group operations
 (whereof  1 operations were pure point group operations)
 out of a pool of 24 trial point group operations.


The dynamic configuration has the point symmetry C_1 .


Analysis of constrained symmetry for selective dynamics:
=====================================================================
 Subroutine PRICEL returns:
 Original cell was already a primitive cell.
 

 Routine SETGRP: Setting up the symmetry group for a 
 hexagonal supercell.


 Subroutine GETGRP returns: Found  1 space group operations
 (whereof  1 operations were pure point group operations)
 out of a pool of 24 trial point group operations.


The constrained configuration has the point symmetry C_1 .
 
 
 KPOINTS: Automatic mesh                          

Automatic generation of k-mesh.
Space group operators:
 irot       det(A)        alpha          n_x          n_y          n_z        tau_x        tau_y        tau_z
    1     1.000000     0.000000     1.000000     0.000000     0.000000     0.000000     0.000000     0.000000
 
 Subroutine IBZKPT returns following result:
 ===========================================
 
 Found      6 irreducible k-points:
 
 Following reciprocal coordinates:
            Coordinates               Weight
  0.250000  0.250000  0.000000     16.000000
  0.000000  0.250000  0.000000     16.000000
 -0.250000  0.000000  0.000000     16.000000
 -0.250000  0.250000  0.000000     16.000000
  0.500000 -0.250000  0.000000     16.000000
 -0.250000  0.500000  0.000000     16.000000
 
 Following cartesian coordinates:
            Coordinates               Weight
  0.022722  0.013119  0.000000     16.000000
  0.000000  0.026237  0.000000     16.000000
 -0.022722  0.013119  0.000000     16.000000
 -0.022722  0.039356  0.000000     16.000000
  0.045444 -0.052474  0.000000     16.000000
 -0.022722  0.065593  0.000000     16.000000
 


--------------------------------------------------------------------------------------------------------




 Dimension of arrays:
   k-points           NKPTS =      6   k-points in BZ     NKDIM =      6   number of bands    NBANDS=    336
   number of dos      NEDOS =    301   number of ions     NIONS =     56
   non local maximal  LDIM  =      6   non local SUM 2l+1 LMDIM =     18
   total plane-waves  NPLWV = 373248
   max r-space proj   IRMAX =   2004   max aug-charges    IRDMAX=   8511
   dimension x,y,z NGX =    54 NGY =   54 NGZ =  128
   dimension x,y,z NGXF=   108 NGYF=  108 NGZF=  256
   support grid    NGXF=   108 NGYF=  108 NGZF=  256
   ions per type =              24   8  24
 NGX,Y,Z   is equivalent  to a cutoff of   8.16,  8.16,  8.12 a.u.
 NGXF,Y,Z  is equivalent  to a cutoff of  16.32, 16.32, 16.25 a.u.


 I would recommend the setting:
   dimension x,y,z NGX =    54 NGY =   54 NGZ =  128
 SYSTEM =  unknown system                          
 POSCAR =  Au  O Pd                                

 Startparameter for this run:
   NWRITE =      1    write-flag & timer
   PREC   = normal    normal or accurate (medium, high low for compatibility)
   ISTART =      0    job   : 0-new  1-cont  2-samecut
   ICHARG =      2    charge: 1-file 2-atom 10-const
   ISPIN  =      1    spin polarized calculation?
   LNONCOLLINEAR =      F non collinear calculations
   LSORBIT =      F    spin-orbit coupling
   INIWAV =      1    electr: 0-lowe 1-rand  2-diag
   LASPH  =      F    aspherical Exc in radial PAW
   METAGGA=      F    non-selfconsistent MetaGGA calc.

 Electronic Relaxation 1
   ENCUT  =  400.0 eV  29.40 Ry    5.42 a.u.  17.94 17.94 42.71*2*pi/ulx,y,z
   ENINI  =  400.0     initial cutoff
   ENAUG  =  605.4 eV  augmentation charge cutoff
   NELM   =    500;   NELMIN=  2; NELMDL= -5     # of ELM steps 
   EDIFF  = 0.1E-05   stopping-criterion for ELM
   LREAL  =      T    real-space projection
   NLSPLINE    = F    spline interpolate recip. space projectors
   LCOMPAT=      F    compatible to vasp.4.4
   GGA_COMPAT  = T    GGA compatible to vasp.4.4-vasp.4.6
   LMAXPAW     = -100 max onsite density
   LMAXMIX     =    2 max onsite mixed and CHGCAR
   VOSKOWN=      1    Vosko Wilk Nusair interpolation
   ROPT   =   -0.00050  -0.00050  -0.00050
 Ionic relaxation
   EDIFFG = -.2E-01   stopping-criterion for IOM
   NSW    =    500    number of steps for IOM
   NBLOCK =      1;   KBLOCK =    500    inner block; outer block 
   IBRION =      2    ionic relax: 0-MD 1-quasi-New 2-CG
   NFREE  =      2    steps in history (QN), initial steepest desc. (CG)
   ISIF   =      0    stress and relaxation
   IWAVPR =     11    prediction:  0-non 1-charg 2-wave 3-comb
   ISYM   =      2    0-nonsym 1-usesym 2-fastsym
   LCORR  =      T    Harris-Foulkes like correction to forces

   POTIM  = 0.3500    time-step for ionic-motion
   TEIN   =    0.0    initial temperature
   TEBEG  =    0.0;   TEEND  =   0.0 temperature during run
   SMASS  =  -3.00    Nose mass-parameter (am)
   estimated Nose-frequenzy (Omega)   =  0.10E-29 period in steps =****** mass=  -0.277E-26a.u.
   SCALEE = 1.0000    scale energy and forces
   NPACO  =    256;   APACO  = 16.0  distance and # of slots for P.C.
   PSTRESS=    0.0 pullay stress

  Mass of Ions in am
   POMASS = 196.97 16.00106.42
  Ionic Valenz
   ZVAL   =  11.00  6.00 10.00
  Atomic Wigner-Seitz radii
   RWIGS  =  -1.00 -1.00 -1.00
  virtual crystal weights 
   VCA    =   1.00  1.00  1.00
   NELECT =     552.0000    total number of electrons
   NUPDOWN=      -1.0000    fix difference up-down

 DOS related values:
   EMIN   =  10.00;   EMAX   =-10.00  energy-range for DOS
   EFERMI =   0.00
   ISMEAR =     0;   SIGMA  =   0.10  broadening in eV -4-tet -1-fermi 0-gaus

 Electronic relaxation 2 (details)
   IALGO  =     68    algorithm
   LDIAG  =      T    sub-space diagonalisation (order eigenvalues)
   LSUBROT=      F    optimize rotation matrix (better conditioning)
   TURBO    =      0    0=normal 1=particle mesh
   IRESTART =      0    0=no restart 2=restart with 2 vectors
   NREBOOT  =      0    no. of reboots
   NMIN     =      0    reboot dimension
   EREF     =   0.00    reference energy to select bands
   IMIX   =      4    mixing-type and parameters
     AMIX     =   0.40;   BMIX     =  1.00
     AMIX_MAG =   1.60;   BMIX_MAG =  1.00
     AMIN     =   0.10
     WC   =   100.;   INIMIX=   1;  MIXPRE=   1;  MAXMIX= -45

 Intra band minimization:
   WEIMIN = 0.0010     energy-eigenvalue tresh-hold
   EBREAK =  0.74E-09  absolut break condition
   DEPER  =   0.30     relativ break condition  

   TIME   =   0.40     timestep for ELM

  volume/ion in A,a.u.               =      49.03       330.90
  Fermi-wavevector in a.u.,A,eV,Ry     =   0.959017  1.812279 12.513458  0.919713
  Thomas-Fermi vector in A             =   2.088176
 
 Write flags
   LWAVE  =      F    write WAVECAR
   LCHARG =      F    write CHGCAR
   LVTOT  =      F    write LOCPOT, total local potential
   LVHAR  =      F    write LOCPOT, Hartree potential only
   LELF   =      F    write electronic localiz. function (ELF)
   LORBIT =      0    0 simple, 1 ext, 2 COOP (PROOUT)


 Dipole corrections
   LMONO  =      F    monopole corrections only (constant potential shift)
   LDIPOL =      T    correct potential (dipole corrections)
   IDIPOL =      3    1-x, 2-y, 3-z, 4-all directions 
   EPSILON=  1.0000000 bulk dielectric constant

 Exchange correlation treatment:
   GGA     =    PE    GGA type
   LEXCH   =     8    internal setting for exchange type
   VOSKOWN=      1    Vosko Wilk Nusair interpolation
   LHFCALC =     F    Hartree Fock is set to
   LHFONE  =     F    Hartree Fock one center treatment
   AEXX    =    0.0000 exact exchange contribution

 Linear response parameters
   LEPSILON=     F    determine dielectric tensor
   LRPA    =     F    only Hartree local field effects (RPA)
   LNABLA  =     F    use nabla operator in PAW spheres
   LVEL    =     F    velocity operator in full k-point grid
   LINTERFAST=   F  fast interpolation
   KINTER  =     0    interpolate to denser k-point grid
   CSHIFT  =0.1000    complex shift for real part using Kramers Kronig
   OMEGAMAX=  -1.0    maximum frequency
   DEG_THRESHOLD= 0.2000000E-02 threshold for treating states as degnerate
   RTIME   =    0.100 relaxation time in fs

 Orbital magnetization related:
   ORBITALMAG=     F  switch on orbital magnetization
   LCHIMAG   =     F  perturbation theory with respect to B field
   DQ        =  0.001000  dq finite difference perturbation B field



--------------------------------------------------------------------------------------------------------


 conjugate gradient relaxation of ions
   using selective dynamics as specified on POSCAR
   WARNING: If single coordinates had been selected the selection of coordinates
            is made according to the corresponding   d i r e c t   coordinates!
            Don't support selection of single cartesian coordinates -- sorry ...
  !
 charge density and potential will be updated during run
 non-spin polarized calculation
 RMM-DIIS sequential band-by-band and
  variant of blocked Davidson during initial phase
 perform sub-space diagonalisation
    before iterative eigenvector-optimisation
 modified Broyden-mixing scheme, WC =      100.0
 initial mixing is a Kerker type mixing with AMIX =  0.4000 and BMIX =      1.0000
 Hartree-type preconditioning will be used
 using additional bands           60
 real space projection scheme for non local part
 use partial core corrections
 calculate Harris-corrections to forces 
   (improved forces if not selfconsistent)
 use gradient corrections 
 use of overlap-Matrix (Vanderbilt PP)
 Gauss-broadening in eV      SIGMA  =   0.10


--------------------------------------------------------------------------------------------------------


  energy-cutoff  :      400.00
  volume of cell :     2745.90
      direct lattice vectors                 reciprocal lattice vectors
    11.002581515  0.000000000  0.000000000     0.090887761 -0.052474073  0.000000000
     5.501290758  9.528515099  0.000000000     0.000000000  0.104948147  0.000000000
     0.000000000  0.000000000 26.191785094     0.000000000  0.000000000  0.038179910

  length of vectors
    11.002581515 11.002581515 26.191785094     0.104948147  0.104948147  0.038179910


 
 k-points in units of 2pi/SCALE and weight: Automatic mesh                          
   0.02272194  0.01311852  0.00000000       0.167
   0.00000000  0.02623704  0.00000000       0.167
  -0.02272194  0.01311852  0.00000000       0.167
  -0.02272194  0.03935555  0.00000000       0.167
   0.04544388 -0.05247407  0.00000000       0.167
  -0.02272194  0.06559259  0.00000000       0.167
 
 k-points in reciprocal lattice and weights: Automatic mesh                          
   0.25000000  0.25000000  0.00000000       0.167
   0.00000000  0.25000000  0.00000000       0.167
  -0.25000000  0.00000000  0.00000000       0.167
  -0.25000000  0.25000000  0.00000000       0.167
   0.50000000 -0.25000000  0.00000000       0.167
  -0.25000000  0.50000000  0.00000000       0.167
 
 position of ions in fractional coordinates (direct lattice) 
   0.08333333  0.08333333  0.38179910
   0.08333333  0.83333333  0.38179910
   0.91666667  0.91666667  0.46754708
   0.83333333  0.58333333  0.38179910
   0.83333333  0.83333333  0.38179910
   0.08333333  0.58333333  0.38179910
   0.91666667  0.41666667  0.46754708
   0.08333333  0.33333333  0.38179910
   0.66666667  0.91666667  0.46754708
   0.33333333  0.83333333  0.38179910
   0.33333333  0.08333333  0.38179910
   0.16666667  0.41666667  0.46754708
   0.33333333  0.33333333  0.38179910
   0.16666667  0.66666667  0.46754708
   0.58333333  0.08333333  0.38179910
   0.41666667  0.16666667  0.46754708
   0.58333333  0.33333333  0.38179910
   0.58333333  0.58333333  0.38179910
   0.58333333  0.83333333  0.38179910
   0.41666667  0.91666667  0.46754708
   0.83333333  0.08333333  0.38179910
   0.66666667  0.16666667  0.46754708
   0.83333333  0.33333333  0.38179910
   0.33333333  0.58333333  0.38179910
   0.08333333  0.08333333  0.61820090
   0.58333333  0.83333333  0.61820090
   0.33333333  0.08333333  0.61820090
   0.08333333  0.83333333  0.61820090
   0.83333333  0.08333333  0.61820090
   0.33333333  0.58333333  0.61820090
   0.33333333  0.33333333  0.61820090
   0.58333333  0.33333333  0.61820090
   0.00000000  0.50000000  0.55329505
   0.25000000  0.50000000  0.55329505
   0.66666667  0.66666667  0.46754708
   0.16666667  0.91666667  0.46754708
   0.25000000  0.75000000  0.55329505
   0.75000000  0.75000000  0.55329505
   0.91666667  0.66666667  0.46754708
   0.50000000  0.00000000  0.55329505
   0.41666667  0.41666667  0.46754708
   0.50000000  0.25000000  0.55329505
   0.00000000  0.25000000  0.55329505
   0.25000000  0.25000000  0.55329505
   0.50000000  0.50000000  0.55329505
   0.75000000  0.50000000  0.55329505
   0.75000000  0.25000000  0.55329505
   0.66666667  0.41666667  0.46754708
   0.91666667  0.16666667  0.46754708
   0.75000000  0.00000000  0.55329505
   0.00000000  0.00000000  0.55329505
   0.50000000  0.75000000  0.55329505
   0.16666667  0.16666667  0.46754708
   0.25000000  0.00000000  0.55329505
   0.41666667  0.66666667  0.46754708
   0.00000000  0.75000000  0.55329505
 
 position of ions in cartesian coordinates  (Angst):
   1.37532269  0.79404292 10.00000000
   5.50129076  7.94042925 10.00000000
  15.12854958  8.73447217 12.24589255
  12.37790420  5.55830047 10.00000000
  13.75322689  7.94042925 10.00000000
   4.12596807  5.55830047 10.00000000
  12.37790420  3.97021462 12.24589255
   2.75064538  3.17617170 10.00000000
  12.37790420  8.73447217 12.24589255
   8.25193614  7.94042925 10.00000000
   4.12596807  0.79404292 10.00000000
   4.12596807  3.97021462 12.24589255
   5.50129076  3.17617170 10.00000000
   5.50129076  6.35234340 12.24589255
   6.87661345  0.79404292 10.00000000
   5.50129076  1.58808585 12.24589255
   8.25193614  3.17617170 10.00000000
   9.62725883  5.55830047 10.00000000
  11.00258152  7.94042925 10.00000000
   9.62725883  8.73447217 12.24589255
   9.62725883  0.79404292 10.00000000
   8.25193614  1.58808585 12.24589255
  11.00258152  3.17617170 10.00000000
   6.87661345  5.55830047 10.00000000
   1.37532269  0.79404292 16.19178509
  11.00258152  7.94042925 16.19178509
   4.12596807  0.79404292 16.19178509
   5.50129076  7.94042925 16.19178509
   9.62725883  0.79404292 16.19178509
   6.87661345  5.55830047 16.19178509
   5.50129076  3.17617170 16.19178509
   8.25193614  3.17617170 16.19178509
   2.75064538  4.76425755 14.49178509
   5.50129076  4.76425755 14.49178509
  11.00258152  6.35234340 12.24589255
   6.87661345  8.73447217 12.24589255
   6.87661345  7.14638632 14.49178509
  12.37790420  7.14638632 14.49178509
  13.75322689  6.35234340 12.24589255
   5.50129076  0.00000000 14.49178509
   6.87661345  3.97021462 12.24589255
   6.87661345  2.38212877 14.49178509
   1.37532269  2.38212877 14.49178509
   4.12596807  2.38212877 14.49178509
   8.25193614  4.76425755 14.49178509
  11.00258152  4.76425755 14.49178509
   9.62725883  2.38212877 14.49178509
   9.62725883  3.97021462 12.24589255
  11.00258152  1.58808585 12.24589255
   8.25193614  0.00000000 14.49178509
   0.00000000  0.00000000 14.49178509
   9.62725883  7.14638632 14.49178509
   2.75064538  1.58808585 12.24589255
   2.75064538  0.00000000 14.49178509
   8.25193614  6.35234340 12.24589255
   4.12596807  7.14638632 14.49178509
 


--------------------------------------------------------------------------------------------------------


 k-point  1 :   0.2500 0.2500 0.0000  plane waves:   49913
 k-point  2 :   0.0000 0.2500 0.0000  plane waves:   49913
 k-point  3 :  -0.2500 0.0000 0.0000  plane waves:   49913
 k-point  4 :  -0.2500 0.2500 0.0000  plane waves:   49888
 k-point  5 :   0.5000-0.2500 0.0000  plane waves:   49888
 k-point  6 :  -0.2500 0.5000 0.0000  plane waves:   49888

 maximum and minimum number of plane-waves per node :      8356     8289

 maximum number of plane-waves:     49913
 maximum index in each direction: 
   IXMAX=   18   IYMAX=   18   IZMAX=   42
   IXMIN=  -18   IYMIN=  -18   IZMIN=  -42

 WARNING: aliasing errors must be expected set NGX to  74 to avoid them
 WARNING: aliasing errors must be expected set NGY to  74 to avoid them
 WARNING: aliasing errors must be expected set NGZ to 170 to avoid them
 aliasing errors are usually negligible using standard VASP settings
 and one can safely disregard these warnings

 real space projection operators:
  total allocation   :      13503.38 KBytes
  max/ min on nodes  :       2265.66       2242.72


 parallel 3D FFT for wavefunctions:
    minimum data exchange during FFTs selected (reduces bandwidth)
 parallel 3D FFT for charge:
    minimum data exchange during FFTs selected (reduces bandwidth)


 total amount of memory used by VASP on root node    93015. kBytes
========================================================================

   base      :      30000. kBytes
   nonlr-proj:       4672. kBytes
   fftplans  :       4744. kBytes
   grid      :       7835. kBytes
   one-center:        155. kBytes
   wavefun   :      45609. kBytes
 
     INWAV:  cpu time    0.0000: real time    0.0000
 Broyden mixing: mesh for mixing (old mesh)
   NGX = 35   NGY = 35   NGZ = 85
  (NGX  =108   NGY  =108   NGZ  =256)
  gives a total of 104125 points

 initial charge density was supplied:
 charge density of overlapping atoms calculated
 number of electron     552.0000000 magnetization 
 keeping initial charge density in first step


--------------------------------------------------------------------------------------------------------


 Maximum index for non-local projection operator          347
 Maximum index for augmentation-charges          442 (set IRDMAX)


--------------------------------------------------------------------------------------------------------


 First call to EWALD:  gamma=   0.127
 Maximum number of real-space cells 4x 4x 2
 Maximum number of reciprocal cells 2x 2x 5

 FEWALD executed in parallel
    FEWALD:  cpu time    0.0028: real time    0.0028


----------------------------------------- Iteration    1(   1)  ---------------------------------------


    POTLOK:  cpu time    0.0592: real time    0.0593
    SETDIJ:  cpu time    0.0067: real time    0.0067
     EDDAV:  cpu time    8.3134: real time    8.3382
       DOS:  cpu time    0.0014: real time    0.0014
    --------------------------------------------
      LOOP:  cpu time    8.3902: real time    8.6935

 eigenvalue-minimisations  :  4092
 total energy-change (2. order) : 0.3657324E+04  (-0.2108603E+05)
 number of electron     552.0000000 magnetization 
 augmentation part      552.0000000 magnetization 

 DIPCOR: dipole corrections for dipol
 direction  3 min pos     1,
 dipolmoment           0.000000      0.000000      0.000075 electrons x Angstroem
 Tr[quadrupol]    -11096.905105

 energy correction for charged system         0.000000 eV
 dipol+quadrupol energy correction           -0.000000 eV
 added-field ion interaction          0.001569 eV  (added to PSCEN)


 Free energy of the ion-electron system (eV)
  ---------------------------------------------------
  alpha Z        PSCENC =       862.57805030
  Ewald energy   TEWEN  =    254548.94227716
  -Hartree energ DENC   =   -300120.85476751
  -exchange      EXHF   =         0.00000000
  -V(xc)+E(xc)   XCENC  =      -110.00594995
  PAW double counting   =     43112.45544455   -41079.41300390
  entropy T*S    EENTRO =        -0.13923904
  eigenvalues    EBANDS =      1325.87012459
  atomic energy  EATOM  =     45117.89144060
  Solvation  Ediel_sol  =         0.00000000
  ---------------------------------------------------
  free energy    TOTEN  =      3657.32437679 eV

  energy without entropy =     3657.46361583  energy(sigma->0) =     3657.39399631


--------------------------------------------------------------------------------------------------------




----------------------------------------- Iteration    1(   2)  ---------------------------------------


     EDDAV:  cpu time    9.9972: real time   10.1110
       DOS:  cpu time    0.0014: real time    0.0014
    --------------------------------------------
      LOOP:  cpu time    9.9997: real time   10.1854

 eigenvalue-minimisations  :  4848
 total energy-change (2. order) :-0.3607750E+04  (-0.3361687E+04)
 number of electron     552.0000000 magnetization 
 augmentation part      552.0000000 magnetization 

 DIPCOR: dipole corrections for dipol
 direction  3 min pos     1,
 dipolmoment           0.000000      0.000000      0.000075 electrons x Angstroem
 Tr[quadrupol]    -11096.905105

 energy correction for charged system         0.000000 eV
 dipol+quadrupol energy correction           -0.000000 eV
 added-field ion interaction          0.001569 eV  (added to PSCEN)


 Free energy of the ion-electron system (eV)
  ---------------------------------------------------
  alpha Z        PSCENC =       862.57805030
  Ewald energy   TEWEN  =    254548.94227716
  -Hartree energ DENC   =   -300120.85476751
  -exchange      EXHF   =         0.00000000
  -V(xc)+E(xc)   XCENC  =      -110.00594995
  PAW double counting   =     43112.45544455   -41079.41300390
  entropy T*S    EENTRO =        -0.17603501
  eigenvalues    EBANDS =     -2281.84315064
  atomic energy  EATOM  =     45117.89144060
  Solvation  Ediel_sol  =         0.00000000
  ---------------------------------------------------
  free energy    TOTEN  =        49.57430559 eV

  energy without entropy =       49.75034060  energy(sigma->0) =       49.66232309


--------------------------------------------------------------------------------------------------------




----------------------------------------- Iteration    1(   3)  ---------------------------------------


     EDDAV:  cpu time    9.5932: real time    9.6224
       DOS:  cpu time    0.0015: real time    0.0015
    --------------------------------------------
      LOOP:  cpu time    9.5953: real time    9.6286

 eigenvalue-minimisations  :  4548
 total energy-change (2. order) :-0.3068935E+03  (-0.2817409E+03)
 number of electron     552.0000000 magnetization 
 augmentation part      552.0000000 magnetization 

 DIPCOR: dipole corrections for dipol
 direction  3 min pos     1,
 dipolmoment           0.000000      0.000000      0.000075 electrons x Angstroem
 Tr[quadrupol]    -11096.905105

 energy correction for charged system         0.000000 eV
 dipol+quadrupol energy correction           -0.000000 eV
 added-field ion interaction          0.001569 eV  (added to PSCEN)


 Free energy of the ion-electron system (eV)
  ---------------------------------------------------
  alpha Z        PSCENC =       862.57805030
  Ewald energy   TEWEN  =    254548.94227716
  -Hartree energ DENC   =   -300120.85476751
  -exchange      EXHF   =         0.00000000
  -V(xc)+E(xc)   XCENC  =      -110.00594995
  PAW double counting   =     43112.45544455   -41079.41300390
  entropy T*S    EENTRO =        -0.45487570
  eigenvalues    EBANDS =     -2588.45781108
  atomic energy  EATOM  =     45117.89144060
  Solvation  Ediel_sol  =         0.00000000
  ---------------------------------------------------
  free energy    TOTEN  =      -257.31919553 eV

  energy without entropy =     -256.86431983  energy(sigma->0) =     -257.09175768


--------------------------------------------------------------------------------------------------------




----------------------------------------- Iteration    1(   4)  ---------------------------------------


     EDDAV:  cpu time    9.2704: real time    9.2971
       DOS:  cpu time    0.0014: real time    0.0014
    --------------------------------------------
      LOOP:  cpu time    9.2724: real time    9.3005

 eigenvalue-minimisations  :  4380
 total energy-change (2. order) :-0.1122221E+02  (-0.1105132E+02)
 number of electron     552.0000000 magnetization 
 augmentation part      552.0000000 magnetization 

 DIPCOR: dipole corrections for dipol
 direction  3 min pos     1,
 dipolmoment           0.000000      0.000000      0.000075 electrons x Angstroem
 Tr[quadrupol]    -11096.905105

 energy correction for charged system         0.000000 eV
 dipol+quadrupol energy correction           -0.000000 eV
 added-field ion interaction          0.001569 eV  (added to PSCEN)


 Free energy of the ion-electron system (eV)
  ---------------------------------------------------
  alpha Z        PSCENC =       862.57805030
  Ewald energy   TEWEN  =    254548.94227716
  -Hartree energ DENC   =   -300120.85476751
  -exchange      EXHF   =         0.00000000
  -V(xc)+E(xc)   XCENC  =      -110.00594995
  PAW double counting   =     43112.45544455   -41079.41300390
  entropy T*S    EENTRO =        -0.47064266
  eigenvalues    EBANDS =     -2599.66425652
  atomic energy  EATOM  =     45117.89144060
  Solvation  Ediel_sol  =         0.00000000
  ---------------------------------------------------
  free energy    TOTEN  =      -268.54140794 eV

  energy without entropy =     -268.07076527  energy(sigma->0) =     -268.30608661


--------------------------------------------------------------------------------------------------------




----------------------------------------- Iteration    1(   5)  ---------------------------------------


     EDDAV:  cpu time    9.7497: real time    9.7886
       DOS:  cpu time    0.0014: real time    0.0014
    CHARGE:  cpu time    0.2726: real time    0.2740
    MIXING:  cpu time    0.0024: real time    0.0026
    --------------------------------------------
      LOOP:  cpu time   10.0267: real time   10.0686

 eigenvalue-minimisations  :  4668
 total energy-change (2. order) :-0.3531762E+00  (-0.3520507E+00)
 number of electron     551.9999704 magnetization 
 augmentation part      193.3800582 magnetization 

 DIPCOR: dipole corrections for dipol
 direction  3 min pos     1,
 dipolmoment           0.000000      0.000000      0.000075 electrons x Angstroem
 Tr[quadrupol]    -11096.905105

 energy correction for charged system         0.000000 eV
 dipol+quadrupol energy correction           -0.000000 eV
 added-field ion interaction          0.001569 eV  (added to PSCEN)


 Broyden mixing:
  rms(total) = 0.71963E+01    rms(broyden)= 0.71957E+01
  rms(prec ) = 0.79862E+01
  weight for this iteration     100.00

 Free energy of the ion-electron system (eV)
  ---------------------------------------------------
  alpha Z        PSCENC =       862.57805030
  Ewald energy   TEWEN  =    254548.94227716
  -Hartree energ DENC   =   -300120.85476751
  -exchange      EXHF   =         0.00000000
  -V(xc)+E(xc)   XCENC  =      -110.00594995
  PAW double counting   =     43112.45544455   -41079.41300390
  entropy T*S    EENTRO =        -0.47144659
  eigenvalues    EBANDS =     -2600.01662881
  atomic energy  EATOM  =     45117.89144060
  Solvation  Ediel_sol  =         0.00000000
  ---------------------------------------------------
  free energy    TOTEN  =      -268.89458416 eV

  energy without entropy =     -268.42313757  energy(sigma->0) =     -268.65886086


--------------------------------------------------------------------------------------------------------




----------------------------------------- Iteration    1(   6)  ---------------------------------------


    POTLOK:  cpu time    0.0450: real time    0.0451
    SETDIJ:  cpu time    0.0059: real time    0.0059
    EDDIAG:  cpu time    1.4975: real time    1.5040
  RMM-DIIS:  cpu time    4.4477: real time    4.5477
    ORTHCH:  cpu time    0.3600: real time    0.3617
       DOS:  cpu time    0.0014: real time    0.0014
    CHARGE:  cpu time    0.2806: real time    0.2817
    MIXING:  cpu time    0.0031: real time    0.0031
    --------------------------------------------
      LOOP:  cpu time    6.6417: real time    6.7540

 eigenvalue-minimisations  :  4579
 total energy-change (2. order) :-0.4353722E+03  (-0.7382504E+02)
 number of electron     551.9999047 magnetization 
 augmentation part      189.1588545 magnetization 

 DIPCOR: dipole corrections for dipol
 direction  3 min pos     1,
 dipolmoment           0.000000      0.000000      9.635489 electrons x Angstroem
 Tr[quadrupol]    -11099.853622

 energy correction for charged system         0.000000 eV
 dipol+quadrupol energy correction           -3.059121 eV
 added-field ion interaction        200.481125 eV  (added to PSCEN)


 Broyden mixing:
  rms(total) = 0.14879E+02    rms(broyden)= 0.14877E+02
  rms(prec ) = 0.18124E+02
  weight for this iteration     100.00

 eigenvalues of (default mixing * dielectric matrix)
  average eigenvalue GAMMA=   0.1151
  0.1151

 Free energy of the ion-electron system (eV)
  ---------------------------------------------------
  alpha Z        PSCENC =      1059.99848521
  Ewald energy   TEWEN  =    254548.94227716
  -Hartree energ DENC   =   -299570.27217350
  -exchange      EXHF   =         0.00000000
  -V(xc)+E(xc)   XCENC  =      -113.10222387
  PAW double counting   =     46713.06517438   -44747.86113282
  entropy T*S    EENTRO =        -0.31948005
  eigenvalues    EBANDS =     -3712.60917959
  atomic energy  EATOM  =     45117.89144060
  Solvation  Ediel_sol  =         0.00000000
  ---------------------------------------------------
  free energy    TOTEN  =      -704.26681247 eV

  energy without entropy =     -703.94733243  energy(sigma->0) =     -704.10707245


--------------------------------------------------------------------------------------------------------




----------------------------------------- Iteration    1(   7)  ---------------------------------------


    POTLOK:  cpu time    0.0456: real time    0.0464
    SETDIJ:  cpu time    0.0061: real time    0.0062
    EDDIAG:  cpu time    1.4843: real time    1.4883
  RMM-DIIS:  cpu time    4.0444: real time    4.0557
    ORTHCH:  cpu time    0.3600: real time    0.3612
       DOS:  cpu time    0.0014: real time    0.0014
    CHARGE:  cpu time    0.2760: real time    0.2766
    MIXING:  cpu time    0.0021: real time    0.0021
    --------------------------------------------
      LOOP:  cpu time    6.2208: real time    6.2412

 eigenvalue-minimisations  :  4035
 total energy-change (2. order) : 0.4308428E+03  (-0.8867982E+01)
 number of electron     551.9999237 magnetization 
 augmentation part      195.4942934 magnetization 

 DIPCOR: dipole corrections for dipol
 direction  3 min pos     1,
 dipolmoment           0.000000      0.000000      3.256483 electrons x Angstroem
 Tr[quadrupol]    -11091.377173

 energy correction for charged system         0.000000 eV
 dipol+quadrupol energy correction           -0.349419 eV
 added-field ion interaction         67.756112 eV  (added to PSCEN)


 Broyden mixing:
  rms(total) = 0.79271E+01    rms(broyden)= 0.79269E+01
  rms(prec ) = 0.90571E+01
  weight for this iteration     100.00

 eigenvalues of (default mixing * dielectric matrix)
  average eigenvalue GAMMA=   0.6107
  0.8187  0.4028

 Free energy of the ion-electron system (eV)
  ---------------------------------------------------
  alpha Z        PSCENC =       929.98317429
  Ewald energy   TEWEN  =    254548.94227716
  -Hartree energ DENC   =   -299482.43586802
  -exchange      EXHF   =         0.00000000
  -V(xc)+E(xc)   XCENC  =      -120.73317831
  PAW double counting   =     47258.65492903   -45305.25990606
  entropy T*S    EENTRO =        -0.21563497
  eigenvalues    EBANDS =     -3220.25121967
  atomic energy  EATOM  =     45117.89144060
  Solvation  Ediel_sol  =         0.00000000
  ---------------------------------------------------
  free energy    TOTEN  =      -273.42398594 eV

  energy without entropy =     -273.20835097  energy(sigma->0) =     -273.31616846


--------------------------------------------------------------------------------------------------------




----------------------------------------- Iteration    1(   8)  ---------------------------------------


    POTLOK:  cpu time    0.0432: real time    0.0433
    SETDIJ:  cpu time    0.0058: real time    0.0058
    EDDIAG:  cpu time    1.4884: real time    1.4938
  RMM-DIIS:  cpu time    4.0332: real time    4.0476
    ORTHCH:  cpu time    0.3622: real time    0.3634
       DOS:  cpu time    0.0014: real time    0.0014
    CHARGE:  cpu time    0.2717: real time    0.2724
    MIXING:  cpu time    0.0021: real time    0.0021
    --------------------------------------------
      LOOP:  cpu time    6.2088: real time    6.2324

 eigenvalue-minimisations  :  4041
 total energy-change (2. order) :-0.2368114E+02  (-0.1363710E+02)
 number of electron     551.9999523 magnetization 
 augmentation part      194.7004367 magnetization 

 DIPCOR: dipole corrections for dipol
 direction  3 min pos     1,
 dipolmoment           0.000000      0.000000      3.231548 electrons x Angstroem
 Tr[quadrupol]    -11109.699551

 energy correction for charged system         0.000000 eV
 dipol+quadrupol energy correction           -0.344089 eV
 added-field ion interaction         67.237302 eV  (added to PSCEN)


 Broyden mixing:
  rms(total) = 0.83299E+01    rms(broyden)= 0.83283E+01
  rms(prec ) = 0.94763E+01
  weight for this iteration     100.00

 eigenvalues of (default mixing * dielectric matrix)
  average eigenvalue GAMMA=   0.6041
  1.2389  0.3673  0.2062

 Free energy of the ion-electron system (eV)
  ---------------------------------------------------
  alpha Z        PSCENC =       929.46969483
  Ewald energy   TEWEN  =    254548.94227716
  -Hartree energ DENC   =   -299876.15550097
  -exchange      EXHF   =         0.00000000
  -V(xc)+E(xc)   XCENC  =      -122.78168048
  PAW double counting   =     49323.08378029   -47391.92587202
  entropy T*S    EENTRO =        -0.16263006
  eigenvalues    EBANDS =     -2825.46663889
  atomic energy  EATOM  =     45117.89144060
  Solvation  Ediel_sol  =         0.00000000
  ---------------------------------------------------
  free energy    TOTEN  =      -297.10512954 eV

  energy without entropy =     -296.94249948  energy(sigma->0) =     -297.02381451


--------------------------------------------------------------------------------------------------------




----------------------------------------- Iteration    1(   9)  ---------------------------------------


    POTLOK:  cpu time    0.0429: real time    0.0430
    SETDIJ:  cpu time    0.0058: real time    0.0058
    EDDIAG:  cpu time    1.4891: real time    1.4933
  RMM-DIIS:  cpu time    4.0855: real time    4.0970
    ORTHCH:  cpu time    0.3568: real time    0.3632
       DOS:  cpu time    0.0014: real time    0.0014
    CHARGE:  cpu time    0.2751: real time    0.2758
    MIXING:  cpu time    0.0023: real time    0.0023
    --------------------------------------------
      LOOP:  cpu time    6.2595: real time    6.2855

 eigenvalue-minimisations  :  4047
 total energy-change (2. order) : 0.5369737E+02  (-0.8206732E+01)
 number of electron     551.9999368 magnetization 
 augmentation part      203.3413908 magnetization 

 DIPCOR: dipole corrections for dipol
 direction  3 min pos     1,
 dipolmoment           0.000000      0.000000      2.801179 electrons x Angstroem
 Tr[quadrupol]    -11112.509413

 energy correction for charged system         0.000000 eV
 dipol+quadrupol energy correction           -0.258542 eV
 added-field ion interaction         58.282826 eV  (added to PSCEN)


 Broyden mixing:
  rms(total) = 0.39870E+01    rms(broyden)= 0.39862E+01
  rms(prec ) = 0.43026E+01
  weight for this iteration     100.00

 eigenvalues of (default mixing * dielectric matrix)
  average eigenvalue GAMMA=   0.5918
  1.5093  0.3235  0.2672  0.2672

 Free energy of the ion-electron system (eV)
  ---------------------------------------------------
  alpha Z        PSCENC =       920.60076594
  Ewald energy   TEWEN  =    254548.94227716
  -Hartree energ DENC   =   -299898.29539729
  -exchange      EXHF   =         0.00000000
  -V(xc)+E(xc)   XCENC  =      -121.63656051
  PAW double counting   =     50295.49642990   -48380.55249804
  entropy T*S    EENTRO =        -0.18367242
  eigenvalues    EBANDS =     -2725.67054047
  atomic energy  EATOM  =     45117.89144060
  Solvation  Ediel_sol  =         0.00000000
  ---------------------------------------------------
  free energy    TOTEN  =      -243.40775513 eV

  energy without entropy =     -243.22408270  energy(sigma->0) =     -243.31591892


--------------------------------------------------------------------------------------------------------




----------------------------------------- Iteration    1(  10)  ---------------------------------------


    POTLOK:  cpu time    0.0428: real time    0.0429
    SETDIJ:  cpu time    0.0058: real time    0.0058
    EDDIAG:  cpu time    1.4819: real time    1.4971
  RMM-DIIS:  cpu time    3.9964: real time    4.0105
    ORTHCH:  cpu time    0.3562: real time    0.3571
       DOS:  cpu time    0.0015: real time    0.0015
    CHARGE:  cpu time    0.2759: real time    0.2770
    MIXING:  cpu time    0.0025: real time    0.0025
    --------------------------------------------
      LOOP:  cpu time    6.1635: real time    6.1978

 eigenvalue-minimisations  :  4046
 total energy-change (2. order) : 0.1296048E+02  (-0.2403417E+01)
 number of electron     551.9999521 magnetization 
 augmentation part      201.2645610 magnetization 

 DIPCOR: dipole corrections for dipol
 direction  3 min pos     1,
 dipolmoment           0.000000      0.000000      2.941134 electrons x Angstroem
 Tr[quadrupol]    -11117.865471

 energy correction for charged system         0.000000 eV
 dipol+quadrupol energy correction           -0.285022 eV
 added-field ion interaction         61.194810 eV  (added to PSCEN)


 Broyden mixing:
  rms(total) = 0.24298E+01    rms(broyden)= 0.24280E+01
  rms(prec ) = 0.27804E+01
  weight for this iteration     100.00

 eigenvalues of (default mixing * dielectric matrix)
  average eigenvalue GAMMA=   0.6505
  1.9114  0.4207  0.4207  0.2728  0.2267

 Free energy of the ion-electron system (eV)
  ---------------------------------------------------
  alpha Z        PSCENC =       923.48626868
  Ewald energy   TEWEN  =    254548.94227716
  -Hartree energ DENC   =   -300040.12745139
  -exchange      EXHF   =         0.00000000
  -V(xc)+E(xc)   XCENC  =      -124.27812075
  PAW double counting   =     51205.92519208   -49298.11683139
  entropy T*S    EENTRO =        -0.29856590
  eigenvalues    EBANDS =     -2563.87148749
  atomic energy  EATOM  =     45117.89144060
  Solvation  Ediel_sol  =         0.00000000
  ---------------------------------------------------
  free energy    TOTEN  =      -230.44727838 eV

  energy without entropy =     -230.14871248  energy(sigma->0) =     -230.29799543


--------------------------------------------------------------------------------------------------------




----------------------------------------- Iteration    1(  11)  ---------------------------------------


    POTLOK:  cpu time    0.0441: real time    0.0442
    SETDIJ:  cpu time    0.0066: real time    0.0066
    EDDIAG:  cpu time    1.4845: real time    1.4884
  RMM-DIIS:  cpu time    4.0334: real time    4.0540
    ORTHCH:  cpu time    0.3521: real time    0.3533
       DOS:  cpu time    0.0013: real time    0.0013
    CHARGE:  cpu time    0.2762: real time    0.2769
    MIXING:  cpu time    0.0026: real time    0.0026
    --------------------------------------------
      LOOP:  cpu time    6.2015: real time    6.2321

 eigenvalue-minimisations  :  4046
 total energy-change (2. order) :-0.6775583E+00  (-0.1040981E+01)
 number of electron     551.9999512 magnetization 
 augmentation part      201.4751602 magnetization 

 DIPCOR: dipole corrections for dipol
 direction  3 min pos     1,
 dipolmoment           0.000000      0.000000      2.814743 electrons x Angstroem
 Tr[quadrupol]    -11116.535979

 energy correction for charged system         0.000000 eV
 dipol+quadrupol energy correction           -0.261052 eV
 added-field ion interaction         58.565048 eV  (added to PSCEN)


 Broyden mixing:
  rms(total) = 0.27103E+01    rms(broyden)= 0.27090E+01
  rms(prec ) = 0.30497E+01
  weight for this iteration     100.00

 eigenvalues of (default mixing * dielectric matrix)
  average eigenvalue GAMMA=   0.6774
  2.3259  0.5109  0.5109  0.2583  0.2583  0.2000

 Free energy of the ion-electron system (eV)
  ---------------------------------------------------
  alpha Z        PSCENC =       920.88047794
  Ewald energy   TEWEN  =    254548.94227716
  -Hartree energ DENC   =   -299983.51961642
  -exchange      EXHF   =         0.00000000
  -V(xc)+E(xc)   XCENC  =      -124.58917023
  PAW double counting   =     51946.44847287   -50047.11730880
  entropy T*S    EENTRO =        -0.22847643
  eigenvalues    EBANDS =     -2609.83293337
  atomic energy  EATOM  =     45117.89144060
  Solvation  Ediel_sol  =         0.00000000
  ---------------------------------------------------
  free energy    TOTEN  =      -231.12483669 eV

  energy without entropy =     -230.89636026  energy(sigma->0) =     -231.01059847


--------------------------------------------------------------------------------------------------------




----------------------------------------- Iteration    1(  12)  ---------------------------------------


    POTLOK:  cpu time    0.0430: real time    0.0431
    SETDIJ:  cpu time    0.0062: real time    0.0062
    EDDIAG:  cpu time    1.4792: real time    1.4838
  RMM-DIIS:  cpu time    4.0321: real time    4.0933
    ORTHCH:  cpu time    0.3471: real time    0.3784
       DOS:  cpu time    0.0013: real time    0.0013
    CHARGE:  cpu time    0.2746: real time    0.2753
    MIXING:  cpu time    0.0026: real time    0.0026
    --------------------------------------------
      LOOP:  cpu time    6.1868: real time    6.2863

 eigenvalue-minimisations  :  4045
 total energy-change (2. order) : 0.5877457E+01  (-0.4243988E+00)
 number of electron     551.9999482 magnetization 
 augmentation part      202.0733491 magnetization 

 DIPCOR: dipole corrections for dipol
 direction  3 min pos     1,
 dipolmoment           0.000000      0.000000      2.606833 electrons x Angstroem
 Tr[quadrupol]    -11114.776442

 energy correction for charged system         0.000000 eV
 dipol+quadrupol energy correction           -0.223911 eV
 added-field ion interaction         54.239153 eV  (added to PSCEN)


 Broyden mixing:
  rms(total) = 0.13959E+01    rms(broyden)= 0.13943E+01
  rms(prec ) = 0.16815E+01
  weight for this iteration     100.00

 eigenvalues of (default mixing * dielectric matrix)
  average eigenvalue GAMMA=   0.6407
  2.3457  0.5661  0.5661  0.2930  0.2930  0.2106  0.2106

 Free energy of the ion-electron system (eV)
  ---------------------------------------------------
  alpha Z        PSCENC =       916.59172290
  Ewald energy   TEWEN  =    254548.94227716
  -Hartree energ DENC   =   -299928.64902784
  -exchange      EXHF   =         0.00000000
  -V(xc)+E(xc)   XCENC  =      -124.52844131
  PAW double counting   =     52503.87026595   -50610.65448055
  entropy T*S    EENTRO =        -0.28757044
  eigenvalues    EBANDS =     -2648.42356654
  atomic energy  EATOM  =     45117.89144060
  Solvation  Ediel_sol  =         0.00000000
  ---------------------------------------------------
  free energy    TOTEN  =      -225.24738006 eV

  energy without entropy =     -224.95980962  energy(sigma->0) =     -225.10359484


--------------------------------------------------------------------------------------------------------




----------------------------------------- Iteration    1(  13)  ---------------------------------------


    POTLOK:  cpu time    0.0426: real time    0.0427
    SETDIJ:  cpu time    0.0057: real time    0.0057
    EDDIAG:  cpu time    1.4839: real time    1.4881
  RMM-DIIS:  cpu time    4.0940: real time    4.1053
    ORTHCH:  cpu time    0.3523: real time    0.3532
       DOS:  cpu time    0.0015: real time    0.0015
    CHARGE:  cpu time    0.2755: real time    0.2762
    MIXING:  cpu time    0.0027: real time    0.0027
    --------------------------------------------
      LOOP:  cpu time    6.2590: real time    6.2780

 eigenvalue-minimisations  :  4045
 total energy-change (2. order) : 0.1483857E+01  (-0.1489575E+00)
 number of electron     551.9999473 magnetization 
 augmentation part      201.6828187 magnetization 

 DIPCOR: dipole corrections for dipol
 direction  3 min pos     1,
 dipolmoment           0.000000      0.000000      2.672164 electrons x Angstroem
 Tr[quadrupol]    -11113.839741

 energy correction for charged system         0.000000 eV
 dipol+quadrupol energy correction           -0.235275 eV
 added-field ion interaction         55.598478 eV  (added to PSCEN)


 Broyden mixing:
  rms(total) = 0.10925E+01    rms(broyden)= 0.10915E+01
  rms(prec ) = 0.12691E+01
  weight for this iteration     100.00

 eigenvalues of (default mixing * dielectric matrix)
  average eigenvalue GAMMA=   0.6302
  2.3216  0.6942  0.6942  0.3456  0.3456  0.2320  0.2320  0.1763

 Free energy of the ion-electron system (eV)
  ---------------------------------------------------
  alpha Z        PSCENC =       917.93968484
  Ewald energy   TEWEN  =    254548.94227716
  -Hartree energ DENC   =   -299908.97203787
  -exchange      EXHF   =         0.00000000
  -V(xc)+E(xc)   XCENC  =      -124.57397881
  PAW double counting   =     52602.64702294   -50709.44766558
  entropy T*S    EENTRO =        -0.27519036
  eigenvalues    EBANDS =     -2667.91507577
  atomic energy  EATOM  =     45117.89144060
  Solvation  Ediel_sol  =         0.00000000
  ---------------------------------------------------
  free energy    TOTEN  =      -223.76352284 eV

  energy without entropy =     -223.48833248  energy(sigma->0) =     -223.62592766


--------------------------------------------------------------------------------------------------------




----------------------------------------- Iteration    1(  14)  ---------------------------------------


    POTLOK:  cpu time    0.0429: real time    0.0430
    SETDIJ:  cpu time    0.0059: real time    0.0059
    EDDIAG:  cpu time    1.4691: real time    1.4732
  RMM-DIIS:  cpu time    4.0897: real time    4.1018
    ORTHCH:  cpu time    0.3536: real time    0.3654
       DOS:  cpu time    0.0015: real time    0.0015
    CHARGE:  cpu time    0.2737: real time    0.2761
    MIXING:  cpu time    0.0029: real time    0.0029
    --------------------------------------------
      LOOP:  cpu time    6.2400: real time    6.2724

 eigenvalue-minimisations  :  4041
 total energy-change (2. order) : 0.8983062E+00  (-0.1027601E+00)
 number of electron     551.9999464 magnetization 
 augmentation part      201.1492586 magnetization 

 DIPCOR: dipole corrections for dipol
 direction  3 min pos     1,
 dipolmoment           0.000000      0.000000      2.703250 electrons x Angstroem
 Tr[quadrupol]    -11112.469093

 energy correction for charged system         0.000000 eV
 dipol+quadrupol energy correction           -0.240781 eV
 added-field ion interaction         56.245269 eV  (added to PSCEN)


 Broyden mixing:
  rms(total) = 0.78193E+00    rms(broyden)= 0.78097E+00
  rms(prec ) = 0.87920E+00
  weight for this iteration     100.00

 eigenvalues of (default mixing * dielectric matrix)
  average eigenvalue GAMMA=   0.6226
  2.2573  0.7881  0.7881  0.5383  0.3205  0.3205  0.2126  0.2126  0.1651

 Free energy of the ion-electron system (eV)
  ---------------------------------------------------
  alpha Z        PSCENC =       918.58096928
  Ewald energy   TEWEN  =    254548.94227716
  -Hartree energ DENC   =   -299880.85353085
  -exchange      EXHF   =         0.00000000
  -V(xc)+E(xc)   XCENC  =      -124.53908532
  PAW double counting   =     52667.01430532   -50773.09660068
  entropy T*S    EENTRO =        -0.25964306
  eigenvalues    EBANDS =     -2696.54534913
  atomic energy  EATOM  =     45117.89144060
  Solvation  Ediel_sol  =         0.00000000
  ---------------------------------------------------
  free energy    TOTEN  =      -222.86521667 eV

  energy without entropy =     -222.60557361  energy(sigma->0) =     -222.73539514


--------------------------------------------------------------------------------------------------------




----------------------------------------- Iteration    1(  15)  ---------------------------------------


    POTLOK:  cpu time    0.0437: real time    0.0439
    SETDIJ:  cpu time    0.0057: real time    0.0057
    EDDIAG:  cpu time    1.4812: real time    1.4860
  RMM-DIIS:  cpu time    4.1059: real time    4.1173
    ORTHCH:  cpu time    0.3525: real time    0.3536
       DOS:  cpu time    0.0014: real time    0.0014
    CHARGE:  cpu time    0.2759: real time    0.2766
    MIXING:  cpu time    0.0031: real time    0.0031
    --------------------------------------------
      LOOP:  cpu time    6.2702: real time    6.2912

 eigenvalue-minimisations  :  4041
 total energy-change (2. order) : 0.1237049E+00  (-0.6686907E-01)
 number of electron     551.9999457 magnetization 
 augmentation part      200.8655298 magnetization 

 DIPCOR: dipole corrections for dipol
 direction  3 min pos     1,
 dipolmoment           0.000000      0.000000      2.658106 electrons x Angstroem
 Tr[quadrupol]    -11110.906729

 energy correction for charged system         0.000000 eV
 dipol+quadrupol energy correction           -0.232806 eV
 added-field ion interaction         55.305966 eV  (added to PSCEN)


 Broyden mixing:
  rms(total) = 0.86019E+00    rms(broyden)= 0.85898E+00
  rms(prec ) = 0.95995E+00
  weight for this iteration     100.00

 eigenvalues of (default mixing * dielectric matrix)
  average eigenvalue GAMMA=   0.5930
  2.2280  0.8165  0.8165  0.6279  0.3389  0.3389  0.2235  0.2235  0.1845  0.1314

 Free energy of the ion-electron system (eV)
  ---------------------------------------------------
  alpha Z        PSCENC =       917.64964190
  Ewald energy   TEWEN  =    254548.94227716
  -Hartree energ DENC   =   -299847.65103690
  -exchange      EXHF   =         0.00000000
  -V(xc)+E(xc)   XCENC  =      -124.42672013
  PAW double counting   =     52682.34599172   -50787.25565731
  entropy T*S    EENTRO =        -0.28473079
  eigenvalues    EBANDS =     -2729.95271800
  atomic energy  EATOM  =     45117.89144060
  Solvation  Ediel_sol  =         0.00000000
  ---------------------------------------------------
  free energy    TOTEN  =      -222.74151175 eV

  energy without entropy =     -222.45678096  energy(sigma->0) =     -222.59914636


--------------------------------------------------------------------------------------------------------




----------------------------------------- Iteration    1(  16)  ---------------------------------------


    POTLOK:  cpu time    0.0430: real time    0.0433
    SETDIJ:  cpu time    0.0059: real time    0.0059
    EDDIAG:  cpu time    1.4806: real time    1.4846
  RMM-DIIS:  cpu time    4.1069: real time    4.1185
    ORTHCH:  cpu time    0.3534: real time    0.3543
       DOS:  cpu time    0.0014: real time    0.0014
    CHARGE:  cpu time    0.2756: real time    0.2763
    MIXING:  cpu time    0.0032: real time    0.0032
    --------------------------------------------
      LOOP:  cpu time    6.2707: real time    6.2911

 eigenvalue-minimisations  :  4047
 total energy-change (2. order) : 0.2820492E+00  (-0.2700877E-01)
 number of electron     551.9999456 magnetization 
 augmentation part      200.9418593 magnetization 

 DIPCOR: dipole corrections for dipol
 direction  3 min pos     1,
 dipolmoment           0.000000      0.000000      2.587134 electrons x Angstroem
 Tr[quadrupol]    -11110.184145

 energy correction for charged system         0.000000 eV
 dipol+quadrupol energy correction           -0.220540 eV
 added-field ion interaction         53.829298 eV  (added to PSCEN)


 Broyden mixing:
  rms(total) = 0.52320E+00    rms(broyden)= 0.52181E+00
  rms(prec ) = 0.58225E+00
  weight for this iteration     100.00

 eigenvalues of (default mixing * dielectric matrix)
  average eigenvalue GAMMA=   0.5941
  2.1809  0.9215  0.9215  0.7252  0.4518  0.3121  0.3121  0.2154  0.2154  0.1603
  0.1188

 Free energy of the ion-electron system (eV)
  ---------------------------------------------------
  alpha Z        PSCENC =       916.18523957
  Ewald energy   TEWEN  =    254548.94227716
  -Hartree energ DENC   =   -299832.42488652
  -exchange      EXHF   =         0.00000000
  -V(xc)+E(xc)   XCENC  =      -124.41584406
  PAW double counting   =     52679.86982725   -50784.24530893
  entropy T*S    EENTRO =        -0.26166364
  eigenvalues    EBANDS =     -2744.00054395
  atomic energy  EATOM  =     45117.89144060
  Solvation  Ediel_sol  =         0.00000000
  ---------------------------------------------------
  free energy    TOTEN  =      -222.45946252 eV

  energy without entropy =     -222.19779888  energy(sigma->0) =     -222.32863070


--------------------------------------------------------------------------------------------------------




----------------------------------------- Iteration    1(  17)  ---------------------------------------


    POTLOK:  cpu time    0.0436: real time    0.0437
    SETDIJ:  cpu time    0.0057: real time    0.0058
    EDDIAG:  cpu time    1.4774: real time    1.4816
  RMM-DIIS:  cpu time    4.1160: real time    4.1281
    ORTHCH:  cpu time    0.3520: real time    0.3538
       DOS:  cpu time    0.0014: real time    0.0014
    CHARGE:  cpu time    0.2756: real time    0.2765
    MIXING:  cpu time    0.0035: real time    0.0036
    --------------------------------------------
      LOOP:  cpu time    6.2760: real time    6.2981

 eigenvalue-minimisations  :  4041
 total energy-change (2. order) :-0.5956850E-02  (-0.1955720E-01)
 number of electron     551.9999455 magnetization 
 augmentation part      201.0007481 magnetization 

 DIPCOR: dipole corrections for dipol
 direction  3 min pos     1,
 dipolmoment           0.000000      0.000000      2.469808 electrons x Angstroem
 Tr[quadrupol]    -11108.978426

 energy correction for charged system         0.000000 eV
 dipol+quadrupol energy correction           -0.200990 eV
 added-field ion interaction         51.388138 eV  (added to PSCEN)


 Broyden mixing:
  rms(total) = 0.58789E+00    rms(broyden)= 0.58712E+00
  rms(prec ) = 0.66855E+00
  weight for this iteration     100.00

 eigenvalues of (default mixing * dielectric matrix)
  average eigenvalue GAMMA=   0.5961
  2.0907  1.5225  0.8158  0.6053  0.6053  0.3254  0.3254  0.2160  0.2160  0.1747
  0.1484  0.1080

 Free energy of the ion-electron system (eV)
  ---------------------------------------------------
  alpha Z        PSCENC =       913.76362923
  Ewald energy   TEWEN  =    254548.94227716
  -Hartree energ DENC   =   -299806.35247061
  -exchange      EXHF   =         0.00000000
  -V(xc)+E(xc)   XCENC  =      -124.45884293
  PAW double counting   =     52682.38236286   -50786.00649296
  entropy T*S    EENTRO =        -0.28098924
  eigenvalues    EBANDS =     -2768.34633348
  atomic energy  EATOM  =     45117.89144060
  Solvation  Ediel_sol  =         0.00000000
  ---------------------------------------------------
  free energy    TOTEN  =      -222.46541937 eV

  energy without entropy =     -222.18443013  energy(sigma->0) =     -222.32492475


--------------------------------------------------------------------------------------------------------




----------------------------------------- Iteration    1(  18)  ---------------------------------------


    POTLOK:  cpu time    0.0452: real time    0.0453
    SETDIJ:  cpu time    0.0059: real time    0.0059
    EDDIAG:  cpu time    1.4739: real time    1.4793
  RMM-DIIS:  cpu time    4.0981: real time    4.1094
    ORTHCH:  cpu time    0.3502: real time    0.3513
       DOS:  cpu time    0.0014: real time    0.0014
    CHARGE:  cpu time    0.2744: real time    0.2751
    MIXING:  cpu time    0.0035: real time    0.0035
    --------------------------------------------
      LOOP:  cpu time    6.2532: real time    6.2938

 eigenvalue-minimisations  :  4041
 total energy-change (2. order) : 0.1337423E+00  (-0.1186523E-01)
 number of electron     551.9999462 magnetization 
 augmentation part      200.9839655 magnetization 

 DIPCOR: dipole corrections for dipol
 direction  3 min pos     1,
 dipolmoment           0.000000      0.000000      2.377157 electrons x Angstroem
 Tr[quadrupol]    -11107.878206

 energy correction for charged system         0.000000 eV
 dipol+quadrupol energy correction           -0.186194 eV
 added-field ion interaction         49.460387 eV  (added to PSCEN)


 Broyden mixing:
  rms(total) = 0.34485E+00    rms(broyden)= 0.34398E+00
  rms(prec ) = 0.40429E+00
  weight for this iteration     100.00

 eigenvalues of (default mixing * dielectric matrix)
  average eigenvalue GAMMA=   0.6012
  2.0633  1.8420  0.9211  0.6144  0.6144  0.3372  0.3372  0.2470  0.2215  0.2215
  0.1603  0.1339  0.1017

 Free energy of the ion-electron system (eV)
  ---------------------------------------------------
  alpha Z        PSCENC =       911.85067445
  Ewald energy   TEWEN  =    254548.94227716
  -Hartree energ DENC   =   -299781.98614744
  -exchange      EXHF   =         0.00000000
  -V(xc)+E(xc)   XCENC  =      -124.50446744
  PAW double counting   =     52693.54152831   -50796.61557905
  entropy T*S    EENTRO =        -0.28078469
  eigenvalues    EBANDS =     -2791.17061900
  atomic energy  EATOM  =     45117.89144060
  Solvation  Ediel_sol  =         0.00000000
  ---------------------------------------------------
  free energy    TOTEN  =      -222.33167709 eV

  energy without entropy =     -222.05089240  energy(sigma->0) =     -222.19128475


--------------------------------------------------------------------------------------------------------




----------------------------------------- Iteration    1(  19)  ---------------------------------------


    POTLOK:  cpu time    0.0431: real time    0.0434
    SETDIJ:  cpu time    0.0058: real time    0.0058
    EDDIAG:  cpu time    1.4645: real time    1.5178
  RMM-DIIS:  cpu time    4.0055: real time    4.0645
    ORTHCH:  cpu time    0.3510: real time    0.3521
       DOS:  cpu time    0.0013: real time    0.0013
    CHARGE:  cpu time    0.2774: real time    0.2781
    MIXING:  cpu time    0.0038: real time    0.0038
    --------------------------------------------
      LOOP:  cpu time    6.1531: real time    6.2701

 eigenvalue-minimisations  :  4041
 total energy-change (2. order) : 0.9370431E-01  (-0.4672496E-02)
 number of electron     551.9999459 magnetization 
 augmentation part      200.9395341 magnetization 

 DIPCOR: dipole corrections for dipol
 direction  3 min pos     1,
 dipolmoment           0.000000      0.000000      2.321638 electrons x Angstroem
 Tr[quadrupol]    -11106.907956

 energy correction for charged system         0.000000 eV
 dipol+quadrupol energy correction           -0.177598 eV
 added-field ion interaction         48.305240 eV  (added to PSCEN)


 Broyden mixing:
  rms(total) = 0.18283E+00    rms(broyden)= 0.18254E+00
  rms(prec ) = 0.21941E+00
  weight for this iteration     100.00

 eigenvalues of (default mixing * dielectric matrix)
  average eigenvalue GAMMA=   0.6194
  2.2081  1.9858  1.1183  0.6479  0.6479  0.3614  0.3614  0.2794  0.2489  0.2084
  0.2084  0.1623  0.1303  0.1025

 Free energy of the ion-electron system (eV)
  ---------------------------------------------------
  alpha Z        PSCENC =       910.70412361
  Ewald energy   TEWEN  =    254548.94227716
  -Hartree energ DENC   =   -299760.06825396
  -exchange      EXHF   =         0.00000000
  -V(xc)+E(xc)   XCENC  =      -124.55246644
  PAW double counting   =     52717.12390167   -50819.98072647
  entropy T*S    EENTRO =        -0.28456217
  eigenvalues    EBANDS =     -2812.01370679
  atomic energy  EATOM  =     45117.89144060
  Solvation  Ediel_sol  =         0.00000000
  ---------------------------------------------------
  free energy    TOTEN  =      -222.23797279 eV

  energy without entropy =     -221.95341062  energy(sigma->0) =     -222.09569170


--------------------------------------------------------------------------------------------------------




----------------------------------------- Iteration    1(  20)  ---------------------------------------


    POTLOK:  cpu time    0.0436: real time    0.0438
    SETDIJ:  cpu time    0.0060: real time    0.0061
    EDDIAG:  cpu time    1.4822: real time    1.4882
  RMM-DIIS:  cpu time    4.0007: real time    4.0304
    ORTHCH:  cpu time    0.3505: real time    0.3515
       DOS:  cpu time    0.0014: real time    0.0014
    CHARGE:  cpu time    0.2762: real time    0.2769
    MIXING:  cpu time    0.0039: real time    0.0039
    --------------------------------------------
      LOOP:  cpu time    6.1651: real time    6.2049

 eigenvalue-minimisations  :  4038
 total energy-change (2. order) : 0.3587227E-01  (-0.2832374E-02)
 number of electron     551.9999455 magnetization 
 augmentation part      200.9630539 magnetization 

 DIPCOR: dipole corrections for dipol
 direction  3 min pos     1,
 dipolmoment           0.000000      0.000000      2.241774 electrons x Angstroem
 Tr[quadrupol]    -11105.725054

 energy correction for charged system         0.000000 eV
 dipol+quadrupol energy correction           -0.165589 eV
 added-field ion interaction         46.643540 eV  (added to PSCEN)


 Broyden mixing:
  rms(total) = 0.15816E+00    rms(broyden)= 0.15795E+00
  rms(prec ) = 0.18976E+00
  weight for this iteration     100.00

 eigenvalues of (default mixing * dielectric matrix)
  average eigenvalue GAMMA=   0.6213
  2.2071  2.2071  1.0841  0.6970  0.6970  0.4621  0.3472  0.3472  0.2596  0.2229
  0.2229  0.1738  0.1584  0.1309  0.1019

 Free energy of the ion-electron system (eV)
  ---------------------------------------------------
  alpha Z        PSCENC =       909.05443238
  Ewald energy   TEWEN  =    254548.94227716
  -Hartree energ DENC   =   -299733.69051102
  -exchange      EXHF   =         0.00000000
  -V(xc)+E(xc)   XCENC  =      -124.60580278
  PAW double counting   =     52744.42208370   -50847.14038913
  entropy T*S    EENTRO =        -0.28177147
  eigenvalues    EBANDS =     -2836.79385996
  atomic energy  EATOM  =     45117.89144060
  Solvation  Ediel_sol  =         0.00000000
  ---------------------------------------------------
  free energy    TOTEN  =      -222.20210052 eV

  energy without entropy =     -221.92032904  energy(sigma->0) =     -222.06121478


--------------------------------------------------------------------------------------------------------




----------------------------------------- Iteration    1(  21)  ---------------------------------------


    POTLOK:  cpu time    0.0449: real time    0.0452
    SETDIJ:  cpu time    0.0058: real time    0.0059
    EDDIAG:  cpu time    1.4838: real time    1.4880
  RMM-DIIS:  cpu time    4.1136: real time    4.1249
    ORTHCH:  cpu time    0.3504: real time    0.3513
       DOS:  cpu time    0.0015: real time    0.0015
    CHARGE:  cpu time    0.2758: real time    0.2769
    MIXING:  cpu time    0.0041: real time    0.0041
    --------------------------------------------
      LOOP:  cpu time    6.2808: real time    6.3023

 eigenvalue-minimisations  :  4041
 total energy-change (2. order) : 0.3442730E-01  (-0.1615643E-02)
 number of electron     551.9999456 magnetization 
 augmentation part      200.8731975 magnetization 

 DIPCOR: dipole corrections for dipol
 direction  3 min pos     1,
 dipolmoment           0.000000      0.000000      2.196095 electrons x Angstroem
 Tr[quadrupol]    -11104.862930

 energy correction for charged system         0.000000 eV
 dipol+quadrupol energy correction           -0.158910 eV
 added-field ion interaction         45.693122 eV  (added to PSCEN)


 Broyden mixing:
  rms(total) = 0.92034E-01    rms(broyden)= 0.91913E-01
  rms(prec ) = 0.11094E+00
  weight for this iteration     100.00

 eigenvalues of (default mixing * dielectric matrix)
  average eigenvalue GAMMA=   0.6157
  2.2374  2.2374  1.1779  0.6998  0.6998  0.5732  0.3600  0.3600  0.2845  0.2383
  0.2138  0.2138  0.1614  0.1614  0.1302  0.1020

 Free energy of the ion-electron system (eV)
  ---------------------------------------------------
  alpha Z        PSCENC =       908.11069366
  Ewald energy   TEWEN  =    254548.94227716
  -Hartree energ DENC   =   -299714.86793391
  -exchange      EXHF   =         0.00000000
  -V(xc)+E(xc)   XCENC  =      -124.65601713
  PAW double counting   =     52757.78419371   -50860.34681785
  entropy T*S    EENTRO =        -0.28840497
  eigenvalues    EBANDS =     -2854.73710449
  atomic energy  EATOM  =     45117.89144060
  Solvation  Ediel_sol  =         0.00000000
  ---------------------------------------------------
  free energy    TOTEN  =      -222.16767322 eV

  energy without entropy =     -221.87926825  energy(sigma->0) =     -222.02347073


[...]
  0.000  -0.003   0.001   0.001  -8.311   0.000  -0.003   0.001
 -8.452   0.001   0.001  -0.001   0.000  -8.577   0.001   0.001
  0.001  -8.364   0.000  -0.001  -0.003   0.001  -8.491   0.000
  0.001   0.000  -8.358   0.000   0.001   0.001   0.000  -8.485
 -0.001  -0.001   0.000  -8.364   0.001  -0.001  -0.001   0.000
  0.000  -0.003   0.001   0.001  -8.452   0.000  -0.003   0.001
  0.000  -0.000  -0.030  -0.000   0.000   0.000  -0.000  -0.030
  0.001  -0.000  -0.043  -0.000   0.000   0.001  -0.000  -0.043
  0.000  -0.006  -0.001  -0.000  -0.001   0.000  -0.005  -0.001
 -0.000   0.001  -0.008   0.000  -0.000  -0.000   0.001  -0.008
  0.001  -0.000  -0.000  -0.006   0.000   0.001  -0.000  -0.000
  0.000  -0.006  -0.001  -0.000  -0.001   0.000  -0.006  -0.001
 -0.000   0.001  -0.009   0.000  -0.000  -0.000   0.001  -0.009
  0.001  -0.000  -0.000  -0.006   0.000   0.001  -0.000  -0.000
 total augmentation occupancy for first ion, spin component:           1
  4.716   0.024   0.009  -0.000   0.021  -2.919  -0.019  -0.007  -0.030  -0.016  -0.013   0.000  -0.001  -0.001  -0.031   0.000
  0.024   3.984   0.022   0.010  -0.037  -0.019  -1.708  -0.021  -0.010   0.001  -0.009   0.001  -0.109  -0.010   0.000  -0.000
  0.009   0.022   4.442   0.009   0.026  -0.007  -0.021  -2.335  -0.011  -0.020   1.338  -0.282  -0.007  -0.171  -0.004  -0.000
 -0.000   0.010   0.009   4.041   0.016  -0.029  -0.010  -0.011  -1.754  -0.014  -0.010  -0.001   0.000  -0.004  -0.106  -0.000
  0.021  -0.037   0.026   0.016   4.749  -0.016   0.000  -0.020  -0.014  -2.944  -0.003   0.005  -0.026  -0.008  -0.001  -0.001
 -2.919  -0.019  -0.007  -0.029  -0.016   3.001   0.016   0.006   0.053   0.012   0.009   0.001   0.001   0.002   0.027  -0.000
 -0.019  -1.708  -0.021  -0.010   0.000   0.016   1.409   0.020   0.010   0.026   0.010  -0.003   0.099   0.008   0.000  -0.003
 -0.007  -0.021  -2.335  -0.011  -0.020   0.006   0.020   2.170   0.012   0.016  -1.242   0.294   0.006   0.186   0.003  -0.000
 -0.030  -0.010  -0.011  -1.754  -0.014   0.053   0.010   0.012   1.446   0.012   0.010  -0.001   0.000   0.004   0.098  -0.000
 -0.016   0.001  -0.020  -0.014  -2.944   0.012   0.026   0.016   0.012   3.019   0.002  -0.003   0.024   0.007   0.001  -0.000
 -0.013  -0.009   1.338  -0.010  -0.003   0.009   0.010  -1.242   0.010   0.002   2.503  -0.558   0.000   0.088   0.001   0.000
  0.000   0.001  -0.282  -0.001   0.005   0.001  -0.003   0.294  -0.001  -0.003  -0.558   0.168  -0.003  -0.036  -0.001   0.000
 -0.001  -0.109  -0.007   0.000  -0.026   0.001   0.099   0.006   0.000   0.024   0.000  -0.003   0.209   0.002  -0.001  -0.007
 -0.001  -0.010  -0.171  -0.004  -0.008   0.002   0.008   0.186   0.004   0.007   0.088  -0.036   0.002   0.082   0.001  -0.000
 -0.031   0.000  -0.004  -0.106  -0.001   0.027   0.000   0.003   0.098   0.001   0.001  -0.001  -0.001   0.001   0.204  -0.000
  0.000  -0.000  -0.000  -0.000  -0.001  -0.000  -0.003  -0.000  -0.000  -0.000   0.000   0.000  -0.007  -0.000  -0.000   0.000
 -0.000   0.001  -0.005   0.000  -0.000  -0.000  -0.000  -0.003  -0.000  -0.000  -0.007   0.002  -0.000  -0.003  -0.000   0.000
  0.002   0.000  -0.000  -0.000   0.000  -0.001  -0.000  -0.000  -0.003  -0.000  -0.000   0.000  -0.000  -0.000  -0.007   0.000


------------------------ aborting loop because EDIFF is reached ----------------------------------------


    CHARGE:  cpu time    0.2698: real time    0.2709
    FORLOC:  cpu time    0.0211: real time    0.0211
    FORNL :  cpu time    1.5214: real time    1.5260
    FORCOR:  cpu time    0.0649: real time    0.0655
    FORHAR:  cpu time    0.0300: real time    0.0301
    MIXING:  cpu time    0.0030: real time    0.0030
    OFIELD:  cpu time    0.0000: real time    0.0000

 VOLUME and BASIS-vectors are now :
 -----------------------------------------------------------------------------
  energy-cutoff  :      400.00
  volume of cell :     2745.90
      direct lattice vectors                 reciprocal lattice vectors
    11.002581515  0.000000000  0.000000000     0.090887761 -0.052474073  0.000000000
     5.501290758  9.528515099  0.000000000     0.000000000  0.104948147  0.000000000
     0.000000000  0.000000000 26.191785094     0.000000000  0.000000000  0.038179910

  length of vectors
    11.002581515 11.002581515 26.191785094     0.104948147  0.104948147  0.038179910


 FORCES acting on ions
    electron-ion (+dipol)            ewald-force                    non-local-force                 convergence-correction
 -----------------------------------------------------------------------------------------------
   -.930E-01 0.535E+01 0.245E+04   0.747E-01 -.553E+01 -.245E+04   -.612E-02 0.108E+00 -.257E+00   -.325E-03 0.360E-03 0.254E-02
   -.505E+01 -.201E+01 0.245E+04   0.530E+01 0.223E+01 -.245E+04   -.136E+00 -.179E+00 0.363E+00   0.919E-03 0.464E-03 0.159E-02
   -.165E+01 0.652E+00 0.217E+03   0.241E+01 -.475E+00 -.216E+03   -.755E+00 -.181E+00 -.930E+00   0.374E-02 0.936E-03 -.336E-03
   -.114E+02 -.302E+01 0.248E+04   0.116E+02 0.317E+01 -.248E+04   -.489E-01 -.877E-01 -.310E+00   -.116E-02 -.896E-03 0.186E-02
   -.667E+01 -.568E+01 0.246E+04   0.680E+01 0.547E+01 -.246E+04   -.713E-01 0.216E+00 0.382E+00   0.231E-03 -.240E-03 0.277E-03
   -.821E+01 0.450E+01 0.246E+04   0.775E+01 -.430E+01 -.246E+04   0.396E+00 -.194E+00 0.327E+00   0.125E-03 -.254E-03 0.569E-03
   -.991E+01 0.346E+01 0.283E+03   0.936E+01 -.376E+01 -.281E+03   0.549E+00 0.300E+00 -.192E+01   -.454E-02 -.304E-02 0.103E-01
   -.171E+02 0.947E+01 0.246E+04   0.172E+02 -.970E+01 -.246E+04   0.827E-01 0.157E+00 0.252E+00   -.109E-02 -.375E-03 0.160E-02
   0.387E+01 -.411E+01 0.228E+03   -.357E+01 0.366E+01 -.226E+03   -.302E+00 0.462E+00 -.186E+01   0.709E-04 -.338E-02 -.358E-02
   0.106E+02 -.580E+01 0.246E+04   -.109E+02 0.556E+01 -.246E+04   0.196E+00 0.183E+00 0.292E+00   -.516E-03 -.218E-03 0.171E-02
   -.614E+01 -.105E+02 0.245E+04   0.615E+01 0.108E+02 -.245E+04   0.637E-01 -.181E+00 0.552E+00   -.117E-02 0.140E-03 0.696E-03
   -.776E+01 0.337E-01 0.162E+03   0.812E+01 -.384E+00 -.160E+03   -.358E+00 0.350E+00 -.167E+01   -.212E-02 -.929E-03 -.537E-03
   0.173E+01 0.903E+01 0.244E+04   -.168E+01 -.909E+01 -.244E+04   -.368E-01 -.340E-01 0.542E+00   0.164E-03 0.459E-03 0.568E-03
   0.671E+01 0.129E+02 0.203E+03   -.625E+01 -.133E+02 -.202E+03   -.462E+00 0.325E+00 -.961E+00   0.461E-02 0.204E-02 0.805E-03
   0.620E+01 -.116E+02 0.245E+04   -.626E+01 0.115E+02 -.245E+04   0.370E-02 0.162E+00 0.110E+01   0.327E-03 0.531E-03 -.503E-04
   0.467E+01 -.111E+02 0.104E+03   -.464E+01 0.114E+02 -.103E+03   -.188E-01 -.230E+00 -.145E+01   -.160E-02 0.477E-03 -.114E-01
   0.108E+02 0.877E+01 0.246E+04   -.106E+02 -.864E+01 -.246E+04   -.249E+00 -.143E+00 0.890E-01   0.130E-02 0.102E-02 0.222E-02
   0.138E+02 0.431E+00 0.247E+04   -.138E+02 -.359E+00 -.247E+04   -.102E+00 -.769E-01 -.249E+00   0.162E-03 -.103E-02 0.312E-02
   0.115E+01 -.160E+02 0.247E+04   -.114E+01 0.159E+02 -.247E+04   -.134E-02 0.242E+00 -.174E+00   -.615E-03 -.119E-02 0.686E-03
   -.383E+01 -.115E+02 0.229E+03   0.265E+01 0.114E+02 -.228E+03   0.117E+01 0.638E-01 -.115E+01   -.414E-02 -.226E-02 -.992E-03
   -.268E+00 -.502E+00 0.245E+04   0.322E+00 0.623E+00 -.245E+04   -.527E-01 -.618E-01 0.508E+00   0.117E-02 0.966E-03 0.151E-02
   0.760E+01 -.145E+01 0.182E+03   -.734E+01 0.266E+01 -.181E+03   -.255E+00 -.121E+01 -.904E+00   0.452E-02 0.265E-02 -.139E-02
   0.492E+01 0.166E+02 0.247E+04   -.523E+01 -.167E+02 -.247E+04   0.166E+00 -.446E-01 0.163E+00   -.386E-03 0.260E-03 0.333E-02
   0.622E+01 0.652E+00 0.246E+04   -.585E+01 -.555E+00 -.246E+04   -.285E+00 -.844E-01 0.354E-01   0.857E-03 -.707E-05 0.161E-02
   -.547E+01 -.561E+02 -.171E+04   0.645E+01 0.569E+02 0.174E+04   -.978E+00 -.845E+00 -.284E+02   -.291E-02 0.544E-02 -.354E-02
   -.228E+02 0.778E+02 -.173E+04   0.217E+02 -.795E+02 0.176E+04   0.118E+01 0.164E+01 -.282E+02   -.105E-03 -.776E-02 -.744E-03
   0.829E+00 0.166E+02 -.172E+04   -.968E+00 -.163E+02 0.175E+04   0.145E+00 -.291E+00 -.285E+02   -.574E-02 0.469E-03 0.383E-02
   0.369E+02 0.363E+02 -.171E+04   -.368E+02 -.386E+02 0.174E+04   -.989E-01 0.227E+01 -.275E+02   0.182E-02 0.873E-03 0.392E-03
   0.321E+02 0.384E+01 -.173E+04   -.339E+02 -.222E+01 0.176E+04   0.175E+01 -.162E+01 -.284E+02   0.614E-02 0.175E-02 0.112E-02
   -.408E+02 -.255E+02 -.171E+04   0.426E+02 0.247E+02 0.174E+04   -.178E+01 0.828E+00 -.288E+02   0.350E-02 0.347E-02 -.121E-02
   0.341E+02 -.120E+02 -.175E+04   -.322E+02 0.108E+02 0.178E+04   -.192E+01 0.118E+01 -.287E+02   -.177E-02 0.328E-02 0.428E-02
   -.563E+02 -.325E+02 -.172E+04   0.552E+02 0.343E+02 0.175E+04   0.103E+01 -.175E+01 -.290E+02   0.828E-02 0.500E-02 -.589E-03
   0.470E+02 -.242E+02 -.190E+04   -.471E+02 0.245E+02 0.190E+04   0.131E+00 -.337E+00 0.180E+01   -.605E-02 -.361E-02 0.171E-02
   0.137E+03 -.613E+02 -.190E+04   -.137E+03 0.602E+02 0.190E+04   0.574E-01 0.113E+01 -.164E+01   0.631E-02 0.507E-02 -.612E-02
   -.281E+01 -.218E+01 0.290E+03   0.264E+01 0.181E+01 -.289E+03   0.173E+00 0.372E+00 -.870E+00   -.357E-03 -.545E-02 0.245E-02
   0.869E+00 -.102E+02 0.200E+03   -.693E+00 0.103E+02 -.198E+03   -.175E+00 -.145E+00 -.215E+01   -.201E-02 -.729E-03 -.134E-02
   -.865E+02 -.454E+02 -.169E+04   0.871E+02 0.451E+02 0.170E+04   -.561E+00 0.298E+00 -.905E+00   0.325E-03 -.288E-02 0.229E-03
   -.801E+02 0.975E+02 -.178E+04   0.802E+02 -.978E+02 0.178E+04   -.115E+00 0.380E+00 -.288E+00   -.449E-03 -.450E-02 0.404E-02
   -.702E+01 0.771E+01 0.234E+03   0.666E+01 -.724E+01 -.231E+03   0.363E+00 -.462E+00 -.234E+01   -.271E-02 -.643E-03 0.173E-02
   -.857E+02 0.454E+01 -.186E+04   0.857E+02 -.419E+01 0.186E+04   0.195E-01 -.353E+00 -.146E+01   -.264E-02 -.323E-02 -.832E-02
   0.177E+02 0.609E+01 0.216E+03   -.170E+02 -.590E+01 -.215E+03   -.646E+00 -.197E+00 -.138E+00   0.372E-02 0.323E-02 -.110E-02
   -.116E+01 0.880E+02 -.187E+04   0.713E+00 -.876E+02 0.187E+04   0.446E+00 -.398E+00 -.121E+01   0.337E-02 0.891E-02 -.137E-01
   0.424E+01 -.158E+03 -.179E+04   -.398E+01 0.157E+03 0.179E+04   -.251E+00 0.464E+00 -.336E+00   -.520E-02 -.567E-03 0.492E-02
   0.124E+03 -.847E+02 -.183E+04   -.123E+03 0.852E+02 0.183E+04   -.399E+00 -.469E+00 -.164E+01   -.943E-02 0.167E-02 -.839E-02
   -.112E+03 -.525E+02 -.165E+04   0.112E+03 0.527E+02 0.166E+04   -.464E+00 -.226E+00 -.986E+00   0.324E-02 0.271E-02 0.100E-02
   -.384E+02 -.229E+02 -.181E+04   0.388E+02 0.224E+02 0.180E+04   -.358E+00 0.529E+00 0.237E+01   0.635E-03 -.722E-02 0.203E-02
   -.123E+03 -.823E+02 -.176E+04   0.122E+03 0.831E+02 0.176E+04   0.376E+00 -.815E+00 -.101E+01   0.791E-02 0.531E-02 -.416E-02
   -.133E+01 0.446E+01 0.258E+03   0.809E+00 -.429E+01 -.256E+03   0.515E+00 -.173E+00 -.188E+01   0.216E-02 0.824E-03 0.546E-02
   -.767E+01 0.339E+01 0.201E+03   0.758E+01 -.348E+01 -.199E+03   0.925E-01 0.906E-01 -.140E+01   0.573E-03 0.277E-02 0.449E-02
   0.849E+02 0.932E+02 -.184E+04   -.847E+02 -.927E+02 0.184E+04   -.224E+00 -.502E+00 -.456E+00   0.305E-02 0.292E-02 -.254E-02
   -.742E+01 -.119E+01 -.176E+04   0.760E+01 0.126E+01 0.177E+04   -.181E+00 -.646E-01 -.164E+01   0.396E-02 0.666E-02 -.239E-02
   0.320E+02 0.664E+02 -.176E+04   -.318E+02 -.667E+02 0.176E+04   -.143E+00 0.283E+00 0.718E+00   -.256E-02 -.605E-02 0.219E-02
   -.292E+01 0.308E+00 0.218E+03   0.283E+01 -.499E+00 -.217E+03   0.102E+00 0.199E+00 -.916E+00   -.553E-02 0.675E-03 0.168E-02
   -.658E+01 0.997E+02 -.176E+04   0.636E+01 -.993E+02 0.176E+04   0.229E+00 -.456E+00 -.108E+01   -.104E-01 -.106E-02 -.297E-02
   0.428E+01 0.318E+00 0.238E+03   -.409E+01 -.597E+00 -.235E+03   -.196E+00 0.284E+00 -.256E+01   0.143E-02 -.264E-02 -.100E-02
   0.134E+03 0.750E+02 -.182E+04   -.134E+03 -.755E+02 0.182E+04   0.139E+00 0.452E+00 -.120E+00   0.432E-02 0.639E-03 -.143E-02
 -----------------------------------------------------------------------------------------------
   0.227E+01 -.115E+01 0.255E+03   0.000E+00 -.284E-13 0.387E-11   -.226E+01 0.115E+01 -.255E+03   0.339E-02 0.118E-01 -.134E-02
 
 
 POSITION                                       TOTAL-FORCE (eV/Angst)
 -----------------------------------------------------------------------------------
      1.37532      0.79404     10.00000        -0.025012     -0.070785      0.233581
      5.50129      7.94043     10.00000         0.111207      0.042000     -0.006825
     15.15688      8.74992     12.59441         0.005049     -0.003672      0.002799
     12.37790      5.55830     10.00000         0.105335      0.060337     -0.130027
     13.75323      7.94043     10.00000         0.053235      0.002135     -0.070434
      4.12597      5.55830     10.00000        -0.060407     -0.000991     -0.032180
     12.36695      3.96713     12.47876        -0.000923      0.000901      0.005112
      2.75065      3.17617     10.00000         0.149567     -0.075807     -0.061198
     12.37721      8.72833     12.57612         0.001244      0.006562      0.005149
      8.25194      7.94043     10.00000        -0.166361     -0.060833      0.037576
      4.12597      0.79404     10.00000         0.073638      0.122833      0.035165
      4.14876      3.96173     12.64223         0.000747     -0.001648      0.002480
      5.50129      3.17617     10.00000         0.006278     -0.093444      0.075727
      5.51925      6.34338     12.60552         0.001649     -0.001043     -0.005530
      6.87661      0.79404     10.00000        -0.050689      0.056070     -0.144089
      5.50339      1.59397     12.73874         0.005995     -0.004941      0.009401
      8.25194      3.17617     10.00000        -0.032744     -0.018375      0.033895
      9.62726      5.55830     10.00000        -0.145354     -0.005180      0.026278
     11.00258      7.94043     10.00000         0.002608      0.106021     -0.078004
      9.58996      8.73719     12.57210        -0.002729      0.006211      0.005302
      9.62726      0.79404     10.00000         0.002663      0.059986     -0.006623
      8.26563      1.62916     12.63886         0.006552     -0.000970      0.009875
     11.00258      3.17617     10.00000        -0.138192     -0.134110     -0.051273
      6.87661      5.55830     10.00000         0.083905      0.012571      0.085840
      1.43528      0.99288     16.10662         0.000504      0.006668      0.001862
     11.03857      7.68626     16.10323         0.001037     -0.007369     -0.010759
      4.13605      0.76458     16.17901         0.000359      0.011142      0.012221
      5.41771      7.80371     16.11247         0.004925     -0.001012      0.005163
      9.50163      0.79515     16.15153         0.013465     -0.002153      0.010651
      7.01460      5.62777     16.11424         0.002663      0.004244      0.001130
      5.46836      3.19656     16.27409         0.005656     -0.005544      0.006893
      8.38368      3.28603     16.15245         0.005822      0.000551      0.010883
      2.69689      4.78410     14.85414         0.003056     -0.000291      0.001463
      5.40470      4.83177     15.19275        -0.001803      0.000112      0.002116
     10.97875      6.34630     12.42560         0.002686      0.000045     -0.001163
      6.87736      8.76115     12.60986        -0.000878      0.000818      0.000077
      6.92685      7.18747     14.92564        -0.002400      0.005691      0.010799
     12.39323      7.06586     14.83148        -0.004884      0.003238     -0.006738
     13.74551      6.35667     12.52498        -0.001220      0.004318     -0.007559
      5.58242     -0.05171     15.09942         0.016231     -0.008097      0.005901
      6.88781      3.97471     12.54271        -0.003486      0.001714     -0.001867
      6.90227      2.29216     15.17758        -0.002393     -0.001753      0.017085
      1.39368      2.52376     14.90814        -0.003900      0.005226     -0.002033
      4.05718      2.45414     15.10760         0.009634      0.003895     -0.000170
      8.32837      4.79126     14.88214        -0.001672     -0.004640     -0.005136
     11.01946      4.76321     14.73747         0.000445     -0.004586     -0.005361
      9.71799      2.43152     14.99465         0.001050      0.002735     -0.016180
      9.59975      3.97587     12.49644        -0.002331     -0.002724      0.006563
     11.01341      1.59411     12.58458        -0.001795     -0.001239     -0.001680
      8.18560     -0.07496     14.99235        -0.015598     -0.008097     -0.003322
     -0.00937      0.01079     15.09699        -0.002747      0.012206     -0.001827
      9.61288      7.08838     14.84852         0.011775     -0.009447      0.000220
      2.74427      1.59087     12.55451         0.002526      0.007674     -0.002351
      2.75750     -0.04819     15.01778        -0.005313     -0.011999     -0.008942
      8.24571      6.34243     12.55029        -0.008516      0.002430     -0.001826
      3.99753      7.09046     14.93364        -0.010157     -0.007582      0.001891
 -----------------------------------------------------------------------------------
    total drift:                                0.013033      0.011622      0.039498


--------------------------------------------------------------------------------------------------------



  FREE ENERGIE OF THE ION-ELECTRON SYSTEM (eV)
  ---------------------------------------------------
  free  energy   TOTEN  =      -235.76789456 eV

  energy  without entropy=     -235.59680905  energy(sigma->0) =     -235.68235180
 
 d Force = 0.4551941E-03[ 0.125E-03, 0.786E-03]  d Energy = 0.4736115E-03-0.184E-04
 d Force = 0.2087595E+02[ 0.209E+02, 0.209E+02]  d Ewald  = 0.2087596E+02-0.523E-05


--------------------------------------------------------------------------------------------------------


    POTLOK:  cpu time    0.0521: real time    0.0531


--------------------------------------------------------------------------------------------------------


 stress matrix after NEB project (eV)
      0.00000      0.00000      0.00000
      0.00000      0.00000      0.00000
      0.00000      0.00000      0.00000
  FORCES: max atom, RMS     0.019074    0.009041
  FORCE total and by dimension    0.067656    0.017085
  Stress total and by dimension    0.000000    0.000000
 Conjugate gradient step on ions:
 trial-energy change:   -0.000474  1 .order   -0.000455   -0.000786   -0.000125
  (g-gl).g = 0.267E-03      g.g   = 0.295E-03  gl.gl    = 0.501E-03
 g(Force)  = 0.295E-03   g(Stress)= 0.000E+00 ortho     = 0.552E-04
 gamma     =   0.53312
 trial     =   2.42208
 opt step  =   2.80505  (harmonic =   2.87921) maximal distance =0.00468316
 next E    =  -235.767904   (d E  =  -0.00048)


--------------------------------------------------------------------------------------------------------


  
 reached required accuracy - stopping structural energy minimisation
     LOOP+:  cpu time   62.1514: real time   62.4946
    4ORBIT:  cpu time    0.0000: real time    0.0000

 total amount of memory used by VASP on root node    93015. kBytes
========================================================================

   base      :      30000. kBytes
   nonlr-proj:       4672. kBytes
   fftplans  :       4744. kBytes
   grid      :       7835. kBytes
   one-center:        155. kBytes
   wavefun   :      45609. kBytes
 
  
  
 General timing and accounting informations for this job:
 ========================================================
  
                  Total CPU time used (sec):     3649.476
                            User time (sec):     3460.574
                          System time (sec):      188.902
                         Elapsed time (sec):     3674.714
  
                   Maximum memory used (kb):     1605536.
                   Average memory used (kb):           0.
  
                          Minor page faults:      1913821
                          Major page faults:            2
                 Voluntary context switches:        21593
