unknown system                          
           1
    11.002582    0.000000    0.000000
     5.501291    9.528515    0.000000
     0.000000    0.000000   26.191785
   Au   O    Pd
  24   8  24
Direct configuration=     1
   0.08333333  0.08333333  0.38179910
   0.08333333  0.83333333  0.38179910
   0.91666667  0.91666667  0.46754708
   0.83333333  0.58333333  0.38179910
   0.83333333  0.83333333  0.38179910
   0.08333333  0.58333333  0.38179910
   0.91666667  0.41666667  0.46754708
   0.08333333  0.33333333  0.38179910
   0.66666667  0.91666667  0.46754708
   0.33333333  0.83333333  0.38179910
   0.33333333  0.08333333  0.38179910
   0.16666667  0.41666667  0.46754708
   0.33333333  0.33333333  0.38179910
   0.16666667  0.66666667  0.46754708
   0.58333333  0.08333333  0.38179910
   0.41666667  0.16666667  0.46754708
   0.58333333  0.33333333  0.38179910
   0.58333333  0.58333333  0.38179910
   0.58333333  0.83333333  0.38179910
   0.41666667  0.91666667  0.46754708
   0.83333333  0.08333333  0.38179910
   0.66666667  0.16666667  0.46754708
   0.83333333  0.33333333  0.38179910
   0.33333333  0.58333333  0.38179910
   0.08333333  0.08333333  0.61820090
   0.58333333  0.83333333  0.61820090
   0.33333333  0.08333333  0.61820090
   0.08333333  0.83333333  0.61820090
   0.83333333  0.08333333  0.61820090
   0.33333333  0.58333333  0.61820090
   0.33333333  0.33333333  0.61820090
   0.58333333  0.33333333  0.61820090
   0.00000000  0.50000000  0.55329505
   0.25000000  0.50000000  0.55329505
   0.66666667  0.66666667  0.46754708
   0.16666667  0.91666667  0.46754708
   0.25000000  0.75000000  0.55329505
   0.75000000  0.75000000  0.55329505
   0.91666667  0.66666667  0.46754708
   0.50000000  0.00000000  0.55329505
   0.41666667  0.41666667  0.46754708
   0.50000000  0.25000000  0.55329505
   0.00000000  0.25000000  0.55329505
   0.25000000  0.25000000  0.55329505
   0.50000000  0.50000000  0.55329505
   0.75000000  0.50000000  0.55329505
   0.75000000  0.25000000  0.55329505
   0.66666667  0.41666667  0.46754708
   0.91666667  0.16666667  0.46754708
   0.75000000  0.00000000  0.55329505
   0.00000000  0.00000000  0.55329505
   0.50000000  0.75000000  0.55329505
   0.16666667  0.16666667  0.46754708
   0.25000000  0.00000000  0.55329505
   0.41666667  0.66666667  0.46754708
   0.00000000  0.75000000  0.55329505
Direct configuration=     2
   0.08333333  0.08333333  0.38179910
   0.08333333  0.83333333  0.38179910
   0.91761007  0.91689228  0.46873986
   0.83333333  0.58333333  0.38179910
   0.83333333  0.83333333  0.38179910
   0.08333333  0.58333333  0.38179910
   0.91578278  0.41654144  0.46911949
   0.08333333  0.33333333  0.38179910
   0.66751506  0.91524919  0.46916148
   0.33333333  0.83333333  0.38179910
   0.33333333  0.08333333  0.38179910
   0.16686736  0.41661189  0.46912479
   0.33333333  0.33333333  0.38179910
   0.16777104  0.66626424  0.46871130
   0.58333333  0.08333333  0.38179910
   0.41612261  0.16743782  0.46899292
   0.58333333  0.33333333  0.38179910
   0.58333333  0.58333333  0.38179910
   0.58333333  0.83333333  0.38179910
   0.41545690  0.91592223  0.46875333
   0.83333333  0.08333333  0.38179910
   0.66633251  0.16872052  0.46879939
   0.83333333  0.33333333  0.38179910
   0.33333333  0.58333333  0.38179910
   0.08341446  0.08502017  0.61414403
   0.58467083  0.83168381  0.61371808
   0.33264174  0.08376235  0.61401537
   0.08335154  0.83186730  0.61409822
   0.83243879  0.08334150  0.61401650
   0.33316827  0.58416441  0.61403770
   0.33231838  0.33301427  0.61410616
   0.58423089  0.33339259  0.61398957
  -0.00095979  0.50059013  0.55410696
   0.25082490  0.49941865  0.55703072
   0.66676067  0.66585980  0.46809164
   0.16668846  0.91732234  0.46894793
   0.25009618  0.74966577  0.55645628
   0.74884092  0.74994623  0.55546295
   0.91600733  0.66687597  0.46899039
   0.50030995 -0.00099188  0.55696758
   0.41729426  0.41703693  0.46795984
   0.49966612  0.25105464  0.55711681
   0.00066951  0.24869260  0.55552123
   0.25035337  0.25023292  0.55685820
   0.50014032  0.49989238  0.55637413
   0.75015039  0.49991261  0.55395917
   0.74966531  0.25017763  0.55651117
   0.66579981  0.41710124  0.46880191
   0.91697280  0.16648945  0.46860845
   0.75072301  0.00021095  0.55581956
  -0.00012301  0.00028229  0.55751633
   0.50145050  0.74997634  0.55544975
   0.16619328  0.16624661  0.46830472
   0.24880826  0.00113201  0.55671404
   0.41724569  0.66597243  0.46914253
  -0.00003689  0.75034828  0.55556756
Direct configuration=     3
   0.08333333  0.08333333  0.38179910
   0.08333333  0.83333333  0.38179910
   0.91943435  0.91732855  0.47104635
   0.83333333  0.58333333  0.38179910
   0.83333333  0.83333333  0.38179910
   0.08333333  0.58333333  0.38179910
   0.91407361  0.41629930  0.47216008
   0.08333333  0.33333333  0.38179910
   0.66915562  0.91250818  0.47228328
   0.33333333  0.83333333  0.38179910
   0.33333333  0.08333333  0.38179910
   0.16725544  0.41650596  0.47217563
   0.33333333  0.33333333  0.38179910
   0.16990658  0.66548606  0.47096257
   0.58333333  0.08333333  0.38179910
   0.41507055  0.16892900  0.47178876
   0.58333333  0.33333333  0.38179910
   0.58333333  0.58333333  0.38179910
   0.58333333  0.83333333  0.38179910
   0.41311756  0.91448272  0.47108589
   0.83333333  0.08333333  0.38179910
   0.66568634  0.17269208  0.47122099
   0.83333333  0.33333333  0.38179910
   0.33333333  0.58333333  0.38179910
   0.08357134  0.08828202  0.60629920
   0.58725715  0.82849410  0.60504960
   0.33130439  0.08459195  0.60592174
   0.08338673  0.82903242  0.60616481
   0.83070901  0.08335731  0.60592508
   0.33284909  0.58577148  0.60598726
   0.33035576  0.33239730  0.60618810
   0.58596652  0.33350718  0.60584608
  -0.00281576  0.50173127  0.55567696
   0.25242001  0.49829449  0.56425444
   0.66694245  0.66429955  0.46914467
   0.16673060  0.91859023  0.47165678
   0.25028216  0.74901945  0.56256919
   0.74659960  0.74984224  0.55965505
   0.91473235  0.66728071  0.47178133
   0.50090931 -0.00290991  0.56406920
   0.41850785  0.41775292  0.46875801
   0.49902050  0.25309400  0.56450699
   0.00196416  0.24616445  0.55982603
   0.25103670  0.25068332  0.56374832
   0.50041166  0.49968427  0.56232817
   0.75044119  0.49974362  0.55524339
   0.74901812  0.25052111  0.56273021
   0.66412356  0.41794159  0.47122839
   0.91756477  0.16614677  0.47066084
   0.75212111  0.00061887  0.56070123
  -0.00036086  0.00082816  0.56567908
   0.50425536  0.74993058  0.55961631
   0.16527788  0.16543433  0.46976978
   0.24650377  0.00332098  0.56332538
   0.41836537  0.66462998  0.47222767
  -0.00010822  0.75102176  0.55996193
Direct configuration=     4
   0.08333333  0.08333333  0.38179910
   0.08333333  0.83333333  0.38179910
   0.91897667  0.91721909  0.47046768
   0.83333333  0.58333333  0.38179910
   0.83333333  0.83333333  0.38179910
   0.08333333  0.58333333  0.38179910
   0.91450242  0.41636005  0.47139724
   0.08333333  0.33333333  0.38179910
   0.66874403  0.91319586  0.47150006
   0.33333333  0.83333333  0.38179910
   0.33333333  0.08333333  0.38179910
   0.16715807  0.41653253  0.47141021
   0.33333333  0.33333333  0.38179910
   0.16937080  0.66568130  0.47039776
   0.58333333  0.08333333  0.38179910
   0.41533450  0.16855488  0.47108732
   0.58333333  0.33333333  0.38179910
   0.58333333  0.58333333  0.38179910
   0.58333333  0.83333333  0.38179910
   0.41370447  0.91484387  0.47050068
   0.83333333  0.08333333  0.38179910
   0.66584845  0.17169567  0.47061345
   0.83333333  0.33333333  0.38179910
   0.33333333  0.58333333  0.38179910
   0.08353198  0.08746367  0.60826736
   0.58660828  0.82929435  0.60722440
   0.33163991  0.08438381  0.60795232
   0.08337790  0.82974366  0.60815519
   0.83114299  0.08335334  0.60795511
   0.33292917  0.58536829  0.60800700
   0.33084816  0.33255209  0.60817463
   0.58553107  0.33347843  0.60788917
  -0.00235012  0.50144497  0.55528307
   0.25201982  0.49857653  0.56244211
   0.66689684  0.66469100  0.46888048
   0.16672003  0.91827213  0.47097717
   0.25023550  0.74918160  0.56103554
   0.74716191  0.74986833  0.55860331
   0.91505222  0.66717916  0.47108112
   0.50075894 -0.00242870  0.56228750
   0.41820338  0.41757329  0.46855776
   0.49918248  0.25258235  0.56265290
   0.00163935  0.24679873  0.55874601
   0.25086526  0.25057032  0.56201969
   0.50034358  0.49973648  0.56083439
   0.75036824  0.49978601  0.55492119
   0.74918049  0.25043493  0.56116994
   0.66454411  0.41773076  0.47061962
   0.91741625  0.16623275  0.47014593
   0.75177035  0.00051653  0.55947649
  -0.00030119  0.00069121  0.56363116
   0.50355166  0.74994206  0.55857098
   0.16550754  0.16563812  0.46940222
   0.24708193  0.00277180  0.56166668
   0.41808446  0.66496679  0.47145365
  -0.00009032  0.75085280  0.55885945
Direct configuration=     5
   0.08333333  0.08333333  0.38179910
   0.08333333  0.83333333  0.38179910
   0.91912138  0.91725370  0.47065065
   0.83333333  0.58333333  0.38179910
   0.83333333  0.83333333  0.38179910
   0.08333333  0.58333333  0.38179910
   0.91436683  0.41634084  0.47163844
   0.08333333  0.33333333  0.38179910
   0.66887417  0.91297843  0.47174771
   0.33333333  0.83333333  0.38179910
   0.33333333  0.08333333  0.38179910
   0.16718886  0.41652413  0.47165223
   0.33333333  0.33333333  0.38179910
   0.16954021  0.66561957  0.47057634
   0.58333333  0.08333333  0.38179910
   0.41525104  0.16867317  0.47130911
   0.58333333  0.33333333  0.38179910
   0.58333333  0.58333333  0.38179910
   0.58333333  0.83333333  0.38179910
   0.41351889  0.91472968  0.47068572
   0.83333333  0.08333333  0.38179910
   0.66579719  0.17201072  0.47080555
   0.83333333  0.33333333  0.38179910
   0.33333333  0.58333333  0.38179910
   0.08354442  0.08772242  0.60764505
   0.58681345  0.82904132  0.60653676
   0.33153383  0.08444962  0.60731028
   0.08338069  0.82951877  0.60752586
   0.83100577  0.08335460  0.60731324
   0.33290385  0.58549577  0.60736839
   0.33069247  0.33250315  0.60754652
   0.58566876  0.33348752  0.60724317
  -0.00249735  0.50153550  0.55540761
   0.25214636  0.49848735  0.56301514
   0.66691126  0.66456723  0.46896402
   0.16672337  0.91837271  0.47119205
   0.25025025  0.74913033  0.56152046
   0.74698412  0.74986008  0.55893586
   0.91495108  0.66721127  0.47130252
   0.50080648 -0.00258085  0.56285085
   0.41829965  0.41763008  0.46862108
   0.49913126  0.25274413  0.56323914
   0.00174205  0.24659818  0.55908750
   0.25091947  0.25060605  0.56256626
   0.50036511  0.49971997  0.56130670
   0.75039130  0.49977261  0.55502307
   0.74912915  0.25046218  0.56166328
   0.66441114  0.41779742  0.47081211
   0.91746321  0.16620556  0.47030874
   0.75188125  0.00054889  0.55986374
  -0.00032006  0.00073451  0.56427869
   0.50377416  0.74993843  0.55890150
   0.16543492  0.16557368  0.46951844
   0.24689913  0.00294545  0.56219114
   0.41817328  0.66486029  0.47169838
  -0.00009598  0.75090622  0.55920804
Direct configuration=     6
   0.08333333  0.08333333  0.38179910
   0.08333333  0.83333333  0.38179910
   0.91931559  0.91753333  0.47229394
   0.83333333  0.58333333  0.38179910
   0.83333333  0.83333333  0.38179910
   0.08333333  0.58333333  0.38179910
   0.91499759  0.41495325  0.47255739
   0.08333333  0.33333333  0.38179910
   0.66789721  0.91449303  0.47355760
   0.33333333  0.83333333  0.38179910
   0.33333333  0.08333333  0.38179910
   0.16774990  0.41623463  0.47341204
   0.33333333  0.33333333  0.38179910
   0.16996140  0.66549738  0.47237930
   0.58333333  0.08333333  0.38179910
   0.41612920  0.16753080  0.47353155
   0.58333333  0.33333333  0.38179910
   0.58333333  0.58333333  0.38179910
   0.58333333  0.83333333  0.38179910
   0.41346830  0.91511175  0.47249980
   0.83333333  0.08333333  0.38179910
   0.66580308  0.17159879  0.47266136
   0.83333333  0.33333333  0.38179910
   0.33333333  0.58333333  0.38179910
   0.08256881  0.09073486  0.60698819
   0.58965601  0.82548810  0.60603513
   0.33171024  0.08407787  0.60654551
   0.08332693  0.82692627  0.60658544
   0.82833859  0.08360603  0.60652316
   0.33422181  0.58656916  0.60647363
   0.32933228  0.33370197  0.60738871
   0.58654641  0.33520277  0.60671384
  -0.00361131  0.50193734  0.55688337
   0.24550530  0.50122983  0.56405058
   0.66619406  0.66453488  0.46982920
   0.16646902  0.91830731  0.47308744
   0.25336055  0.75160996  0.56214548
   0.75224275  0.74757602  0.55977092
   0.91516575  0.66763462  0.47281477
   0.50343865  0.00063885  0.56352166
   0.41799569  0.41801272  0.47007719
   0.50283892  0.24556144  0.56395531
  -0.00202883  0.25344686  0.55969641
   0.24531751  0.25372444  0.56291919
   0.50313367  0.50323331  0.56217633
   0.75107206  0.49885910  0.55621337
   0.75174881  0.25342889  0.56237374
   0.66389471  0.41793164  0.47213907
   0.91742161  0.16644369  0.47187581
   0.74907138 -0.00227641  0.56074443
   0.00080775  0.00037596  0.56513368
   0.50134101  0.74639201  0.55952417
   0.16529782  0.16583777  0.47103880
   0.25051378 -0.00303624  0.56286079
   0.41832293  0.66466642  0.47358662
  -0.00346825  0.74807643  0.56001659
Direct configuration=     7
   0.08333333  0.08333333  0.38179910
   0.08333333  0.83333333  0.38179910
   0.91948836  0.91778210  0.47375584
   0.83333333  0.58333333  0.38179910
   0.83333333  0.83333333  0.38179910
   0.08333333  0.58333333  0.38179910
   0.91555872  0.41371882  0.47337490
   0.08333333  0.33333333  0.38179910
   0.66702809  0.91584046  0.47516771
   0.33333333  0.83333333  0.38179910
   0.33333333  0.08333333  0.38179910
   0.16824902  0.41597709  0.47497760
   0.33333333  0.33333333  0.38179910
   0.17033610  0.66538868  0.47398325
   0.58333333  0.08333333  0.38179910
   0.41691043  0.16651452  0.47550867
   0.58333333  0.33333333  0.38179910
   0.58333333  0.58333333  0.38179910
   0.58333333  0.83333333  0.38179910
   0.41342329  0.91545165  0.47411364
   0.83333333  0.08333333  0.38179910
   0.66580831  0.17123233  0.47431233
   0.83333333  0.33333333  0.38179910
   0.33333333  0.58333333  0.38179910
   0.08170088  0.09341479  0.60640383
   0.59218480  0.82232709  0.60558887
   0.33186717  0.08374716  0.60586516
   0.08327911  0.82461994  0.60574883
   0.82596583  0.08382971  0.60582029
   0.33539429  0.58752406  0.60567764
   0.32812223  0.33476846  0.60724832
   0.58732719  0.33672868  0.60624295
  -0.00460232  0.50229482  0.55819624
   0.23959731  0.50366958  0.56497173
   0.66555602  0.66450611  0.47059888
   0.16624274  0.91824913  0.47477360
   0.25612753  0.75381587  0.56270150
   0.75692092  0.74554408  0.56051382
   0.91535671  0.66801124  0.47416009
   0.50578027  0.00350315  0.56411842
   0.41772529  0.41835312  0.47137258
   0.50613733  0.23917159  0.56459242
  -0.00538347  0.25953956  0.56023811
   0.24033391  0.25649863  0.56323316
   0.50559663  0.50635883  0.56294997
   0.75167767  0.49804644  0.55727228
   0.75407930  0.25606812  0.56300578
   0.66343529  0.41805104  0.47331956
   0.91738461  0.16665553  0.47326991
   0.74657166 -0.00478984  0.56152792
   0.00181107  0.00005699  0.56589429
   0.49917643  0.74323705  0.56007812
   0.16517586  0.16607270  0.47239134
   0.25372944 -0.00835766  0.56345652
   0.41845607  0.66449395  0.47526643
  -0.00646828  0.74555901  0.56073590
Direct configuration=     8
   0.08333333  0.08333333  0.38179910
   0.08333333  0.83333333  0.38179910
   0.91942511  0.91786836  0.47491025
   0.83333333  0.58333333  0.38179910
   0.83333333  0.83333333  0.38179910
   0.08333333  0.58333333  0.38179910
   0.91530953  0.41477371  0.47325439
   0.08333333  0.33333333  0.38179910
   0.66701393  0.91525808  0.47551620
   0.33333333  0.83333333  0.38179910
   0.33333333  0.08333333  0.38179910
   0.16832351  0.41592583  0.47546076
   0.33333333  0.33333333  0.38179910
   0.17009172  0.66586135  0.47531051
   0.58333333  0.08333333  0.38179910
   0.41642136  0.16678273  0.47653566
   0.58333333  0.33333333  0.38179910
   0.58333333  0.58333333  0.38179910
   0.58333333  0.83333333  0.38179910
   0.41383899  0.91546478  0.47514554
   0.83333333  0.08333333  0.38179910
   0.66629419  0.17107741  0.47547969
   0.83333333  0.33333333  0.38179910
   0.33333333  0.58333333  0.38179910
   0.08122763  0.09761335  0.60637344
   0.59349302  0.81928489  0.60525599
   0.33253897  0.08368258  0.60594737
   0.08342833  0.82151123  0.60593233
   0.82389566  0.08343610  0.60592735
   0.33627466  0.58687585  0.60608159
   0.32837005  0.33492288  0.60776953
   0.58684665  0.33835672  0.60649547
  -0.00688672  0.50257295  0.55999219
   0.23752154  0.50637848  0.56607081
   0.66568727  0.66480752  0.47142991
   0.16616588  0.91818006  0.47561209
   0.25466068  0.75510264  0.56303810
   0.75752407  0.74298819  0.56154158
   0.91535686  0.66755880  0.47430281
   0.50717934  0.00105149  0.56522178
   0.41777417  0.41801623  0.47284748
   0.50683147  0.23931672  0.56575880
  -0.00548077  0.26151789  0.56170194
   0.23656944  0.25721855  0.56386041
   0.50778821  0.50419844  0.56357105
   0.75203962  0.50018040  0.55863811
   0.75609678  0.25664885  0.56347299
   0.66343045  0.41785955  0.47380041
   0.91739034  0.16640302  0.47429154
   0.74738437 -0.00611552  0.56289547
  -0.00013121  0.00066320  0.56572924
   0.50228316  0.74432040  0.56143308
   0.16551070  0.16578631  0.47350363
   0.25508997 -0.00907749  0.56426172
   0.41800276  0.66466159  0.47545367
  -0.00742972  0.74469929  0.56185802
Direct configuration=     9
   0.08333333  0.08333333  0.38179910
   0.08333333  0.83333333  0.38179910
   0.91940126  0.91790089  0.47534560
   0.83333333  0.58333333  0.38179910
   0.83333333  0.83333333  0.38179910
   0.08333333  0.58333333  0.38179910
   0.91521555  0.41517153  0.47320894
   0.08333333  0.33333333  0.38179910
   0.66700859  0.91503845  0.47564762
   0.33333333  0.83333333  0.38179910
   0.33333333  0.08333333  0.38179910
   0.16835160  0.41590650  0.47564297
   0.33333333  0.33333333  0.38179910
   0.16999956  0.66603960  0.47581105
   0.58333333  0.08333333  0.38179910
   0.41623693  0.16688388  0.47692296
   0.58333333  0.33333333  0.38179910
   0.58333333  0.58333333  0.38179910
   0.58333333  0.83333333  0.38179910
   0.41399575  0.91546973  0.47553468
   0.83333333  0.08333333  0.38179910
   0.66647743  0.17101899  0.47591992
   0.83333333  0.33333333  0.38179910
   0.33333333  0.58333333  0.38179910
   0.08104916  0.09919671  0.60636198
   0.59398638  0.81813761  0.60513045
   0.33279232  0.08365823  0.60597837
   0.08348461  0.82033887  0.60600154
   0.82311496  0.08328766  0.60596772
   0.33660667  0.58663139  0.60623393
   0.32846351  0.33498111  0.60796609
   0.58666543  0.33897068  0.60659070
  -0.00774822  0.50267784  0.56066948
   0.23673873  0.50740006  0.56648530
   0.66573677  0.66492119  0.47174331
   0.16613690  0.91815401  0.47592830
   0.25410750  0.75558790  0.56316504
   0.75775153  0.74202432  0.56192917
   0.91535692  0.66738817  0.47435663
   0.50770696  0.00012693  0.56563789
   0.41779261  0.41788918  0.47340370
   0.50709324  0.23937145  0.56619866
  -0.00551746  0.26226395  0.56225398
   0.23514978  0.25749005  0.56409697
   0.50861470  0.50338371  0.56380527
   0.75217612  0.50098516  0.55915319
   0.75685761  0.25686785  0.56364918
   0.66342863  0.41778734  0.47398175
   0.91739250  0.16630779  0.47467682
   0.74769086 -0.00661545  0.56341120
  -0.00086368  0.00089181  0.56566700
   0.50345478  0.74472896  0.56194407
   0.16563697  0.16567831  0.47392310
   0.25560305 -0.00934895  0.56456538
   0.41783180  0.66472481  0.47552429
  -0.00779229  0.74437508  0.56228120
Direct configuration=    10
   0.08333333  0.08333333  0.38179910
   0.08333333  0.83333333  0.38179910
   0.91890878  0.91753616  0.47602980
   0.83333333  0.58333333  0.38179910
   0.83333333  0.83333333  0.38179910
   0.08333333  0.58333333  0.38179910
   0.91472300  0.41650029  0.47325806
   0.08333333  0.33333333  0.38179910
   0.66762985  0.91412257  0.47574375
   0.33333333  0.83333333  0.38179910
   0.33333333  0.08333333  0.38179910
   0.16754661  0.41659599  0.47603188
   0.33333333  0.33333333  0.38179910
   0.16934497  0.66636991  0.47660429
   0.58333333  0.08333333  0.38179910
   0.41594260  0.16732004  0.47773045
   0.58333333  0.33333333  0.38179910
   0.58333333  0.58333333  0.38179910
   0.58333333  0.83333333  0.38179910
   0.41437667  0.91511060  0.47603482
   0.83333333  0.08333333  0.38179910
   0.66676673  0.17062753  0.47672488
   0.83333333  0.33333333  0.38179910
   0.33333333  0.58333333  0.38179910
   0.08051862  0.10154306  0.60671737
   0.59550599  0.81673690  0.60727334
   0.33325301  0.08434772  0.60694686
   0.08237591  0.81984349  0.60684916
   0.82261061  0.08358801  0.60698360
   0.33736119  0.58659345  0.60700081
   0.32804419  0.33501968  0.60835403
   0.58844432  0.33798014  0.60794357
  -0.00849759  0.50262445  0.56227743
   0.23694548  0.50755346  0.56797554
   0.66583033  0.66498091  0.47241000
   0.16628624  0.91836152  0.47623979
   0.25472840  0.75398656  0.56361462
   0.75886628  0.74032182  0.56232110
   0.91564532  0.66654350  0.47432755
   0.50880900 -0.00146411  0.56644599
   0.41787962  0.41741449  0.47470786
   0.50606419  0.24084934  0.56738432
  -0.00606952  0.26427565  0.56364537
   0.23523169  0.25815412  0.56542812
   0.50744231  0.50493171  0.56370972
   0.75244434  0.50228824  0.56034999
   0.75677239  0.25684256  0.56457602
   0.66401816  0.41787516  0.47425773
   0.91773539  0.16655461  0.47539039
   0.74797201 -0.00835498  0.56454588
  -0.00143922  0.00080790  0.56624096
   0.50375138  0.74362157  0.56224546
   0.16562057  0.16552427  0.47474552
   0.25497236 -0.00848035  0.56545222
   0.41773958  0.66512337  0.47562733
  -0.00878896  0.74370753  0.56345475
Direct configuration=    11
   0.08333333  0.08333333  0.38179910
   0.08333333  0.83333333  0.38179910
   0.91852197  0.91724970  0.47656718
   0.83333333  0.58333333  0.38179910
   0.83333333  0.83333333  0.38179910
   0.08333333  0.58333333  0.38179910
   0.91433614  0.41754392  0.47329665
   0.08333333  0.33333333  0.38179910
   0.66811779  0.91340322  0.47581926
   0.33333333  0.83333333  0.38179910
   0.33333333  0.08333333  0.38179910
   0.16691435  0.41713753  0.47633733
   0.33333333  0.33333333  0.38179910
   0.16883085  0.66662934  0.47722732
   0.58333333  0.08333333  0.38179910
   0.41571143  0.16766260  0.47836466
   0.58333333  0.33333333  0.38179910
   0.58333333  0.58333333  0.38179910
   0.58333333  0.83333333  0.38179910
   0.41467584  0.91482853  0.47642763
   0.83333333  0.08333333  0.38179910
   0.66699396  0.17032008  0.47735710
   0.83333333  0.33333333  0.38179910
   0.33333333  0.58333333  0.38179910
   0.08010192  0.10338591  0.60699650
   0.59669952  0.81563677  0.60895640
   0.33361484  0.08488925  0.60770753
   0.08150513  0.81945441  0.60751490
   0.82221449  0.08382391  0.60778149
   0.33795380  0.58656366  0.60760313
   0.32771485  0.33504998  0.60865872
   0.58984149  0.33720216  0.60900613
  -0.00908617  0.50258252  0.56354034
   0.23710787  0.50767394  0.56914600
   0.66590382  0.66502782  0.47293364
   0.16640354  0.91852451  0.47648444
   0.25521607  0.75272884  0.56396772
   0.75974183  0.73898466  0.56262892
   0.91587183  0.66588008  0.47430471
   0.50967457 -0.00271373  0.56708070
   0.41794797  0.41704166  0.47573216
   0.50525595  0.24201009  0.56831555
  -0.00650312  0.26585566  0.56473818
   0.23529602  0.25867568  0.56647364
   0.50652150  0.50614754  0.56363467
   0.75265500  0.50331169  0.56128997
   0.75670545  0.25682270  0.56530398
   0.66448119  0.41794413  0.47447448
   0.91800470  0.16674846  0.47595084
   0.74819283 -0.00972123  0.56543707
  -0.00189125  0.00074200  0.56669176
   0.50398433  0.74275182  0.56248217
   0.16560769  0.16540329  0.47539146
   0.25447701 -0.00779814  0.56614876
   0.41766715  0.66543641  0.47570826
  -0.00957175  0.74318323  0.56437647
Direct configuration=    12
   0.08333333  0.08333333  0.38179910
   0.08333333  0.83333333  0.38179910
   0.91821564  0.91691635  0.47703673
   0.83333333  0.58333333  0.38179910
   0.83333333  0.83333333  0.38179910
   0.08333333  0.58333333  0.38179910
   0.91418479  0.41789006  0.47392575
   0.08333333  0.33333333  0.38179910
   0.66839272  0.91309908  0.47605941
   0.33333333  0.83333333  0.38179910
   0.33333333  0.08333333  0.38179910
   0.16624553  0.41757637  0.47708559
   0.33333333  0.33333333  0.38179910
   0.16835086  0.66662212  0.47769907
   0.58333333  0.08333333  0.38179910
   0.41580429  0.16759586  0.47918209
   0.58333333  0.33333333  0.38179910
   0.58333333  0.58333333  0.38179910
   0.58333333  0.83333333  0.38179910
   0.41480756  0.91498315  0.47675310
   0.83333333  0.08333333  0.38179910
   0.66711226  0.16992951  0.47807672
   0.83333333  0.33333333  0.38179910
   0.33333333  0.58333333  0.38179910
   0.07964313  0.10308345  0.60795902
   0.59842440  0.81381488  0.61064952
   0.33477020  0.08453764  0.60909151
   0.08106734  0.82003153  0.60843880
   0.82276264  0.08370739  0.60899994
   0.33935386  0.58672978  0.60897725
   0.32776168  0.33510302  0.61026168
   0.59013745  0.33867300  0.61019958
  -0.00737872  0.50190770  0.56475559
   0.23641854  0.50785102  0.57032336
   0.66579724  0.66488444  0.47335130
   0.16631745  0.91872195  0.47676909
   0.25396783  0.75297091  0.56466709
   0.75729348  0.74051478  0.56333077
   0.91627331  0.66532131  0.47456434
   0.51025914 -0.00437492  0.56815089
   0.41792416  0.41695359  0.47664064
   0.50592788  0.24220122  0.56928960
  -0.00839339  0.26887316  0.56558549
   0.23596879  0.25901292  0.56743274
   0.50711869  0.50405372  0.56415690
   0.75222705  0.50255985  0.56222534
   0.75583244  0.25665405  0.56626114
   0.66509580  0.41796258  0.47493061
   0.91835466  0.16729770  0.47660528
   0.74783512 -0.01025501  0.56665590
  -0.00125738  0.00046158  0.56802580
   0.50393953  0.74355409  0.56329175
   0.16530403  0.16590624  0.47607666
   0.25392433 -0.00717307  0.56707418
   0.41754516  0.66555836  0.47564787
  -0.00982123  0.74251123  0.56550878
Direct configuration=    13
   0.08333333  0.08333333  0.38179910
   0.08333333  0.83333333  0.38179910
   0.91793080  0.91660639  0.47747335
   0.83333333  0.58333333  0.38179910
   0.83333333  0.83333333  0.38179910
   0.08333333  0.58333333  0.38179910
   0.91404406  0.41821191  0.47451072
   0.08333333  0.33333333  0.38179910
   0.66864836  0.91281629  0.47628272
   0.33333333  0.83333333  0.38179910
   0.33333333  0.08333333  0.38179910
   0.16562364  0.41798443  0.47778136
   0.33333333  0.33333333  0.38179910
   0.16790455  0.66661541  0.47813772
   0.58333333  0.08333333  0.38179910
   0.41589063  0.16753380  0.47994216
   0.58333333  0.33333333  0.38179910
   0.58333333  0.58333333  0.38179910
   0.58333333  0.83333333  0.38179910
   0.41493004  0.91512692  0.47705574
   0.83333333  0.08333333  0.38179910
   0.66722226  0.16956635  0.47874586
   0.83333333  0.33333333  0.38179910
   0.33333333  0.58333333  0.38179910
   0.07921652  0.10280221  0.60885401
   0.60002825  0.81212082  0.61222385
   0.33584450  0.08421070  0.61037839
   0.08066026  0.82056816  0.60929787
   0.82327234  0.08359906  0.61013289
   0.34065569  0.58688425  0.61025496
   0.32780522  0.33515234  0.61175217
   0.59041265  0.34004064  0.61130930
  -0.00579107  0.50128023  0.56588557
   0.23577758  0.50801567  0.57141812
   0.66569814  0.66475112  0.47373966
   0.16623740  0.91890555  0.47703378
   0.25280717  0.75319598  0.56531739
   0.75501691  0.74193754  0.56398338
   0.91664662  0.66480175  0.47480575
   0.51080270 -0.00591955  0.56914599
   0.41790203  0.41687170  0.47748538
   0.50655266  0.24237893  0.57019530
  -0.01015103  0.27167895  0.56637334
   0.23659435  0.25932649  0.56832455
   0.50767398  0.50210682  0.56464248
   0.75182912  0.50186076  0.56309508
   0.75502068  0.25649724  0.56715114
   0.66566728  0.41797973  0.47535473
   0.91868006  0.16780841  0.47721380
   0.74750251 -0.01075134  0.56778922
  -0.00066799  0.00020084  0.56926623
   0.50389786  0.74430008  0.56404452
   0.16502169  0.16637390  0.47671378
   0.25341043 -0.00659186  0.56793466
   0.41743174  0.66567176  0.47559170
  -0.01005321  0.74188638  0.56656165
Direct configuration=    14
   0.08333333  0.08333333  0.38179910
   0.08333333  0.83333333  0.38179910
   0.91821925  0.91689482  0.47808751
   0.83333333  0.58333333  0.38179910
   0.83333333  0.83333333  0.38179910
   0.08333333  0.58333333  0.38179910
   0.91419181  0.41792673  0.47555568
   0.08333333  0.33333333  0.38179910
   0.66826666  0.91336964  0.47682238
   0.33333333  0.83333333  0.38179910
   0.33333333  0.08333333  0.38179910
   0.16626622  0.41731892  0.47870350
   0.33333333  0.33333333  0.38179910
   0.16812299  0.66634405  0.47841692
   0.58333333  0.08333333  0.38179910
   0.41621039  0.16709769  0.48084313
   0.58333333  0.33333333  0.38179910
   0.58333333  0.58333333  0.38179910
   0.58333333  0.83333333  0.38179910
   0.41442533  0.91584756  0.47742524
   0.83333333  0.08333333  0.38179910
   0.66742591  0.16953887  0.47927937
   0.83333333  0.33333333  0.38179910
   0.33333333  0.58333333  0.38179910
   0.07799968  0.10314544  0.60959220
   0.60019116  0.81086981  0.61344315
   0.33647041  0.08331058  0.61134789
   0.08120849  0.82081306  0.61047438
   0.82402921  0.08270693  0.61123576
   0.34144684  0.58766874  0.61105488
   0.32854584  0.33543509  0.61361072
   0.58951856  0.34190385  0.61263019
  -0.00583597  0.50296125  0.56650651
   0.23699530  0.50786369  0.57312993
   0.66553819  0.66463033  0.47403187
   0.16578461  0.91900047  0.47747443
   0.25283511  0.75311957  0.56631624
   0.75437176  0.74216069  0.56434891
   0.91622274  0.66519913  0.47573290
   0.50976071 -0.00594818  0.57062259
   0.41766580  0.41718847  0.47780734
   0.50697751  0.24167693  0.57155329
  -0.00973364  0.26936172  0.56758028
   0.23876214  0.25736683  0.56945861
   0.50667870  0.50204291  0.56548717