  56  56   0   0
  0.4903395E+02  0.1100258E-08  0.1100258E-08  0.2619179E-08  0.3500000E-15
  1.000000000000000E-004
  CAR 
 unknown system                          
      6.38467291    -21.74337576  301     -1.27223065      1.00000000
    -21.743  0.0000E+00  0.0000E+00
    -21.650  0.0000E+00  0.0000E+00
    -21.556  0.0000E+00  0.0000E+00
    -21.462  0.0000E+00  0.0000E+00
    -21.368  0.0000E+00  0.0000E+00
    -21.275  0.0000E+00  0.0000E+00
    -21.181  0.0000E+00  0.0000E+00
    -21.087  0.0000E+00  0.0000E+00
    -20.993  0.5743E-15  0.5385E-16
    -20.900  0.6589E-11  0.6179E-12
    -20.806  0.1379E-07  0.1294E-08
    -20.712  0.5381E-05  0.5058E-06
    -20.618  0.4070E-03  0.3866E-04
    -20.524  0.6440E-02  0.6425E-03
    -20.431  0.2514E-01  0.3000E-02
    -20.337  0.3559E-01  0.6337E-02
    -20.243  0.4440E-01  0.1050E-01
    -20.149  0.8209E-01  0.1820E-01
    -20.056  0.9152E-01  0.2678E-01
    -19.962  0.4577E-01  0.3107E-01
    -19.868  0.9351E-02  0.3195E-01
    -19.774  0.5712E-03  0.3200E-01
    -19.681  0.7876E-05  0.3200E-01
    -19.587  0.2134E-07  0.3200E-01
    -19.493  0.1070E-10  0.3200E-01
    -19.399  0.9654E-15  0.3200E-01
    -19.306  0.0000E+00  0.3200E-01
    -19.212  0.0000E+00  0.3200E-01
    -19.118  0.0000E+00  0.3200E-01
    -19.024  0.0000E+00  0.3200E-01
    -18.931  0.0000E+00  0.3200E-01
    -18.837  0.0000E+00  0.3200E-01
    -18.743  0.0000E+00  0.3200E-01
    -18.649  0.0000E+00  0.3200E-01
    -18.556  0.0000E+00  0.3200E-01
    -18.462  0.0000E+00  0.3200E-01
    -18.368  0.0000E+00  0.3200E-01
    -18.274  0.0000E+00  0.3200E-01
    -18.180  0.0000E+00  0.3200E-01
    -18.087  0.0000E+00  0.3200E-01
    -17.993  0.0000E+00  0.3200E-01
    -17.899  0.0000E+00  0.3200E-01
    -17.805  0.0000E+00  0.3200E-01
    -17.712  0.0000E+00  0.3200E-01
    -17.618  0.0000E+00  0.3200E-01
    -17.524  0.0000E+00  0.3200E-01
    -17.430  0.0000E+00  0.3200E-01
    -17.337  0.0000E+00  0.3200E-01
    -17.243  0.0000E+00  0.3200E-01
    -17.149  0.0000E+00  0.3200E-01
    -17.055  0.0000E+00  0.3200E-01
    -16.962  0.0000E+00  0.3200E-01
    -16.868  0.0000E+00  0.3200E-01
    -16.774  0.0000E+00  0.3200E-01
    -16.680  0.0000E+00  0.3200E-01
    -16.587  0.0000E+00  0.3200E-01
    -16.493  0.0000E+00  0.3200E-01
    -16.399  0.0000E+00  0.3200E-01
    -16.305  0.0000E+00  0.3200E-01
    -16.212  0.0000E+00  0.3200E-01
    -16.118  0.0000E+00  0.3200E-01
    -16.024  0.0000E+00  0.3200E-01
    -15.930  0.0000E+00  0.3200E-01
    -15.836  0.0000E+00  0.3200E-01
    -15.743  0.0000E+00  0.3200E-01
    -15.649  0.0000E+00  0.3200E-01
    -15.555  0.0000E+00  0.3200E-01
    -15.461  0.0000E+00  0.3200E-01
    -15.368  0.0000E+00  0.3200E-01
    -15.274  0.0000E+00  0.3200E-01
    -15.180  0.0000E+00  0.3200E-01
    -15.086  0.0000E+00  0.3200E-01
    -14.993  0.0000E+00  0.3200E-01
    -14.899  0.0000E+00  0.3200E-01
    -14.805  0.0000E+00  0.3200E-01
    -14.711  0.0000E+00  0.3200E-01
    -14.618  0.0000E+00  0.3200E-01
    -14.524  0.0000E+00  0.3200E-01
    -14.430  0.0000E+00  0.3200E-01
    -14.336  0.0000E+00  0.3200E-01
    -14.243  0.0000E+00  0.3200E-01
    -14.149  0.0000E+00  0.3200E-01
    -14.055  0.0000E+00  0.3200E-01
    -13.961  0.0000E+00  0.3200E-01
    -13.868  0.0000E+00  0.3200E-01
    -13.774  0.0000E+00  0.3200E-01
    -13.680  0.0000E+00  0.3200E-01
    -13.586  0.0000E+00  0.3200E-01
    -13.492  0.0000E+00  0.3200E-01
    -13.399  0.0000E+00  0.3200E-01
    -13.305  0.0000E+00  0.3200E-01
    -13.211  0.0000E+00  0.3200E-01
    -13.117  0.0000E+00  0.3200E-01
    -13.024  0.0000E+00  0.3200E-01
    -12.930  0.0000E+00  0.3200E-01
    -12.836  0.0000E+00  0.3200E-01
    -12.742  0.0000E+00  0.3200E-01
    -12.649  0.0000E+00  0.3200E-01
    -12.555  0.0000E+00  0.3200E-01
    -12.461  0.0000E+00  0.3200E-01
    -12.367  0.0000E+00  0.3200E-01
    -12.274  0.0000E+00  0.3200E-01
    -12.180  0.0000E+00  0.3200E-01
    -12.086  0.0000E+00  0.3200E-01
    -11.992  0.0000E+00  0.3200E-01
    -11.899  0.0000E+00  0.3200E-01
    -11.805  0.0000E+00  0.3200E-01
    -11.711  0.0000E+00  0.3200E-01
    -11.617  0.0000E+00  0.3200E-01
    -11.524  0.0000E+00  0.3200E-01
    -11.430  0.0000E+00  0.3200E-01
    -11.336  0.0000E+00  0.3200E-01
    -11.242  0.0000E+00  0.3200E-01
    -11.148  0.0000E+00  0.3200E-01
    -11.055  0.0000E+00  0.3200E-01
    -10.961  0.0000E+00  0.3200E-01
    -10.867  0.0000E+00  0.3200E-01
    -10.773  0.0000E+00  0.3200E-01
    -10.680  0.0000E+00  0.3200E-01
    -10.586  0.0000E+00  0.3200E-01
    -10.492  0.0000E+00  0.3200E-01
    -10.398  0.0000E+00  0.3200E-01
    -10.305  0.0000E+00  0.3200E-01
    -10.211  0.0000E+00  0.3200E-01
    -10.117  0.0000E+00  0.3200E-01
    -10.023  0.4998E-14  0.3200E-01
     -9.930  0.3687E-10  0.3200E-01
     -9.836  0.4897E-07  0.3200E-01
     -9.742  0.1197E-04  0.3200E-01
     -9.648  0.5586E-03  0.3205E-01
     -9.555  0.5244E-02  0.3255E-01
     -9.461  0.1058E-01  0.3354E-01
     -9.367  0.6511E-02  0.3415E-01
     -9.273  0.9157E-02  0.3501E-01
     -9.180  0.8651E-02  0.3582E-01
     -9.086  0.1865E-02  0.3599E-01
     -8.992  0.2363E-03  0.3601E-01
     -8.898  0.2517E-02  0.3625E-01
     -8.804  0.1030E-01  0.3722E-01
     -8.711  0.1670E-01  0.3878E-01
     -8.617  0.2007E-01  0.4066E-01
     -8.523  0.1767E-01  0.4232E-01
     -8.429  0.9671E-02  0.4323E-01
     -8.336  0.6604E-02  0.4385E-01
     -8.242  0.1557E-01  0.4531E-01
     -8.148  0.2696E-01  0.4783E-01
     -8.054  0.4118E-01  0.5170E-01
     -7.961  0.6098E-01  0.5741E-01
     -7.867  0.7781E-01  0.6471E-01
     -7.773  0.8961E-01  0.7311E-01
     -7.679  0.9550E-01  0.8206E-01
     -7.586  0.1040E+00  0.9181E-01
     -7.492  0.1075E+00  0.1019E+00
     -7.398  0.1077E+00  0.1120E+00
     -7.304  0.1108E+00  0.1224E+00
     -7.211  0.1168E+00  0.1333E+00
     -7.117  0.1391E+00  0.1464E+00
     -7.023  0.1591E+00  0.1613E+00
     -6.929  0.1601E+00  0.1763E+00
     -6.836  0.1503E+00  0.1904E+00
     -6.742  0.1511E+00  0.2046E+00
     -6.648  0.1603E+00  0.2196E+00
     -6.554  0.1690E+00  0.2354E+00
     -6.460  0.1761E+00  0.2519E+00
     -6.367  0.1718E+00  0.2680E+00
     -6.273  0.1460E+00  0.2817E+00
     -6.179  0.1342E+00  0.2943E+00
     -6.085  0.1339E+00  0.3069E+00
     -5.992  0.1385E+00  0.3199E+00
     -5.898  0.1610E+00  0.3350E+00
     -5.804  0.1824E+00  0.3521E+00
     -5.710  0.1779E+00  0.3687E+00
     -5.617  0.1684E+00  0.3845E+00
     -5.523  0.1705E+00  0.4005E+00
     -5.429  0.1741E+00  0.4168E+00
     -5.335  0.1665E+00  0.4324E+00
     -5.242  0.1697E+00  0.4484E+00
     -5.148  0.1755E+00  0.4648E+00
     -5.054  0.1746E+00  0.4812E+00
     -4.960  0.1735E+00  0.4974E+00
     -4.867  0.1796E+00  0.5143E+00
     -4.773  0.1924E+00  0.5323E+00
     -4.679  0.1955E+00  0.5507E+00
     -4.585  0.1902E+00  0.5685E+00
     -4.492  0.1952E+00  0.5868E+00
     -4.398  0.2003E+00  0.6056E+00
     -4.304  0.2059E+00  0.6249E+00
     -4.210  0.2084E+00  0.6444E+00
     -4.116  0.2126E+00  0.6643E+00
     -4.023  0.2157E+00  0.6846E+00
     -3.929  0.2056E+00  0.7038E+00
     -3.835  0.1946E+00  0.7221E+00
     -3.741  0.1879E+00  0.7397E+00
     -3.648  0.1822E+00  0.7568E+00
     -3.554  0.1793E+00  0.7736E+00
     -3.460  0.1837E+00  0.7908E+00
     -3.366  0.1837E+00  0.8081E+00
     -3.273  0.1682E+00  0.8238E+00
     -3.179  0.1588E+00  0.8387E+00
     -3.085  0.1611E+00  0.8538E+00
     -2.991  0.1651E+00  0.8693E+00
     -2.898  0.1664E+00  0.8849E+00
     -2.804  0.1730E+00  0.9011E+00
     -2.710  0.1845E+00  0.9184E+00
     -2.616  0.1834E+00  0.9356E+00
     -2.523  0.1784E+00  0.9523E+00
     -2.429  0.1792E+00  0.9691E+00
     -2.335  0.1795E+00  0.9860E+00
     -2.241  0.1735E+00  0.1002E+01
     -2.148  0.1534E+00  0.1017E+01
     -2.054  0.1368E+00  0.1029E+01
     -1.960  0.1288E+00  0.1042E+01
     -1.866  0.1205E+00  0.1053E+01
     -1.772  0.1090E+00  0.1063E+01
     -1.679  0.1027E+00  0.1073E+01
     -1.585  0.1018E+00  0.1082E+01
     -1.491  0.9331E-01  0.1091E+01
     -1.397  0.7342E-01  0.1098E+01
     -1.304  0.5102E-01  0.1103E+01
     -1.210  0.4317E-01  0.1107E+01
     -1.116  0.4825E-01  0.1111E+01
     -1.022  0.6785E-01  0.1118E+01
     -0.929  0.7975E-01  0.1125E+01
     -0.835  0.6945E-01  0.1132E+01
     -0.741  0.6098E-01  0.1137E+01
     -0.647  0.6777E-01  0.1144E+01
     -0.554  0.7947E-01  0.1151E+01
     -0.460  0.7447E-01  0.1158E+01
     -0.366  0.4824E-01  0.1163E+01
     -0.272  0.2607E-01  0.1165E+01
     -0.179  0.1934E-01  0.1167E+01
     -0.085  0.1882E-01  0.1169E+01
      0.009  0.2579E-01  0.1171E+01
      0.103  0.3540E-01  0.1174E+01
      0.197  0.3824E-01  0.1178E+01
      0.290  0.4293E-01  0.1182E+01
      0.384  0.3807E-01  0.1186E+01
      0.478  0.3311E-01  0.1189E+01
      0.572  0.3255E-01  0.1192E+01
      0.665  0.3248E-01  0.1195E+01
      0.759  0.2484E-01  0.1197E+01
      0.853  0.1754E-01  0.1199E+01
      0.947  0.1842E-01  0.1200E+01
      1.040  0.1578E-01  0.1202E+01
      1.134  0.1562E-01  0.1203E+01
      1.228  0.2332E-01  0.1206E+01
      1.322  0.2907E-01  0.1208E+01
      1.415  0.2871E-01  0.1211E+01
      1.509  0.3146E-01  0.1214E+01
      1.603  0.4209E-01  0.1218E+01
      1.697  0.4415E-01  0.1222E+01
      1.790  0.3369E-01  0.1225E+01
      1.884  0.2837E-01  0.1228E+01
      1.978  0.3078E-01  0.1231E+01
      2.072  0.3097E-01  0.1234E+01
      2.165  0.2386E-01  0.1236E+01
      2.259  0.1489E-01  0.1237E+01
      2.353  0.1081E-01  0.1238E+01
      2.447  0.1644E-01  0.1240E+01
      2.541  0.2054E-01  0.1242E+01
      2.634  0.1868E-01  0.1243E+01
      2.728  0.2277E-01  0.1246E+01
      2.822  0.2680E-01  0.1248E+01
      2.916  0.2792E-01  0.1251E+01
      3.009  0.3083E-01  0.1254E+01
      3.103  0.3168E-01  0.1257E+01
      3.197  0.2885E-01  0.1259E+01
      3.291  0.2350E-01  0.1262E+01
      3.384  0.2151E-01  0.1264E+01
      3.478  0.2735E-01  0.1266E+01
      3.572  0.3180E-01  0.1269E+01
      3.666  0.3000E-01  0.1272E+01
      3.759  0.3573E-01  0.1275E+01
      3.853  0.4608E-01  0.1280E+01
      3.947  0.4582E-01  0.1284E+01
      4.041  0.4599E-01  0.1288E+01
      4.134  0.4155E-01  0.1292E+01
      4.228  0.3361E-01  0.1295E+01
      4.322  0.4095E-01  0.1299E+01
      4.416  0.5039E-01  0.1304E+01
      4.509  0.4788E-01  0.1308E+01
      4.603  0.4294E-01  0.1312E+01
      4.697  0.5192E-01  0.1317E+01
      4.791  0.5439E-01  0.1322E+01
      4.885  0.5217E-01  0.1327E+01
      4.978  0.6229E-01  0.1333E+01
      5.072  0.6813E-01  0.1339E+01
      5.166  0.4023E-01  0.1343E+01
      5.260  0.8449E-02  0.1344E+01
      5.353  0.4760E-03  0.1344E+01
      5.447  0.5992E-05  0.1344E+01
      5.541  0.1516E-07  0.1344E+01
      5.635  0.7278E-11  0.1344E+01
      5.728  0.6426E-15  0.1344E+01
      5.822  0.0000E+00  0.1344E+01
      5.916  0.0000E+00  0.1344E+01
      6.010  0.0000E+00  0.1344E+01
      6.103  0.0000E+00  0.1344E+01
      6.197  0.0000E+00  0.1344E+01
      6.291  0.0000E+00  0.1344E+01
      6.385  0.0000E+00  0.1344E+01
