unknown system                          
           1
    11.002582    0.000000    0.000000
     5.501291    9.528515    0.000000
     0.000000    0.000000   26.191785
   Au   O    Pd
  24   8  24
Direct configuration=     1
   0.08333333  0.08333333  0.38179910
   0.33333333  0.83333333  0.38179910
   0.83333333  0.83333333  0.38179910
   0.91666667  0.16666667  0.46754708
   0.83333333  0.33333333  0.38179910
   0.83333333  0.08333333  0.38179910
   0.91666667  0.41666667  0.46754708
   0.83333333  0.58333333  0.38179910
   0.50000000  0.75000000  0.55329505
   0.08333333  0.58333333  0.38179910
   0.91666667  0.66666667  0.46754708
   0.08333333  0.83333333  0.38179910
   0.41666667  0.91666667  0.46754708
   0.58333333  0.83333333  0.38179910
   0.66666667  0.66666667  0.46754708
   0.58333333  0.58333333  0.38179910
   0.33333333  0.08333333  0.38179910
   0.16666667  0.16666667  0.46754708
   0.41666667  0.41666667  0.46754708
   0.33333333  0.33333333  0.38179910
   0.58333333  0.33333333  0.38179910
   0.41666667  0.16666667  0.46754708
   0.58333333  0.08333333  0.38179910
   0.33333333  0.58333333  0.38179910
   0.08333333  0.33333333  0.61820090
   0.83333333  0.58333333  0.61820090
   0.33333333  0.08333333  0.61820090
   0.33333333  0.33333333  0.61820090
   0.83333333  0.33333333  0.61820090
   0.33333333  0.58333333  0.61820090
   0.83333333  0.08333333  0.61820090
   0.58333333  0.33333333  0.61820090
   0.16666667  0.66666667  0.46754708
   0.16666667  0.91666667  0.46754708
   0.25000000  0.75000000  0.55329505
   0.75000000  0.75000000  0.55329505
   0.25000000  0.25000000  0.55329505
   0.50000000  0.00000000  0.55329505
   0.75000000  0.50000000  0.55329505
   0.16666667  0.41666667  0.46754708
   0.50000000  0.25000000  0.55329505
   0.25000000  0.00000000  0.55329505
   0.25000000  0.50000000  0.55329505
   0.75000000  0.25000000  0.55329505
   0.00000000  0.75000000  0.55329505
   0.91666667  0.91666667  0.46754708
   0.00000000  0.50000000  0.55329505
   0.00000000  0.25000000  0.55329505
   0.08333333  0.33333333  0.38179910
   0.66666667  0.16666667  0.46754708
   0.75000000  0.00000000  0.55329505
   0.66666667  0.91666667  0.46754708
   0.00000000  0.00000000  0.55329505
   0.66666667  0.41666667  0.46754708
   0.50000000  0.50000000  0.55329505
   0.41666667  0.66666667  0.46754708
Direct configuration=     2
   0.08333333  0.08333333  0.38179910
   0.33333333  0.83333333  0.38179910
   0.83333333  0.83333333  0.38179910
   0.91564186  0.16618042  0.46892117
   0.83333333  0.33333333  0.38179910
   0.83333333  0.08333333  0.38179910
   0.91734123  0.41633978  0.46811458
   0.83333333  0.58333333  0.38179910
   0.49947378  0.75001232  0.55505154
   0.08333333  0.58333333  0.38179910
   0.91787539  0.66728630  0.46888320
   0.08333333  0.83333333  0.38179910
   0.41635882  0.91635015  0.46834080
   0.58333333  0.83333333  0.38179910
   0.66668057  0.66597961  0.46856940
   0.58333333  0.58333333  0.38179910
   0.33333333  0.08333333  0.38179910
   0.16594487  0.16780029  0.46855289
   0.41667907  0.41758976  0.46840311
   0.33333333  0.33333333  0.38179910
   0.58333333  0.33333333  0.38179910
   0.41748162  0.16718867  0.46889542
   0.58333333  0.08333333  0.38179910
   0.33333333  0.58333333  0.38179910
   0.08322265  0.33333671  0.61424510
   0.83287183  0.58474084  0.61379171
   0.33431608  0.08128324  0.61388052
   0.33350335  0.33359604  0.61422721
   0.83340228  0.33332413  0.61423410
   0.33241839  0.58488263  0.61382090
   0.83461394  0.08075967  0.61377131
   0.58304962  0.33354578  0.61423854
   0.16683393  0.66695040  0.46857447
   0.16663290  0.91525926  0.46934842
   0.24975975  0.74962171  0.55508183
   0.75058104  0.74982024  0.55544666
   0.24987766  0.25017570  0.55769738
   0.49959938  0.00008265  0.55559604
   0.75049935  0.49981664  0.55707016
   0.16637420  0.41718798  0.46868079
   0.49995584  0.25031070  0.55698032
   0.25051042 -0.00008103  0.55560986
   0.25013278  0.50056866  0.55670232
   0.74999639  0.24992201  0.55734473
   0.00014831  0.75036876  0.55399717
   0.91688351  0.91633235  0.46811049
  -0.00050020  0.50042341  0.55706373
  -0.00022142  0.25038598  0.55730419
   0.08333333  0.33333333  0.38179910
   0.66682065  0.16657721  0.46860064
   0.75117019 -0.00014961  0.55523828
   0.66739447  0.91742120  0.46931457
  -0.00095477 -0.00058094  0.55539678
   0.66600846  0.41668765  0.46888869
   0.49936714  0.50000247  0.55672051
   0.41586719  0.66607509  0.46826611
Direct configuration=     3
   0.08333333  0.08333333  0.38179910
   0.33333333  0.83333333  0.38179910
   0.83333333  0.83333333  0.38179910
   0.91256742  0.16472166  0.47304347
   0.83333333  0.33333333  0.38179910
   0.83333333  0.08333333  0.38179910
   0.91936494  0.41535912  0.46981709
   0.83333333  0.58333333  0.38179910
   0.49789511  0.75004927  0.56032101
   0.08333333  0.58333333  0.38179910
   0.92150156  0.66914521  0.47289156
   0.08333333  0.83333333  0.38179910
   0.41543528  0.91540058  0.47072199
   0.58333333  0.83333333  0.38179910
   0.66672230  0.66391843  0.47163638
   0.58333333  0.58333333  0.38179910
   0.33333333  0.08333333  0.38179910
   0.16377950  0.17120118  0.47157032
   0.41671627  0.42035903  0.47097121
   0.33333333  0.33333333  0.38179910
   0.58333333  0.33333333  0.38179910
   0.41992648  0.16875468  0.47294043
   0.58333333  0.08333333  0.38179910
   0.33333333  0.58333333  0.38179910
   0.08289060  0.33334683  0.60237770
   0.83148731  0.58896337  0.60056416
   0.33726433  0.07513296  0.60091940
   0.33401340  0.33438417  0.60230614
   0.83360913  0.33329650  0.60233372
   0.32967358  0.58953052  0.60068089
   0.83845575  0.07303869  0.60048254
   0.58219847  0.33418311  0.60235148
   0.16733571  0.66780162  0.47165664
   0.16653159  0.91103702  0.47475243
   0.24903899  0.74848684  0.56044216
   0.75232416  0.74928098  0.56190148
   0.24951064  0.25070281  0.57090437
   0.49839752  0.00033058  0.56249899
   0.75199738  0.49926656  0.56839548
   0.16549681  0.41875192  0.47208193
   0.49982334  0.25124278  0.56803611
   0.25204170 -0.00032412  0.56255428
   0.25053113  0.50227465  0.56692414
   0.74998555  0.24968804  0.56949375
   0.00059324  0.75147502  0.55610351
   0.91753404  0.91532940  0.46980072
  -0.00200082  0.50169364  0.56836975
  -0.00088566  0.25154392  0.56933161
   0.08333333  0.33333333  0.38179910
   0.66728259  0.16630882  0.47176133
   0.75468078 -0.00059844  0.56106797
   0.66957789  0.91968478  0.47461704
  -0.00381907 -0.00232375  0.56170196
   0.66403383  0.41675058  0.47291353
   0.49746857  0.50000987  0.56699689
   0.41346878  0.66430036  0.47042323
Direct configuration=     4
   0.08333333  0.08333333  0.38179910
   0.33333333  0.83333333  0.38179910
   0.83333333  0.83333333  0.38179910
   0.91449006  0.16563391  0.47046554
   0.83333333  0.33333333  0.38179910
   0.83333333  0.08333333  0.38179910
   0.91809939  0.41597239  0.46875241
   0.83333333  0.58333333  0.38179910
   0.49888235  0.75002616  0.55702568
   0.08333333  0.58333333  0.38179910
   0.91923389  0.66798272  0.47038488
   0.08333333  0.83333333  0.38179910
   0.41601283  0.91599440  0.46923289
   0.58333333  0.83333333  0.38179910
   0.66669621  0.66520741  0.46971841
   0.58333333  0.58333333  0.38179910
   0.33333333  0.08333333  0.38179910
   0.16513364  0.16907439  0.46968333
   0.41669301  0.41862723  0.46936522
   0.33333333  0.33333333  0.38179910
   0.58333333  0.33333333  0.38179910
   0.41839756  0.16777536  0.47041083
   0.58333333  0.08333333  0.38179910
   0.33333333  0.58333333  0.38179910
   0.08309825  0.33334050  0.60979913
   0.83235314  0.58632276  0.60883617
   0.33542060  0.07897911  0.60902480
   0.33369444  0.33389130  0.60976113
   0.83347977  0.33331378  0.60977577
   0.33139008  0.58662390  0.60889815
   0.83605322  0.07786710  0.60879284
   0.58273075  0.33378455  0.60978520
   0.16702191  0.66726930  0.46972917
   0.16659494  0.91367745  0.47137296
   0.24948972  0.74919654  0.55709001
   0.75123408  0.74961821  0.55786488
   0.24974016  0.25037318  0.56264522
   0.49914912  0.00017553  0.55818214
   0.75106057  0.49961056  0.56131305
   0.16604550  0.41777389  0.46995498
   0.49990620  0.25065989  0.56112223
   0.25108410 -0.00017210  0.55821150
   0.25028202  0.50120779  0.56053180
   0.74999233  0.24983436  0.56189621
   0.00031500  0.75078321  0.55478628
   0.91712722  0.91595661  0.46874371
  -0.00106239  0.50089929  0.56129939
  -0.00047027  0.25081979  0.56181011
   0.08333333  0.33333333  0.38179910
   0.66699371  0.16647666  0.46978475
   0.75248539 -0.00031776  0.55742230
   0.66821246  0.91826922  0.47130108
  -0.00202784 -0.00123386  0.55775893
   0.66526869  0.41671122  0.47039655
   0.49865587  0.50000524  0.56057043
   0.41496866  0.66541021  0.46907425
Direct configuration=     5
   0.08333333  0.08333333  0.38179910
   0.33333333  0.83333333  0.38179910
   0.83333333  0.83333333  0.38179910
   0.91377395  0.16529413  0.47142572
   0.83333333  0.33333333  0.38179910
   0.83333333  0.08333333  0.38179910
   0.91857076  0.41574397  0.46914896
   0.83333333  0.58333333  0.38179910
   0.49851464  0.75003477  0.55825306
   0.08333333  0.58333333  0.38179910
   0.92007851  0.66841570  0.47131852
   0.08333333  0.83333333  0.38179910
   0.41579771  0.91577323  0.46978752
   0.58333333  0.83333333  0.38179910
   0.66670592  0.66472732  0.47043278
   0.58333333  0.58333333  0.38179910
   0.33333333  0.08333333  0.38179910
   0.16462928  0.16986654  0.47038616
   0.41670167  0.41927226  0.46996338
   0.33333333  0.33333333  0.38179910
   0.58333333  0.33333333  0.38179910
   0.41896702  0.16814012  0.47135301
   0.58333333  0.08333333  0.38179910
   0.33333333  0.58333333  0.38179910
   0.08302091  0.33334286  0.60703494
   0.83203065  0.58730628  0.60575518
   0.33610732  0.07754657  0.60600586
   0.33381324  0.33407488  0.60698444
   0.83352795  0.33330734  0.60700390
   0.33075075  0.58770650  0.60583755
   0.83694807  0.07606871  0.60569758
   0.58253249  0.33393300  0.60701643
   0.16713879  0.66746757  0.47044707
   0.16657135  0.91269399  0.47263168
   0.24932184  0.74893221  0.55833855
   0.75164009  0.74949261  0.55936835
   0.24965467  0.25049595  0.56572143
   0.49886918  0.00023328  0.55978999
   0.75140949  0.49948243  0.56395097
   0.16584114  0.41813817  0.47074718
   0.49987534  0.25087700  0.56369738
   0.25144076 -0.00022872  0.55982902
   0.25037480  0.50160515  0.56291269
   0.74998980  0.24977986  0.56472599
   0.00041863  0.75104088  0.55527690
   0.91727875  0.91572300  0.46913741
  -0.00141192  0.50119515  0.56393281
  -0.00062499  0.25108950  0.56461157
   0.08333333  0.33333333  0.38179910
   0.66710130  0.16641415  0.47052095
   0.75330308 -0.00042230  0.55878017
   0.66872103  0.91879646  0.47253614
  -0.00269500 -0.00163980  0.55922755
   0.66480875  0.41672588  0.47133402
   0.49821365  0.50000696  0.56296403
   0.41441001  0.66499684  0.46957669
Direct configuration=     6
   0.08333333  0.08333333  0.38179910
   0.33333333  0.83333333  0.38179910
   0.83333333  0.83333333  0.38179910
   0.91398551  0.16539452  0.47114205
   0.83333333  0.33333333  0.38179910
   0.83333333  0.08333333  0.38179910
   0.91843150  0.41581145  0.46903180
   0.83333333  0.58333333  0.38179910
   0.49862328  0.75003223  0.55789045
   0.08333333  0.58333333  0.38179910
   0.91982898  0.66828778  0.47104269
   0.08333333  0.83333333  0.38179910
   0.41586127  0.91583857  0.46962366
   0.58333333  0.83333333  0.38179910
   0.66670305  0.66486915  0.47022173
   0.58333333  0.58333333  0.38179910
   0.33333333  0.08333333  0.38179910
   0.16477828  0.16963251  0.47017852
   0.41669911  0.41908169  0.46978666
   0.33333333  0.33333333  0.38179910
   0.58333333  0.33333333  0.38179910
   0.41879878  0.16803235  0.47107466
   0.58333333  0.08333333  0.38179910
   0.33333333  0.58333333  0.38179910
   0.08304376  0.33334216  0.60785158
   0.83212593  0.58701571  0.60666541
   0.33590444  0.07796979  0.60689776
   0.33377814  0.33402064  0.60780477
   0.83351372  0.33330924  0.60782281
   0.33093963  0.58738666  0.60674176
   0.83668370  0.07660002  0.60661203
   0.58259106  0.33388914  0.60783443
   0.16710426  0.66740899  0.47023498
   0.16657832  0.91298454  0.47225981
   0.24937144  0.74901030  0.55796969
   0.75152014  0.74952972  0.55892417
   0.24967993  0.25045968  0.56481261
   0.49895188  0.00021622  0.55931498
   0.75130641  0.49952028  0.56317164
   0.16590151  0.41803055  0.47051314
   0.49988445  0.25081285  0.56293659
   0.25133539 -0.00021199  0.55935114
   0.25034739  0.50148776  0.56220929
   0.74999055  0.24979596  0.56388997
   0.00038801  0.75096475  0.55513195
   0.91723398  0.91579201  0.46902110
  -0.00130866  0.50110774  0.56315481
  -0.00057928  0.25100982  0.56378392
   0.08333333  0.33333333  0.38179910
   0.66706952  0.16643262  0.47030345
   0.75306151 -0.00039141  0.55837900
   0.66857078  0.91864070  0.47217126
  -0.00249790 -0.00151987  0.55879367
   0.66494463  0.41672155  0.47105706
   0.49834430  0.50000646  0.56225687
   0.41457506  0.66511896  0.46942825
Direct configuration=     7
   0.08333333  0.08333333  0.38179910
   0.33333333  0.83333333  0.38179910
   0.83333333  0.83333333  0.38179910
   0.91389205  0.16576659  0.47309276
   0.83333333  0.33333333  0.38179910
   0.83333333  0.08333333  0.38179910
   0.91799382  0.41610969  0.47092001
   0.83333333  0.58333333  0.38179910
   0.49879069  0.74954133  0.55939101
   0.08333333  0.58333333  0.38179910
   0.91970208  0.66741876  0.47230329
   0.08333333  0.83333333  0.38179910
   0.41564066  0.91620182  0.47092047
   0.58333333  0.83333333  0.38179910
   0.66731110  0.66439580  0.47186872
   0.58333333  0.58333333  0.38179910
   0.33333333  0.08333333  0.38179910
   0.16479987  0.16945268  0.47211336
   0.41651073  0.41885489  0.47168827
   0.33333333  0.33333333  0.38179910
   0.58333333  0.33333333  0.38179910
   0.41838468  0.16884140  0.47311712
   0.58333333  0.08333333  0.38179910
   0.33333333  0.58333333  0.38179910
   0.08238378  0.33413582  0.60753867
   0.82966254  0.59191245  0.60616462
   0.33876299  0.07244337  0.60622779
   0.33376858  0.33490914  0.60709324
   0.83332745  0.33349846  0.60746662
   0.32817655  0.59274511  0.60566638
   0.83949245  0.07034542  0.60560875
   0.58238421  0.33412124  0.60703666
   0.16770915  0.66667604  0.47121245
   0.16617421  0.91356795  0.47428901
   0.24723188  0.75333132  0.55894375
   0.74900929  0.75448639  0.55976214
   0.24960466  0.25100357  0.56514158
   0.50456045 -0.00292971  0.56008362
   0.74408497  0.50371705  0.56388037
   0.16649971  0.41826398  0.47235959
   0.50300695  0.24443208  0.56392810
   0.24836650 -0.00295297  0.55989245
   0.24356232  0.50437179  0.56299411
   0.74957412  0.25038330  0.56436861
   0.00063658  0.75114628  0.55639655
   0.91728451  0.91616598  0.46982765
   0.00281265  0.50454971  0.56389299
   0.00320586  0.24346647  0.56461438
   0.08333333  0.33333333  0.38179910
   0.66673286  0.16709187  0.47180495
   0.75042343 -0.00335131  0.55897991
   0.66854832  0.91862074  0.47421466
   0.00345539 -0.00467128  0.55941078
   0.66510409  0.41658228  0.47297285
   0.50124594  0.50371541  0.56314537
   0.41477978  0.66510556  0.47068046
Direct configuration=     8
   0.08333333  0.08333333  0.38179910
   0.33333333  0.83333333  0.38179910
   0.83333333  0.83333333  0.38179910
   0.91382339  0.16603988  0.47452556
   0.83333333  0.33333333  0.38179910
   0.83333333  0.08333333  0.38179910
   0.91767235  0.41632874  0.47230690
   0.83333333  0.58333333  0.38179910
   0.49891365  0.74918077  0.56049317
   0.08333333  0.58333333  0.38179910
   0.91960888  0.66678047  0.47322920
   0.08333333  0.83333333  0.38179910
   0.41547862  0.91646862  0.47187297
   0.58333333  0.83333333  0.38179910
   0.66775771  0.66404812  0.47307843
   0.58333333  0.58333333  0.38179910
   0.33333333  0.08333333  0.38179910
   0.16481573  0.16932060  0.47353450
   0.41637237  0.41868831  0.47308500
   0.33333333  0.33333333  0.38179910
   0.58333333  0.33333333  0.38179910
   0.41808053  0.16943565  0.47461731
   0.58333333  0.08333333  0.38179910
   0.33333333  0.58333333  0.38179910
   0.08189902  0.33471875  0.60730883
   0.82785319  0.59550910  0.60579678
   0.34086258  0.06838423  0.60573571
   0.33376156  0.33556175  0.60657061
   0.83319063  0.33363744  0.60720500
   0.32614708  0.59668087  0.60487652
   0.84155546  0.06575144  0.60487185
   0.58223228  0.33429171  0.60645070
   0.16815344  0.66613769  0.47193041
   0.16587739  0.91399646  0.47577946
   0.24566038  0.75650510  0.55965919
   0.74716508  0.75812704  0.56037762
   0.24954938  0.25140305  0.56538321
   0.50867993 -0.00524038  0.56064818
   0.73878084  0.50679956  0.56440094
   0.16693908  0.41843543  0.47371579
   0.50530041  0.23974542  0.56465636
   0.24618585 -0.00496621  0.56029004
   0.23857870  0.50649010  0.56357055
   0.74926825  0.25081469  0.56472016
   0.00081915  0.75127961  0.55732539
   0.91732162  0.91644065  0.47042005
   0.00583974  0.50707782  0.56443518
   0.00598603  0.23792591  0.56522435
   0.08333333  0.33333333  0.38179910
   0.66648559  0.16757609  0.47290779
   0.74848577 -0.00552534  0.55942127
   0.66853183  0.91860608  0.47571553
   0.00782807 -0.00698598  0.55986404
   0.66522121  0.41647999  0.47437999
   0.50337718  0.50643963  0.56379796
   0.41493014  0.66509572  0.47160021
Direct configuration=     9
   0.08333333  0.08333333  0.38179910
   0.33333333  0.83333333  0.38179910
   0.83333333  0.83333333  0.38179910
   0.91373763  0.16647704  0.47570915
   0.83333333  0.33333333  0.38179910
   0.83333333  0.08333333  0.38179910
   0.91769334  0.41618198  0.47418457
   0.83333333  0.58333333  0.38179910
   0.49708649  0.75269623  0.56203487
   0.08333333  0.58333333  0.38179910
   0.91931210  0.66661410  0.47395449
   0.08333333  0.83333333  0.38179910
   0.41569742  0.91665488  0.47286612
   0.58333333  0.83333333  0.38179910
   0.66753450  0.66444122  0.47406225
   0.58333333  0.58333333  0.38179910
   0.33333333  0.08333333  0.38179910
   0.16507057  0.16922589  0.47474176
   0.41651475  0.41876859  0.47490324
   0.33333333  0.33333333  0.38179910
   0.58333333  0.33333333  0.38179910
   0.41753371  0.16934938  0.47585368
   0.58333333  0.08333333  0.38179910
   0.33333333  0.58333333  0.38179910
   0.08000362  0.33571684  0.60771547
   0.82682476  0.59838416  0.60576323
   0.34274282  0.06454206  0.60548271
   0.33431536  0.33660180  0.60724665
   0.83421094  0.33486868  0.60765503
   0.32433198  0.59925547  0.60502856
   0.84375576  0.06105882  0.60451668
   0.58041262  0.33531349  0.60712398
   0.16823886  0.66625791  0.47253639
   0.16574137  0.91432027  0.47582100
   0.24434649  0.75923924  0.56006498
   0.74635691  0.76004405  0.56124743
   0.25171515  0.24623720  0.56528388
   0.50935834 -0.00764277  0.56171654
   0.74041127  0.50847376  0.56559573
   0.16716686  0.41828777  0.47462314
   0.50703877  0.23706852  0.56541989
   0.24780926 -0.00712289  0.56129758
   0.23868299  0.50970704  0.56435112
   0.75201436  0.24563000  0.56429866
  -0.00030277  0.75370059  0.55863623
   0.91731912  0.91645287  0.47113636
   0.00230836  0.50990325  0.56563257
   0.00658994  0.23623926  0.56641507
   0.08333333  0.33333333  0.38179910
   0.66659830  0.16773652  0.47398355
   0.74965137 -0.00744612  0.56020154
   0.66826931  0.91848026  0.47574248
   0.00870387 -0.00896705  0.56082257
   0.66525666  0.41642130  0.47536540
   0.50026203  0.50879444  0.56465021
   0.41528667  0.66551072  0.47251718
Direct configuration=    10
   0.08333333  0.08333333  0.38179910
   0.33333333  0.83333333  0.38179910
   0.83333333  0.83333333  0.38179910
   0.91371854  0.16657432  0.47597251
   0.83333333  0.33333333  0.38179910
   0.83333333  0.08333333  0.38179910
   0.91769801  0.41614932  0.47460237
   0.83333333  0.58333333  0.38179910
   0.49667992  0.75347846  0.56237792
   0.08333333  0.58333333  0.38179910
   0.91924606  0.66657708  0.47411588
   0.08333333  0.83333333  0.38179910
   0.41574610  0.91669633  0.47308711
   0.58333333  0.83333333  0.38179910
   0.66748483  0.66452869  0.47428116
   0.58333333  0.58333333  0.38179910
   0.33333333  0.08333333  0.38179910
   0.16512727  0.16920482  0.47501039
   0.41654643  0.41878645  0.47530783
   0.33333333  0.33333333  0.38179910
   0.58333333  0.33333333  0.38179910
   0.41741203  0.16933019  0.47612878
   0.58333333  0.08333333  0.38179910
   0.33333333  0.58333333  0.38179910
   0.07958188  0.33593893  0.60780595
   0.82659592  0.59902390  0.60575576
   0.34316120  0.06368713  0.60542641
   0.33443858  0.33683323  0.60739708
   0.83443797  0.33514264  0.60775516
   0.32392810  0.59982836  0.60506239
   0.84424535  0.06001465  0.60443765
   0.58000772  0.33554084  0.60727379
   0.16825787  0.66628466  0.47267123
   0.16571111  0.91439232  0.47583025
   0.24405413  0.75984763  0.56015527
   0.74617709  0.76047061  0.56144097
   0.25219706  0.24508774  0.56526178
   0.50950929 -0.00817734  0.56195426
   0.74077406  0.50884629  0.56586158
   0.16721754  0.41825491  0.47482504
   0.50742557  0.23647288  0.56558978
   0.24817049 -0.00760278  0.56152177
   0.23870620  0.51042285  0.56452481
   0.75262541  0.24447634  0.56420487
  -0.00055241  0.75423929  0.55892791
   0.91731857  0.91645559  0.47129574
   0.00152259  0.51053194  0.56589900
   0.00672432  0.23586396  0.56668002
   0.08333333  0.33333333  0.38179910
   0.66662338  0.16777222  0.47422292
   0.74991073 -0.00787352  0.56037516
   0.66821090  0.91845226  0.47574847
   0.00889874 -0.00940787  0.56103585
   0.66526455  0.41640824  0.47558467
   0.49956887  0.50931842  0.56483985
   0.41536600  0.66560306  0.47272122
Direct configuration=    11
   0.08333333  0.08333333  0.38179910
   0.33333333  0.83333333  0.38179910
   0.83333333  0.83333333  0.38179910
   0.91411379  0.16656021  0.47636431
   0.83333333  0.33333333  0.38179910
   0.83333333  0.08333333  0.38179910
   0.91784478  0.41594454  0.47602243
   0.83333333  0.58333333  0.38179910
   0.49610388  0.75503693  0.56400423
   0.08333333  0.58333333  0.38179910
   0.91930728  0.66690285  0.47460660
   0.08333333  0.83333333  0.38179910
   0.41597750  0.91671507  0.47351818
   0.58333333  0.83333333  0.38179910
   0.66682562  0.66511880  0.47490693
   0.58333333  0.58333333  0.38179910
   0.33333333  0.08333333  0.38179910
   0.16514199  0.16897967  0.47549336
   0.41677526  0.41891742  0.47660138
   0.33333333  0.33333333  0.38179910
   0.58333333  0.33333333  0.38179910
   0.41754367  0.16880934  0.47663332
   0.58333333  0.08333333  0.38179910
   0.33333333  0.58333333  0.38179910
   0.08019960  0.33559286  0.60799379
   0.82579288  0.60127621  0.60760402
   0.34419745  0.06133596  0.60672406
   0.33408007  0.33642158  0.60746141
   0.83407294  0.33480763  0.60804983
   0.32220930  0.60231765  0.60667207
   0.84571765  0.05706151  0.60566424
   0.58081076  0.33511240  0.60748840
   0.16787560  0.66682770  0.47310288
   0.16561548  0.91490103  0.47505489
   0.24396775  0.76029636  0.56037779
   0.74586128  0.76132247  0.56191388
   0.25218864  0.24497139  0.56645671
   0.51017337 -0.00957158  0.56272793
   0.74183357  0.50874421  0.56661914
   0.16707850  0.41827261  0.47559219
   0.50713144  0.23698941  0.56688215
   0.24870445 -0.00845549  0.56229865
   0.23935355  0.51048812  0.56511956
   0.75279791  0.24409563  0.56528145
  -0.00164291  0.75600072  0.56010856
   0.91725014  0.91630855  0.47176455
   0.00084118  0.51054778  0.56670473
   0.00653453  0.23641189  0.56811889
   0.08333333  0.33333333  0.38179910
   0.66666716  0.16739780  0.47474641
   0.75064713 -0.00942161  0.56067765
   0.66787221  0.91859949  0.47504473
   0.00937158 -0.01034150  0.56164042
   0.66510979  0.41676212  0.47636332
   0.49874785  0.50925897  0.56550962
   0.41572450  0.66615654  0.47333614
Direct configuration=    12
   0.08333333  0.08333333  0.38179910
   0.33333333  0.83333333  0.38179910
   0.83333333  0.83333333  0.38179910
   0.91448709  0.16654689  0.47673436
   0.83333333  0.33333333  0.38179910
   0.83333333  0.08333333  0.38179910
   0.91798341  0.41575112  0.47736367
   0.83333333  0.58333333  0.38179910
   0.49555981  0.75650890  0.56554028
   0.08333333  0.58333333  0.38179910
   0.91936510  0.66721054  0.47507009
   0.08333333  0.83333333  0.38179910
   0.41619605  0.91673277  0.47392532
   0.58333333  0.83333333  0.38179910
   0.66620299  0.66567615  0.47549797
   0.58333333  0.58333333  0.38179910
   0.33333333  0.08333333  0.38179910
   0.16515589  0.16876702  0.47594952
   0.41699139  0.41904111  0.47782313
   0.33333333  0.33333333  0.38179910
   0.58333333  0.33333333  0.38179910
   0.41766800  0.16831740  0.47710986
   0.58333333  0.08333333  0.38179910
   0.33333333  0.58333333  0.38179910
   0.08078303  0.33526600  0.60817121
   0.82503442  0.60340351  0.60934969
   0.34517620  0.05911529  0.60794968
   0.33374145  0.33603277  0.60752216
   0.83372817  0.33449121  0.60832814
   0.32058590  0.60466877  0.60819241
   0.84710823  0.05427228  0.60682275
   0.58156923  0.33470773  0.60769109
   0.16751454  0.66734060  0.47351058
   0.16552516  0.91538150  0.47432256
   0.24388617  0.76072020  0.56058795
   0.74556301  0.76212704  0.56236053
   0.25218068  0.24486150  0.56758531
   0.51080058 -0.01088844  0.56345867
   0.74283427  0.50864779  0.56733465
   0.16694718  0.41828932  0.47631677
   0.50685363  0.23747727  0.56810279
   0.24920877 -0.00926088  0.56303242
   0.23996497  0.51054976  0.56568130
   0.75296085  0.24373604  0.56629828
  -0.00267288  0.75766439  0.56122367
   0.91718552  0.91616967  0.47220735
   0.00019760  0.51056273  0.56746574
   0.00635528  0.23692941  0.56947790
   0.08333333  0.33333333  0.38179910
   0.66670850  0.16704416  0.47524083
   0.75134266 -0.01088377  0.56096335
   0.66755232  0.91873854  0.47438006
   0.00981818 -0.01122332  0.56221143
   0.66496362  0.41709636  0.47709876
   0.49797240  0.50920283  0.56614221
   0.41606311  0.66667930  0.47391694
Direct configuration=    13
   0.08333333  0.08333333  0.38179910
   0.33333333  0.83333333  0.38179910
   0.83333333  0.83333333  0.38179910
   0.91449242  0.16648840  0.47705925
   0.83333333  0.33333333  0.38179910
   0.83333333  0.08333333  0.38179910
   0.91784818  0.41596911  0.47827394
   0.83333333  0.58333333  0.38179910
   0.49645111  0.75503851  0.56703707
   0.08333333  0.58333333  0.38179910
   0.91948482  0.66742863  0.47557013
   0.08333333  0.83333333  0.38179910
   0.41614482  0.91672754  0.47423901
   0.58333333  0.83333333  0.38179910
   0.66600842  0.66589453  0.47604089
   0.58333333  0.58333333  0.38179910
   0.33333333  0.08333333  0.38179910
   0.16523472  0.16864210  0.47633015
   0.41703058  0.41906453  0.47852343
   0.33333333  0.33333333  0.38179910
   0.58333333  0.33333333  0.38179910
   0.41779292  0.16828417  0.47755082
   0.58333333  0.08333333  0.38179910
   0.33333333  0.58333333  0.38179910
   0.08137217  0.33595360  0.60935358
   0.82436298  0.60522228  0.61101268
   0.34580962  0.05792035  0.60945797
   0.33269631  0.33669559  0.60836421
   0.83226197  0.33481112  0.60941736
   0.31930494  0.60660484  0.60958366
   0.84787646  0.05209191  0.60808438
   0.58241662  0.33506429  0.60857742
   0.16722878  0.66775433  0.47393332
   0.16559044  0.91574481  0.47392080
   0.24483080  0.75901830  0.56091333
   0.74661751  0.75998602  0.56298177
   0.25307134  0.24330159  0.56850823
   0.51046344 -0.00975623  0.56410380
   0.74249175  0.50986072  0.56815613
   0.16696289  0.41829131  0.47700342
   0.50740101  0.23610366  0.56874695
   0.24824116 -0.00827238  0.56357000
   0.23972142  0.51119970  0.56640350
   0.75363738  0.24248178  0.56738076
  -0.00252695  0.75707371  0.56223806
   0.91715569  0.91623146  0.47246915
  -0.00029358  0.51146976  0.56827510
   0.00718676  0.23514404  0.57011126
   0.08333333  0.33333333  0.38179910
   0.66678024  0.16681566  0.47561496
   0.75099805 -0.00989718  0.56123566
   0.66741281  0.91875589  0.47398153
   0.00969662 -0.01026233  0.56257850
   0.66501119  0.41729047  0.47780457
   0.49737255  0.51014750  0.56705246
   0.41617431  0.66709724  0.47439467
Direct configuration=    14
   0.08333333  0.08333333  0.38179910
   0.33333333  0.83333333  0.38179910
   0.83333333  0.83333333  0.38179910
   0.91449744  0.16643336  0.47736495
   0.83333333  0.33333333  0.38179910
   0.83333333  0.08333333  0.38179910
   0.91772093  0.41617421  0.47913042
   0.83333333  0.58333333  0.38179910
   0.49728974  0.75365501  0.56844540
   0.08333333  0.58333333  0.38179910
   0.91959746  0.66763383  0.47604062
   0.08333333  0.83333333  0.38179910
   0.41609662  0.91672262  0.47453415
   0.58333333  0.83333333  0.38179910
   0.66582535  0.66610000  0.47655172
   0.58333333  0.58333333  0.38179910
   0.33333333  0.08333333  0.38179910
   0.16530890  0.16852457  0.47668828
   0.41706745  0.41908656  0.47918235
   0.33333333  0.33333333  0.38179910
   0.58333333  0.33333333  0.38179910
   0.41791046  0.16825291  0.47796572
   0.58333333  0.08333333  0.38179910
   0.33333333  0.58333333  0.38179910
   0.08192650  0.33660056  0.61046608
   0.82373122  0.60693357  0.61257739
   0.34640561  0.05679602  0.61087713
   0.33171293  0.33731923  0.60915650
   0.83088240  0.33511212  0.61044221
   0.31809967  0.60842651  0.61089270
   0.84859930  0.05004039  0.60927145
   0.58321394  0.33539978  0.60941137
   0.16695990  0.66814360  0.47433107
   0.16565187  0.91608665  0.47354277
   0.24571961  0.75741698  0.56121948
   0.74760970  0.75797152  0.56356630
   0.25390936  0.24183385  0.56937662
   0.51014622 -0.00869092  0.56471081
   0.74216947  0.51100197  0.56892907
   0.16697767  0.41829318  0.47764949
   0.50791603  0.23481122  0.56935304
   0.24733073 -0.00734231  0.56407582
   0.23949225  0.51181123  0.56708302
   0.75427394  0.24130164  0.56839926
  -0.00238964  0.75651793  0.56319250