  56  56   0   0
  0.4903395E+02  0.1100258E-08  0.1100258E-08  0.2619179E-08  0.3500000E-15
  1.000000000000000E-004
  CAR 
 unknown system                          
      6.42900689    -21.79369146  301     -1.43642228      1.00000000
    -21.794  0.0000E+00  0.0000E+00
    -21.700  0.0000E+00  0.0000E+00
    -21.606  0.0000E+00  0.0000E+00
    -21.511  0.0000E+00  0.0000E+00
    -21.417  0.0000E+00  0.0000E+00
    -21.323  0.0000E+00  0.0000E+00
    -21.229  0.0000E+00  0.0000E+00
    -21.135  0.0000E+00  0.0000E+00
    -21.041  0.1227E-14  0.1154E-15
    -20.947  0.1339E-10  0.1260E-11
    -20.853  0.2592E-07  0.2440E-08
    -20.759  0.9080E-05  0.8567E-06
    -20.665  0.5949E-03  0.5683E-04
    -20.571  0.7695E-02  0.7807E-03
    -20.477  0.2186E-01  0.2837E-02
    -20.383  0.2294E-01  0.4995E-02
    -20.288  0.2245E-01  0.7107E-02
    -20.194  0.1014E-01  0.8061E-02
    -20.100  0.1273E-01  0.9259E-02
    -20.006  0.2615E-01  0.1172E-01
    -19.912  0.2738E-01  0.1429E-01
    -19.818  0.1774E-01  0.1596E-01
    -19.724  0.1659E-01  0.1752E-01
    -19.630  0.2113E-01  0.1951E-01
    -19.536  0.1998E-01  0.2139E-01
    -19.442  0.3868E-01  0.2503E-01
    -19.348  0.2677E-01  0.2755E-01
    -19.254  0.6020E-02  0.2812E-01
    -19.160  0.1182E-01  0.2923E-01
    -19.065  0.2078E-01  0.3118E-01
    -18.971  0.8035E-02  0.3194E-01
    -18.877  0.6503E-03  0.3200E-01
    -18.783  0.1037E-04  0.3200E-01
    -18.689  0.3098E-07  0.3200E-01
    -18.595  0.1675E-10  0.3200E-01
    -18.501  0.1607E-14  0.3200E-01
    -18.407  0.0000E+00  0.3200E-01
    -18.313  0.0000E+00  0.3200E-01
    -18.219  0.0000E+00  0.3200E-01
    -18.125  0.0000E+00  0.3200E-01
    -18.031  0.0000E+00  0.3200E-01
    -17.937  0.0000E+00  0.3200E-01
    -17.843  0.0000E+00  0.3200E-01
    -17.748  0.0000E+00  0.3200E-01
    -17.654  0.0000E+00  0.3200E-01
    -17.560  0.0000E+00  0.3200E-01
    -17.466  0.0000E+00  0.3200E-01
    -17.372  0.0000E+00  0.3200E-01
    -17.278  0.0000E+00  0.3200E-01
    -17.184  0.0000E+00  0.3200E-01
    -17.090  0.0000E+00  0.3200E-01
    -16.996  0.0000E+00  0.3200E-01
    -16.902  0.0000E+00  0.3200E-01
    -16.808  0.0000E+00  0.3200E-01
    -16.714  0.0000E+00  0.3200E-01
    -16.620  0.0000E+00  0.3200E-01
    -16.525  0.0000E+00  0.3200E-01
    -16.431  0.0000E+00  0.3200E-01
    -16.337  0.0000E+00  0.3200E-01
    -16.243  0.0000E+00  0.3200E-01
    -16.149  0.0000E+00  0.3200E-01
    -16.055  0.0000E+00  0.3200E-01
    -15.961  0.0000E+00  0.3200E-01
    -15.867  0.0000E+00  0.3200E-01
    -15.773  0.0000E+00  0.3200E-01
    -15.679  0.0000E+00  0.3200E-01
    -15.585  0.0000E+00  0.3200E-01
    -15.491  0.0000E+00  0.3200E-01
    -15.397  0.0000E+00  0.3200E-01
    -15.302  0.0000E+00  0.3200E-01
    -15.208  0.0000E+00  0.3200E-01
    -15.114  0.0000E+00  0.3200E-01
    -15.020  0.0000E+00  0.3200E-01
    -14.926  0.0000E+00  0.3200E-01
    -14.832  0.0000E+00  0.3200E-01
    -14.738  0.0000E+00  0.3200E-01
    -14.644  0.0000E+00  0.3200E-01
    -14.550  0.0000E+00  0.3200E-01
    -14.456  0.0000E+00  0.3200E-01
    -14.362  0.0000E+00  0.3200E-01
    -14.268  0.0000E+00  0.3200E-01
    -14.174  0.0000E+00  0.3200E-01
    -14.079  0.0000E+00  0.3200E-01
    -13.985  0.0000E+00  0.3200E-01
    -13.891  0.0000E+00  0.3200E-01
    -13.797  0.0000E+00  0.3200E-01
    -13.703  0.0000E+00  0.3200E-01
    -13.609  0.0000E+00  0.3200E-01
    -13.515  0.0000E+00  0.3200E-01
    -13.421  0.0000E+00  0.3200E-01
    -13.327  0.0000E+00  0.3200E-01
    -13.233  0.0000E+00  0.3200E-01
    -13.139  0.0000E+00  0.3200E-01
    -13.045  0.0000E+00  0.3200E-01
    -12.951  0.0000E+00  0.3200E-01
    -12.857  0.0000E+00  0.3200E-01
    -12.762  0.0000E+00  0.3200E-01
    -12.668  0.0000E+00  0.3200E-01
    -12.574  0.0000E+00  0.3200E-01
    -12.480  0.0000E+00  0.3200E-01
    -12.386  0.0000E+00  0.3200E-01
    -12.292  0.0000E+00  0.3200E-01
    -12.198  0.0000E+00  0.3200E-01
    -12.104  0.0000E+00  0.3200E-01
    -12.010  0.0000E+00  0.3200E-01
    -11.916  0.0000E+00  0.3200E-01
    -11.822  0.0000E+00  0.3200E-01
    -11.728  0.0000E+00  0.3200E-01
    -11.634  0.0000E+00  0.3200E-01
    -11.539  0.0000E+00  0.3200E-01
    -11.445  0.0000E+00  0.3200E-01
    -11.351  0.0000E+00  0.3200E-01
    -11.257  0.0000E+00  0.3200E-01
    -11.163  0.0000E+00  0.3200E-01
    -11.069  0.0000E+00  0.3200E-01
    -10.975  0.0000E+00  0.3200E-01
    -10.881  0.0000E+00  0.3200E-01
    -10.787  0.0000E+00  0.3200E-01
    -10.693  0.0000E+00  0.3200E-01
    -10.599  0.0000E+00  0.3200E-01
    -10.505  0.0000E+00  0.3200E-01
    -10.411  0.0000E+00  0.3200E-01
    -10.316  0.0000E+00  0.3200E-01
    -10.222  0.0000E+00  0.3200E-01
    -10.128  0.0000E+00  0.3200E-01
    -10.034  0.0000E+00  0.3200E-01
     -9.940  0.0000E+00  0.3200E-01
     -9.846  0.0000E+00  0.3200E-01
     -9.752  0.0000E+00  0.3200E-01
     -9.658  0.9048E-17  0.3200E-01
     -9.564  0.1917E-12  0.3200E-01
     -9.470  0.7262E-09  0.3200E-01
     -9.376  0.4988E-06  0.3200E-01
     -9.282  0.6388E-04  0.3201E-01
     -9.188  0.1598E-02  0.3216E-01
     -9.093  0.8569E-02  0.3296E-01
     -8.999  0.1335E-01  0.3422E-01
     -8.905  0.1241E-01  0.3539E-01
     -8.811  0.6077E-02  0.3596E-01
     -8.717  0.4503E-02  0.3638E-01
     -8.623  0.1385E-01  0.3768E-01
     -8.529  0.1719E-01  0.3930E-01
     -8.435  0.1102E-01  0.4034E-01
     -8.341  0.1736E-01  0.4197E-01
     -8.247  0.1949E-01  0.4380E-01
     -8.153  0.2642E-01  0.4629E-01
     -8.059  0.6073E-01  0.5200E-01
     -7.965  0.7265E-01  0.5884E-01
     -7.870  0.6446E-01  0.6490E-01
     -7.776  0.6059E-01  0.7060E-01
     -7.682  0.6130E-01  0.7637E-01
     -7.588  0.6728E-01  0.8270E-01
     -7.494  0.7991E-01  0.9021E-01
     -7.400  0.8650E-01  0.9835E-01
     -7.306  0.8416E-01  0.1063E+00
     -7.212  0.9530E-01  0.1152E+00
     -7.118  0.1225E+00  0.1268E+00
     -7.024  0.1407E+00  0.1400E+00
     -6.930  0.1430E+00  0.1534E+00
     -6.836  0.1476E+00  0.1673E+00
     -6.742  0.1395E+00  0.1805E+00
     -6.648  0.1310E+00  0.1928E+00
     -6.553  0.1383E+00  0.2058E+00
     -6.459  0.1543E+00  0.2203E+00
     -6.365  0.1688E+00  0.2362E+00
     -6.271  0.1665E+00  0.2518E+00
     -6.177  0.1536E+00  0.2663E+00
     -6.083  0.1531E+00  0.2807E+00
     -5.989  0.1644E+00  0.2962E+00
     -5.895  0.1697E+00  0.3121E+00
     -5.801  0.1612E+00  0.3273E+00
     -5.707  0.1576E+00  0.3421E+00
     -5.613  0.1691E+00  0.3580E+00
     -5.519  0.1721E+00  0.3742E+00
     -5.425  0.1686E+00  0.3901E+00
     -5.330  0.1739E+00  0.4065E+00
     -5.236  0.1775E+00  0.4232E+00
     -5.142  0.1773E+00  0.4398E+00
     -5.048  0.1870E+00  0.4574E+00
     -4.954  0.1903E+00  0.4753E+00
     -4.860  0.1828E+00  0.4925E+00
     -4.766  0.1844E+00  0.5099E+00
     -4.672  0.1946E+00  0.5282E+00
     -4.578  0.2022E+00  0.5472E+00
     -4.484  0.2004E+00  0.5661E+00
     -4.390  0.1902E+00  0.5840E+00
     -4.296  0.1873E+00  0.6016E+00
     -4.202  0.1810E+00  0.6186E+00
     -4.107  0.1781E+00  0.6354E+00
     -4.013  0.1809E+00  0.6524E+00
     -3.919  0.1881E+00  0.6701E+00
     -3.825  0.1918E+00  0.6881E+00
     -3.731  0.1951E+00  0.7065E+00
     -3.637  0.1952E+00  0.7248E+00
     -3.543  0.1866E+00  0.7424E+00
     -3.449  0.1824E+00  0.7596E+00
     -3.355  0.1849E+00  0.7769E+00
     -3.261  0.1885E+00  0.7947E+00
     -3.167  0.1870E+00  0.8123E+00
     -3.073  0.1822E+00  0.8294E+00
     -2.979  0.1831E+00  0.8466E+00
     -2.884  0.1780E+00  0.8634E+00
     -2.790  0.1704E+00  0.8794E+00
     -2.696  0.1686E+00  0.8953E+00
     -2.602  0.1765E+00  0.9119E+00
     -2.508  0.1859E+00  0.9294E+00
     -2.414  0.1924E+00  0.9475E+00
     -2.320  0.1963E+00  0.9659E+00
     -2.226  0.1967E+00  0.9844E+00
     -2.132  0.1894E+00  0.1002E+01
     -2.038  0.1788E+00  0.1019E+01
     -1.944  0.1659E+00  0.1035E+01
     -1.850  0.1643E+00  0.1050E+01
     -1.756  0.1602E+00  0.1065E+01
     -1.661  0.1372E+00  0.1078E+01
     -1.567  0.1218E+00  0.1090E+01
     -1.473  0.1129E+00  0.1100E+01
     -1.379  0.9732E-01  0.1109E+01
     -1.285  0.7613E-01  0.1117E+01
     -1.191  0.5676E-01  0.1122E+01
     -1.097  0.4704E-01  0.1126E+01
     -1.003  0.4905E-01  0.1131E+01
     -0.909  0.5680E-01  0.1136E+01
     -0.815  0.5678E-01  0.1142E+01
     -0.721  0.4980E-01  0.1146E+01
     -0.627  0.4074E-01  0.1150E+01
     -0.533  0.4012E-01  0.1154E+01
     -0.439  0.4333E-01  0.1158E+01
     -0.344  0.3864E-01  0.1162E+01
     -0.250  0.4126E-01  0.1165E+01
     -0.156  0.2722E-01  0.1168E+01
     -0.062  0.1872E-01  0.1170E+01
      0.032  0.2259E-01  0.1172E+01
      0.126  0.2400E-01  0.1174E+01
      0.220  0.2573E-01  0.1177E+01
      0.314  0.2805E-01  0.1179E+01
      0.408  0.3064E-01  0.1182E+01
      0.502  0.2707E-01  0.1185E+01
      0.596  0.2815E-01  0.1187E+01
      0.690  0.3360E-01  0.1190E+01
      0.784  0.3862E-01  0.1194E+01
      0.879  0.3816E-01  0.1198E+01
      0.973  0.2660E-01  0.1200E+01
      1.067  0.2341E-01  0.1202E+01
      1.161  0.2525E-01  0.1205E+01
      1.255  0.2241E-01  0.1207E+01
      1.349  0.1962E-01  0.1209E+01
      1.443  0.2106E-01  0.1211E+01
      1.537  0.2672E-01  0.1213E+01
      1.631  0.2927E-01  0.1216E+01
      1.725  0.3210E-01  0.1219E+01
      1.819  0.3815E-01  0.1223E+01
      1.913  0.3731E-01  0.1226E+01
      2.007  0.3480E-01  0.1229E+01
      2.102  0.3332E-01  0.1232E+01
      2.196  0.3271E-01  0.1236E+01
      2.290  0.3046E-01  0.1238E+01
      2.384  0.2965E-01  0.1241E+01
      2.478  0.2922E-01  0.1244E+01
      2.572  0.2850E-01  0.1247E+01
      2.666  0.2270E-01  0.1249E+01
      2.760  0.1595E-01  0.1250E+01
      2.854  0.1637E-01  0.1252E+01
      2.948  0.2265E-01  0.1254E+01
      3.042  0.2840E-01  0.1257E+01
      3.136  0.2995E-01  0.1259E+01
      3.230  0.3331E-01  0.1263E+01
      3.325  0.3127E-01  0.1266E+01
      3.419  0.2868E-01  0.1268E+01
      3.513  0.3533E-01  0.1272E+01
      3.607  0.3352E-01  0.1275E+01
      3.701  0.3454E-01  0.1278E+01
      3.795  0.3957E-01  0.1282E+01
      3.889  0.4020E-01  0.1285E+01
      3.983  0.4244E-01  0.1289E+01
      4.077  0.3940E-01  0.1293E+01
      4.171  0.3880E-01  0.1297E+01
      4.265  0.3512E-01  0.1300E+01
      4.359  0.3214E-01  0.1303E+01
      4.453  0.3814E-01  0.1307E+01
      4.547  0.4888E-01  0.1311E+01
      4.642  0.5517E-01  0.1317E+01
      4.736  0.5605E-01  0.1322E+01
      4.830  0.5584E-01  0.1327E+01
      4.924  0.5239E-01  0.1332E+01
      5.018  0.4769E-01  0.1336E+01
      5.112  0.4846E-01  0.1341E+01
      5.206  0.2658E-01  0.1344E+01
      5.300  0.4959E-02  0.1344E+01
      5.394  0.2497E-03  0.1344E+01
      5.488  0.2899E-05  0.1344E+01
      5.582  0.6975E-08  0.1344E+01
      5.676  0.3242E-11  0.1344E+01
      5.770  0.2777E-15  0.1344E+01
      5.865  0.0000E+00  0.1344E+01
      5.959  0.0000E+00  0.1344E+01
      6.053  0.0000E+00  0.1344E+01
      6.147  0.0000E+00  0.1344E+01
      6.241  0.0000E+00  0.1344E+01
      6.335  0.0000E+00  0.1344E+01
      6.429  0.0000E+00  0.1344E+01
