unknown system                          
           1
    11.002582    0.000000    0.000000
     5.501291    9.528515    0.000000
     0.000000    0.000000   26.191785
   Au   O    Pd
  24   8  24
Direct configuration=     1
   0.08333333  0.08333333  0.38179910
   0.24395216  0.49517336  0.56989088
   0.75127362  0.98712949  0.56393309
   0.83333333  0.83333333  0.38179910
   0.96964399  0.00678433  0.59723198
   0.83333333  0.58333333  0.38179910
   0.08333333  0.33333333  0.38179910
   0.91127047  0.41645662  0.47986118
   0.00995982  0.24830322  0.56213984
   0.74401912  0.24187899  0.56455418
   0.91781812  0.66582153  0.48094065
   0.92505015  0.91364836  0.47392634
   0.83333333  0.33333333  0.38179910
   0.23990829  0.74376606  0.56106669
   0.97861728  0.74121408  0.60053586
   0.49110166  0.24788906  0.57007319
   0.26120810  0.00264154  0.55841108
   0.58333333  0.33333333  0.38179910
   0.33333333  0.33333333  0.38179910
   0.16596041  0.41236955  0.47894398
   0.25714582  0.29544345  0.63627425
   0.41576182  0.15931494  0.47807156
   0.33333333  0.58333333  0.38179910
   0.66692201  0.16242191  0.47442479
   0.06455017  0.44783437  0.64311423
   0.10515451  0.80818308  0.63227456
   0.42593663  0.11021041  0.64643184
   0.10374562  0.08938098  0.61403367
   0.33301200  0.83481114  0.60895770
   0.83881457  0.31967051  0.61679146
   0.56967455  0.56219622  0.61142189
   0.61175266  0.81719116  0.61583010
   0.49801777  0.00414181  0.58181225
   0.33333333  0.08333333  0.38179910
   0.41283065  0.41475449  0.47670869
   0.16967890  0.15992862  0.47413256
   0.16752821  0.66312970  0.47563141
   0.17049362  0.91118437  0.47055173
   0.58333333  0.58333333  0.38179910
   0.41115463  0.66805570  0.47581760
   0.49532912  0.49068252  0.56068907
   0.41718122  0.90919784  0.47198423
   0.58333333  0.83333333  0.38179910
   0.51293067  0.73968480  0.56988037
   0.83333333  0.08333333  0.38179910
   0.08333333  0.83333333  0.38179910
   0.99760583  0.49808796  0.57216981
   0.65933483  0.42225850  0.47209568
   0.08333333  0.58333333  0.38179910
   0.66199274  0.66369652  0.47402750
   0.75475224  0.49805246  0.57797802
   0.91790472  0.16288755  0.47279047
   0.66129967  0.91148136  0.47244421
   0.33333333  0.83333333  0.38179910
   0.75269662  0.74515300  0.56235098
   0.58333333  0.08333333  0.38179910
Direct configuration=     2
   0.08333333  0.08333333  0.38179910
   0.24377455  0.49594255  0.56968979
   0.75139953  0.98775735  0.56389954
   0.83333333  0.83333333  0.38179910
   0.97021835  0.00534576  0.59767110
   0.83333333  0.58333333  0.38179910
   0.08333333  0.33333333  0.38179910
   0.91100273  0.41656816  0.47978098
   0.00963605  0.24923230  0.56192488
   0.74423167  0.24207266  0.56464681
   0.91764094  0.66607325  0.48057569
   0.92415559  0.91347220  0.47409186
   0.83333333  0.33333333  0.38179910
   0.24003283  0.74399797  0.56150164
   0.97872226  0.74096987  0.60055640
   0.49069796  0.24795260  0.57000651
   0.26104792  0.00205393  0.55810641
   0.58333333  0.33333333  0.38179910
   0.33333333  0.33333333  0.38179910
   0.16596519  0.41215311  0.47883382
   0.25821563  0.29209372  0.63657535
   0.41584281  0.15881017  0.47816309
   0.33333333  0.58333333  0.38179910
   0.66654695  0.16278194  0.47424053
   0.06389083  0.44871311  0.64279005
   0.10469904  0.80847248  0.63189643
   0.42522666  0.11235948  0.64612963
   0.10397451  0.08862461  0.61452973
   0.33280466  0.83491353  0.60861337
   0.83873381  0.31999570  0.61668758
   0.57055028  0.56277483  0.61158013
   0.61090204  0.81756519  0.61579691
   0.49929665  0.00429406  0.58181618
   0.33333333  0.08333333  0.38179910
   0.41355996  0.41454698  0.47666670
   0.16932800  0.16058178  0.47416812
   0.16716173  0.66267339  0.47546274
   0.16971409  0.91207742  0.47051193
   0.58333333  0.58333333  0.38179910
   0.41239798  0.66748589  0.47557456
   0.49486946  0.49008152  0.56018880
   0.41798463  0.90926843  0.47237105
   0.58333333  0.83333333  0.38179910
   0.51199731  0.73994665  0.56999858
   0.83333333  0.08333333  0.38179910
   0.08333333  0.83333333  0.38179910
   0.99736973  0.49894682  0.57251845
   0.65982186  0.42141238  0.47232498
   0.08333333  0.58333333  0.38179910
   0.66181488  0.66414980  0.47420935
   0.75432822  0.49834033  0.57776454
   0.91782889  0.16308101  0.47285147
   0.66197427  0.91124892  0.47258919
   0.33333333  0.83333333  0.38179910
   0.75421251  0.74359254  0.56240770
   0.58333333  0.08333333  0.38179910
Direct configuration=     3
   0.08333333  0.08333333  0.38179910
   0.24367493  0.49637398  0.56957700
   0.75147016  0.98810951  0.56388072
   0.83333333  0.83333333  0.38179910
   0.97054051  0.00453887  0.59791740
   0.83333333  0.58333333  0.38179910
   0.08333333  0.33333333  0.38179910
   0.91085255  0.41663073  0.47973599
   0.00945444  0.24975342  0.56180431
   0.74435089  0.24218128  0.56469877
   0.91754156  0.66621444  0.48037099
   0.92365382  0.91337339  0.47418470
   0.83333333  0.33333333  0.38179910
   0.24010269  0.74412804  0.56174560
   0.97878115  0.74083289  0.60056792
   0.49047152  0.24798825  0.56996910
   0.26095807  0.00172435  0.55793552
   0.58333333  0.33333333  0.38179910
   0.33333333  0.33333333  0.38179910
   0.16596787  0.41203171  0.47877203
   0.25881569  0.29021484  0.63674424
   0.41588823  0.15852705  0.47821443
   0.33333333  0.58333333  0.38179910
   0.66633658  0.16298389  0.47413717
   0.06352100  0.44920600  0.64260821
   0.10444356  0.80863480  0.63168433
   0.42482843  0.11356491  0.64596011
   0.10410289  0.08820035  0.61480797
   0.33268836  0.83497096  0.60842023
   0.83868850  0.32017810  0.61662931
   0.57104148  0.56309938  0.61166889
   0.61042493  0.81777498  0.61577829
   0.50001398  0.00437946  0.58181839
   0.33333333  0.08333333  0.38179910
   0.41396904  0.41443058  0.47664315
   0.16913118  0.16094814  0.47418806
   0.16695617  0.66241744  0.47536814
   0.16927685  0.91257833  0.47048961
   0.58333333  0.58333333  0.38179910
   0.41309538  0.66716628  0.47543824
   0.49461164  0.48974442  0.55990819
   0.41843527  0.90930802  0.47258802
   0.58333333  0.83333333  0.38179910
   0.51147379  0.74009353  0.57006488
   0.83333333  0.08333333  0.38179910
   0.08333333  0.83333333  0.38179910
   0.99723730  0.49942857  0.57271401
   0.66009503  0.42093779  0.47245359
   0.08333333  0.58333333  0.38179910
   0.66171512  0.66440405  0.47431134
   0.75409038  0.49850179  0.57764480
   0.91778636  0.16318952  0.47288569
   0.66235265  0.91111855  0.47267052
   0.33333333  0.83333333  0.38179910
   0.75506278  0.74271728  0.56243952
   0.58333333  0.08333333  0.38179910
Direct configuration=     4
   0.08333333  0.08333333  0.38179910
   0.24329293  0.49698252  0.56936496
   0.75173904  0.98870836  0.56382761
   0.83333333  0.83333333  0.38179910
   0.97090033  0.00376477  0.59856711
   0.83333333  0.58333333  0.38179910
   0.08333333  0.33333333  0.38179910
   0.91031207  0.41718136  0.47955765
   0.00974838  0.24995377  0.56181192
   0.74497653  0.24197108  0.56488560
   0.91739798  0.66616355  0.47980590
   0.92257041  0.91331298  0.47441528
   0.83333333  0.33333333  0.38179910
   0.24043677  0.74386544  0.56198319
   0.97853691  0.74053825  0.60054939
   0.48981533  0.24839831  0.56981973
   0.26008545  0.00180662  0.55752406
   0.58333333  0.33333333  0.38179910
   0.33333333  0.33333333  0.38179910
   0.16602636  0.41178799  0.47864011
   0.25497608  0.29059554  0.63692230
   0.41602000  0.15790895  0.47834818
   0.33333333  0.58333333  0.38179910
   0.66588179  0.16336946  0.47389429
   0.06468341  0.44874455  0.64228087
   0.10433442  0.80866770  0.63140176
   0.42707882  0.11342754  0.64581037
   0.10406512  0.08752839  0.61522152
   0.33206082  0.83544001  0.60818742
   0.83855504  0.32069184  0.61647125
   0.57165211  0.56352580  0.61154394
   0.60953849  0.81810189  0.61553692
   0.50187621  0.00415208  0.58166982
   0.33333333  0.08333333  0.38179910
   0.41465957  0.41410214  0.47647734
   0.16871310  0.16169921  0.47423960
   0.16682851  0.66203283  0.47520250
   0.16842423  0.91338154  0.47044044
   0.58333333  0.58333333  0.38179910
   0.41424207  0.66678101  0.47508467
   0.49475340  0.48973258  0.55966694
   0.41942694  0.90932551  0.47308363
   0.58333333  0.83333333  0.38179910
   0.51106823  0.74005724  0.57010793
   0.83333333  0.08333333  0.38179910
   0.08333333  0.83333333  0.38179910
   0.99710994  0.50039670  0.57299900
   0.66098491  0.41984892  0.47272594
   0.08333333  0.58333333  0.38179910
   0.66156850  0.66484464  0.47457680
   0.75358073  0.49877138  0.57725463
   0.91763220  0.16330348  0.47296736
   0.66324368  0.91092386  0.47291814
   0.33333333  0.83333333  0.38179910
   0.75620011  0.74130509  0.56273101
   0.58333333  0.08333333  0.38179910
Direct configuration=     5
   0.08333333  0.08333333  0.38179910
   0.24315374  0.49720427  0.56928769
   0.75183702  0.98892658  0.56380826
   0.83333333  0.83333333  0.38179910
   0.97103145  0.00348269  0.59880386
   0.83333333  0.58333333  0.38179910
   0.08333333  0.33333333  0.38179910
   0.91011512  0.41738201  0.47949266
   0.00985548  0.25002677  0.56181469
   0.74520451  0.24189448  0.56495368
   0.91734566  0.66614501  0.47959998
   0.92217561  0.91329097  0.47449930
   0.83333333  0.33333333  0.38179910
   0.24055850  0.74376976  0.56206977
   0.97844791  0.74043088  0.60054264
   0.48957622  0.24854773  0.56976530
   0.25976747  0.00183661  0.55737413
   0.58333333  0.33333333  0.38179910
   0.33333333  0.33333333  0.38179910
   0.16604767  0.41169917  0.47859204
   0.25357693  0.29073426  0.63698719
   0.41606802  0.15768372  0.47839692
   0.33333333  0.58333333  0.38179910
   0.66571607  0.16350996  0.47380579
   0.06510699  0.44857640  0.64216158
   0.10429465  0.80867968  0.63129879
   0.42789887  0.11337749  0.64575581
   0.10405136  0.08728353  0.61537221
   0.33183215  0.83561093  0.60810259
   0.83850641  0.32087905  0.61641366
   0.57187463  0.56368119  0.61149841
   0.60921547  0.81822101  0.61544897
   0.50255481  0.00406923  0.58161568
   0.33333333  0.08333333  0.38179910
   0.41491120  0.41398246  0.47641693
   0.16856075  0.16197290  0.47425838
   0.16678199  0.66189268  0.47514214
   0.16811353  0.91367423  0.47042252
   0.58333333  0.58333333  0.38179910
   0.41465992  0.66664062  0.47495583
   0.49480506  0.48972827  0.55957902
   0.41978830  0.90933188  0.47326423
   0.58333333  0.83333333  0.38179910
   0.51092045  0.74004401  0.57012361
   0.83333333  0.08333333  0.38179910
   0.08333333  0.83333333  0.38179910
   0.99706354  0.50074948  0.57310285
   0.66130918  0.41945214  0.47282519
   0.08333333  0.58333333  0.38179910
   0.66151507  0.66500519  0.47467353
   0.75339502  0.49886962  0.57711245
   0.91757602  0.16334500  0.47299713
   0.66356837  0.91085291  0.47300838
   0.33333333  0.83333333  0.38179910
   0.75661455  0.74079048  0.56283724
   0.58333333  0.08333333  0.38179910
Direct configuration=     6
   0.08333333  0.08333333  0.38179910
   0.24295753  0.49723279  0.56908814
   0.75231132  0.98913538  0.56377880
   0.83333333  0.83333333  0.38179910
   0.97074575  0.00407649  0.59947702
   0.83333333  0.58333333  0.38179910
   0.08333333  0.33333333  0.38179910
   0.90971633  0.41798391  0.47935302
   0.01055301  0.24967179  0.56202801
   0.74598300  0.24118991  0.56517525
   0.91732605  0.66567136  0.47909836
   0.92160332  0.91338361  0.47468509
   0.83333333  0.33333333  0.38179910
   0.24108517  0.74295735  0.56188020
   0.97791370  0.74062386  0.60052181
   0.48876626  0.24925940  0.56965942
   0.25867961  0.00256167  0.55710707
   0.58333333  0.33333333  0.38179910
   0.33333333  0.33333333  0.38179910
   0.16618452  0.41157259  0.47849681
   0.25271603  0.28853549  0.63703781
   0.41621607  0.15726929  0.47853137
   0.33333333  0.58333333  0.38179910
   0.66545562  0.16367162  0.47362428
   0.06462433  0.44925192  0.64237669
   0.10476904  0.80808201  0.63130129
   0.42926276  0.11469643  0.64544856
   0.10375501  0.08693833  0.61555660
   0.33099339  0.83642346  0.60805820
   0.83844229  0.32146107  0.61627360
   0.57183152  0.56380063  0.61122471
   0.60870401  0.81822172  0.61512693
   0.50379346  0.00375184  0.58135762
   0.33333333  0.08333333  0.38179910
   0.41514542  0.41375283  0.47619042
   0.16819134  0.16248386  0.47423332
   0.16706920  0.66187788  0.47504609
   0.16766772  0.91383461  0.47036331
   0.58333333  0.58333333  0.38179910
   0.41499772  0.66672741  0.47461694
   0.49543419  0.49025391  0.55965599
   0.42038373  0.90929612  0.47366507
   0.58333333  0.83333333  0.38179910
   0.51097331  0.74002398  0.57000416
   0.83333333  0.08333333  0.38179910
   0.08333333  0.83333333  0.38179910
   0.99691058  0.50123200  0.57287346
   0.66231288  0.41857521  0.47302946
   0.08333333  0.58333333  0.38179910
   0.66151840  0.66514875  0.47490388
   0.75340004  0.49872301  0.57656989
   0.91740317  0.16328822  0.47308531
   0.66426853  0.91082520  0.47328929
   0.33333333  0.83333333  0.38179910
   0.75677373  0.74037407  0.56315276
   0.58333333  0.08333333  0.38179910
Direct configuration=     7
   0.08333333  0.08333333  0.38179910
   0.24275618  0.49726207  0.56888335
   0.75279807  0.98934966  0.56374857
   0.83333333  0.83333333  0.38179910
   0.97045254  0.00468588  0.60016785
   0.83333333  0.58333333  0.38179910
   0.08333333  0.33333333  0.38179910
   0.90930706  0.41860161  0.47920971
   0.01126884  0.24930749  0.56224693
   0.74678193  0.24046685  0.56540263
   0.91730593  0.66518528  0.47858357
   0.92101602  0.91347868  0.47487576
   0.83333333  0.33333333  0.38179910
   0.24162566  0.74212362  0.56168566
   0.97736547  0.74082190  0.60050044
   0.48793504  0.24998974  0.56955076
   0.25756320  0.00330577  0.55683300
   0.58333333  0.33333333  0.38179910
   0.33333333  0.33333333  0.38179910
   0.16632497  0.41144269  0.47839907
   0.25183254  0.28627901  0.63708976
   0.41636800  0.15684399  0.47866935
   0.33333333  0.58333333  0.38179910
   0.66518834  0.16383753  0.47343801
   0.06412900  0.44994517  0.64259745
   0.10525588  0.80746864  0.63130385
   0.43066245  0.11604999  0.64513324
   0.10345090  0.08658408  0.61574583
   0.33013262  0.83725732  0.60801266
   0.83837649  0.32205837  0.61612988
   0.57178727  0.56392320  0.61094382
   0.60817913  0.81822245  0.61479644
   0.50506462  0.00342612  0.58109278
   0.33333333  0.08333333  0.38179910
   0.41538577  0.41351717  0.47595798
   0.16781223  0.16300822  0.47420760
   0.16736394  0.66186270  0.47494753
   0.16721020  0.91399919  0.47030255
   0.58333333  0.58333333  0.38179910
   0.41534439  0.66681648  0.47426915
   0.49607983  0.49079334  0.55973498
   0.42099479  0.90925942  0.47407643
   0.58333333  0.83333333  0.38179910
   0.51102755  0.74000342  0.56988157
   0.83333333  0.08333333  0.38179910
   0.08333333  0.83333333  0.38179910
   0.99675361  0.50172718  0.57263805
   0.66334293  0.41767525  0.47323909
   0.08333333  0.58333333  0.38179910
   0.66152182  0.66529608  0.47514028
   0.75340520  0.49857254  0.57601308
   0.91722578  0.16322995  0.47317581
   0.66498706  0.91079677  0.47357757
   0.33333333  0.83333333  0.38179910
   0.75693709  0.73994674  0.56347656
   0.58333333  0.08333333  0.38179910
Direct configuration=     8
   0.08333333  0.08333333  0.38179910
   0.24279288  0.49652863  0.56879829
   0.75345322  0.98917257  0.56379860
   0.83333333  0.83333333  0.38179910
   0.97018301  0.00480590  0.60096778
   0.83333333  0.58333333  0.38179910
   0.08333333  0.33333333  0.38179910
   0.90970140  0.41825588  0.47926311
   0.01151691  0.24984086  0.56237174
   0.74698674  0.23993782  0.56561975
   0.91739836  0.66486484  0.47835320
   0.92143065  0.91334382  0.47492779
   0.83333333  0.33333333  0.38179910
   0.24209795  0.74182097  0.56139538
   0.97722046  0.74173986  0.60062975
   0.48750810  0.25083106  0.56949324
   0.25745017  0.00337849  0.55692190
   0.58333333  0.33333333  0.38179910
   0.33333333  0.33333333  0.38179910
   0.16658679  0.41147528  0.47834654
   0.25044779  0.28538689  0.63695731
   0.41644667  0.15677639  0.47875314
   0.33333333  0.58333333  0.38179910
   0.66521163  0.16376882  0.47341618
   0.06355296  0.45018813  0.64269424
   0.10569893  0.80665939  0.63131423
   0.43244707  0.11740224  0.64457480
   0.10318554  0.08651253  0.61596571
   0.32968540  0.83797015  0.60776774
   0.83847460  0.32266747  0.61606274
   0.57191654  0.56397539  0.61094587
   0.60782990  0.81808353  0.61477040
   0.50477702  0.00355249  0.58071236
   0.33333333  0.08333333  0.38179910
   0.41538185  0.41361335  0.47588376
   0.16745406  0.16321140  0.47397207
   0.16767444  0.66212126  0.47485168
   0.16731536  0.91364822  0.47022876
   0.58333333  0.58333333  0.38179910
   0.41507012  0.66704087  0.47402598
   0.49624467  0.49054355  0.55954922
   0.42090958  0.90927192  0.47429887
   0.58333333  0.83333333  0.38179910
   0.51008495  0.74092301  0.56962621
   0.83333333  0.08333333  0.38179910
   0.08333333  0.83333333  0.38179910
   0.99734023  0.50096407  0.57242608
   0.66377152  0.41743351  0.47332272
   0.08333333  0.58333333  0.38179910
   0.66157952  0.66518439  0.47522561
   0.75382712  0.49801059  0.57537146
   0.91725577  0.16306101  0.47327501
   0.66523681  0.91082071  0.47380445
   0.33333333  0.83333333  0.38179910
   0.75702943  0.74025363  0.56339349
   0.58333333  0.08333333  0.38179910
Direct configuration=     9
   0.08333333  0.08333333  0.38179910
   0.24284759  0.49543520  0.56867147
   0.75442995  0.98890855  0.56387318
   0.83333333  0.83333333  0.38179910
   0.96978118  0.00498484  0.60216034
   0.83333333  0.58333333  0.38179910
   0.08333333  0.33333333  0.38179910
   0.91028929  0.41774046  0.47934272
   0.01188675  0.25063604  0.56255780
   0.74729209  0.23914913  0.56594345
   0.91753616  0.66438712  0.47800975
   0.92204880  0.91314277  0.47500535
   0.83333333  0.33333333  0.38179910
   0.24280206  0.74136976  0.56096263
   0.97700426  0.74310839  0.60082254
   0.48687160  0.25208534  0.56940750
   0.25728165  0.00348689  0.55705443
   0.58333333  0.33333333  0.38179910
   0.33333333  0.33333333  0.38179910
   0.16697712  0.41152388  0.47826821
   0.24838333  0.28405688  0.63675985
   0.41656395  0.15667562  0.47887805
   0.33333333  0.58333333  0.38179910
   0.66524635  0.16366639  0.47338362
   0.06269416  0.45055034  0.64283854
   0.10635946  0.80545293  0.63132972
   0.43510766  0.11941825  0.64374225
   0.10278994  0.08640586  0.61629353
   0.32901866  0.83903287  0.60740260
   0.83862087  0.32357553  0.61596265
   0.57210927  0.56405321  0.61094892
   0.60730926  0.81787643  0.61473158
   0.50434824  0.00374088  0.58014521
   0.33333333  0.08333333  0.38179910
   0.41537601  0.41375674  0.47577312
   0.16692008  0.16351430  0.47362094
   0.16813735  0.66250674  0.47470877
   0.16747213  0.91312497  0.47011875
   0.58333333  0.58333333  0.38179910
   0.41466121  0.66737540  0.47366345
   0.49649043  0.49017116  0.55927228
   0.42078255  0.90929055  0.47463050
   0.58333333  0.83333333  0.38179910
   0.50867966  0.74229397  0.56924550
   0.83333333  0.08333333  0.38179910
   0.08333333  0.83333333  0.38179910
   0.99821479  0.49982639  0.57211006
   0.66441048  0.41707311  0.47344739
   0.08333333  0.58333333  0.38179910
   0.66166553  0.66501788  0.47535281
   0.75445614  0.49717280  0.57441490
   0.91730049  0.16280915  0.47342290
   0.66560916  0.91085639  0.47414270
   0.33333333  0.83333333  0.38179910
   0.75716710  0.74071116  0.56326964
   0.58333333  0.08333333  0.38179910
Direct configuration=    10
   0.08333333  0.08333333  0.38179910
   0.24277447  0.49504884  0.56867003
   0.75466392  0.98880992  0.56391844
   0.83333333  0.83333333  0.38179910
   0.96974944  0.00485463  0.60288778
   0.83333333  0.58333333  0.38179910
   0.08333333  0.33333333  0.38179910
   0.91076840  0.41727783  0.47934324
   0.01237546  0.25053152  0.56267674
   0.74743040  0.23890775  0.56617361
   0.91768004  0.66433705  0.47794532
   0.92250716  0.91293820  0.47499415
   0.83333333  0.33333333  0.38179910
   0.24295914  0.74124313  0.56074678
   0.97678943  0.74330456  0.60086853
   0.48696587  0.25216355  0.56944792
   0.25673527  0.00415996  0.55710831
   0.58333333  0.33333333  0.38179910
   0.33333333  0.33333333  0.38179910
   0.16720420  0.41156845  0.47820507
   0.24773616  0.28347768  0.63664286
   0.41653897  0.15670434  0.47891753
   0.33333333  0.58333333  0.38179910
   0.66540337  0.16353151  0.47343346
   0.06201046  0.45055629  0.64278554
   0.10705912  0.80484848  0.63140411
   0.43610194  0.12124170  0.64306157
   0.10246400  0.08662662  0.61644819
   0.32879692  0.83932741  0.60731430
   0.83866666  0.32406478  0.61592079
   0.57243922  0.56412043  0.61072718
   0.60706891  0.81795315  0.61462661
   0.50399645  0.00373578  0.57984386
   0.33333333  0.08333333  0.38179910
   0.41542216  0.41385628  0.47572519
   0.16685984  0.16338426  0.47347634
   0.16822619  0.66256236  0.47463021
   0.16771828  0.91297298  0.47006354
   0.58333333  0.58333333  0.38179910
   0.41458449  0.66740073  0.47348690
   0.49665639  0.49007643  0.55918788
   0.42062254  0.90934325  0.47468566
   0.58333333  0.83333333  0.38179910
   0.50858430  0.74231723  0.56903383
   0.83333333  0.08333333  0.38179910
   0.08333333  0.83333333  0.38179910
   0.99872097  0.49963882  0.57210184
   0.66449376  0.41707993  0.47344673
   0.08333333  0.58333333  0.38179910
   0.66170675  0.66485252  0.47537032
   0.75389516  0.49735101  0.57393256
   0.91741215  0.16263449  0.47351855
   0.66564062  0.91084699  0.47426010
   0.33333333  0.83333333  0.38179910
   0.75725534  0.74090714  0.56316591
   0.58333333  0.08333333  0.38179910
Direct configuration=    11
   0.08333333  0.08333333  0.38179910
   0.24255509  0.49388976  0.56866570
   0.75536583  0.98851402  0.56405423
   0.83333333  0.83333333  0.38179910
   0.96965422  0.00446401  0.60507010
   0.83333333  0.58333333  0.38179910
   0.08333333  0.33333333  0.38179910
   0.91220572  0.41588993  0.47934478
   0.01384159  0.25021798  0.56303356
   0.74784534  0.23818363  0.56686407
   0.91811169  0.66418686  0.47775201
   0.92388224  0.91232451  0.47496055
   0.83333333  0.33333333  0.38179910
   0.24343037  0.74086324  0.56009923
   0.97614492  0.74389306  0.60100648
   0.48724868  0.25239817  0.56956920
   0.25509613  0.00617915  0.55726995
   0.58333333  0.33333333  0.38179910
   0.33333333  0.33333333  0.38179910
   0.16788543  0.41170217  0.47801567
   0.24579464  0.28174008  0.63629188
   0.41646403  0.15679050  0.47903599
   0.33333333  0.58333333  0.38179910
   0.66587443  0.16312687  0.47358296
   0.05995935  0.45057413  0.64262654
   0.10915812  0.80303515  0.63162731
   0.43908478  0.12671208  0.64101954
   0.10148620  0.08728889  0.61691219
   0.32813170  0.84021104  0.60704943
   0.83880404  0.32553254  0.61579520
   0.57342907  0.56432209  0.61006198
   0.60634786  0.81818331  0.61431170
   0.50294109  0.00372048  0.57893980
   0.33333333  0.08333333  0.38179910
   0.41556062  0.41415490  0.47558140
   0.16667912  0.16299412  0.47304254
   0.16849271  0.66272921  0.47439454
   0.16845675  0.91251702  0.46989789
   0.58333333  0.58333333  0.38179910
   0.41435434  0.66747670  0.47295724
   0.49715427  0.48979227  0.55893466
   0.42014252  0.90950135  0.47485115
   0.58333333  0.83333333  0.38179910
   0.50829819  0.74238702  0.56839880
   0.83333333  0.08333333  0.38179910
   0.08333333  0.83333333  0.38179910
   0.00023953  0.49907612  0.57207718
   0.66474360  0.41710040  0.47344476
   0.08333333  0.58333333  0.38179910
   0.66183044  0.66435644  0.47542285
   0.75221222  0.49788562  0.57248554
   0.91774712  0.16211050  0.47380549
   0.66573500  0.91081880  0.47461229
   0.33333333  0.83333333  0.38179910
   0.75752007  0.74149507  0.56285473
   0.58333333  0.08333333  0.38179910
Direct configuration=    12
   0.08333333  0.08333333  0.38179910
   0.24211633  0.49157160  0.56865703
   0.75676966  0.98792223  0.56432582
   0.83333333  0.83333333  0.38179910
   0.96946378  0.00368278  0.60943474
   0.83333333  0.58333333  0.38179910
   0.08333333  0.33333333  0.38179910
   0.91508037  0.41311412  0.47934786
   0.01677386  0.24959088  0.56374721
   0.74867523  0.23673539  0.56824500
   0.91897497  0.66388647  0.47736540
   0.92663239  0.91109714  0.47489333
   0.83333333  0.33333333  0.38179910
   0.24437285  0.74010345  0.55880414
   0.97485591  0.74507006  0.60128239
   0.48781429  0.25286742  0.56981176
   0.25181786  0.01021754  0.55759323
   0.58333333  0.33333333  0.38179910
   0.33333333  0.33333333  0.38179910
   0.16924790  0.41196960  0.47763686
   0.24191161  0.27826488  0.63558993
   0.41631416  0.15696283  0.47927291
   0.33333333  0.58333333  0.38179910
   0.66681655  0.16231758  0.47388196
   0.05585713  0.45060981  0.64230855
   0.11335610  0.79940848  0.63207370
   0.44505046  0.13765282  0.63693546
   0.09953059  0.08861343  0.61784018
   0.32680126  0.84197829  0.60651968
   0.83907880  0.32846804  0.61554404
   0.57540878  0.56472541  0.60873157
   0.60490576  0.81864364  0.61368188
   0.50083037  0.00368986  0.57713169
   0.33333333  0.08333333  0.38179910
   0.41583752  0.41475213  0.47529381
   0.16631770  0.16221385  0.47217493
   0.16902575  0.66306291  0.47392318
   0.16993367  0.91160509  0.46956659
   0.58333333  0.58333333  0.38179910
   0.41389402  0.66762866  0.47189793
   0.49815003  0.48922394  0.55842823
   0.41918246  0.90981755  0.47518213
   0.58333333  0.83333333  0.38179910
   0.50772597  0.74252660  0.56712875
   0.83333333  0.08333333  0.38179910
   0.08333333  0.83333333  0.38179910
   0.00327665  0.49795071  0.57202786
   0.66524327  0.41714133  0.47344082
   0.08333333  0.58333333  0.38179910
   0.66207781  0.66336429  0.47552790
   0.74884634  0.49895484  0.56959150
   0.91841707  0.16106254  0.47437937
   0.66592375  0.91076240  0.47531669
   0.33333333  0.83333333  0.38179910
   0.75804953  0.74267094  0.56223238
   0.58333333  0.08333333  0.38179910
Direct configuration=    13
   0.08333333  0.08333333  0.38179910
   0.24244863  0.49332726  0.56866359
   0.75570647  0.98837042  0.56412013
   0.83333333  0.83333333  0.38179910
   0.96960801  0.00427445  0.60612916
   0.83333333  0.58333333  0.38179910
   0.08333333  0.33333333  0.38179910
   0.91290324  0.41521639  0.47934553
   0.01455310  0.25006581  0.56320673
   0.74804671  0.23783222  0.56719915
   0.91832116  0.66411397  0.47765820
   0.92454955  0.91202670  0.47494424
   0.83333333  0.33333333  0.38179910
   0.24365906  0.74067888  0.55978498
   0.97583215  0.74417865  0.60107343
   0.48738592  0.25251203  0.56962806
   0.25430067  0.00715906  0.55734839
   0.58333333  0.33333333  0.38179910
   0.33333333  0.33333333  0.38179910
   0.16821603  0.41176706  0.47792375
   0.24485244  0.28089684  0.63612156
   0.41642766  0.15683231  0.47909348
   0.33333333  0.58333333  0.38179910
   0.66610303  0.16293050  0.47365551
   0.05896396  0.45058279  0.64254938
   0.11017674  0.80215515  0.63173562
   0.44053234  0.12936681  0.64002855
   0.10101167  0.08761029  0.61713736
   0.32780888  0.84063985  0.60692089
   0.83887071  0.32624483  0.61573426
   0.57390944  0.56441995  0.60973916
   0.60599794  0.81829501  0.61415887
   0.50242893  0.00371305  0.57850107
   0.33333333  0.08333333  0.38179910
   0.41562781  0.41429981  0.47551162
   0.16659143  0.16280479  0.47283201
   0.16862205  0.66281018  0.47428017
   0.16881512  0.91229574  0.46981750
   0.58333333  0.58333333  0.38179910
   0.41424264  0.66751358  0.47270021
   0.49739589  0.48965436  0.55881178
   0.41990956  0.90957807  0.47493146
   0.58333333  0.83333333  0.38179910
   0.50815934  0.74242089  0.56809063
   0.83333333  0.08333333  0.38179910
   0.08333333  0.83333333  0.38179910
   0.00097648  0.49880304  0.57206521
   0.66486484  0.41711033  0.47344381
   0.08333333  0.58333333  0.38179910
   0.66189046  0.66411570  0.47544834
   0.75139550  0.49814506  0.57178331
   0.91790968  0.16185622  0.47394474
   0.66578080  0.91080511  0.47478321
   0.33333333  0.83333333  0.38179910
   0.75764854  0.74178039  0.56270372
   0.58333333  0.08333333  0.38179910
Direct configuration=    14
   0.08333333  0.08333333  0.38179910
   0.24268493  0.49340721  0.56871641
   0.75571237  0.98848922  0.56416449
   0.83333333  0.83333333  0.38179910
   0.96962240  0.00365216  0.60712472
   0.83333333  0.58333333  0.38179910
   0.08333333  0.33333333  0.38179910
   0.91341829  0.41478998  0.47931926
   0.01452762  0.25021627  0.56334259
   0.74869652  0.23749325  0.56765451
   0.91848336  0.66417803  0.47771008
   0.92475477  0.91190450  0.47491372
   0.83333333  0.33333333  0.38179910
   0.24350381  0.74081834  0.55968263
   0.97593995  0.74398350  0.60117975
   0.48804293  0.25182588  0.56981847
   0.25379505  0.00763394  0.55742568
   0.58333333  0.33333333  0.38179910
   0.33333333  0.33333333  0.38179910
   0.16841227  0.41169920  0.47780118
   0.24389606  0.28148547  0.63591803
   0.41633880  0.15692351  0.47908539
   0.33333333  0.58333333  0.38179910
   0.66642235  0.16275213  0.47380156
   0.05827080  0.44960051  0.64257216
   0.11112965  0.80127678  0.63179784
   0.44152893  0.13252621  0.63885038
   0.10039467  0.08816044  0.61751163
   0.32794925  0.84057148  0.60673681
   0.83875556  0.32716783  0.61548364
   0.57411584  0.56475358  0.60937337
   0.60567492  0.81873192  0.61377617
   0.50237203  0.00314040  0.57805271
   0.33333333  0.08333333  0.38179910
   0.41595813  0.41416203  0.47549277
   0.16689329  0.16252929  0.47270058
   0.16859296  0.66246751  0.47418288
   0.16919768  0.91246091  0.46977813
   0.58333333  0.58333333  0.38179910
   0.41458871  0.66724236  0.47254321
   0.49730701  0.48954961  0.55876115
   0.41978977  0.90971108  0.47490799
   0.58333333  0.83333333  0.38179910
   0.50816876  0.74235502  0.56787685
   0.83333333  0.08333333  0.38179910