  48  48   0   0
  0.5349325E+02  0.1100258E-08  0.1100258E-08  0.2449179E-08  0.3500000E-15
  1.000000000000000E-004
  CAR 
 unknown system                          
      6.38790481     -9.61564537  301     -1.09660541      1.00000000
     -9.616  0.0000E+00  0.0000E+00
     -9.562  0.0000E+00  0.0000E+00
     -9.509  0.0000E+00  0.0000E+00
     -9.456  0.0000E+00  0.0000E+00
     -9.402  0.0000E+00  0.0000E+00
     -9.349  0.0000E+00  0.0000E+00
     -9.296  0.0000E+00  0.0000E+00
     -9.242  0.0000E+00  0.0000E+00
     -9.189  0.8325E-17  0.4441E-18
     -9.136  0.3158E-14  0.1689E-15
     -9.082  0.6837E-12  0.3664E-13
     -9.029  0.8465E-10  0.4552E-11
     -8.976  0.6003E-08  0.3248E-09
     -8.922  0.2443E-06  0.1336E-07
     -8.869  0.5717E-05  0.3183E-06
     -8.815  0.7713E-04  0.4433E-05
     -8.762  0.6011E-03  0.3650E-04
     -8.709  0.2714E-02  0.1813E-03
     -8.655  0.7119E-02  0.5610E-03
     -8.602  0.1098E-01  0.1147E-02
     -8.549  0.1070E-01  0.1718E-02
     -8.495  0.9107E-02  0.2203E-02
     -8.442  0.1037E-01  0.2757E-02
     -8.389  0.1123E-01  0.3356E-02
     -8.335  0.7890E-02  0.3777E-02
     -8.282  0.3283E-02  0.3952E-02
     -8.229  0.8983E-03  0.4000E-02
     -8.175  0.8557E-03  0.4046E-02
     -8.122  0.3075E-02  0.4210E-02
     -8.069  0.7740E-02  0.4623E-02
     -8.015  0.1283E-01  0.5307E-02
     -7.962  0.1626E-01  0.6175E-02
     -7.909  0.1878E-01  0.7177E-02
     -7.855  0.2038E-01  0.8264E-02
     -7.802  0.1994E-01  0.9328E-02
     -7.749  0.1786E-01  0.1028E-01
     -7.695  0.1475E-01  0.1107E-01
     -7.642  0.1132E-01  0.1167E-01
     -7.589  0.8871E-02  0.1214E-01
     -7.535  0.8668E-02  0.1261E-01
     -7.482  0.1183E-01  0.1324E-01
     -7.428  0.1733E-01  0.1416E-01
     -7.375  0.2103E-01  0.1528E-01
     -7.322  0.2240E-01  0.1648E-01
     -7.268  0.2504E-01  0.1782E-01
     -7.215  0.2883E-01  0.1935E-01
     -7.162  0.3078E-01  0.2100E-01
     -7.108  0.2968E-01  0.2258E-01
     -7.055  0.2936E-01  0.2414E-01
     -7.002  0.3549E-01  0.2604E-01
     -6.948  0.4651E-01  0.2852E-01
     -6.895  0.5612E-01  0.3151E-01
     -6.842  0.6360E-01  0.3491E-01
     -6.788  0.7232E-01  0.3876E-01
     -6.735  0.8171E-01  0.4312E-01
     -6.682  0.8949E-01  0.4790E-01
     -6.628  0.9819E-01  0.5313E-01
     -6.575  0.1091E+00  0.5895E-01
     -6.522  0.1156E+00  0.6512E-01
     -6.468  0.1132E+00  0.7116E-01
     -6.415  0.1065E+00  0.7684E-01
     -6.362  0.1002E+00  0.8218E-01
     -6.308  0.9595E-01  0.8730E-01
     -6.255  0.9998E-01  0.9264E-01
     -6.202  0.1160E+00  0.9883E-01
     -6.148  0.1352E+00  0.1060E+00
     -6.095  0.1468E+00  0.1139E+00
     -6.042  0.1512E+00  0.1219E+00
     -5.988  0.1543E+00  0.1302E+00
     -5.935  0.1586E+00  0.1386E+00
     -5.881  0.1630E+00  0.1473E+00
     -5.828  0.1663E+00  0.1562E+00
     -5.775  0.1656E+00  0.1650E+00
     -5.721  0.1588E+00  0.1735E+00
     -5.668  0.1478E+00  0.1814E+00
     -5.615  0.1395E+00  0.1888E+00
     -5.561  0.1398E+00  0.1963E+00
     -5.508  0.1449E+00  0.2040E+00
     -5.455  0.1472E+00  0.2119E+00
     -5.401  0.1478E+00  0.2197E+00
     -5.348  0.1540E+00  0.2280E+00
     -5.295  0.1649E+00  0.2368E+00
     -5.241  0.1717E+00  0.2459E+00
     -5.188  0.1712E+00  0.2551E+00
     -5.135  0.1682E+00  0.2640E+00
     -5.081  0.1674E+00  0.2730E+00
     -5.028  0.1685E+00  0.2819E+00
     -4.975  0.1704E+00  0.2910E+00
     -4.921  0.1735E+00  0.3003E+00
     -4.868  0.1774E+00  0.3098E+00
     -4.815  0.1803E+00  0.3194E+00
     -4.761  0.1836E+00  0.3292E+00
     -4.708  0.1888E+00  0.3392E+00
     -4.655  0.1915E+00  0.3495E+00
     -4.601  0.1861E+00  0.3594E+00
     -4.548  0.1771E+00  0.3688E+00
     -4.495  0.1735E+00  0.3781E+00
     -4.441  0.1746E+00  0.3874E+00
     -4.388  0.1758E+00  0.3968E+00
     -4.334  0.1787E+00  0.4063E+00
     -4.281  0.1841E+00  0.4161E+00
     -4.228  0.1872E+00  0.4261E+00
     -4.174  0.1860E+00  0.4360E+00
     -4.121  0.1856E+00  0.4459E+00
     -4.068  0.1886E+00  0.4560E+00
     -4.014  0.1900E+00  0.4661E+00
     -3.961  0.1891E+00  0.4762E+00
     -3.908  0.1919E+00  0.4865E+00
     -3.854  0.2001E+00  0.4971E+00
     -3.801  0.2086E+00  0.5083E+00
     -3.748  0.2134E+00  0.5196E+00
     -3.694  0.2138E+00  0.5311E+00
     -3.641  0.2129E+00  0.5424E+00
     -3.588  0.2134E+00  0.5538E+00
     -3.534  0.2141E+00  0.5652E+00
     -3.481  0.2130E+00  0.5766E+00
     -3.428  0.2089E+00  0.5877E+00
     -3.374  0.2014E+00  0.5985E+00
     -3.321  0.1934E+00  0.6088E+00
     -3.268  0.1863E+00  0.6187E+00
     -3.214  0.1805E+00  0.6283E+00
     -3.161  0.1780E+00  0.6378E+00
     -3.108  0.1789E+00  0.6474E+00
     -3.054  0.1810E+00  0.6570E+00
     -3.001  0.1836E+00  0.6668E+00
     -2.947  0.1889E+00  0.6769E+00
     -2.894  0.1949E+00  0.6873E+00
     -2.841  0.1943E+00  0.6977E+00
     -2.787  0.1853E+00  0.7076E+00
     -2.734  0.1751E+00  0.7169E+00
     -2.681  0.1688E+00  0.7259E+00
     -2.627  0.1659E+00  0.7347E+00
     -2.574  0.1659E+00  0.7436E+00
     -2.521  0.1683E+00  0.7526E+00
     -2.467  0.1728E+00  0.7618E+00
     -2.414  0.1800E+00  0.7714E+00
     -2.361  0.1872E+00  0.7814E+00
     -2.307  0.1890E+00  0.7915E+00
     -2.254  0.1851E+00  0.8013E+00
     -2.201  0.1799E+00  0.8109E+00
     -2.147  0.1749E+00  0.8203E+00
     -2.094  0.1701E+00  0.8293E+00
     -2.041  0.1686E+00  0.8383E+00
     -1.987  0.1725E+00  0.8475E+00
     -1.934  0.1806E+00  0.8572E+00
     -1.881  0.1884E+00  0.8672E+00
     -1.827  0.1906E+00  0.8774E+00
     -1.774  0.1879E+00  0.8874E+00
     -1.721  0.1864E+00  0.8974E+00
     -1.667  0.1885E+00  0.9074E+00
     -1.614  0.1926E+00  0.9177E+00
     -1.561  0.1956E+00  0.9281E+00
     -1.507  0.1963E+00  0.9386E+00
     -1.454  0.1977E+00  0.9491E+00
     -1.400  0.2012E+00  0.9599E+00
     -1.347  0.1997E+00  0.9705E+00
     -1.294  0.1876E+00  0.9805E+00
     -1.240  0.1690E+00  0.9896E+00
     -1.187  0.1479E+00  0.9974E+00
     -1.134  0.1246E+00  0.1004E+01
     -1.080  0.1019E+00  0.1010E+01
     -1.027  0.8117E-01  0.1014E+01
     -0.974  0.6025E-01  0.1017E+01
     -0.920  0.3994E-01  0.1019E+01
     -0.867  0.2623E-01  0.1021E+01
     -0.814  0.2059E-01  0.1022E+01
     -0.760  0.1866E-01  0.1023E+01
     -0.707  0.1655E-01  0.1024E+01
     -0.654  0.1529E-01  0.1024E+01
     -0.600  0.1842E-01  0.1025E+01
     -0.547  0.2612E-01  0.1027E+01
     -0.494  0.3529E-01  0.1029E+01
     -0.440  0.4125E-01  0.1031E+01
     -0.387  0.4091E-01  0.1033E+01
     -0.334  0.3539E-01  0.1035E+01
     -0.280  0.3026E-01  0.1037E+01
     -0.227  0.3241E-01  0.1038E+01
     -0.174  0.4017E-01  0.1040E+01
     -0.120  0.4377E-01  0.1043E+01
     -0.067  0.3996E-01  0.1045E+01
     -0.014  0.3411E-01  0.1047E+01
      0.040  0.3224E-01  0.1048E+01
      0.093  0.3654E-01  0.1050E+01
      0.147  0.4138E-01  0.1053E+01
      0.200  0.4124E-01  0.1055E+01
      0.253  0.3856E-01  0.1057E+01
      0.307  0.3555E-01  0.1059E+01
      0.360  0.3188E-01  0.1060E+01
      0.413  0.2996E-01  0.1062E+01
      0.467  0.3115E-01  0.1064E+01
      0.520  0.3127E-01  0.1065E+01
      0.573  0.2937E-01  0.1067E+01
      0.627  0.3067E-01  0.1069E+01
      0.680  0.3697E-01  0.1071E+01
      0.733  0.4272E-01  0.1073E+01
      0.787  0.4102E-01  0.1075E+01
      0.840  0.3169E-01  0.1077E+01
      0.893  0.2254E-01  0.1078E+01
      0.947  0.2062E-01  0.1079E+01
      1.000  0.2414E-01  0.1080E+01
      1.053  0.2638E-01  0.1082E+01
      1.107  0.2363E-01  0.1083E+01
      1.160  0.1714E-01  0.1084E+01
      1.213  0.1141E-01  0.1084E+01
      1.267  0.1023E-01  0.1085E+01
      1.320  0.1408E-01  0.1086E+01
      1.373  0.2033E-01  0.1087E+01
      1.427  0.2599E-01  0.1088E+01
      1.480  0.3019E-01  0.1090E+01
      1.533  0.3335E-01  0.1092E+01
      1.587  0.3526E-01  0.1094E+01
      1.640  0.3614E-01  0.1095E+01
      1.694  0.3716E-01  0.1097E+01
      1.747  0.3747E-01  0.1099E+01
      1.800  0.3403E-01  0.1101E+01
      1.854  0.2738E-01  0.1103E+01
      1.907  0.2163E-01  0.1104E+01
      1.960  0.1791E-01  0.1105E+01
      2.014  0.1431E-01  0.1106E+01
      2.067  0.1101E-01  0.1106E+01
      2.120  0.1129E-01  0.1107E+01
      2.174  0.1694E-01  0.1108E+01
      2.227  0.2650E-01  0.1109E+01
      2.280  0.3714E-01  0.1111E+01
      2.334  0.4624E-01  0.1114E+01
      2.387  0.5225E-01  0.1116E+01
      2.440  0.5477E-01  0.1119E+01
      2.494  0.5368E-01  0.1122E+01
      2.547  0.5097E-01  0.1125E+01
      2.600  0.4993E-01  0.1127E+01
      2.654  0.5008E-01  0.1130E+01
      2.707  0.4652E-01  0.1133E+01
      2.760  0.3666E-01  0.1135E+01
      2.814  0.2561E-01  0.1136E+01
      2.867  0.1945E-01  0.1137E+01
      2.920  0.1810E-01  0.1138E+01
      2.974  0.1840E-01  0.1139E+01
      3.027  0.1878E-01  0.1140E+01
      3.081  0.2108E-01  0.1141E+01
      3.134  0.2555E-01  0.1142E+01
      3.187  0.2702E-01  0.1144E+01
      3.241  0.2204E-01  0.1145E+01
      3.294  0.1461E-01  0.1146E+01
      3.347  0.1132E-01  0.1146E+01
      3.401  0.1336E-01  0.1147E+01
      3.454  0.1780E-01  0.1148E+01
      3.507  0.2385E-01  0.1149E+01
      3.561  0.3011E-01  0.1151E+01
      3.614  0.3265E-01  0.1153E+01
      3.667  0.3210E-01  0.1154E+01
      3.721  0.3174E-01  0.1156E+01
      3.774  0.3024E-01  0.1158E+01
      3.827  0.2611E-01  0.1159E+01
      3.881  0.2232E-01  0.1160E+01
      3.934  0.2248E-01  0.1162E+01
      3.987  0.2715E-01  0.1163E+01
      4.041  0.3234E-01  0.1165E+01
      4.094  0.3251E-01  0.1166E+01
      4.147  0.2907E-01  0.1168E+01
      4.201  0.2708E-01  0.1169E+01
      4.254  0.2446E-01  0.1171E+01
      4.307  0.1860E-01  0.1172E+01
      4.361  0.1614E-01  0.1173E+01
      4.414  0.2174E-01  0.1174E+01
      4.467  0.2953E-01  0.1175E+01
      4.521  0.3512E-01  0.1177E+01
      4.574  0.4241E-01  0.1179E+01
      4.628  0.5229E-01  0.1182E+01
      4.681  0.5725E-01  0.1185E+01
      4.734  0.5402E-01  0.1188E+01
      4.788  0.4942E-01  0.1191E+01
      4.841  0.4890E-01  0.1193E+01
      4.894  0.5115E-01  0.1196E+01
      4.948  0.5455E-01  0.1199E+01
      5.001  0.6167E-01  0.1202E+01
      5.054  0.7152E-01  0.1206E+01
      5.108  0.7518E-01  0.1210E+01
      5.161  0.6868E-01  0.1214E+01
      5.214  0.5877E-01  0.1217E+01
      5.268  0.4939E-01  0.1220E+01
      5.321  0.3765E-01  0.1222E+01
      5.374  0.2418E-01  0.1223E+01
      5.428  0.1302E-01  0.1224E+01
      5.481  0.5608E-02  0.1224E+01
      5.534  0.1719E-02  0.1224E+01
      5.588  0.3379E-03  0.1224E+01
      5.641  0.4028E-04  0.1224E+01
      5.694  0.2838E-05  0.1224E+01
      5.748  0.1167E-06  0.1224E+01
      5.801  0.2786E-08  0.1224E+01
      5.854  0.3840E-10  0.1224E+01
      5.908  0.3048E-12  0.1224E+01
      5.961  0.1390E-14  0.1224E+01
      6.014  0.2775E-17  0.1224E+01
      6.068  0.0000E+00  0.1224E+01
      6.121  0.0000E+00  0.1224E+01
      6.175  0.0000E+00  0.1224E+01
      6.228  0.0000E+00  0.1224E+01
      6.281  0.0000E+00  0.1224E+01
      6.335  0.0000E+00  0.1224E+01
      6.388  0.0000E+00  0.1224E+01
