unknown system                          
           1
    11.002582    0.000000    0.000000
     5.501291    9.528515    0.000000
     0.000000    0.000000   24.491785
   Au   Pd
  24  24
Direct configuration=     1
   0.58333333  0.58333333  0.40830017
   0.50000000  0.75000000  0.59169983
   0.16666667  0.91666667  0.50000000
   0.33333333  0.83333333  0.40830017
   0.25000000  0.50000000  0.59169983
   0.33333333  0.58333333  0.40830017
   0.25000000  0.25000000  0.59169983
   0.66666667  0.16666667  0.50000000
   0.50000000  0.25000000  0.59169983
   0.83333333  0.33333333  0.40830017
   0.66666667  0.41666667  0.50000000
   0.58333333  0.08333333  0.40830017
   0.33333333  0.08333333  0.40830017
   0.91666667  0.91666667  0.50000000
   0.83333333  0.58333333  0.40830017
   0.00000000  0.50000000  0.59169983
   0.91666667  0.66666667  0.50000000
   0.66666667  0.66666667  0.50000000
   0.00000000  0.25000000  0.59169983
   0.08333333  0.33333333  0.40830017
   0.83333333  0.83333333  0.40830017
   0.91666667  0.16666667  0.50000000
   0.50000000  0.50000000  0.59169983
   0.41666667  0.91666667  0.50000000
   0.58333333  0.83333333  0.40830017
   0.41666667  0.66666667  0.50000000
   0.08333333  0.08333333  0.40830017
   0.75000000  0.25000000  0.59169983
   0.75000000  0.50000000  0.59169983
   0.83333333  0.08333333  0.40830017
   0.75000000  0.00000000  0.59169983
   0.25000000  0.75000000  0.59169983
   0.58333333  0.33333333  0.40830017
   0.50000000  0.00000000  0.59169983
   0.41666667  0.16666667  0.50000000
   0.66666667  0.91666667  0.50000000
   0.16666667  0.66666667  0.50000000
   0.16666667  0.41666667  0.50000000
   0.33333333  0.33333333  0.40830017
   0.25000000  0.00000000  0.59169983
   0.16666667  0.16666667  0.50000000
   0.00000000  0.75000000  0.59169983
   0.08333333  0.83333333  0.40830017
   0.08333333  0.58333333  0.40830017
   0.91666667  0.41666667  0.50000000
   0.00000000  0.00000000  0.59169983
   0.41666667  0.41666667  0.50000000
   0.75000000  0.75000000  0.59169983
Direct configuration=     2
   0.58272317  0.58350694  0.40609146
   0.49980341  0.75047451  0.59385663
   0.16668671  0.91615426  0.50037772
   0.33271545  0.83355638  0.40613555
   0.24931977  0.50161999  0.59323512
   0.33250323  0.58253537  0.40680887
   0.25069733  0.24852713  0.59325472
   0.66588855  0.16660321  0.50002458
   0.50100256  0.24865412  0.59353937
   0.83372431  0.33204680  0.40605974
   0.66622079  0.41663509  0.50036796
   0.58308743  0.08386503  0.40644068
   0.33306807  0.08397813  0.40643142
   0.91716528  0.91600611  0.50039965
   0.83372983  0.58349196  0.40607605
  -0.00119610  0.50098573  0.59352834
   0.91786204  0.66628571  0.50040904
   0.66704399  0.66714525  0.50046916
  -0.00046469  0.24959381  0.59356572
   0.08421590  0.33322093  0.40680656
   0.83359375  0.83361540  0.40611276
   0.91766175  0.16630803  0.50004978
   0.50007124  0.50037299  0.59357900
   0.41696747  0.91792527  0.50043999
   0.58347085  0.83360921  0.40698364
   0.41547610  0.66636338  0.50022015
   0.08304189  0.08294620  0.40700514
   0.75051590  0.24953691  0.59314884
   0.75021367  0.49986573  0.59295445
   0.83375400  0.08332797  0.40685902
   0.75015531 -0.00067039  0.59288460
   0.24906084  0.75065288  0.59264446
   0.58299994  0.33299218  0.40710400
   0.50049240 -0.00014500  0.59265616
   0.41607268  0.16721965  0.50001466
   0.66589215  0.91710355  0.50053838
   0.16720760  0.66608132  0.50000036
   0.16755496  0.41625049  0.49948258
   0.33319177  0.33381819  0.40760792
   0.24988765 -0.00025881  0.59285316
   0.16680787  0.16715887  0.50005659
  -0.00025350  0.75072611  0.59280365
   0.08300150  0.83355447  0.40707622
   0.08428929  0.58324241  0.40736736
   0.91736475  0.41637628  0.50025866
   0.00017279 -0.00053921  0.59303962
   0.41555474  0.41693555  0.49951071
   0.74998359  0.75074391  0.59286980
Direct configuration=     3
   0.58089268  0.58402776  0.39946533
   0.49921362  0.75189803  0.60032702
   0.16674683  0.91461704  0.50151087
   0.33086181  0.83422552  0.39964170
   0.24727910  0.50647994  0.59784099
   0.33001293  0.58014148  0.40233498
   0.25278932  0.24410853  0.59791938
   0.66355420  0.16641283  0.50009831
   0.50401023  0.24461648  0.59905800
   0.83489724  0.32818719  0.39933843
   0.66488316  0.41654035  0.50147182
   0.58234971  0.08546013  0.40086220
   0.33227228  0.08591253  0.40082516
   0.91866112  0.91402443  0.50159859
   0.83491933  0.58396784  0.39940371
  -0.00478438  0.50394293  0.59901385
   0.92144817  0.66514286  0.50163614
   0.66817596  0.66858099  0.50187663
  -0.00185878  0.24837526  0.59916340
   0.08686362  0.33288372  0.40232572
   0.83437500  0.83446159  0.39955052
   0.92064701  0.16523212  0.50019914
   0.50028496  0.50149195  0.59921653
   0.41786988  0.92170108  0.50175994
   0.58388340  0.83443686  0.40303404
   0.41190439  0.66545354  0.50088058
   0.08216754  0.08178481  0.40312006
   0.75206360  0.24814763  0.59749586
   0.75085467  0.49946291  0.59671832
   0.83501601  0.08331187  0.40253556
   0.75062124 -0.00268157  0.59643891
   0.24624335  0.75261154  0.59547836
   0.58199977  0.33196874  0.40351551
   0.50196959 -0.00057999  0.59552516
   0.41429073  0.16887858  0.50005866
   0.66356860  0.91841419  0.50215353
   0.16883041  0.66432526  0.50000145
   0.17021986  0.41500197  0.49793032
   0.33276707  0.33527277  0.40553117
   0.24955062 -0.00103526  0.59631315
   0.16723146  0.16863549  0.50022637
  -0.00101401  0.75290444  0.59611512
   0.08200600  0.83421787  0.40340438
   0.08715718  0.58296965  0.40456893
   0.91945902  0.41550513  0.50103466
   0.00069117 -0.00215685  0.59705901
   0.41221895  0.41774222  0.49804284
   0.74993437  0.75297563  0.59637971
Direct configuration=     4
   0.58063782  0.58410027  0.39854275
   0.49913150  0.75209623  0.60122791
   0.16675520  0.91440300  0.50166864
   0.33060372  0.83431869  0.39873754
   0.24699497  0.50715661  0.59848228
   0.32966619  0.57980817  0.40171206
   0.25308059  0.24349331  0.59856885
   0.66322919  0.16638633  0.50010858
   0.50442900  0.24405430  0.59982638
   0.83506055  0.32764980  0.39840260
   0.66469692  0.41652716  0.50162552
   0.58224700  0.08568222  0.40008549
   0.33216148  0.08618187  0.40004459
   0.91886939  0.91374851  0.50176552
   0.83508494  0.58403409  0.39847470
  -0.00528399  0.50435467  0.59977762
   0.92194747  0.66498373  0.50180699
   0.66833357  0.66878089  0.50207260
  -0.00205288  0.24820559  0.59994278
   0.08723227  0.33283677  0.40170184
   0.83448378  0.83457941  0.39863684
   0.92106266  0.16508232  0.50021993
   0.50031472  0.50164775  0.60000146
   0.41799552  0.92222680  0.50194372
   0.58394084  0.83455209  0.40248413
   0.41140708  0.66532686  0.50097254
   0.08204580  0.08162310  0.40257912
   0.75227909  0.24795420  0.59810111
   0.75094392  0.49940683  0.59724238
   0.83519173  0.08330963  0.40193359
   0.75068612 -0.00296159  0.59693379
   0.24585107  0.75288425  0.59587293
   0.58186052  0.33182624  0.40301587
   0.50217526 -0.00064056  0.59592462
   0.41404262  0.16910956  0.50006478
   0.66324509  0.91859668  0.50237841
   0.16905636  0.66408076  0.50000160
   0.17059090  0.41482813  0.49771420
   0.33270794  0.33547529  0.40524201
   0.24950369 -0.00114336  0.59679490
   0.16729044  0.16884108  0.50025000
  -0.00111990  0.75320774  0.59657618
   0.08186740  0.83431024  0.40289314
   0.08755648  0.58293167  0.40417929
   0.91975061  0.41538384  0.50114270
   0.00076335 -0.00238208  0.59761864
   0.41175450  0.41785453  0.49783846
   0.74992751  0.75328636  0.59686840
