  48  48   0   0
  0.5349325E+02  0.1100258E-08  0.1100258E-08  0.2449179E-08  0.3500000E-15
  1.000000000000000E-004
  CAR 
 unknown system                          
      6.38239451     -9.83563345  301     -1.08392964      1.00000000
     -9.836  0.0000E+00  0.0000E+00
     -9.782  0.0000E+00  0.0000E+00
     -9.728  0.0000E+00  0.0000E+00
     -9.673  0.0000E+00  0.0000E+00
     -9.619  0.0000E+00  0.0000E+00
     -9.565  0.0000E+00  0.0000E+00
     -9.511  0.0000E+00  0.0000E+00
     -9.457  0.0000E+00  0.0000E+00
     -9.403  0.8899E-17  0.4811E-18
     -9.349  0.3763E-14  0.2039E-15
     -9.295  0.8404E-12  0.4563E-13
     -9.241  0.1061E-09  0.5783E-11
     -9.187  0.7592E-08  0.4162E-09
     -9.133  0.3084E-06  0.1709E-07
     -9.079  0.7128E-05  0.4024E-06
     -9.025  0.9401E-04  0.5484E-05
     -8.971  0.7093E-03  0.4383E-04
     -8.917  0.3070E-02  0.2098E-03
     -8.863  0.7651E-02  0.6234E-03
     -8.808  0.1115E-01  0.1226E-02
     -8.754  0.1036E-01  0.1786E-02
     -8.700  0.8880E-02  0.2266E-02
     -8.646  0.1025E-01  0.2821E-02
     -8.592  0.1075E-01  0.3402E-02
     -8.538  0.7286E-02  0.3796E-02
     -8.484  0.2962E-02  0.3956E-02
     -8.430  0.7544E-03  0.3997E-02
     -8.376  0.4528E-03  0.4021E-02
     -8.322  0.1659E-02  0.4111E-02
     -8.268  0.4678E-02  0.4364E-02
     -8.214  0.8294E-02  0.4812E-02
     -8.160  0.9632E-02  0.5333E-02
     -8.106  0.8132E-02  0.5772E-02
     -8.052  0.7353E-02  0.6170E-02
     -7.998  0.1073E-01  0.6750E-02
     -7.944  0.1602E-01  0.7616E-02
     -7.889  0.1784E-01  0.8581E-02
     -7.835  0.1506E-01  0.9394E-02
     -7.781  0.1165E-01  0.1002E-01
     -7.727  0.1162E-01  0.1065E-01
     -7.673  0.1352E-01  0.1138E-01
     -7.619  0.1407E-01  0.1214E-01
     -7.565  0.1472E-01  0.1294E-01
     -7.511  0.1781E-01  0.1390E-01
     -7.457  0.2243E-01  0.1512E-01
     -7.403  0.2498E-01  0.1647E-01
     -7.349  0.2477E-01  0.1780E-01
     -7.295  0.2634E-01  0.1923E-01
     -7.241  0.3098E-01  0.2090E-01
     -7.187  0.3647E-01  0.2288E-01
     -7.133  0.4208E-01  0.2515E-01
     -7.079  0.4637E-01  0.2766E-01
     -7.025  0.4806E-01  0.3026E-01
     -6.970  0.4859E-01  0.3288E-01
     -6.916  0.5071E-01  0.3562E-01
     -6.862  0.5697E-01  0.3870E-01
     -6.808  0.6737E-01  0.4235E-01
     -6.754  0.7833E-01  0.4658E-01
     -6.700  0.8747E-01  0.5131E-01
     -6.646  0.9687E-01  0.5655E-01
     -6.592  0.1067E+00  0.6231E-01
     -6.538  0.1126E+00  0.6840E-01
     -6.484  0.1158E+00  0.7466E-01
     -6.430  0.1211E+00  0.8120E-01
     -6.376  0.1265E+00  0.8804E-01
     -6.322  0.1288E+00  0.9501E-01
     -6.268  0.1299E+00  0.1020E+00
     -6.214  0.1341E+00  0.1093E+00
     -6.160  0.1422E+00  0.1170E+00
     -6.105  0.1506E+00  0.1251E+00
     -6.051  0.1571E+00  0.1336E+00
     -5.997  0.1616E+00  0.1423E+00
     -5.943  0.1608E+00  0.1510E+00
     -5.889  0.1551E+00  0.1594E+00
     -5.835  0.1509E+00  0.1676E+00
     -5.781  0.1500E+00  0.1757E+00
     -5.727  0.1487E+00  0.1837E+00
     -5.673  0.1468E+00  0.1916E+00
     -5.619  0.1458E+00  0.1995E+00
     -5.565  0.1440E+00  0.2073E+00
     -5.511  0.1397E+00  0.2149E+00
     -5.457  0.1346E+00  0.2221E+00
     -5.403  0.1290E+00  0.2291E+00
     -5.349  0.1251E+00  0.2359E+00
     -5.295  0.1280E+00  0.2428E+00
     -5.241  0.1376E+00  0.2502E+00
     -5.186  0.1491E+00  0.2583E+00
     -5.132  0.1599E+00  0.2669E+00
     -5.078  0.1681E+00  0.2760E+00
     -5.024  0.1726E+00  0.2854E+00
     -4.970  0.1745E+00  0.2948E+00
     -4.916  0.1745E+00  0.3042E+00
     -4.862  0.1735E+00  0.3136E+00
     -4.808  0.1741E+00  0.3230E+00
     -4.754  0.1765E+00  0.3326E+00
     -4.700  0.1774E+00  0.3422E+00
     -4.646  0.1757E+00  0.3516E+00
     -4.592  0.1729E+00  0.3610E+00
     -4.538  0.1705E+00  0.3702E+00
     -4.484  0.1692E+00  0.3794E+00
     -4.430  0.1692E+00  0.3885E+00
     -4.376  0.1710E+00  0.3978E+00
     -4.322  0.1739E+00  0.4072E+00
     -4.267  0.1781E+00  0.4168E+00
     -4.213  0.1829E+00  0.4267E+00
     -4.159  0.1838E+00  0.4366E+00
     -4.105  0.1797E+00  0.4463E+00
     -4.051  0.1763E+00  0.4558E+00
     -3.997  0.1759E+00  0.4654E+00
     -3.943  0.1758E+00  0.4749E+00
     -3.889  0.1749E+00  0.4843E+00
     -3.835  0.1743E+00  0.4937E+00
     -3.781  0.1757E+00  0.5032E+00
     -3.727  0.1795E+00  0.5129E+00
     -3.673  0.1840E+00  0.5229E+00
     -3.619  0.1884E+00  0.5331E+00
     -3.565  0.1900E+00  0.5434E+00
     -3.511  0.1868E+00  0.5535E+00
     -3.457  0.1835E+00  0.5634E+00
     -3.402  0.1850E+00  0.5734E+00
     -3.348  0.1903E+00  0.5837E+00
     -3.294  0.1955E+00  0.5942E+00
     -3.240  0.1977E+00  0.6049E+00
     -3.186  0.1949E+00  0.6155E+00
     -3.132  0.1869E+00  0.6256E+00
     -3.078  0.1771E+00  0.6351E+00
     -3.024  0.1717E+00  0.6444E+00
     -2.970  0.1731E+00  0.6538E+00
     -2.916  0.1779E+00  0.6634E+00
     -2.862  0.1824E+00  0.6733E+00
     -2.808  0.1853E+00  0.6833E+00
     -2.754  0.1872E+00  0.6934E+00
     -2.700  0.1894E+00  0.7036E+00
     -2.646  0.1923E+00  0.7140E+00
     -2.592  0.1922E+00  0.7244E+00
     -2.538  0.1864E+00  0.7345E+00
     -2.483  0.1788E+00  0.7442E+00
     -2.429  0.1758E+00  0.7537E+00
     -2.375  0.1789E+00  0.7633E+00
     -2.321  0.1849E+00  0.7733E+00
     -2.267  0.1894E+00  0.7836E+00
     -2.213  0.1905E+00  0.7939E+00
     -2.159  0.1905E+00  0.8042E+00
     -2.105  0.1932E+00  0.8146E+00
     -2.051  0.1994E+00  0.8254E+00
     -1.997  0.2052E+00  0.8365E+00
     -1.943  0.2064E+00  0.8476E+00
     -1.889  0.2042E+00  0.8587E+00
     -1.835  0.2013E+00  0.8696E+00
     -1.781  0.2004E+00  0.8804E+00
     -1.727  0.2062E+00  0.8915E+00
     -1.673  0.2186E+00  0.9034E+00
     -1.618  0.2282E+00  0.9157E+00
     -1.564  0.2276E+00  0.9280E+00
     -1.510  0.2181E+00  0.9398E+00
     -1.456  0.2039E+00  0.9508E+00
     -1.402  0.1890E+00  0.9610E+00
     -1.348  0.1775E+00  0.9706E+00
     -1.294  0.1702E+00  0.9798E+00
     -1.240  0.1621E+00  0.9886E+00
     -1.186  0.1462E+00  0.9965E+00
     -1.132  0.1229E+00  0.1003E+01
     -1.078  0.1000E+00  0.1009E+01
     -1.024  0.7986E-01  0.1013E+01
     -0.970  0.5725E-01  0.1016E+01
     -0.916  0.3489E-01  0.1018E+01
     -0.862  0.2134E-01  0.1019E+01
     -0.808  0.1784E-01  0.1020E+01
     -0.754  0.1869E-01  0.1021E+01
     -0.699  0.1960E-01  0.1022E+01
     -0.645  0.2085E-01  0.1023E+01
     -0.591  0.2449E-01  0.1024E+01
     -0.537  0.3084E-01  0.1026E+01
     -0.483  0.3746E-01  0.1028E+01
     -0.429  0.4215E-01  0.1030E+01
     -0.375  0.4347E-01  0.1033E+01
     -0.321  0.4175E-01  0.1035E+01
     -0.267  0.4142E-01  0.1037E+01
     -0.213  0.4331E-01  0.1040E+01
     -0.159  0.4065E-01  0.1042E+01
     -0.105  0.3207E-01  0.1044E+01
     -0.051  0.2493E-01  0.1045E+01
      0.003  0.2214E-01  0.1046E+01
      0.057  0.2018E-01  0.1047E+01
      0.111  0.1947E-01  0.1048E+01
      0.165  0.2474E-01  0.1050E+01
      0.220  0.3353E-01  0.1051E+01
      0.274  0.3760E-01  0.1053E+01
      0.328  0.3706E-01  0.1055E+01
      0.382  0.3757E-01  0.1057E+01
      0.436  0.3942E-01  0.1060E+01
      0.490  0.4049E-01  0.1062E+01
      0.544  0.4190E-01  0.1064E+01
      0.598  0.4544E-01  0.1067E+01
      0.652  0.4942E-01  0.1069E+01
      0.706  0.5015E-01  0.1072E+01
      0.760  0.4540E-01  0.1074E+01
      0.814  0.3792E-01  0.1076E+01
      0.868  0.3164E-01  0.1078E+01
      0.922  0.2662E-01  0.1080E+01
      0.976  0.2196E-01  0.1081E+01
      1.030  0.1781E-01  0.1082E+01
      1.085  0.1667E-01  0.1083E+01
      1.139  0.1873E-01  0.1084E+01
      1.193  0.1794E-01  0.1085E+01
      1.247  0.1303E-01  0.1085E+01
      1.301  0.1012E-01  0.1086E+01
      1.355  0.1201E-01  0.1086E+01
      1.409  0.1652E-01  0.1087E+01
      1.463  0.2210E-01  0.1089E+01
      1.517  0.2900E-01  0.1090E+01
      1.571  0.3322E-01  0.1092E+01
      1.625  0.3089E-01  0.1094E+01
      1.679  0.2831E-01  0.1095E+01
      1.733  0.3157E-01  0.1097E+01
      1.787  0.3618E-01  0.1099E+01
      1.841  0.3535E-01  0.1101E+01
      1.895  0.2879E-01  0.1102E+01
      1.949  0.2073E-01  0.1103E+01
      2.004  0.1588E-01  0.1104E+01
      2.058  0.1684E-01  0.1105E+01
      2.112  0.2147E-01  0.1106E+01
      2.166  0.2825E-01  0.1108E+01
      2.220  0.3752E-01  0.1110E+01
      2.274  0.4615E-01  0.1112E+01
      2.328  0.5096E-01  0.1115E+01
      2.382  0.5228E-01  0.1118E+01
      2.436  0.5117E-01  0.1121E+01
      2.490  0.4800E-01  0.1123E+01
      2.544  0.4398E-01  0.1126E+01
      2.598  0.4189E-01  0.1128E+01
      2.652  0.4400E-01  0.1130E+01
      2.706  0.4642E-01  0.1133E+01
      2.760  0.4159E-01  0.1135E+01
      2.814  0.2966E-01  0.1137E+01
      2.868  0.1816E-01  0.1138E+01
      2.923  0.1283E-01  0.1138E+01
      2.977  0.1245E-01  0.1139E+01
      3.031  0.1120E-01  0.1140E+01
      3.085  0.8953E-02  0.1140E+01
      3.139  0.1060E-01  0.1141E+01
      3.193  0.1693E-01  0.1142E+01
      3.247  0.2365E-01  0.1143E+01
      3.301  0.2522E-01  0.1144E+01
      3.355  0.2064E-01  0.1145E+01
      3.409  0.1507E-01  0.1146E+01
      3.463  0.1333E-01  0.1147E+01
      3.517  0.1725E-01  0.1148E+01
      3.571  0.2688E-01  0.1149E+01
      3.625  0.3787E-01  0.1151E+01
      3.679  0.4398E-01  0.1154E+01
      3.733  0.4366E-01  0.1156E+01
      3.788  0.3866E-01  0.1158E+01
      3.842  0.3155E-01  0.1160E+01
      3.896  0.2577E-01  0.1161E+01
      3.950  0.2455E-01  0.1163E+01
      4.004  0.2803E-01  0.1164E+01
      4.058  0.3002E-01  0.1166E+01
      4.112  0.2582E-01  0.1167E+01
      4.166  0.2089E-01  0.1168E+01
      4.220  0.2115E-01  0.1169E+01
      4.274  0.2234E-01  0.1171E+01
      4.328  0.1933E-01  0.1172E+01
      4.382  0.1693E-01  0.1173E+01
      4.436  0.1995E-01  0.1174E+01
      4.490  0.2620E-01  0.1175E+01
      4.544  0.3537E-01  0.1177E+01
      4.598  0.4806E-01  0.1180E+01
      4.652  0.5722E-01  0.1183E+01
      4.707  0.5556E-01  0.1186E+01
      4.761  0.4706E-01  0.1188E+01
      4.815  0.4151E-01  0.1190E+01
      4.869  0.4434E-01  0.1193E+01
      4.923  0.5357E-01  0.1196E+01
      4.977  0.6268E-01  0.1199E+01
      5.031  0.6835E-01  0.1203E+01
      5.085  0.7008E-01  0.1207E+01
      5.139  0.6649E-01  0.1210E+01
      5.193  0.6140E-01  0.1214E+01
      5.247  0.5904E-01  0.1217E+01
      5.301  0.5401E-01  0.1220E+01
      5.355  0.4108E-01  0.1222E+01
      5.409  0.2438E-01  0.1223E+01
      5.463  0.1077E-01  0.1224E+01
      5.517  0.3290E-02  0.1224E+01
      5.571  0.6467E-03  0.1224E+01
      5.626  0.7777E-04  0.1224E+01
      5.680  0.5554E-05  0.1224E+01
      5.734  0.2316E-06  0.1224E+01
      5.788  0.5584E-08  0.1224E+01
      5.842  0.7730E-10  0.1224E+01
      5.896  0.6111E-12  0.1224E+01
      5.950  0.2749E-14  0.1224E+01
      6.004  0.5476E-17  0.1224E+01
      6.058  0.0000E+00  0.1224E+01
      6.112  0.0000E+00  0.1224E+01
      6.166  0.0000E+00  0.1224E+01
      6.220  0.0000E+00  0.1224E+01
      6.274  0.0000E+00  0.1224E+01
      6.328  0.0000E+00  0.1224E+01
      6.382  0.0000E+00  0.1224E+01
