       N       E                     dE             d eps       ncg     rms          rms(c)
DAV:   1     0.320022680780E+04    0.32002E+04   -0.18976E+05  3672   0.112E+03
DAV:   2     0.158593230879E+02   -0.31844E+04   -0.29272E+04  4380   0.263E+02
DAV:   3    -0.199796958527E+03   -0.21566E+03   -0.20005E+03  4104   0.652E+01
DAV:   4    -0.205712181180E+03   -0.59152E+01   -0.58474E+01  4236   0.109E+01
DAV:   5    -0.205904277980E+03   -0.19210E+00   -0.19149E+00  4404   0.199E+00    0.625E+01
RMM:   6    -0.197677978345E+03    0.82263E+01   -0.89316E+01  3681   0.150E+01    0.520E+01
RMM:   7    -0.201880786382E+03   -0.42028E+01   -0.47445E+01  3685   0.118E+01    0.375E+01
RMM:   8    -0.224091235267E+03   -0.22210E+02   -0.89676E+01  3672   0.134E+01    0.443E+01
RMM:   9    -0.209842266600E+03    0.14249E+02   -0.32516E+01  3678   0.848E+00    0.361E+01
RMM:  10    -0.197050672776E+03    0.12792E+02   -0.14247E+01  3681   0.620E+00    0.203E+01
RMM:  11    -0.192409184368E+03    0.46415E+01   -0.11922E+01  3681   0.560E+00    0.128E+01
RMM:  12    -0.189396430193E+03    0.30128E+01   -0.52716E+00  3684   0.362E+00    0.860E+00
RMM:  13    -0.188963141088E+03    0.43329E+00   -0.17091E+00  3681   0.199E+00    0.744E+00
RMM:  14    -0.188892117546E+03    0.71024E-01   -0.56327E-01  3681   0.116E+00    0.588E+00
RMM:  15    -0.188779549403E+03    0.11257E+00   -0.26163E-01  3681   0.791E-01    0.465E+00
RMM:  16    -0.188669535978E+03    0.11001E+00   -0.18721E-01  3683   0.664E-01    0.336E+00
RMM:  17    -0.188604535003E+03    0.65001E-01   -0.15077E-01  3681   0.600E-01    0.244E+00
RMM:  18    -0.188542684515E+03    0.61850E-01   -0.87228E-02  3681   0.442E-01    0.143E+00
RMM:  19    -0.188526543099E+03    0.16141E-01   -0.25517E-02  3684   0.242E-01    0.945E-01
RMM:  20    -0.188523221526E+03    0.33216E-02   -0.62463E-03  3683   0.122E-01    0.693E-01
RMM:  21    -0.188521488492E+03    0.17330E-02   -0.28347E-03  3685   0.839E-02    0.542E-01
RMM:  22    -0.188519269565E+03    0.22189E-02   -0.28599E-03  3681   0.808E-02    0.385E-01
RMM:  23    -0.188517817526E+03    0.14520E-02   -0.19583E-03  3683   0.648E-02    0.254E-01
RMM:  24    -0.188517273759E+03    0.54377E-03   -0.79063E-04  3684   0.399E-02    0.120E-01
RMM:  25    -0.188517338331E+03   -0.64572E-04   -0.37380E-04  3681   0.276E-02    0.688E-02
RMM:  26    -0.188517622938E+03   -0.28461E-03   -0.12553E-04  3683   0.158E-02    0.406E-02
RMM:  27    -0.188518050062E+03   -0.42712E-03   -0.77349E-05  3681   0.126E-02    0.457E-02
RMM:  28    -0.188518616172E+03   -0.56611E-03   -0.55311E-05  3672   0.108E-02    0.281E-02
RMM:  29    -0.188518929179E+03   -0.31301E-03   -0.21627E-05  3625   0.668E-03    0.213E-02
RMM:  30    -0.188519660206E+03   -0.73103E-03   -0.31956E-05  3670   0.785E-03    0.159E-02
RMM:  31    -0.188520162747E+03   -0.50254E-03   -0.28823E-05  3560   0.717E-03    0.169E-02
RMM:  32    -0.188520588037E+03   -0.42529E-03   -0.34685E-05  3521   0.760E-03    0.729E-03
RMM:  33    -0.188520691411E+03   -0.10337E-03   -0.63100E-06  2725   0.293E-03    0.502E-03
RMM:  34    -0.188520787792E+03   -0.96381E-04   -0.26138E-06  2455   0.214E-03    0.267E-03
RMM:  35    -0.188520871153E+03   -0.83361E-04   -0.16755E-06  2269   0.171E-03    0.231E-03
RMM:  36    -0.188520897352E+03   -0.26199E-04   -0.59355E-07  2148   0.103E-03    0.143E-03
RMM:  37    -0.188520924926E+03   -0.27573E-04   -0.50902E-07  2147   0.106E-03    0.121E-03
RMM:  38    -0.188520936038E+03   -0.11112E-04   -0.26750E-07  1796   0.747E-04    0.952E-04
RMM:  39    -0.188520940513E+03   -0.44753E-05   -0.15618E-07  1521   0.565E-04    0.342E-04
RMM:  40    -0.188520941493E+03   -0.97963E-06   -0.45963E-08  1084   0.388E-04
   1 F= -.18852094E+03 E0= -.18839641E+03  d E =-.188521E+03
       N       E                     dE             d eps       ncg     rms          rms(c)
DAV:   1    -0.189087354212E+03   -0.56641E+00   -0.19233E+02  3672   0.213E+01    0.228E+00
RMM:   2    -0.189292484967E+03   -0.20513E+00   -0.20762E+00  3685   0.309E+00    0.168E+00
RMM:   3    -0.189467717180E+03   -0.17523E+00   -0.20610E-01  3709   0.758E-01    0.397E+00
RMM:   4    -0.189287441415E+03    0.18028E+00   -0.91586E-02  3688   0.476E-01    0.140E+00
RMM:   5    -0.189278501501E+03    0.89399E-02   -0.40806E-02  3684   0.326E-01    0.907E-01
RMM:   6    -0.189274258007E+03    0.42435E-02   -0.17831E-02  3687   0.219E-01    0.527E-01
RMM:   7    -0.189272035840E+03    0.22222E-02   -0.58831E-03  3686   0.123E-01    0.349E-01
RMM:   8    -0.189270938546E+03    0.10973E-02   -0.19016E-03  3685   0.676E-02    0.218E-01
RMM:   9    -0.189270493448E+03    0.44510E-03   -0.78203E-04  3685   0.444E-02    0.107E-01
RMM:  10    -0.189270408515E+03    0.84932E-04   -0.36218E-04  3686   0.294E-02    0.790E-02
RMM:  11    -0.189270361582E+03    0.46933E-04   -0.88666E-05  3687   0.151E-02    0.410E-02
RMM:  12    -0.189270358306E+03    0.32761E-05   -0.25473E-05  3680   0.813E-03    0.276E-02
RMM:  13    -0.189270351777E+03    0.65283E-05   -0.10954E-05  3479   0.541E-03    0.109E-02
RMM:  14    -0.189270352271E+03   -0.49355E-06   -0.32199E-06  2579   0.294E-03
   2 F= -.18927035E+03 E0= -.18914624E+03  d E =-.749411E+00
       N       E                     dE             d eps       ncg     rms          rms(c)
DAV:   1    -0.188459445714E+03    0.81091E+00   -0.17915E+03  3672   0.660E+01    0.583E+00
RMM:   2    -0.190262150671E+03   -0.18027E+01   -0.18899E+01  3684   0.935E+00    0.337E+00
RMM:   3    -0.190470799788E+03   -0.20865E+00   -0.10579E+00  3719   0.180E+00    0.563E+00
RMM:   4    -0.190251477194E+03    0.21932E+00   -0.29326E-01  3686   0.897E-01    0.367E+00
RMM:   5    -0.190252510363E+03   -0.10332E-02   -0.22830E-01  3687   0.738E-01    0.335E+00
RMM:   6    -0.190221109471E+03    0.31401E-01   -0.21230E-01  3684   0.709E-01    0.278E+00
RMM:   7    -0.190149943825E+03    0.71166E-01   -0.95678E-02  3683   0.490E-01    0.138E+00
RMM:   8    -0.190133243862E+03    0.16700E-01   -0.28344E-02  3685   0.264E-01    0.772E-01
RMM:   9    -0.190126132784E+03    0.71111E-02   -0.10615E-02  3683   0.162E-01    0.275E-01
RMM:  10    -0.190125459688E+03    0.67310E-03   -0.31548E-03  3684   0.844E-02    0.221E-01
RMM:  11    -0.190125311761E+03    0.14793E-03   -0.99237E-04  3686   0.490E-02    0.177E-01
RMM:  12    -0.190125152620E+03    0.15914E-03   -0.40351E-04  3687   0.323E-02    0.103E-01
RMM:  13    -0.190125066681E+03    0.85939E-04   -0.15219E-04  3685   0.201E-02    0.382E-02
RMM:  14    -0.190125067252E+03   -0.57055E-06   -0.35714E-05  3679   0.956E-03    0.255E-02
RMM:  15    -0.190125065762E+03    0.14905E-05   -0.13205E-05  3649   0.583E-03    0.124E-02
RMM:  16    -0.190125069127E+03   -0.33652E-05   -0.33744E-06  2640   0.302E-03    0.713E-03
RMM:  17    -0.190125072561E+03   -0.34342E-05   -0.13491E-06  2098   0.205E-03    0.487E-03
RMM:  18    -0.190125077350E+03   -0.47892E-05   -0.57998E-07  2056   0.138E-03    0.383E-03
RMM:  19    -0.190125079939E+03   -0.25887E-05   -0.18686E-07  1834   0.761E-04    0.263E-03
RMM:  20    -0.190125082621E+03   -0.26818E-05   -0.51740E-08  1010   0.436E-04    0.163E-03
RMM:  21    -0.190125087121E+03   -0.45003E-05   -0.10852E-07  1457   0.507E-04    0.159E-03
RMM:  22    -0.190125091473E+03   -0.43516E-05   -0.12101E-07  1459   0.501E-04    0.144E-03
RMM:  23    -0.190125095619E+03   -0.41460E-05   -0.16227E-07  1530   0.489E-04    0.129E-03
RMM:  24    -0.190125097527E+03   -0.19083E-05   -0.46992E-08   771   0.379E-04    0.952E-04
RMM:  25    -0.190125099206E+03   -0.16788E-05   -0.95717E-08  1097   0.449E-04    0.712E-04
RMM:  26    -0.190125099959E+03   -0.75306E-06   -0.46942E-08   852   0.396E-04
   3 F= -.19012510E+03 E0= -.19000255E+03  d E =-.160416E+01
       N       E                     dE             d eps       ncg     rms          rms(c)
DAV:   1    -0.190484103812E+03   -0.35900E+00   -0.36316E+02  3672   0.294E+01    0.222E+00
RMM:   2    -0.190898415718E+03   -0.41431E+00   -0.38261E+00  3686   0.423E+00    0.243E+00
RMM:   3    -0.191008729443E+03   -0.11031E+00   -0.29295E-01  3725   0.917E-01    0.412E+00
RMM:   4    -0.190844234287E+03    0.16450E+00   -0.57692E-02  3686   0.414E-01    0.147E+00
RMM:   5    -0.190834949524E+03    0.92848E-02   -0.30673E-02  3685   0.286E-01    0.116E+00
RMM:   6    -0.190834115758E+03    0.83377E-03   -0.47538E-02  3686   0.343E-01    0.103E+00
RMM:   7    -0.190825758788E+03    0.83570E-02   -0.19651E-02  3685   0.222E-01    0.607E-01
RMM:   8    -0.190822901091E+03    0.28577E-02   -0.44054E-03  3686   0.104E-01    0.378E-01
RMM:   9    -0.190821349625E+03    0.15515E-02   -0.17766E-03  3684   0.686E-02    0.135E-01
RMM:  10    -0.190821245876E+03    0.10375E-03   -0.48513E-04  3686   0.345E-02    0.108E-01
RMM:  11    -0.190821147413E+03    0.98463E-04   -0.17687E-04  3686   0.208E-02    0.689E-02
RMM:  12    -0.190821125719E+03    0.21694E-04   -0.13440E-04  3686   0.180E-02    0.513E-02
RMM:  13    -0.190821105189E+03    0.20529E-04   -0.61441E-05  3686   0.123E-02    0.197E-02
RMM:  14    -0.190821105883E+03   -0.69406E-06   -0.86475E-06  3458   0.472E-03
   4 F= -.19082111E+03 E0= -.19069922E+03  d E =-.696006E+00
       N       E                     dE             d eps       ncg     rms          rms(c)
DAV:   1    -0.188731207638E+03    0.20899E+01   -0.34059E+03  3672   0.926E+01    0.570E+00
RMM:   2    -0.192018907043E+03   -0.32877E+01   -0.33301E+01  3686   0.126E+01    0.471E+00
RMM:   3    -0.192897693303E+03   -0.87879E+00   -0.19836E+00  3715   0.239E+00    0.907E+00
RMM:   4    -0.191869449635E+03    0.10282E+01   -0.38576E-01  3685   0.104E+00    0.414E+00
RMM:   5    -0.191794537778E+03    0.74912E-01   -0.15803E-01  3686   0.642E-01    0.329E+00
RMM:   6    -0.191770615489E+03    0.23922E-01   -0.33655E-01  3685   0.899E-01    0.286E+00
RMM:   7    -0.191720535657E+03    0.50080E-01   -0.24460E-01  3682   0.778E-01    0.221E+00
RMM:   8    -0.191679322080E+03    0.41214E-01   -0.56302E-02  3684   0.385E-01    0.980E-01
RMM:   9    -0.191671402747E+03    0.79193E-02   -0.14610E-02  3683   0.192E-01    0.625E-01
RMM:  10    -0.191668294593E+03    0.31082E-02   -0.60237E-03  3682   0.123E-01    0.437E-01
RMM:  11    -0.191667148545E+03    0.11460E-02   -0.32898E-03  3686   0.905E-02    0.343E-01
RMM:  12    -0.191666061610E+03    0.10869E-02   -0.25034E-03  3684   0.777E-02    0.161E-01
RMM:  13    -0.191666049106E+03    0.12503E-04   -0.12312E-03  3686   0.549E-02    0.134E-01
RMM:  14    -0.191665871256E+03    0.17785E-03   -0.31293E-04  3683   0.283E-02    0.435E-02
RMM:  15    -0.191665858765E+03    0.12491E-04   -0.36412E-05  3680   0.986E-03    0.258E-02
RMM:  16    -0.191665855970E+03    0.27955E-05   -0.18237E-05  3673   0.685E-03    0.144E-02
RMM:  17    -0.191665862636E+03   -0.66662E-05   -0.10026E-05  3663   0.485E-03    0.108E-02
RMM:  18    -0.191665870272E+03   -0.76360E-05   -0.32582E-06  2573   0.290E-03    0.366E-03
RMM:  19    -0.191665875660E+03   -0.53880E-05   -0.65816E-07  2077   0.145E-03    0.269E-03
RMM:  20    -0.191665881504E+03   -0.58436E-05   -0.29167E-07  2080   0.878E-04    0.168E-03
RMM:  21    -0.191665887127E+03   -0.56234E-05   -0.16314E-07  1481   0.597E-04    0.153E-03
RMM:  22    -0.191665892514E+03   -0.53871E-05   -0.16485E-07  1784   0.589E-04    0.174E-03
RMM:  23    -0.191665900101E+03   -0.75871E-05   -0.26273E-07  1603   0.579E-04    0.135E-03
RMM:  24    -0.191665903855E+03   -0.37540E-05   -0.17291E-07  1330   0.508E-04    0.105E-03
RMM:  25    -0.191665907102E+03   -0.32463E-05   -0.25189E-07  1771   0.579E-04    0.425E-04
RMM:  26    -0.191665907815E+03   -0.71320E-06   -0.33456E-08   640   0.327E-04
   5 F= -.19166591E+03 E0= -.19154614E+03  d E =-.154081E+01
       N       E                     dE             d eps       ncg     rms          rms(c)
DAV:   1    -0.191514305698E+03    0.15160E+00   -0.48626E+02  3672   0.343E+01    0.254E+00
RMM:   2    -0.192082260598E+03   -0.56795E+00   -0.53736E+00  3687   0.495E+00    0.271E+00
RMM:   3    -0.192277151240E+03   -0.19489E+00   -0.40517E-01  3707   0.105E+00    0.490E+00
RMM:   4    -0.192018940145E+03    0.25821E+00   -0.81853E-02  3687   0.487E-01    0.160E+00
RMM:   5    -0.192008288157E+03    0.10652E-01   -0.34375E-02  3684   0.301E-01    0.128E+00
RMM:   6    -0.192003314417E+03    0.49737E-02   -0.54113E-02  3684   0.362E-01    0.965E-01
RMM:   7    -0.191996377850E+03    0.69366E-02   -0.23644E-02  3683   0.242E-01    0.646E-01
RMM:   8    -0.191992479404E+03    0.38984E-02   -0.48464E-03  3686   0.113E-01    0.294E-01
RMM:   9    -0.191991654013E+03    0.82539E-03   -0.15475E-03  3685   0.628E-02    0.158E-01
RMM:  10    -0.191991437256E+03    0.21676E-03   -0.50146E-04  3683   0.351E-02    0.107E-01
RMM:  11    -0.191991367839E+03    0.69417E-04   -0.21825E-04  3684   0.231E-02    0.775E-02
RMM:  12    -0.191991325227E+03    0.42612E-04   -0.17125E-04  3684   0.201E-02    0.462E-02
RMM:  13    -0.191991316336E+03    0.88910E-05   -0.54243E-05  3684   0.116E-02    0.270E-02
RMM:  14    -0.191991313979E+03    0.23569E-05   -0.12341E-05  3672   0.564E-03    0.131E-02
RMM:  15    -0.191991313541E+03    0.43867E-06   -0.25426E-06  2395   0.272E-03
   6 F= -.19199131E+03 E0= -.19187382E+03  d E =-.325406E+00
       N       E                     dE             d eps       ncg     rms          rms(c)
DAV:   1    -0.191984665676E+03    0.66483E-02   -0.12588E+01  3744   0.548E+00    0.376E-01
RMM:   2    -0.192000052149E+03   -0.15386E-01   -0.14117E-01  3687   0.802E-01    0.512E-01
RMM:   3    -0.192002495537E+03   -0.24434E-02   -0.10330E-02  3712   0.170E-01    0.723E-01
RMM:   4    -0.191997453208E+03    0.50423E-02   -0.16435E-03  3684   0.711E-02    0.212E-01
RMM:   5    -0.191997510726E+03   -0.57518E-04   -0.87912E-04  3686   0.482E-02    0.215E-01
RMM:   6    -0.191997335485E+03    0.17524E-03   -0.16386E-03  3685   0.638E-02    0.136E-01
RMM:   7    -0.191997208338E+03    0.12715E-03   -0.49471E-04  3685   0.350E-02    0.784E-02
RMM:   8    -0.191997151359E+03    0.56978E-04   -0.89026E-05  3687   0.154E-02    0.430E-02
RMM:   9    -0.191997133142E+03    0.18217E-04   -0.30286E-05  3675   0.882E-03    0.229E-02
RMM:  10    -0.191997128900E+03    0.42423E-05   -0.11744E-05  3669   0.527E-03    0.152E-02
RMM:  11    -0.191997127528E+03    0.13721E-05   -0.47674E-06  2861   0.345E-03    0.926E-03
RMM:  12    -0.191997128122E+03   -0.59370E-06   -0.51696E-06  3293   0.362E-03
   7 F= -.19199713E+03 E0= -.19187997E+03  d E =-.331220E+00
       N       E                     dE             d eps       ncg     rms          rms(c)
DAV:   1    -0.191985770280E+03    0.11357E-01   -0.46717E+01  3672   0.106E+01    0.766E-01
RMM:   2    -0.192043909557E+03   -0.58139E-01   -0.54993E-01  3686   0.155E+00    0.936E-01
RMM:   3    -0.192057863861E+03   -0.13954E-01   -0.40845E-02  3707   0.331E-01    0.148E+00
RMM:   4    -0.192035904731E+03    0.21959E-01   -0.76781E-03  3685   0.149E-01    0.376E-01
RMM:   5    -0.192035802542E+03    0.10219E-03   -0.33721E-03  3684   0.939E-02    0.363E-01
RMM:   6    -0.192035536448E+03    0.26609E-03   -0.59630E-03  3685   0.121E-01    0.297E-01
RMM:   7    -0.192034887628E+03    0.64882E-03   -0.20812E-03  3682   0.715E-02    0.160E-01
RMM:   8    -0.192034620444E+03    0.26718E-03   -0.37620E-04  3685   0.311E-02    0.836E-02
RMM:   9    -0.192034543074E+03    0.77370E-04   -0.11999E-04  3685   0.174E-02    0.418E-02
RMM:  10    -0.192034526612E+03    0.16462E-04   -0.42640E-05  3681   0.100E-02    0.278E-02
RMM:  11    -0.192034520610E+03    0.60018E-05   -0.19562E-05  3674   0.675E-03    0.175E-02
RMM:  12    -0.192034519688E+03    0.92169E-06   -0.16359E-05  3677   0.603E-03    0.121E-02
RMM:  13    -0.192034519304E+03    0.38428E-06   -0.45100E-06  2801   0.341E-03
   8 F= -.19203452E+03 E0= -.19191813E+03  d E =-.373912E-01
       N       E                     dE             d eps       ncg     rms          rms(c)
DAV:   1    -0.192034398936E+03    0.12075E-03   -0.30969E-01  3768   0.859E-01    0.611E-02
RMM:   2    -0.192034808554E+03   -0.40962E-03   -0.36667E-03  3686   0.127E-01    0.953E-02
RMM:   3    -0.192034820579E+03   -0.12025E-04   -0.27297E-04  3708   0.272E-02    0.103E-01
RMM:   4    -0.192034719250E+03    0.10133E-03   -0.44534E-05  3685   0.115E-02    0.318E-02
RMM:   5    -0.192034721806E+03   -0.25563E-05   -0.20895E-05  3678   0.748E-03    0.282E-02
RMM:   6    -0.192034725599E+03   -0.37924E-05   -0.44781E-05  3681   0.105E-02    0.249E-02
RMM:   7    -0.192034720384E+03    0.52147E-05   -0.13693E-05  3629   0.581E-03    0.116E-02
RMM:   8    -0.192034719442E+03    0.94192E-06   -0.21143E-06  2139   0.244E-03
   9 F= -.19203472E+03 E0= -.19191838E+03  d E =-.375913E-01
       N       E                     dE             d eps       ncg     rms          rms(c)
DAV:   1    -0.192035423545E+03   -0.70316E-03   -0.77666E+00  3672   0.428E+00    0.299E-01
RMM:   2    -0.192045775381E+03   -0.10352E-01   -0.94512E-02  3687   0.636E-01    0.450E-01
RMM:   3    -0.192046161609E+03   -0.38623E-03   -0.67632E-03  3709   0.134E-01    0.473E-01
RMM:   4    -0.192044035781E+03    0.21258E-02   -0.12325E-03  3685   0.591E-02    0.176E-01
RMM:   5    -0.192043899709E+03    0.13607E-03   -0.53263E-04  3684   0.378E-02    0.137E-01
RMM:   6    -0.192044006756E+03   -0.10705E-03   -0.11868E-03  3684   0.530E-02    0.153E-01
RMM:   7    -0.192043819946E+03    0.18681E-03   -0.48852E-04  3682   0.343E-02    0.680E-02
RMM:   8    -0.192043780627E+03    0.39319E-04   -0.70796E-05  3684   0.135E-02    0.421E-02
RMM:   9    -0.192043758880E+03    0.21747E-04   -0.27034E-05  3675   0.822E-03    0.209E-02
RMM:  10    -0.192043754492E+03    0.43880E-05   -0.10546E-05  3665   0.493E-03    0.145E-02
RMM:  11    -0.192043752311E+03    0.21812E-05   -0.59830E-06  3016   0.370E-03    0.847E-03
RMM:  12    -0.192043751940E+03    0.37104E-06   -0.51628E-06  2938   0.352E-03
  10 F= -.19204375E+03 E0= -.19192776E+03  d E =-.903250E-02
       N       E                     dE             d eps       ncg     rms          rms(c)
DAV:   1    -0.192043134782E+03    0.61753E-03   -0.13224E+00  3672   0.176E+00    0.122E-01
RMM:   2    -0.192044915209E+03   -0.17804E-02   -0.16120E-02  3687   0.263E-01    0.194E-01
RMM:   3    -0.192044900300E+03    0.14909E-04   -0.11526E-03  3709   0.555E-02    0.187E-01
RMM:   4    -0.192044584019E+03    0.31628E-03   -0.20563E-04  3685   0.242E-02    0.741E-02
RMM:   5    -0.192044564530E+03    0.19489E-04   -0.88578E-05  3684   0.155E-02    0.568E-02
RMM:   6    -0.192044595737E+03   -0.31207E-04   -0.20438E-04  3684   0.220E-02    0.677E-02
RMM:   7    -0.192044557890E+03    0.37847E-04   -0.92778E-05  3683   0.150E-02    0.272E-02
RMM:   8    -0.192044551991E+03    0.58990E-05   -0.12074E-05  3670   0.559E-03    0.173E-02
RMM:   9    -0.192044548304E+03    0.36864E-05   -0.45626E-06  2802   0.343E-03    0.902E-03
RMM:  10    -0.192044547627E+03    0.67742E-06   -0.18092E-06  1981   0.229E-03
  11 F= -.19204455E+03 E0= -.19192871E+03  d E =-.982818E-02
       N       E                     dE             d eps       ncg     rms          rms(c)
DAV:   1    -0.192043832821E+03    0.71548E-03   -0.38232E+00  3672   0.301E+00    0.204E-01
RMM:   2    -0.192048829399E+03   -0.49966E-02   -0.45601E-02  3686   0.446E-01    0.310E-01
RMM:   3    -0.192049065585E+03   -0.23619E-03   -0.32612E-03  3703   0.936E-02    0.341E-01
RMM:   4    -0.192048032612E+03    0.10330E-02   -0.63556E-04  3687   0.421E-02    0.142E-01
RMM:   5    -0.192047918300E+03    0.11431E-03   -0.25299E-04  3682   0.262E-02    0.972E-02
RMM:   6    -0.192047996437E+03   -0.78137E-04   -0.48613E-04  3681   0.341E-02    0.117E-01
RMM:   7    -0.192047888975E+03    0.10746E-03   -0.36640E-04  3685   0.297E-02    0.450E-02
RMM:   8    -0.192047876731E+03    0.12244E-04   -0.41520E-05  3684   0.104E-02    0.345E-02
RMM:   9    -0.192047862203E+03    0.14528E-04   -0.14797E-05  3672   0.616E-03    0.154E-02
RMM:  10    -0.192047860091E+03    0.21119E-05   -0.47226E-06  2834   0.342E-03    0.105E-02
RMM:  11    -0.192047858943E+03    0.11480E-05   -0.29941E-06  2244   0.287E-03    0.644E-03
RMM:  12    -0.192047858631E+03    0.31247E-06   -0.33863E-06  2388   0.304E-03
  12 F= -.19204786E+03 E0= -.19193231E+03  d E =-.331100E-02
       N       E                     dE             d eps       ncg     rms          rms(c)
DAV:   1    -0.192047675284E+03    0.18366E-03   -0.30230E-01  3720   0.847E-01    0.569E-02
RMM:   2    -0.192048075342E+03   -0.40006E-03   -0.36058E-03  3686   0.125E-01    0.926E-02
RMM:   3    -0.192048070423E+03    0.49183E-05   -0.25692E-04  3703   0.263E-02    0.910E-02
RMM:   4    -0.192047999980E+03    0.70443E-04   -0.48560E-05  3688   0.117E-02    0.401E-02
RMM:   5    -0.192047992793E+03    0.71873E-05   -0.20052E-05  3676   0.739E-03    0.279E-02
RMM:   6    -0.192048001577E+03   -0.87841E-05   -0.39963E-05  3677   0.979E-03    0.336E-02
RMM:   7    -0.192047992787E+03    0.87897E-05   -0.30621E-05  3681   0.860E-03    0.124E-02
RMM:   8    -0.192047991732E+03    0.10549E-05   -0.30509E-06  2503   0.291E-03    0.940E-03
RMM:   9    -0.192047990710E+03    0.10223E-05   -0.11635E-06  1974   0.196E-03    0.462E-03
RMM:  10    -0.192047990574E+03    0.13637E-06   -0.51177E-07  1932   0.125E-03
  13 F= -.19204799E+03 E0= -.19193252E+03  d E =-.344295E-02
       N       E                     dE             d eps       ncg     rms          rms(c)
DAV:   1    -0.192047436465E+03    0.55425E-03   -0.17342E+00  3672   0.203E+00    0.131E-01
RMM:   2    -0.192049632302E+03   -0.21958E-02   -0.20302E-02  3685   0.299E-01    0.198E-01
RMM:   3    -0.192049800740E+03   -0.16844E-03   -0.14471E-03  3702   0.625E-02    0.241E-01
RMM:   4    -0.192049285956E+03    0.51478E-03   -0.26567E-04  3687   0.273E-02    0.932E-02
RMM:   5    -0.192049246721E+03    0.39235E-04   -0.96266E-05  3683   0.163E-02    0.657E-02
RMM:   6    -0.192049277758E+03   -0.31037E-04   -0.19264E-04  3682   0.216E-02    0.762E-02
RMM:   7    -0.192049238517E+03    0.39241E-04   -0.16835E-04  3685   0.202E-02    0.308E-02
RMM:   8    -0.192049234440E+03    0.40771E-05   -0.22065E-05  3673   0.753E-03    0.229E-02
RMM:   9    -0.192049227875E+03    0.65650E-05   -0.62268E-06  3096   0.404E-03    0.100E-02
RMM:  10    -0.192049227056E+03    0.81911E-06   -0.19744E-06  2006   0.239E-03
  14 F= -.19204923E+03 E0= -.19193388E+03  d E =-.123648E-02
       N       E                     dE             d eps       ncg     rms          rms(c)
DAV:   1    -0.192049114391E+03    0.11348E-03   -0.12599E-01  3744   0.547E-01    0.367E-02
RMM:   2    -0.192049282788E+03   -0.16840E-03   -0.15186E-03  3686   0.813E-02    0.611E-02
RMM:   3    -0.192049284450E+03   -0.16624E-05   -0.11235E-04  3702   0.173E-02    0.654E-02
RMM:   4    -0.192049248646E+03    0.35804E-04   -0.20968E-05  3683   0.770E-03    0.259E-02
RMM:   5    -0.192049246280E+03    0.23656E-05   -0.76247E-06  3237   0.463E-03    0.177E-02
RMM:   6    -0.192049249266E+03   -0.29857E-05   -0.12513E-05  3665   0.557E-03    0.194E-02
RMM:   7    -0.192049246931E+03    0.23351E-05   -0.11702E-05  3661   0.534E-03    0.766E-03
RMM:   8    -0.192049246747E+03    0.18412E-06   -0.13019E-06  2019   0.195E-03
  15 F= -.19204925E+03 E0= -.19193393E+03  d E =-.125617E-02
       N       E                     dE             d eps       ncg     rms          rms(c)
DAV:   1    -0.192048722273E+03    0.52466E-03   -0.11913E+00  3672   0.168E+00    0.108E-01
RMM:   2    -0.192050248832E+03   -0.15266E-02   -0.13792E-02  3687   0.247E-01    0.170E-01
RMM:   3    -0.192050315454E+03   -0.66622E-04   -0.98816E-04  3705   0.519E-02    0.195E-01
RMM:   4    -0.192049971127E+03    0.34433E-03   -0.16557E-04  3687   0.219E-02    0.717E-02
RMM:   5    -0.192049953495E+03    0.17633E-04   -0.63049E-05  3682   0.133E-02    0.551E-02
RMM:   6    -0.192049971937E+03   -0.18442E-04   -0.14927E-04  3684   0.189E-02    0.618E-02
RMM:   7    -0.192049944540E+03    0.27397E-04   -0.98860E-05  3686   0.155E-02    0.249E-02
RMM:   8    -0.192049942507E+03    0.20336E-05   -0.13948E-05  3605   0.597E-03    0.181E-02
RMM:   9    -0.192049938674E+03    0.38330E-05   -0.35446E-06  2614   0.309E-03    0.894E-03
RMM:  10    -0.192049937958E+03    0.71619E-06   -0.15673E-06  1955   0.218E-03
  16 F= -.19204994E+03 E0= -.19193471E+03  d E =-.691211E-03
       N       E                     dE             d eps       ncg     rms          rms(c)
DAV:   1    -0.192049874422E+03    0.64252E-04   -0.87254E-02  3732   0.455E-01    0.304E-02
RMM:   2    -0.192049993687E+03   -0.11927E-03   -0.10390E-03  3687   0.676E-02    0.533E-02
RMM:   3    -0.192049989396E+03    0.42910E-05   -0.77583E-05  3704   0.145E-02    0.528E-02
RMM:   4    -0.192049965883E+03    0.23513E-04   -0.13495E-05  3680   0.624E-03    0.208E-02
RMM:   5    -0.192049964460E+03    0.14225E-05   -0.47346E-06  2827   0.372E-03    0.148E-02
RMM:   6    -0.192049966509E+03   -0.20491E-05   -0.99915E-06  3655   0.500E-03    0.167E-02
RMM:   7    -0.192049964334E+03    0.21755E-05   -0.77312E-06  3366   0.438E-03    0.573E-03
RMM:   8    -0.192049964285E+03    0.48531E-07   -0.87143E-07  1948   0.166E-03
  17 F= -.19204996E+03 E0= -.19193476E+03  d E =-.717539E-03
       N       E                     dE             d eps       ncg     rms          rms(c)
DAV:   1    -0.192049701581E+03    0.26275E-03   -0.49927E-01  3672   0.109E+00    0.708E-02
RMM:   2    -0.192050306717E+03   -0.60514E-03   -0.58662E-03  3686   0.161E-01    0.950E-02
RMM:   3    -0.192050396865E+03   -0.90148E-04   -0.41346E-04  3707   0.335E-02    0.134E-01
RMM:   4    -0.192050223880E+03    0.17298E-03   -0.73570E-05  3686   0.145E-02    0.431E-02
RMM:   5    -0.192050221414E+03    0.24661E-05   -0.27618E-05  3682   0.870E-03    0.347E-02
RMM:   6    -0.192050227077E+03   -0.56631E-05   -0.62745E-05  3685   0.123E-02    0.378E-02
RMM:   7    -0.192050215753E+03    0.11325E-04   -0.37683E-05  3682   0.961E-03    0.152E-02
RMM:   8    -0.192050214864E+03    0.88890E-06   -0.53110E-06  2858   0.373E-03
  18 F= -.19205021E+03 E0= -.19193507E+03  d E =-.250578E-03
