<?xml version="1.0" encoding="ISO-8859-1"?>
<modeling>
 <generator>
  <i name="program" type="string">vasp </i>
  <i name="version" type="string">5.4.1  </i>
  <i name="subversion" type="string">24Jun15 (build Mar 14 2019 10:18:33) complex                          parallel </i>
  <i name="platform" type="string">INTEL-19.0.2+OPENMPI-3.1.3 </i>
  <i name="date" type="string">2023 01 30 </i>
  <i name="time" type="string">23:54:32 </i>
 </generator>
 <incar>
  <i type="int" name="ISTART">     0</i>
  <i type="string" name="PREC">normal</i>
  <i type="string" name="ALGO"> Fast</i>
  <i type="int" name="NELM">   500</i>
  <i type="int" name="IBRION">     2</i>
  <i type="int" name="NFREE">     2</i>
  <i name="EDIFF">      0.00000100</i>
  <i name="EDIFFG">     -0.02000000</i>
  <i type="int" name="NSW">   500</i>
  <i type="int" name="ISIF">     0</i>
  <i type="int" name="ISYM">     2</i>
  <i name="ENCUT">    400.00000000</i>
  <i name="POTIM">      0.35000000</i>
  <i type="string" name="LREAL"> Auto</i>
  <i type="logical" name="LPLANE"> T  </i>
  <i type="int" name="ISMEAR">     0</i>
  <i name="SIGMA">      0.10000000</i>
  <i type="int" name="NWRITE">     1</i>
  <i type="logical" name="LWAVE"> F  </i>
  <i type="logical" name="LCHARG"> F  </i>
  <i type="logical" name="LVTOT"> F  </i>
  <i type="logical" name="LORBIT"> F  </i>
  <i type="logical" name="LAECHG"> F  </i>
  <v type="int" name="KPOINT_BSE">    -1     0     0     0</v>
  <i type="int" name="NELM">   500</i>
  <i type="string" name="GGA"> PE          ! optPBE-vdW XC-functional</i>
  <i type="int" name="VOSKOWN">     1</i>
  <i type="logical" name="LDIPOL"> T  </i>
  <i type="logical" name="LMONO"> F  </i>
  <i type="int" name="IDIPOL">     3</i>
  <v name="DIPOL">      0.00000000      0.00000000      0.50000000</v>
 </incar>
 <kpoints>
  <generation param="Monkhorst-Pack">
   <v type="int" name="divisions">       2        2        1 </v>
   <v name="usershift">      0.00000000       0.00000000       0.00000000 </v>
   <v name="genvec1">      0.50000000      -0.00000000       0.00000000 </v>
   <v name="genvec2">      0.00000000       0.50000000       0.00000000 </v>
   <v name="genvec3">      0.00000000       0.00000000       1.00000000 </v>
   <v name="shift">      0.50000000       0.50000000       0.00000000 </v>
  </generation>
  <varray name="kpointlist" >
   <v>       0.25000000       0.25000000       0.00000000 </v>
   <v>       0.00000000       0.25000000       0.00000000 </v>
   <v>      -0.25000000       0.00000000       0.00000000 </v>
   <v>      -0.25000000       0.25000000       0.00000000 </v>
   <v>       0.50000000      -0.25000000       0.00000000 </v>
   <v>      -0.25000000       0.50000000       0.00000000 </v>
  </varray>
  <varray name="weights" >
   <v>       0.16666667 </v>
   <v>       0.16666667 </v>
   <v>       0.16666667 </v>
   <v>       0.16666667 </v>
   <v>       0.16666667 </v>
   <v>       0.16666667 </v>
  </varray>
 </kpoints>
 <parameters>
  <separator name="general" >
   <i type="string" name="SYSTEM">unknown system</i>
   <i type="logical" name="LCOMPAT"> F  </i>
  </separator>
  <separator name="electronic" >
   <i type="string" name="PREC">normal</i>
   <i name="ENMAX">    400.00000000</i>
   <i name="ENAUG">    416.23000000</i>
   <i name="EDIFF">      0.00000100</i>
   <i type="int" name="IALGO">    68</i>
   <i type="int" name="IWAVPR">    11</i>
   <i type="int" name="NBANDS">   306</i>
   <i name="NELECT">    504.00000000</i>
   <i type="int" name="TURBO">     0</i>
   <i type="int" name="IRESTART">     0</i>
   <i type="int" name="NREBOOT">     0</i>
   <i type="int" name="NMIN">     0</i>
   <i name="EREF">      0.00000000</i>
   <separator name="electronic smearing" >
    <i type="int" name="ISMEAR">     0</i>
    <i name="SIGMA">      0.10000000</i>
    <i name="KSPACING">      0.50000000</i>
    <i type="logical" name="KGAMMA"> T  </i>
   </separator>
   <separator name="electronic projectors" >
    <i type="logical" name="LREAL"> T  </i>
    <v name="ROPT">     -0.00050000     -0.00050000</v>
    <i type="int" name="LMAXPAW">  -100</i>
    <i type="int" name="LMAXMIX">     2</i>
    <i type="logical" name="NLSPLINE"> F  </i>
   </separator>
   <separator name="electronic startup" >
    <i type="int" name="ISTART">     0</i>
    <i type="int" name="ICHARG">     2</i>
    <i type="int" name="INIWAV">     1</i>
   </separator>
   <separator name="electronic spin" >
    <i type="int" name="ISPIN">     1</i>
    <i type="logical" name="LNONCOLLINEAR"> F  </i>
    <v name="MAGMOM">      1.00000000      1.00000000      1.00000000      1.00000000      1.00000000      1.00000000      1.00000000      1.00000000      1.00000000      1.00000000      1.00000000      1.00000000      1.00000000      1.00000000      1.00000000      1.00000000      1.00000000      1.00000000      1.00000000      1.00000000
      1.00000000      1.00000000      1.00000000      1.00000000      1.00000000      1.00000000      1.00000000      1.00000000      1.00000000      1.00000000      1.00000000      1.00000000      1.00000000      1.00000000      1.00000000      1.00000000      1.00000000      1.00000000      1.00000000      1.00000000
      1.00000000      1.00000000      1.00000000      1.00000000      1.00000000      1.00000000      1.00000000      1.00000000</v>
    <i name="NUPDOWN">     -1.00000000</i>
    <i type="logical" name="LSORBIT"> F  </i>
    <v name="SAXIS">      0.00000000      0.00000000      1.00000000</v>
    <i type="logical" name="LSPIRAL"> F  </i>
    <v name="QSPIRAL">      0.00000000      0.00000000      0.00000000</v>
    <i type="logical" name="LZEROZ"> F  </i>
   </separator>
   <separator name="electronic exchange-correlation" >
    <i type="logical" name="LASPH"> F  </i>
    <i type="logical" name="LMETAGGA"> F  </i>
   </separator>
   <separator name="electronic convergence" >
    <i type="int" name="NELM">   500</i>
    <i type="int" name="NELMDL">    -5</i>
    <i type="int" name="NELMIN">     2</i>
    <i name="ENINI">    400.00000000</i>
    <separator name="electronic convergence detail" >
     <i type="logical" name="LDIAG"> T  </i>
     <i type="logical" name="LSUBROT"> F  </i>
     <i name="WEIMIN">      0.00100000</i>
     <i name="EBREAK">      0.00000000</i>
     <i name="DEPER">      0.30000000</i>
     <i type="int" name="NRMM">     4</i>
     <i name="TIME">      0.40000000</i>
    </separator>
   </separator>
   <separator name="electronic mixer" >
    <i name="AMIX">      0.40000000</i>
    <i name="BMIX">      1.00000000</i>
    <i name="AMIN">      0.10000000</i>
    <i name="AMIX_MAG">      1.60000000</i>
    <i name="BMIX_MAG">      1.00000000</i>
    <separator name="electronic mixer details" >
     <i type="int" name="IMIX">     4</i>
     <i type="logical" name="MIXFIRST"> F  </i>
     <i type="int" name="MAXMIX">   -45</i>
     <i name="WC">    100.00000000</i>
     <i type="int" name="INIMIX">     1</i>
     <i type="int" name="MIXPRE">     1</i>
     <i type="int" name="MREMOVE">     5</i>
    </separator>
   </separator>
   <separator name="electronic dipolcorrection" >
    <i type="logical" name="LDIPOL"> T  </i>
    <i type="logical" name="LMONO"> F  </i>
    <i type="int" name="IDIPOL">     3</i>
    <i name="EPSILON">      1.00000000</i>
    <v name="DIPOL">      0.00000000      0.00000000      0.50000000</v>
    <i name="EFIELD">      0.00000000</i>
   </separator>
  </separator>
  <separator name="grids" >
   <i type="int" name="NGX">    54</i>
   <i type="int" name="NGY">    54</i>
   <i type="int" name="NGZ">   120</i>
   <i type="int" name="NGXF">   108</i>
   <i type="int" name="NGYF">   108</i>
   <i type="int" name="NGZF">   240</i>
   <i type="logical" name="ADDGRID"> F  </i>
  </separator>
  <separator name="ionic" >
   <i type="int" name="NSW">   500</i>
   <i type="int" name="IBRION">     2</i>
   <i type="int" name="ISIF">     0</i>
   <i name="PSTRESS">      0.00000000</i>
   <i name="EDIFFG">     -0.02000000</i>
   <i type="int" name="NFREE">     2</i>
   <i name="POTIM">      0.35000000</i>
   <i name="SMASS">     -3.00000000</i>
   <i name="SCALEE">      1.00000000</i>
  </separator>
  <separator name="ionic md" >
   <i name="TEBEG">      0.00010000</i>
   <i name="TEEND">      0.00010000</i>
   <i type="int" name="NBLOCK">     1</i>
   <i type="int" name="KBLOCK">   500</i>
   <i type="int" name="NPACO">   256</i>
   <i name="APACO">     16.00000000</i>
  </separator>
  <separator name="symmetry" >
   <i type="int" name="ISYM">     2</i>
   <i name="SYMPREC">      0.00001000</i>
  </separator>
  <separator name="dos" >
   <i type="logical" name="LORBIT"> F  </i>
   <v name="RWIGS">     -1.00000000     -1.00000000</v>
   <i type="int" name="NEDOS">   301</i>
   <i name="EMIN">     10.00000000</i>
   <i name="EMAX">    -10.00000000</i>
   <i name="EFERMI">      0.00000000</i>
  </separator>
  <separator name="writing" >
   <i type="int" name="NWRITE">     1</i>
   <i type="logical" name="LWAVE"> F  </i>
   <i type="logical" name="LCHARG"> F  </i>
   <i type="logical" name="LPARD"> F  </i>
   <i type="logical" name="LVTOT"> F  </i>
   <i type="logical" name="LVHAR"> F  </i>
   <i type="logical" name="LELF"> F  </i>
   <i type="logical" name="LOPTICS"> F  </i>
   <v name="STM">      0.00000000      0.00000000      0.00000000      0.00000000      0.00000000      0.00000000      0.00000000</v>
  </separator>
  <separator name="performance" >
   <i type="int" name="NPAR">     6</i>
   <i type="int" name="NSIM">     4</i>
   <i type="int" name="NBLK">    -1</i>
   <i type="logical" name="LPLANE"> T  </i>
   <i type="logical" name="LSCALAPACK"> T  </i>
   <i type="logical" name="LSCAAWARE"> F  </i>
   <i type="logical" name="LSCALU"> F  </i>
   <i type="logical" name="LASYNC"> F  </i>
   <i type="logical" name="LORBITALREAL"> F  </i>
  </separator>
  <separator name="miscellaneous" >
   <i type="int" name="IDIOT">     3</i>
   <i type="logical" name="LMUSIC"> F  </i>
   <v name="POMASS">    196.96600000    106.42000000</v>
   <v name="DARWINR">      0.00000000      0.00000000</v>
   <v name="DARWINV">      1.00000000      1.00000000</v>
   <i type="logical" name="LCORR"> T  </i>
  </separator>
  <i type="logical" name="GGA_COMPAT"> T  </i>
  <i type="logical" name="LBERRY"> F  </i>
  <i type="int" name="ICORELEVEL">     0</i>
  <i type="logical" name="LDAU"> F  </i>
  <i type="int" name="I_CONSTRAINED_M">     0</i>
  <separator name="electronic exchange-correlation" >
   <i type="string" name="GGA">PE</i>
   <i type="int" name="VOSKOWN">     1</i>
   <i type="logical" name="LHFCALC"> F  </i>
   <i type="string" name="PRECFOCK"></i>
   <i type="logical" name="LSYMGRAD"> F  </i>
   <i type="logical" name="LHFONE"> F  </i>
   <i type="logical" name="LRHFCALC"> F  </i>
   <i type="logical" name="LTHOMAS"> F  </i>
   <i type="logical" name="LMODELHF"> F  </i>
   <i name="ENCUT4O">     -1.00000000</i>
   <i type="int" name="EXXOEP">     0</i>
   <i type="int" name="FOURORBIT">     0</i>
   <i name="AEXX">      0.00000000</i>
   <i name="HFALPHA">      0.00000000</i>
   <i name="MCALPHA">      0.00000000</i>
   <i name="ALDAX">      1.00000000</i>
   <i name="AGGAX">      1.00000000</i>
   <i name="ALDAC">      1.00000000</i>
   <i name="AGGAC">      1.00000000</i>
   <i type="int" name="NKREDX">     1</i>
   <i type="int" name="NKREDY">     1</i>
   <i type="int" name="NKREDZ">     1</i>
   <i type="logical" name="SHIFTRED"> F  </i>
   <i type="logical" name="ODDONLY"> F  </i>
   <i type="logical" name="EVENONLY"> F  </i>
   <i type="int" name="LMAXFOCK">     0</i>
   <i type="int" name="NMAXFOCKAE">     0</i>
   <i type="logical" name="LFOCKAEDFT"> F  </i>
   <i name="HFSCREEN">      0.00000000</i>
   <i name="HFSCREENC">      0.00000000</i>
   <i type="int" name="NBANDSGWLOW">     0</i>
  </separator>
  <separator name="vdW DFT" >
   <i type="logical" name="LUSE_VDW"> F  </i>
   <i name="Zab_VDW">     -0.84910000</i>
   <i name="PARAM1">      0.12340000</i>
   <i name="PARAM2">      1.00000000</i>
   <i name="PARAM3">      0.00000000</i>
  </separator>
  <separator name="model GW" >
   <i type="int" name="MODEL_GW">     0</i>
   <i name="MODEL_EPS0">     32.09595293</i>
   <i name="MODEL_ALPHA">      1.00000000</i>
  </separator>
  <separator name="linear response parameters" >
   <i type="logical" name="LEPSILON"> F  </i>
   <i type="logical" name="LRPA"> F  </i>
   <i type="logical" name="LNABLA"> F  </i>
   <i type="logical" name="LVEL"> F  </i>
   <i type="int" name="KINTER">     0</i>
   <i name="CSHIFT">      0.10000000</i>
   <i name="OMEGAMAX">     -1.00000000</i>
   <i name="DEG_THRESHOLD">      0.00200000</i>
  </separator>
  <separator name="orbital magnetization" >
   <i type="logical" name="NUCIND"> F  </i>
   <v name="MAGPOS">      0.00000000      0.00000000      0.00000000</v>
   <i type="logical" name="LNICSALL"> T  </i>
   <i type="logical" name="ORBITALMAG"> F  </i>
   <i type="logical" name="LMAGBLOCH"> F  </i>
   <i type="logical" name="LCHIMAG"> F  </i>
   <i type="logical" name="LGAUGE"> T  </i>
   <i type="int" name="MAGATOM">     0</i>
   <v name="MAGDIPOL">      0.00000000      0.00000000      0.00000000</v>
   <v name="AVECCONST">      0.00000000      0.00000000      0.00000000</v>
  </separator>
  <separator name="response functions" >
   <i type="logical" name="LADDER"> F  </i>
   <i type="logical" name="LFXC"> F  </i>
   <i type="logical" name="LHARTREE"> T  </i>
   <i type="int" name="IBSE">     0</i>
   <v type="int" name="KPOINT">    -1     0     0     0</v>
   <i type="logical" name="LTCTE"> F  </i>
   <i type="logical" name="LTETE"> F  </i>
   <i type="logical" name="LTRIPLET"> F  </i>
   <i type="logical" name="LFXCEPS"> F  </i>
   <i type="logical" name="LFXHEG"> F  </i>
   <i type="int" name="NATURALO">     0</i>
   <i type="logical" name="L2ORDER"> F  </i>
   <i type="logical" name="LUSEW"> F  </i>
   <i name="ENCUTGW">     -2.00000000</i>
   <i name="ENCUTGWSOFT">     -2.00000000</i>
   <i name="ENCUTLF">     -1.00000000</i>
   <i type="int" name="LMAXMP2">    -1</i>
   <i name="SCISSOR">      0.00000000</i>
   <i type="int" name="NOMEGA">     0</i>
   <i type="int" name="NOMEGAR">     0</i>
   <i type="int" name="NBANDSGW">    -1</i>
   <i type="int" name="NBANDSO">    -1</i>
   <i type="int" name="NBANDSV">    -1</i>
   <i type="int" name="NELM">   500</i>
   <i type="int" name="NELMHF">     1</i>
   <i type="int" name="DIM">     3</i>
   <i type="int" name="ANTIRES">     0</i>
   <i name="OMEGAMAX">    -30.00000000</i>
   <i name="OMEGAMIN">    -30.00000000</i>
   <i name="OMEGATL">   -200.00000000</i>
   <i type="int" name="OMEGAGRID">     0</i>
   <i name="CSHIFT">     -0.10000000</i>
   <i type="logical" name="SELFENERGY"> F  </i>
   <i type="logical" name="LSPECTRAL"> F  </i>
   <i type="logical" name="LSPECTRALGW"> F  </i>
   <i type="logical" name="LSINGLES"> F  </i>
   <i type="logical" name="LFERMIGW"> F  </i>
   <i type="logical" name="ODDONLYGW"> F  </i>
   <i type="logical" name="EVENONLYGW"> F  </i>
   <i type="int" name="NKREDLFX">     1</i>
   <i type="int" name="NKREDLFY">     1</i>
   <i type="int" name="NKREDLFZ">     1</i>
   <i type="int" name="MAXMEM">  1800</i>
   <i type="int" name="TELESCOPE">     0</i>
   <i type="int" name="TAUPAR">     1</i>
   <i type="int" name="OMEGAPAR">    -1</i>
   <i name="LAMBDA">      1.00000000</i>
  </separator>
  <separator name="External order field" >
   <i name="OFIELD_KAPPA">      0.00000000</i>
   <v name="OFIELD_K">      0.00000000      0.00000000      0.00000000</v>
   <i name="OFIELD_Q6_NEAR">      0.00000000</i>
   <i name="OFIELD_Q6_FAR">      0.00000000</i>
   <i name="OFIELD_A">      0.00000000</i>
  </separator>
 </parameters>
 <atominfo>
  <atoms>      48 </atoms>
  <types>       2 </types>
  <array name="atoms" >
   <dimension dim="1">ion</dimension>
   <field type="string">element</field>
   <field type="int">atomtype</field>
   <set>
    <rc><c>Au</c><c>   1</c></rc>
    <rc><c>Au</c><c>   1</c></rc>
    <rc><c>Au</c><c>   1</c></rc>
    <rc><c>Au</c><c>   1</c></rc>
    <rc><c>Au</c><c>   1</c></rc>
    <rc><c>Au</c><c>   1</c></rc>
    <rc><c>Au</c><c>   1</c></rc>
    <rc><c>Au</c><c>   1</c></rc>
    <rc><c>Au</c><c>   1</c></rc>
    <rc><c>Au</c><c>   1</c></rc>
    <rc><c>Au</c><c>   1</c></rc>
    <rc><c>Au</c><c>   1</c></rc>
    <rc><c>Au</c><c>   1</c></rc>
    <rc><c>Au</c><c>   1</c></rc>
    <rc><c>Au</c><c>   1</c></rc>
    <rc><c>Au</c><c>   1</c></rc>
    <rc><c>Au</c><c>   1</c></rc>
    <rc><c>Au</c><c>   1</c></rc>
    <rc><c>Au</c><c>   1</c></rc>
    <rc><c>Au</c><c>   1</c></rc>
    <rc><c>Au</c><c>   1</c></rc>
    <rc><c>Au</c><c>   1</c></rc>
    <rc><c>Au</c><c>   1</c></rc>
    <rc><c>Au</c><c>   1</c></rc>
    <rc><c>Pd</c><c>   2</c></rc>
    <rc><c>Pd</c><c>   2</c></rc>
    <rc><c>Pd</c><c>   2</c></rc>
    <rc><c>Pd</c><c>   2</c></rc>
    <rc><c>Pd</c><c>   2</c></rc>
    <rc><c>Pd</c><c>   2</c></rc>
    <rc><c>Pd</c><c>   2</c></rc>
    <rc><c>Pd</c><c>   2</c></rc>
    <rc><c>Pd</c><c>   2</c></rc>
    <rc><c>Pd</c><c>   2</c></rc>
    <rc><c>Pd</c><c>   2</c></rc>
    <rc><c>Pd</c><c>   2</c></rc>
    <rc><c>Pd</c><c>   2</c></rc>
    <rc><c>Pd</c><c>   2</c></rc>
    <rc><c>Pd</c><c>   2</c></rc>
    <rc><c>Pd</c><c>   2</c></rc>
    <rc><c>Pd</c><c>   2</c></rc>
    <rc><c>Pd</c><c>   2</c></rc>
    <rc><c>Pd</c><c>   2</c></rc>
    <rc><c>Pd</c><c>   2</c></rc>
    <rc><c>Pd</c><c>   2</c></rc>
    <rc><c>Pd</c><c>   2</c></rc>
    <rc><c>Pd</c><c>   2</c></rc>
    <rc><c>Pd</c><c>   2</c></rc>
   </set>
  </array>
  <array name="atomtypes" >
   <dimension dim="1">type</dimension>
   <field type="int">atomspertype</field>
   <field type="string">element</field>
   <field>mass</field>
   <field>valence</field>
   <field type="string">pseudopotential</field>
   <set>
    <rc><c>  24</c><c>Au</c><c>    196.96600000</c><c>     11.00000000</c><c>  PAW_PBE Au 04Oct2007                  </c></rc>
    <rc><c>  24</c><c>Pd</c><c>    106.42000000</c><c>     10.00000000</c><c>  PAW_PBE Pd 04Jan2005                  </c></rc>
   </set>
  </array>
 </atominfo>
 <structure name="initialpos" >
  <crystal>
   <varray name="basis" >
    <v>      11.00258152       0.00000000       0.00000000 </v>
    <v>       5.50129076       9.52851510       0.00000000 </v>
    <v>       0.00000000       0.00000000      24.49178509 </v>
   </varray>
   <i name="volume">   2567.67623402 </i>
   <varray name="rec_basis" >
    <v>       0.09088776      -0.05247407       0.00000000 </v>
    <v>       0.00000000       0.10494815       0.00000000 </v>
    <v>       0.00000000       0.00000000       0.04083002 </v>
   </varray>
  </crystal>
  <varray name="positions" >
   <v>       0.08333333       0.08333333       0.40830017 </v>
   <v>       0.08333333       0.33333333       0.40830017 </v>
   <v>       0.91666667       0.66666667       0.50000000 </v>
   <v>       0.08333333       0.83333333       0.40830017 </v>
   <v>       0.91666667       0.41666667       0.50000000 </v>
   <v>       0.33333333       0.33333333       0.40830017 </v>
   <v>       0.91666667       0.16666667       0.50000000 </v>
   <v>       0.16666667       0.16666667       0.50000000 </v>
   <v>       0.75000000       0.75000000       0.59169983 </v>
   <v>       0.16666667       0.41666667       0.50000000 </v>
   <v>       0.25000000       0.25000000       0.59169983 </v>
   <v>       0.25000000       0.50000000       0.59169983 </v>
   <v>       0.91666667       0.91666667       0.50000000 </v>
   <v>       0.50000000       0.00000000       0.59169983 </v>
   <v>       0.58333333       0.33333333       0.40830017 </v>
   <v>       0.41666667       0.66666667       0.50000000 </v>
   <v>       0.50000000       0.50000000       0.59169983 </v>
   <v>       0.41666667       0.91666667       0.50000000 </v>
   <v>       0.50000000       0.75000000       0.59169983 </v>
   <v>       0.66666667       0.16666667       0.50000000 </v>
   <v>       0.75000000       0.00000000       0.59169983 </v>
   <v>       0.83333333       0.33333333       0.40830017 </v>
   <v>       0.83333333       0.83333333       0.40830017 </v>
   <v>       0.58333333       0.08333333       0.40830017 </v>
   <v>       0.41666667       0.41666667       0.50000000 </v>
   <v>       0.41666667       0.16666667       0.50000000 </v>
   <v>       0.00000000       0.75000000       0.59169983 </v>
   <v>       0.66666667       0.91666667       0.50000000 </v>
   <v>       0.33333333       0.58333333       0.40830017 </v>
   <v>       0.33333333       0.83333333       0.40830017 </v>
   <v>       0.33333333       0.08333333       0.40830017 </v>
   <v>       0.16666667       0.66666667       0.50000000 </v>
   <v>       0.50000000       0.25000000       0.59169983 </v>
   <v>       0.16666667       0.91666667       0.50000000 </v>
   <v>       0.58333333       0.58333333       0.40830017 </v>
   <v>       0.66666667       0.66666667       0.50000000 </v>
   <v>       0.08333333       0.58333333       0.40830017 </v>
   <v>       0.66666667       0.41666667       0.50000000 </v>
   <v>       0.75000000       0.50000000       0.59169983 </v>
   <v>       0.83333333       0.58333333       0.40830017 </v>
   <v>       0.75000000       0.25000000       0.59169983 </v>
   <v>       0.00000000       0.00000000       0.59169983 </v>
   <v>       0.83333333       0.08333333       0.40830017 </v>
   <v>       0.00000000       0.25000000       0.59169983 </v>
   <v>       0.25000000       0.00000000       0.59169983 </v>
   <v>       0.58333333       0.83333333       0.40830017 </v>
   <v>       0.00000000       0.50000000       0.59169983 </v>
   <v>       0.25000000       0.75000000       0.59169983 </v>
  </varray>
  <varray name="selective"  type="logical" >
   <v type="logical" >  F  F  F </v>
   <v type="logical" >  F  F  F </v>
   <v type="logical" >  T  T  T </v>
   <v type="logical" >  F  F  F </v>
   <v type="logical" >  T  T  T </v>
   <v type="logical" >  F  F  F </v>
   <v type="logical" >  T  T  T </v>
   <v type="logical" >  T  T  T </v>
   <v type="logical" >  T  T  T </v>
   <v type="logical" >  T  T  T </v>
   <v type="logical" >  T  T  T </v>
   <v type="logical" >  T  T  T </v>
   <v type="logical" >  T  T  T </v>
   <v type="logical" >  T  T  T </v>
   <v type="logical" >  F  F  F </v>
   <v type="logical" >  T  T  T </v>
   <v type="logical" >  T  T  T </v>
   <v type="logical" >  T  T  T </v>
   <v type="logical" >  T  T  T </v>
   <v type="logical" >  T  T  T </v>
   <v type="logical" >  T  T  T </v>
   <v type="logical" >  F  F  F </v>
   <v type="logical" >  F  F  F </v>
   <v type="logical" >  F  F  F </v>
   <v type="logical" >  T  T  T </v>
   <v type="logical" >  T  T  T </v>
   <v type="logical" >  T  T  T </v>
   <v type="logical" >  T  T  T </v>
   <v type="logical" >  F  F  F </v>
   <v type="logical" >  F  F  F </v>
   <v type="logical" >  F  F  F </v>
   <v type="logical" >  T  T  T </v>
   <v type="logical" >  T  T  T </v>
   <v type="logical" >  T  T  T </v>
   <v type="logical" >  F  F  F </v>
   <v type="logical" >  T  T  T </v>
   <v type="logical" >  F  F  F </v>
   <v type="logical" >  T  T  T </v>
   <v type="logical" >  T  T  T </v>
   <v type="logical" >  F  F  F </v>
   <v type="logical" >  T  T  T </v>
   <v type="logical" >  T  T  T </v>
   <v type="logical" >  F  F  F </v>
   <v type="logical" >  T  T  T </v>
   <v type="logical" >  T  T  T </v>
   <v type="logical" >  F  F  F </v>
   <v type="logical" >  T  T  T </v>
   <v type="logical" >  T  T  T </v>
  </varray>
  <nose>
   <v>      -3.00000000       0.00000000       0.00010000       0.00010000 </v>
  </nose>
 </structure>
 <calculation>
  <scstep>
   <time name="dav">    7.17    7.19</time>
   <time name="total">    7.22    7.25</time>
   <dipole>
    <v name="dipole">      0.00000000       0.00000000       0.00000074 </v>
    <i name="Tr[quadrupol]"> -10257.98665110 </i>
    <i name="Echarged">      0.00000000 </i>
    <i name="Edipol_quadrupol">      0.00000000 </i>
    <i name="Eion">      0.00000000 </i>
   </dipole>
   <energy>
    <i name="alphaZ">    805.86936440 </i>
    <i name="ewald"> 200395.22218567 </i>
    <i name="hartreedc">-242810.21367653 </i>
    <i name="XCdc">   -327.56639816 </i>
    <i name="pawpsdc">  40340.05962942 </i>
    <i name="pawaedc"> -38292.62782345 </i>
    <i name="eentropy">     -0.13695385 </i>
    <i name="bandstr">   1429.83460797 </i>
    <i name="atom">  41659.78587232 </i>
    <i name="e_fr_energy">   3200.22680780 </i>
    <i name="e_wo_entrp">   3200.36376165 </i>
    <i name="e_0_energy">   3200.29528472 </i>
   </energy>
  </scstep>
  <scstep>
   <time name="dav">    8.44    8.55</time>
   <time name="total">    8.44    8.55</time>
   <dipole>
    <v name="dipole">      0.00000000       0.00000000       0.00000074 </v>
    <i name="Tr[quadrupol]"> -10257.98665110 </i>
    <i name="Echarged">      0.00000000 </i>
    <i name="Edipol_quadrupol">      0.00000000 </i>
    <i name="Eion">      0.00000000 </i>
   </dipole>
   <energy>
    <i name="e_fr_energy">     15.85932309 </i>
    <i name="e_wo_entrp">     16.00392675 </i>
    <i name="e_0_energy">     15.93162492 </i>
   </energy>
  </scstep>
  <scstep>
   <time name="dav">    8.12    8.22</time>
   <time name="total">    8.13    8.23</time>
   <dipole>
    <v name="dipole">      0.00000000       0.00000000       0.00000074 </v>
    <i name="Tr[quadrupol]"> -10257.98665110 </i>
    <i name="Echarged">      0.00000000 </i>
    <i name="Edipol_quadrupol">      0.00000000 </i>
    <i name="Eion">      0.00000000 </i>
   </dipole>
   <energy>
    <i name="e_fr_energy">   -199.79695853 </i>
    <i name="e_wo_entrp">   -199.58676808 </i>
    <i name="e_0_energy">   -199.69186330 </i>
   </energy>
  </scstep>
  <scstep>
   <time name="dav">    8.32    8.39</time>
   <time name="total">    8.33    8.40</time>
   <dipole>
    <v name="dipole">      0.00000000       0.00000000       0.00000074 </v>
    <i name="Tr[quadrupol]"> -10257.98665110 </i>
    <i name="Echarged">      0.00000000 </i>
    <i name="Edipol_quadrupol">      0.00000000 </i>
    <i name="Eion">      0.00000000 </i>
   </dipole>
   <energy>
    <i name="e_fr_energy">   -205.71218118 </i>
    <i name="e_wo_entrp">   -205.49370922 </i>
    <i name="e_0_energy">   -205.60294520 </i>
   </energy>
  </scstep>
  <scstep>
   <time name="dav">    8.57    8.60</time>
   <time name="total">    8.80    8.83</time>
   <dipole>
    <v name="dipole">      0.00000000       0.00000000       0.00000074 </v>
    <i name="Tr[quadrupol]"> -10257.98665110 </i>
    <i name="Echarged">      0.00000000 </i>
    <i name="Edipol_quadrupol">      0.00000000 </i>
    <i name="Eion">      0.00000000 </i>
   </dipole>
   <energy>
    <i name="e_fr_energy">   -205.90427798 </i>
    <i name="e_wo_entrp">   -205.68556299 </i>
    <i name="e_0_energy">   -205.79492049 </i>
   </energy>
  </scstep>
  <scstep>
   <time name="diag">    1.28    1.28</time>
   <time name="diis">    3.45    3.46</time>
   <time name="orth">    0.35    0.35</time>
   <time name="total">    5.35    5.37</time>
   <dipole>
    <v name="dipole">      0.00000000       0.00000000       0.34202729 </v>
    <i name="Tr[quadrupol]"> -10258.70553137 </i>
    <i name="Echarged">      0.00000000 </i>
    <i name="Edipol_quadrupol">      0.00000000 </i>
    <i name="Eion">      0.00000000 </i>
   </dipole>
   <energy>
    <i name="e_fr_energy">   -197.67797835 </i>
    <i name="e_wo_entrp">   -197.42585784 </i>
    <i name="e_0_energy">   -197.55191809 </i>
   </energy>
  </scstep>
  <scstep>
   <time name="diag">    1.29    1.29</time>
   <time name="diis">    3.43    3.44</time>
   <time name="orth">    0.35    0.35</time>
   <time name="total">    5.34    5.36</time>
   <dipole>
    <v name="dipole">      0.00000000       0.00000000      -0.79930847 </v>
    <i name="Tr[quadrupol]"> -10258.40277996 </i>
    <i name="Echarged">      0.00000000 </i>
    <i name="Edipol_quadrupol">      0.00000000 </i>
    <i name="Eion">      0.00000000 </i>
   </dipole>
   <energy>
    <i name="e_fr_energy">   -201.88078638 </i>
    <i name="e_wo_entrp">   -201.69915110 </i>
    <i name="e_0_energy">   -201.78996874 </i>
   </energy>
  </scstep>
  <scstep>
   <time name="diag">    1.28    1.28</time>
   <time name="diis">    3.31    3.52</time>
   <time name="orth">    0.35    0.35</time>
   <time name="total">    5.21    5.42</time>
   <dipole>
    <v name="dipole">      0.00000000       0.00000000       1.96502835 </v>
    <i name="Tr[quadrupol]"> -10259.97649411 </i>
    <i name="Echarged">      0.00000000 </i>
    <i name="Edipol_quadrupol">      0.00000000 </i>
    <i name="Eion">      0.00000000 </i>
   </dipole>
   <energy>
    <i name="e_fr_energy">   -224.09123527 </i>
    <i name="e_wo_entrp">   -223.76532357 </i>
    <i name="e_0_energy">   -223.92827942 </i>
   </energy>
  </scstep>
  <scstep>
   <time name="diag">    1.28    1.29</time>
   <time name="diis">    3.49    3.50</time>
   <time name="orth">    0.35    0.35</time>
   <time name="total">    5.39    5.41</time>
   <dipole>
    <v name="dipole">      0.00000000       0.00000000      -0.52555271 </v>
    <i name="Tr[quadrupol]"> -10260.91534214 </i>
    <i name="Echarged">      0.00000000 </i>
    <i name="Edipol_quadrupol">      0.00000000 </i>
    <i name="Eion">      0.00000000 </i>
   </dipole>
   <energy>
    <i name="e_fr_energy">   -209.84226660 </i>
    <i name="e_wo_entrp">   -209.61491198 </i>
    <i name="e_0_energy">   -209.72858929 </i>
   </energy>
  </scstep>
  <scstep>
   <time name="diag">    1.28    1.28</time>
   <time name="diis">    3.48    3.49</time>
   <time name="orth">    0.35    0.35</time>
   <time name="total">    5.37    5.39</time>
   <dipole>
    <v name="dipole">      0.00000000       0.00000000       0.38924661 </v>
    <i name="Tr[quadrupol]"> -10260.23983222 </i>
    <i name="Echarged">      0.00000000 </i>
    <i name="Edipol_quadrupol">      0.00000000 </i>
    <i name="Eion">      0.00000000 </i>
   </dipole>
   <energy>
    <i name="e_fr_energy">   -197.05067278 </i>
    <i name="e_wo_entrp">   -196.88991285 </i>
    <i name="e_0_energy">   -196.97029281 </i>
   </energy>
  </scstep>
  <scstep>
   <time name="diag">    1.28    1.28</time>
   <time name="diis">    3.47    3.47</time>
   <time name="orth">    0.35    0.35</time>
   <time name="total">    5.36    5.38</time>
   <dipole>
    <v name="dipole">      0.00000000       0.00000000       0.17030357 </v>
    <i name="Tr[quadrupol]"> -10260.28762136 </i>
    <i name="Echarged">      0.00000000 </i>
    <i name="Edipol_quadrupol">      0.00000000 </i>
    <i name="Eion">      0.00000000 </i>
   </dipole>
   <energy>
    <i name="e_fr_energy">   -192.40918437 </i>
    <i name="e_wo_entrp">   -192.19539566 </i>
    <i name="e_0_energy">   -192.30229001 </i>
   </energy>
  </scstep>
  <scstep>
   <time name="diag">    1.28    1.28</time>
   <time name="diis">    3.46    3.47</time>
   <time name="orth">    0.35    0.35</time>
   <time name="total">    5.36    5.37</time>
   <dipole>
    <v name="dipole">      0.00000000       0.00000000       0.09413454 </v>
    <i name="Tr[quadrupol]"> -10260.66269142 </i>
    <i name="Echarged">      0.00000000 </i>
    <i name="Edipol_quadrupol">      0.00000000 </i>
    <i name="Eion">      0.00000000 </i>
   </dipole>
   <energy>
    <i name="e_fr_energy">   -189.39643019 </i>
    <i name="e_wo_entrp">   -189.17765249 </i>
    <i name="e_0_energy">   -189.28704134 </i>
   </energy>
  </scstep>
  <scstep>
   <time name="diag">    1.28    1.28</time>
   <time name="diis">    3.44    3.45</time>
   <time name="orth">    0.35    0.35</time>
   <time name="total">    5.34    5.36</time>
   <dipole>
    <v name="dipole">      0.00000000       0.00000000       0.05534384 </v>
    <i name="Tr[quadrupol]"> -10261.00292904 </i>
    <i name="Echarged">      0.00000000 </i>
    <i name="Edipol_quadrupol">      0.00000000 </i>
    <i name="Eion">      0.00000000 </i>
   </dipole>
   <energy>
    <i name="e_fr_energy">   -188.96314109 </i>
    <i name="e_wo_entrp">   -188.73050886 </i>
    <i name="e_0_energy">   -188.84682497 </i>
   </energy>
  </scstep>
  <scstep>
   <time name="diag">    1.27    1.28</time>
   <time name="diis">    3.40    3.43</time>
   <time name="orth">    0.35    0.35</time>
   <time name="total">    5.29    5.33</time>
   <dipole>
    <v name="dipole">      0.00000000       0.00000000      -0.00678605 </v>
    <i name="Tr[quadrupol]"> -10261.15217362 </i>
    <i name="Echarged">      0.00000000 </i>
    <i name="Edipol_quadrupol">      0.00000000 </i>
    <i name="Eion">      0.00000000 </i>
   </dipole>
   <energy>
    <i name="e_fr_energy">   -188.89211755 </i>
    <i name="e_wo_entrp">   -188.66904156 </i>
    <i name="e_0_energy">   -188.78057956 </i>
   </energy>
  </scstep>
  <scstep>
   <time name="diag">    1.28    1.28</time>
   <time name="diis">    3.46    3.47</time>
   <time name="orth">    0.35    0.35</time>
   <time name="total">    5.36    5.38</time>
   <dipole>
    <v name="dipole">      0.00000000       0.00000000       0.00827846 </v>
    <i name="Tr[quadrupol]"> -10261.26016107 </i>
    <i name="Echarged">      0.00000000 </i>
    <i name="Edipol_quadrupol">      0.00000000 </i>
    <i name="Eion">      0.00000000 </i>
   </dipole>
   <energy>
    <i name="e_fr_energy">   -188.77954940 </i>
    <i name="e_wo_entrp">   -188.54526423 </i>
    <i name="e_0_energy">   -188.66240682 </i>
   </energy>
  </scstep>
  <scstep>
   <time name="diag">    1.28    1.28</time>
   <time name="diis">    3.32    3.52</time>
   <time name="orth">    0.35    0.35</time>
   <time name="total">    5.21    5.43</time>
   <dipole>
    <v name="dipole">      0.00000000       0.00000000       0.01256652 </v>
    <i name="Tr[quadrupol]"> -10261.63606992 </i>
    <i name="Echarged">      0.00000000 </i>
    <i name="Edipol_quadrupol">      0.00000000 </i>
    <i name="Eion">      0.00000000 </i>
   </dipole>
   <energy>
    <i name="e_fr_energy">   -188.66953598 </i>
    <i name="e_wo_entrp">   -188.41742620 </i>
    <i name="e_0_energy">   -188.54348109 </i>
   </energy>
  </scstep>
  <scstep>
   <time name="diag">    1.28    1.28</time>
   <time name="diis">    3.43    3.44</time>
   <time name="orth">    0.35    0.35</time>
   <time name="total">    5.32    5.34</time>
   <dipole>
    <v name="dipole">      0.00000000       0.00000000       0.00006120 </v>
    <i name="Tr[quadrupol]"> -10261.95036791 </i>
    <i name="Echarged">      0.00000000 </i>
    <i name="Edipol_quadrupol">      0.00000000 </i>
    <i name="Eion">      0.00000000 </i>
   </dipole>
   <energy>
    <i name="e_fr_energy">   -188.60453500 </i>
    <i name="e_wo_entrp">   -188.36374378 </i>
    <i name="e_0_energy">   -188.48413939 </i>
   </energy>
  </scstep>
  <scstep>
   <time name="diag">    1.27    1.28</time>
   <time name="diis">    3.46    3.47</time>
   <time name="orth">    0.36    0.36</time>
   <time name="total">    5.35    5.37</time>
   <dipole>
    <v name="dipole">      0.00000000       0.00000000      -0.00016460 </v>
    <i name="Tr[quadrupol]"> -10262.24210989 </i>
    <i name="Echarged">      0.00000000 </i>
    <i name="Edipol_quadrupol">      0.00000000 </i>
    <i name="Eion">      0.00000000 </i>
   </dipole>
   <energy>
    <i name="e_fr_energy">   -188.54268452 </i>
    <i name="e_wo_entrp">   -188.28962463 </i>
    <i name="e_0_energy">   -188.41615457 </i>
   </energy>
  </scstep>
  <scstep>
   <time name="diag">    1.28    1.28</time>
   <time name="diis">    3.50    3.51</time>
   <time name="orth">    0.35    0.35</time>
   <time name="total">    5.39    5.41</time>
   <dipole>
    <v name="dipole">      0.00000000       0.00000000       0.01129052 </v>
    <i name="Tr[quadrupol]"> -10262.33765993 </i>
    <i name="Echarged">      0.00000000 </i>
    <i name="Edipol_quadrupol">      0.00000000 </i>
    <i name="Eion">      0.00000000 </i>
   </dipole>
   <energy>
    <i name="e_fr_energy">   -188.52654310 </i>
    <i name="e_wo_entrp">   -188.28107272 </i>
    <i name="e_0_energy">   -188.40380791 </i>
   </energy>
  </scstep>
  <scstep>
   <time name="diag">    1.27    1.28</time>
   <time name="diis">    3.46    3.47</time>
   <time name="orth">    0.35    0.35</time>
   <time name="total">    5.35    5.36</time>
   <dipole>
    <v name="dipole">      0.00000000       0.00000000       0.01108497 </v>
    <i name="Tr[quadrupol]"> -10262.37198130 </i>
    <i name="Echarged">      0.00000000 </i>
    <i name="Edipol_quadrupol">      0.00000000 </i>
    <i name="Eion">      0.00000000 </i>
   </dipole>
   <energy>
    <i name="e_fr_energy">   -188.52322153 </i>
    <i name="e_wo_entrp">   -188.27599260 </i>
    <i name="e_0_energy">   -188.39960706 </i>
   </energy>
  </scstep>
  <scstep>
   <time name="diag">    1.28    1.28</time>
   <time name="diis">    3.44    3.45</time>
   <time name="orth">    0.35    0.35</time>
   <time name="total">    5.34    5.36</time>
   <dipole>
    <v name="dipole">      0.00000000       0.00000000       0.01278804 </v>
    <i name="Tr[quadrupol]"> -10262.45123090 </i>
    <i name="Echarged">      0.00000000 </i>
    <i name="Edipol_quadrupol">      0.00000000 </i>
    <i name="Eion">      0.00000000 </i>
   </dipole>
   <energy>
    <i name="e_fr_energy">   -188.52148849 </i>
    <i name="e_wo_entrp">   -188.27353882 </i>
    <i name="e_0_energy">   -188.39751365 </i>
   </energy>
  </scstep>
  <scstep>
   <time name="diag">    1.27    1.28</time>
   <time name="diis">    3.44    3.45</time>
   <time name="orth">    0.35    0.35</time>
   <time name="total">    5.33    5.35</time>
   <dipole>
    <v name="dipole">      0.00000000       0.00000000       0.00774062 </v>
    <i name="Tr[quadrupol]"> -10262.60079147 </i>
    <i name="Echarged">      0.00000000 </i>
    <i name="Edipol_quadrupol">      0.00000000 </i>
    <i name="Eion">      0.00000000 </i>
   </dipole>
   <energy>
    <i name="e_fr_energy">   -188.51926956 </i>
    <i name="e_wo_entrp">   -188.27076860 </i>
    <i name="e_0_energy">   -188.39501908 </i>
   </energy>
  </scstep>
  <scstep>
   <time name="diag">    1.28    1.28</time>
   <time name="diis">    3.37    3.48</time>
   <time name="orth">    0.34    0.40</time>
   <time name="total">    5.26    5.45</time>
   <dipole>
    <v name="dipole">      0.00000000       0.00000000       0.00691073 </v>
    <i name="Tr[quadrupol]"> -10262.74075983 </i>
    <i name="Echarged">      0.00000000 </i>
    <i name="Edipol_quadrupol">      0.00000000 </i>
    <i name="Eion">      0.00000000 </i>
   </dipole>
   <energy>
    <i name="e_fr_energy">   -188.51781753 </i>
    <i name="e_wo_entrp">   -188.26924658 </i>
    <i name="e_0_energy">   -188.39353205 </i>
   </energy>
  </scstep>
  <scstep>
   <time name="diag">    1.27    1.28</time>
   <time name="diis">    3.44    3.45</time>
   <time name="orth">    0.35    0.35</time>
   <time name="total">    5.35    5.36</time>
   <dipole>
    <v name="dipole">      0.00000000       0.00000000       0.01118621 </v>
    <i name="Tr[quadrupol]"> -10262.85199868 </i>
    <i name="Echarged">      0.00000000 </i>
    <i name="Edipol_quadrupol">      0.00000000 </i>
    <i name="Eion">      0.00000000 </i>
   </dipole>
   <energy>
    <i name="e_fr_energy">   -188.51727376 </i>
    <i name="e_wo_entrp">   -188.26824950 </i>
    <i name="e_0_energy">   -188.39276163 </i>
   </energy>
  </scstep>
  <scstep>
   <time name="diag">    1.28    1.28</time>
   <time name="diis">    3.41    3.44</time>
   <time name="orth">    0.35    0.35</time>
   <time name="total">    5.31    5.34</time>
   <dipole>
    <v name="dipole">      0.00000000       0.00000000       0.01165218 </v>
    <i name="Tr[quadrupol]"> -10262.92720719 </i>
    <i name="Echarged">      0.00000000 </i>
    <i name="Edipol_quadrupol">      0.00000000 </i>
    <i name="Eion">      0.00000000 </i>
   </dipole>
   <energy>
    <i name="e_fr_energy">   -188.51733833 </i>
    <i name="e_wo_entrp">   -188.26875740 </i>
    <i name="e_0_energy">   -188.39304787 </i>
   </energy>
  </scstep>
  <scstep>
   <time name="diag">    1.27    1.27</time>
   <time name="diis">    3.47    3.48</time>
   <time name="orth">    0.35    0.35</time>
   <time name="total">    5.35    5.37</time>
   <dipole>
    <v name="dipole">      0.00000000       0.00000000       0.01078417 </v>
    <i name="Tr[quadrupol]"> -10263.01511231 </i>
    <i name="Echarged">      0.00000000 </i>
    <i name="Edipol_quadrupol">      0.00000000 </i>
    <i name="Eion">      0.00000000 </i>
   </dipole>
   <energy>
    <i name="e_fr_energy">   -188.51762294 </i>
    <i name="e_wo_entrp">   -188.26860318 </i>
    <i name="e_0_energy">   -188.39311306 </i>
   </energy>
  </scstep>
  <scstep>
   <time name="diag">    1.27    1.28</time>
   <time name="diis">    3.46    3.47</time>
   <time name="orth">    0.35    0.35</time>
   <time name="total">    5.34    5.36</time>
   <dipole>
    <v name="dipole">      0.00000000       0.00000000       0.00973372 </v>
    <i name="Tr[quadrupol]"> -10263.08324614 </i>
    <i name="Echarged">      0.00000000 </i>
    <i name="Edipol_quadrupol">      0.00000000 </i>
    <i name="Eion">      0.00000000 </i>
   </dipole>
   <energy>
    <i name="e_fr_energy">   -188.51805006 </i>
    <i name="e_wo_entrp">   -188.26911150 </i>
    <i name="e_0_energy">   -188.39358078 </i>
   </energy>
  </scstep>
  <scstep>
   <time name="diag">    1.27    1.28</time>
   <time name="diis">    3.51    3.52</time>
   <time name="orth">    0.35    0.35</time>
   <time name="total">    5.39    5.41</time>
   <dipole>
    <v name="dipole">      0.00000000       0.00000000       0.00903092 </v>
    <i name="Tr[quadrupol]"> -10263.17113742 </i>
    <i name="Echarged">      0.00000000 </i>
    <i name="Edipol_quadrupol">      0.00000000 </i>
    <i name="Eion">      0.00000000 </i>
   </dipole>
   <energy>
    <i name="e_fr_energy">   -188.51861617 </i>
    <i name="e_wo_entrp">   -188.26961250 </i>
    <i name="e_0_energy">   -188.39411433 </i>
   </energy>
  </scstep>
  <scstep>
   <time name="diag">    1.28    1.28</time>
   <time name="diis">    3.37    3.38</time>
   <time name="orth">    0.34    0.36</time>
   <time name="total">    5.26    5.29</time>
   <dipole>
    <v name="dipole">      0.00000000       0.00000000       0.00855281 </v>
    <i name="Tr[quadrupol]"> -10263.20177228 </i>
    <i name="Echarged">      0.00000000 </i>
    <i name="Edipol_quadrupol">      0.00000000 </i>
    <i name="Eion">      0.00000000 </i>
   </dipole>
   <energy>
    <i name="e_fr_energy">   -188.51892918 </i>
    <i name="e_wo_entrp">   -188.26986494 </i>
    <i name="e_0_energy">   -188.39439706 </i>
   </energy>
  </scstep>
  <scstep>
   <time name="diag">    1.28    1.28</time>
   <time name="diis">    3.46    3.47</time>
   <time name="orth">    0.35    0.35</time>
   <time name="total">    5.35    5.37</time>
   <dipole>
    <v name="dipole">      0.00000000       0.00000000       0.00799177 </v>
    <i name="Tr[quadrupol]"> -10263.27345287 </i>
    <i name="Echarged">      0.00000000 </i>
    <i name="Edipol_quadrupol">      0.00000000 </i>
    <i name="Eion">      0.00000000 </i>
   </dipole>
   <energy>
    <i name="e_fr_energy">   -188.51966021 </i>
    <i name="e_wo_entrp">   -188.27068678 </i>
    <i name="e_0_energy">   -188.39517349 </i>
   </energy>
  </scstep>
  <scstep>
   <time name="diag">    1.27    1.28</time>
   <time name="diis">    3.17    3.38</time>
   <time name="orth">    0.34    0.35</time>
   <time name="total">    5.05    5.28</time>
   <dipole>
    <v name="dipole">      0.00000000       0.00000000       0.00721321 </v>
    <i name="Tr[quadrupol]"> -10263.32967009 </i>
    <i name="Echarged">      0.00000000 </i>
    <i name="Edipol_quadrupol">      0.00000000 </i>
    <i name="Eion">      0.00000000 </i>
   </dipole>
   <energy>
    <i name="e_fr_energy">   -188.52016275 </i>
    <i name="e_wo_entrp">   -188.27112916 </i>
    <i name="e_0_energy">   -188.39564595 </i>
   </energy>
  </scstep>
  <scstep>
   <time name="diag">    1.27    1.27</time>
   <time name="diis">    3.28    3.29</time>
   <time name="orth">    0.34    0.35</time>
   <time name="total">    5.17    5.18</time>
   <dipole>
    <v name="dipole">      0.00000000       0.00000000       0.00656163 </v>
    <i name="Tr[quadrupol]"> -10263.38786219 </i>
    <i name="Echarged">      0.00000000 </i>
    <i name="Edipol_quadrupol">      0.00000000 </i>
    <i name="Eion">      0.00000000 </i>
   </dipole>
   <energy>
    <i name="e_fr_energy">   -188.52058804 </i>
    <i name="e_wo_entrp">   -188.27152353 </i>
    <i name="e_0_energy">   -188.39605578 </i>
   </energy>
  </scstep>
  <scstep>
   <time name="diag">    1.27    1.28</time>
   <time name="diis">    2.62    2.62</time>
   <time name="orth">    0.34    0.35</time>
   <time name="total">    4.51    4.52</time>
   <dipole>
    <v name="dipole">      0.00000000       0.00000000       0.00624542 </v>
    <i name="Tr[quadrupol]"> -10263.40280136 </i>
    <i name="Echarged">      0.00000000 </i>
    <i name="Edipol_quadrupol">      0.00000000 </i>
    <i name="Eion">      0.00000000 </i>
   </dipole>
   <energy>
    <i name="e_fr_energy">   -188.52069141 </i>
    <i name="e_wo_entrp">   -188.27161433 </i>
    <i name="e_0_energy">   -188.39615287 </i>
   </energy>
  </scstep>
  <scstep>
   <time name="diag">    1.28    1.28</time>
   <time name="diis">    2.36    2.37</time>
   <time name="orth">    0.34    0.35</time>
   <time name="total">    4.25    4.26</time>
   <dipole>
    <v name="dipole">      0.00000000       0.00000000       0.00603085 </v>
    <i name="Tr[quadrupol]"> -10263.41566082 </i>
    <i name="Echarged">      0.00000000 </i>
    <i name="Edipol_quadrupol">      0.00000000 </i>
    <i name="Eion">      0.00000000 </i>
   </dipole>
   <energy>
    <i name="e_fr_energy">   -188.52078779 </i>
    <i name="e_wo_entrp">   -188.27171218 </i>
    <i name="e_0_energy">   -188.39624999 </i>
   </energy>
  </scstep>
  <scstep>
   <time name="diag">    1.27    1.28</time>
   <time name="diis">    2.21    2.21</time>
   <time name="orth">    0.34    0.35</time>
   <time name="total">    4.09    4.11</time>
   <dipole>
    <v name="dipole">      0.00000000       0.00000000       0.00585433 </v>
    <i name="Tr[quadrupol]"> -10263.42690727 </i>
    <i name="Echarged">      0.00000000 </i>
    <i name="Edipol_quadrupol">      0.00000000 </i>
    <i name="Eion">      0.00000000 </i>
   </dipole>
   <energy>
    <i name="e_fr_energy">   -188.52087115 </i>
    <i name="e_wo_entrp">   -188.27179704 </i>
    <i name="e_0_energy">   -188.39633410 </i>
   </energy>
  </scstep>
  <scstep>
   <time name="diag">    1.27    1.27</time>
   <time name="diis">    2.12    2.12</time>
   <time name="orth">    0.34    0.35</time>
   <time name="total">    4.01    4.02</time>
   <dipole>
    <v name="dipole">      0.00000000       0.00000000       0.00577140 </v>
    <i name="Tr[quadrupol]"> -10263.43149009 </i>
    <i name="Echarged">      0.00000000 </i>
    <i name="Edipol_quadrupol">      0.00000000 </i>
    <i name="Eion">      0.00000000 </i>
   </dipole>
   <energy>
    <i name="e_fr_energy">   -188.52089735 </i>
    <i name="e_wo_entrp">   -188.27182804 </i>
    <i name="e_0_energy">   -188.39636269 </i>
   </energy>
  </scstep>
  <scstep>
   <time name="diag">    1.28    1.28</time>
   <time name="diis">    2.11    2.12</time>
   <time name="orth">    0.35    0.35</time>
   <time name="total">    4.01    4.02</time>
   <dipole>
    <v name="dipole">      0.00000000       0.00000000       0.00560028 </v>
    <i name="Tr[quadrupol]"> -10263.43764937 </i>
    <i name="Echarged">      0.00000000 </i>
    <i name="Edipol_quadrupol">      0.00000000 </i>
    <i name="Eion">      0.00000000 </i>
   </dipole>
   <energy>
    <i name="e_fr_energy">   -188.52092493 </i>
    <i name="e_wo_entrp">   -188.27184881 </i>
    <i name="e_0_energy">   -188.39638687 </i>
   </energy>
  </scstep>
  <scstep>
   <time name="diag">    1.27    1.28</time>
   <time name="diis">    1.94    1.95</time>
   <time name="orth">    0.34    0.35</time>
   <time name="total">    3.83    3.84</time>
   <dipole>
    <v name="dipole">      0.00000000       0.00000000       0.00552179 </v>
    <i name="Tr[quadrupol]"> -10263.44167057 </i>
    <i name="Echarged">      0.00000000 </i>
    <i name="Edipol_quadrupol">      0.00000000 </i>
    <i name="Eion">      0.00000000 </i>
   </dipole>
   <energy>
    <i name="e_fr_energy">   -188.52093604 </i>
    <i name="e_wo_entrp">   -188.27186170 </i>
    <i name="e_0_energy">   -188.39639887 </i>
   </energy>
  </scstep>
  <scstep>
   <time name="diag">    1.27    1.27</time>
   <time name="diis">    1.84    1.85</time>
   <time name="orth">    0.34    0.35</time>
   <time name="total">    3.73    3.74</time>
   <dipole>
    <v name="dipole">      0.00000000       0.00000000       0.00546485 </v>
    <i name="Tr[quadrupol]"> -10263.44567295 </i>
    <i name="Echarged">      0.00000000 </i>
    <i name="Edipol_quadrupol">      0.00000000 </i>
    <i name="Eion">      0.00000000 </i>
   </dipole>
   <energy>
    <i name="e_fr_energy">   -188.52094051 </i>
    <i name="e_wo_entrp">   -188.27186912 </i>
    <i name="e_0_energy">   -188.39640481 </i>
   </energy>
  </scstep>
  <scstep>
   <time name="diag">    1.27    1.27</time>
   <time name="diis">    1.63    1.64</time>
   <time name="orth">    0.34    0.35</time>
   <time name="total">    3.30    3.31</time>
   <dipole>
    <v name="dipole">      0.00000000       0.00000000       0.00542741 </v>
    <i name="Tr[quadrupol]"> -10263.44797817 </i>
    <i name="Echarged">      0.00000000 </i>
    <i name="Edipol_quadrupol">      0.00000000 </i>
    <i name="Eion">      0.00000000 </i>
   </dipole>
   <energy>
    <i name="alphaZ">    805.87022229 </i>
    <i name="ewald"> 200395.22218567 </i>
    <i name="hartreedc">-242589.80528635 </i>
    <i name="XCdc">   -343.19451441 </i>
    <i name="pawpsdc">  49401.06042791 </i>
    <i name="pawaedc"> -47478.57225168 </i>
    <i name="eentropy">     -0.24907086 </i>
    <i name="bandstr">  -2038.63852638 </i>
    <i name="atom">  41659.78587232 </i>
    <i name="e_fr_energy">   -188.52094149 </i>
    <i name="e_wo_entrp">   -188.27187064 </i>
    <i name="e_0_energy">   -188.39640606 </i>
   </energy>
  </scstep>
  <structure>
   <crystal>
    <varray name="basis" >
     <v>      11.00258152       0.00000000       0.00000000 </v>
     <v>       5.50129076       9.52851510       0.00000000 </v>
     <v>       0.00000000       0.00000000      24.49178509 </v>
    </varray>
    <i name="volume">   2567.67623402 </i>
    <varray name="rec_basis" >
     <v>       0.09088776      -0.05247407       0.00000000 </v>
     <v>       0.00000000       0.10494815       0.00000000 </v>
     <v>       0.00000000       0.00000000       0.04083002 </v>
    </varray>
   </crystal>
   <varray name="positions" >
    <v>       0.08333333       0.08333333       0.40830017 </v>
    <v>       0.08333333       0.33333333       0.40830017 </v>
    <v>       0.91666667       0.66666667       0.50000000 </v>
    <v>       0.08333333       0.83333333       0.40830017 </v>
    <v>       0.91666667       0.41666667       0.50000000 </v>
    <v>       0.33333333       0.33333333       0.40830017 </v>
    <v>       0.91666667       0.16666667       0.50000000 </v>
    <v>       0.16666667       0.16666667       0.50000000 </v>
    <v>       0.75000000       0.75000000       0.59169983 </v>
    <v>       0.16666667       0.41666667       0.50000000 </v>
    <v>       0.25000000       0.25000000       0.59169983 </v>
    <v>       0.25000000       0.50000000       0.59169983 </v>
    <v>       0.91666667       0.91666667       0.50000000 </v>
    <v>       0.50000000       0.00000000       0.59169983 </v>
    <v>       0.58333333       0.33333333       0.40830017 </v>
    <v>       0.41666667       0.66666667       0.50000000 </v>
    <v>       0.50000000       0.50000000       0.59169983 </v>
    <v>       0.41666667       0.91666667       0.50000000 </v>
    <v>       0.50000000       0.75000000       0.59169983 </v>
    <v>       0.66666667       0.16666667       0.50000000 </v>
    <v>       0.75000000       0.00000000       0.59169983 </v>
    <v>       0.83333333       0.33333333       0.40830017 </v>
    <v>       0.83333333       0.83333333       0.40830017 </v>
    <v>       0.58333333       0.08333333       0.40830017 </v>
    <v>       0.41666667       0.41666667       0.50000000 </v>
    <v>       0.41666667       0.16666667       0.50000000 </v>
    <v>       0.00000000       0.75000000       0.59169983 </v>
    <v>       0.66666667       0.91666667       0.50000000 </v>
    <v>       0.33333333       0.58333333       0.40830017 </v>
    <v>       0.33333333       0.83333333       0.40830017 </v>
    <v>       0.33333333       0.08333333       0.40830017 </v>
    <v>       0.16666667       0.66666667       0.50000000 </v>
    <v>       0.50000000       0.25000000       0.59169983 </v>
    <v>       0.16666667       0.91666667       0.50000000 </v>
    <v>       0.58333333       0.58333333       0.40830017 </v>
    <v>       0.66666667       0.66666667       0.50000000 </v>
    <v>       0.08333333       0.58333333       0.40830017 </v>
    <v>       0.66666667       0.41666667       0.50000000 </v>
    <v>       0.75000000       0.50000000       0.59169983 </v>
    <v>       0.83333333       0.58333333       0.40830017 </v>
    <v>       0.75000000       0.25000000       0.59169983 </v>
    <v>       0.00000000       0.00000000       0.59169983 </v>
    <v>       0.83333333       0.08333333       0.40830017 </v>
    <v>       0.00000000       0.25000000       0.59169983 </v>
    <v>       0.25000000       0.00000000       0.59169983 </v>
    <v>       0.58333333       0.83333333       0.40830017 </v>
    <v>       0.00000000       0.50000000       0.59169983 </v>
    <v>       0.25000000       0.75000000       0.59169983 </v>
   </varray>
  </structure>
  <varray name="forces" >
   <v>       0.11371504      -0.39221891      -1.65880717 </v>
   <v>       0.11628496       0.19079367      -1.88646654 </v>
   <v>      -0.02452241      -0.04428873       0.01631725 </v>
   <v>       0.25486092      -0.27060420      -1.39117743 </v>
   <v>      -0.50096528       0.51590736       0.56300502 </v>
   <v>       0.04160432       0.13377574      -1.39042514 </v>
   <v>      -0.16936262      -0.10743825       0.62044072 </v>
   <v>       0.13221850      -0.54123395       0.33868200 </v>
   <v>       0.11148947      -0.34447006       1.38159571 </v>
   <v>       0.44971842       0.35347891       0.01495905 </v>
   <v>      -0.10065544      -0.07548948       1.60648062 </v>
   <v>       0.00678324       0.29036325       1.37394550 </v>
   <v>       0.35706506      -0.16123153       0.30622383 </v>
   <v>       0.00609543       0.26956441       1.38910607 </v>
   <v>       0.09884510       0.35485403      -1.37072890 </v>
   <v>      -0.28384996      -0.11461885      -0.53166435 </v>
   <v>       0.13898186      -0.32802932       1.31786416 </v>
   <v>       0.08055930       0.04645139      -0.55628102 </v>
   <v>      -0.11983492      -0.09401545       1.58288580 </v>
   <v>      -0.24334908       0.35182506       0.30522439 </v>
   <v>       0.20277662       0.12727188       1.53326129 </v>
   <v>      -0.25937558       0.32202652      -1.63412012 </v>
   <v>      -0.27606705      -0.14146259      -1.54921925 </v>
   <v>      -0.26854586      -0.27858279      -1.35278350 </v>
   <v>       0.06351545       0.05935361      -0.02928024 </v>
   <v>       0.17823585      -0.03528057      -0.03352103 </v>
   <v>       0.28130495      -0.03954107       0.87722819 </v>
   <v>      -0.34837580      -0.07803937      -0.21012491 </v>
   <v>       0.02181189       0.12241199      -0.59905916 </v>
   <v>       0.11255128      -0.09402265      -0.75988873 </v>
   <v>       0.08677634      -0.24885415      -0.87258456 </v>
   <v>       0.25770451       0.03528527       0.01963024 </v>
   <v>       0.09085769       0.05979050       0.75555443 </v>
   <v>       0.02768606      -0.26369588       0.31365347 </v>
   <v>       0.01974810       0.15005650      -0.60435551 </v>
   <v>      -0.01340648      -0.13710815      -0.38170805 </v>
   <v>       0.13660038       0.05164284      -0.90543576 </v>
   <v>      -0.00310105       0.28359078       0.14657511 </v>
   <v>       0.09465360      -0.23980534       0.72364872 </v>
   <v>      -0.19935444       0.18539488      -0.85737027 </v>
   <v>       0.11894032       0.16801400       0.80089528 </v>
   <v>       0.31214890      -0.14334597       0.80600365 </v>
   <v>      -0.00322139      -0.01496414      -1.13887830 </v>
   <v>      -0.17486452       0.00199735       0.96744722 </v>
   <v>      -0.38491551      -0.00879104       0.88291744 </v>
   <v>      -0.12505645      -0.15055028      -0.63848368 </v>
   <v>      -0.13833750      -0.00038957       0.99486926 </v>
   <v>      -0.27637221       0.27422236       0.71394915 </v>
  </varray>
  <energy>
   <i name="e_fr_energy">   -188.52094149 </i>
   <i name="e_wo_entrp">   -188.39640606 </i>
   <i name="e_0_energy">     -0.24907086 </i>
  </energy>
  <time name="totalsc">  218.60  220.51</time>
 </calculation>
 <calculation>
  <scstep>
   <time name="dav">    7.24    7.26</time>
   <time name="total">    7.51    7.54</time>
   <dipole>
    <v name="dipole">      0.00000000       0.00000000       0.00539736 </v>
    <i name="Tr[quadrupol]"> -10264.03021928 </i>
    <i name="Echarged">      0.00000000 </i>
    <i name="Edipol_quadrupol">      0.00000000 </i>
    <i name="Eion">      0.00000000 </i>
   </dipole>
   <energy>
    <i name="alphaZ">    805.86768240 </i>
    <i name="ewald"> 199062.40352386 </i>
    <i name="hartreedc">-241265.30796245 </i>
    <i name="XCdc">   -344.30560062 </i>
    <i name="pawpsdc">  49401.05280378 </i>
    <i name="pawaedc"> -47478.56468708 </i>
    <i name="eentropy">     -0.24807996 </i>
    <i name="bandstr">  -2029.77090646 </i>
    <i name="atom">  41659.78587232 </i>
    <i name="e_fr_energy">   -189.08735421 </i>
    <i name="e_wo_entrp">   -188.83927425 </i>
    <i name="e_0_energy">   -188.96331423 </i>
   </energy>
  </scstep>
  <scstep>
   <time name="diag">    1.28    1.28</time>
   <time name="diis">    3.44    3.45</time>
   <time name="orth">    0.34    0.35</time>
   <time name="total">    5.33    5.34</time>
   <dipole>
    <v name="dipole">      0.00000000       0.00000000       0.04595263 </v>
    <i name="Tr[quadrupol]"> -10263.88730054 </i>
    <i name="Echarged">      0.00000000 </i>
    <i name="Edipol_quadrupol">      0.00000000 </i>
    <i name="Eion">      0.00000000 </i>
   </dipole>
   <energy>
    <i name="e_fr_energy">   -189.29248497 </i>
    <i name="e_wo_entrp">   -189.04959173 </i>
    <i name="e_0_energy">   -189.17103835 </i>
   </energy>
  </scstep>
  <scstep>
   <time name="diag">    1.27    1.27</time>
   <time name="diis">    3.48    3.49</time>
   <time name="orth">    0.35    0.35</time>
   <time name="total">    5.36    5.38</time>
   <dipole>
    <v name="dipole">      0.00000000       0.00000000      -0.09812923 </v>
    <i name="Tr[quadrupol]"> -10264.04716920 </i>
    <i name="Echarged">      0.00000000 </i>
    <i name="Edipol_quadrupol">      0.00000000 </i>
    <i name="Eion">      0.00000000 </i>
   </dipole>
   <energy>
    <i name="e_fr_energy">   -189.46771718 </i>
    <i name="e_wo_entrp">   -189.23336789 </i>
    <i name="e_0_energy">   -189.35054254 </i>
   </energy>
  </scstep>
  <scstep>
   <time name="diag">    1.27    1.28</time>
   <time name="diis">    3.54    3.55</time>
   <time name="orth">    0.34    0.35</time>
   <time name="total">    5.42    5.44</time>
   <dipole>
    <v name="dipole">      0.00000000       0.00000000       0.01682835 </v>
    <i name="Tr[quadrupol]"> -10264.09290123 </i>
    <i name="Echarged">      0.00000000 </i>
    <i name="Edipol_quadrupol">      0.00000000 </i>
    <i name="Eion">      0.00000000 </i>
   </dipole>
   <energy>
    <i name="e_fr_energy">   -189.28744142 </i>
    <i name="e_wo_entrp">   -189.03820761 </i>
    <i name="e_0_energy">   -189.16282451 </i>
   </energy>
  </scstep>
  <scstep>
   <time name="diag">    1.27    1.27</time>
   <time name="diis">    3.50    3.51</time>
   <time name="orth">    0.34    0.35</time>
   <time name="total">    5.38    5.40</time>
   <dipole>
    <v name="dipole">      0.00000000       0.00000000       0.00063909 </v>
    <i name="Tr[quadrupol]"> -10264.02442629 </i>
    <i name="Echarged">      0.00000000 </i>
    <i name="Edipol_quadrupol">      0.00000000 </i>
    <i name="Eion">      0.00000000 </i>
   </dipole>
   <energy>
    <i name="e_fr_energy">   -189.27850150 </i>
    <i name="e_wo_entrp">   -189.03240149 </i>
    <i name="e_0_energy">   -189.15545150 </i>
   </energy>
  </scstep>
  <scstep>
   <time name="diag">    1.28    1.28</time>
   <time name="diis">    3.40    3.41</time>
   <time name="orth">    0.34    0.35</time>
   <time name="total">    5.29    5.31</time>
   <dipole>
    <v name="dipole">      0.00000000       0.00000000       0.02493429 </v>
    <i name="Tr[quadrupol]"> -10264.06190550 </i>
    <i name="Echarged">      0.00000000 </i>
    <i name="Edipol_quadrupol">      0.00000000 </i>
    <i name="Eion">      0.00000000 </i>
   </dipole>
   <energy>
    <i name="e_fr_energy">   -189.27425801 </i>
    <i name="e_wo_entrp">   -189.02803581 </i>
    <i name="e_0_energy">   -189.15114691 </i>
   </energy>
  </scstep>
  <scstep>
   <time name="diag">    1.27    1.27</time>
   <time name="diis">    3.32    3.53</time>
   <time name="orth">    0.34    0.35</time>
   <time name="total">    5.20    5.42</time>
   <dipole>
    <v name="dipole">      0.00000000       0.00000000       0.01740695 </v>
    <i name="Tr[quadrupol]"> -10264.04552913 </i>
    <i name="Echarged">      0.00000000 </i>
    <i name="Edipol_quadrupol">      0.00000000 </i>
    <i name="Eion">      0.00000000 </i>
   </dipole>
   <energy>
    <i name="e_fr_energy">   -189.27203584 </i>
    <i name="e_wo_entrp">   -189.02312891 </i>
    <i name="e_0_energy">   -189.14758238 </i>
   </energy>
  </scstep>
  <scstep>
   <time name="diag">    1.29    1.29</time>
   <time name="diis">    3.46    3.47</time>
   <time name="orth">    0.34    0.34</time>
   <time name="total">    5.36    5.38</time>
   <dipole>
    <v name="dipole">      0.00000000       0.00000000       0.01041255 </v>
    <i name="Tr[quadrupol]"> -10264.03474149 </i>
    <i name="Echarged">      0.00000000 </i>
    <i name="Edipol_quadrupol">      0.00000000 </i>
    <i name="Eion">      0.00000000 </i>
   </dipole>
   <energy>
    <i name="e_fr_energy">   -189.27093855 </i>
    <i name="e_wo_entrp">   -189.02328622 </i>
    <i name="e_0_energy">   -189.14711238 </i>
   </energy>
  </scstep>
  <scstep>
   <time name="diag">    1.28    1.28</time>
   <time name="diis">    3.37    3.44</time>
   <time name="orth">    0.35    0.35</time>
   <time name="total">    5.27    5.34</time>
   <dipole>
    <v name="dipole">      0.00000000       0.00000000       0.01215006 </v>
    <i name="Tr[quadrupol]"> -10264.03470802 </i>
    <i name="Echarged">      0.00000000 </i>
    <i name="Edipol_quadrupol">      0.00000000 </i>
    <i name="Eion">      0.00000000 </i>
   </dipole>
   <energy>
    <i name="e_fr_energy">   -189.27049345 </i>
    <i name="e_wo_entrp">   -189.02227705 </i>
    <i name="e_0_energy">   -189.14638525 </i>
   </energy>
  </scstep>
  <scstep>
   <time name="diag">    1.28    1.28</time>
   <time name="diis">    3.47    3.48</time>
   <time name="orth">    0.34    0.35</time>
   <time name="total">    5.36    5.38</time>
   <dipole>
    <v name="dipole">      0.00000000       0.00000000       0.01238269 </v>
    <i name="Tr[quadrupol]"> -10264.03352402 </i>
    <i name="Echarged">      0.00000000 </i>
    <i name="Edipol_quadrupol">      0.00000000 </i>
    <i name="Eion">      0.00000000 </i>
   </dipole>
   <energy>
    <i name="e_fr_energy">   -189.27040852 </i>
    <i name="e_wo_entrp">   -189.02177615 </i>
    <i name="e_0_energy">   -189.14609233 </i>
   </energy>
  </scstep>
  <scstep>
   <time name="diag">    1.27    1.28</time>
   <time name="diis">    3.54    3.55</time>
   <time name="orth">    0.34    0.35</time>
   <time name="total">    5.43    5.44</time>
   <dipole>
    <v name="dipole">      0.00000000       0.00000000       0.01226859 </v>
    <i name="Tr[quadrupol]"> -10264.03309113 </i>
    <i name="Echarged">      0.00000000 </i>
    <i name="Edipol_quadrupol">      0.00000000 </i>
    <i name="Eion">      0.00000000 </i>
   </dipole>
   <energy>
    <i name="e_fr_energy">   -189.27036158 </i>
    <i name="e_wo_entrp">   -189.02216308 </i>
    <i name="e_0_energy">   -189.14626233 </i>
   </energy>
  </scstep>
  <scstep>
   <time name="diag">    1.27    1.28</time>
   <time name="diis">    3.43    3.44</time>
   <time name="orth">    0.34    0.35</time>
   <time name="total">    5.31    5.33</time>
   <dipole>
    <v name="dipole">      0.00000000       0.00000000       0.01213900 </v>
    <i name="Tr[quadrupol]"> -10264.03599745 </i>
    <i name="Echarged">      0.00000000 </i>
    <i name="Edipol_quadrupol">      0.00000000 </i>
    <i name="Eion">      0.00000000 </i>
   </dipole>
   <energy>
    <i name="e_fr_energy">   -189.27035831 </i>
    <i name="e_wo_entrp">   -189.02199878 </i>
    <i name="e_0_energy">   -189.14617854 </i>
   </energy>
  </scstep>
  <scstep>
   <time name="diag">    1.27    1.28</time>
   <time name="diis">    3.27    3.28</time>
   <time name="orth">    0.34    0.35</time>
   <time name="total">    5.16    5.17</time>
   <dipole>
    <v name="dipole">      0.00000000       0.00000000       0.01226129 </v>
    <i name="Tr[quadrupol]"> -10264.03846600 </i>
    <i name="Echarged">      0.00000000 </i>
    <i name="Edipol_quadrupol">      0.00000000 </i>
    <i name="Eion">      0.00000000 </i>
   </dipole>
   <energy>
    <i name="e_fr_energy">   -189.27035178 </i>
    <i name="e_wo_entrp">   -189.02209063 </i>
    <i name="e_0_energy">   -189.14622120 </i>
   </energy>
  </scstep>
  <scstep>
   <time name="diag">    1.28    1.28</time>
   <time name="diis">    2.50    2.51</time>
   <time name="orth">    0.34    0.35</time>
   <time name="total">    4.17    4.18</time>
   <dipole>
    <v name="dipole">      0.00000000       0.00000000       0.01220418 </v>
    <i name="Tr[quadrupol]"> -10264.04009089 </i>
    <i name="Echarged">      0.00000000 </i>
    <i name="Edipol_quadrupol">      0.00000000 </i>
    <i name="Eion">      0.00000000 </i>
   </dipole>
   <energy>
    <i name="alphaZ">    805.86555839 </i>
    <i name="ewald"> 199062.40352386 </i>
    <i name="hartreedc">-241265.62099116 </i>
    <i name="XCdc">   -344.27610745 </i>
    <i name="pawpsdc">  49174.25002472 </i>
    <i name="pawaedc"> -47250.24476251 </i>
    <i name="eentropy">     -0.24822980 </i>
    <i name="bandstr">  -2031.18524064 </i>
    <i name="atom">  41659.78587232 </i>
    <i name="e_fr_energy">   -189.27035227 </i>
    <i name="e_wo_entrp">   -189.02212247 </i>
    <i name="e_0_energy">   -189.14623737 </i>
   </energy>
  </scstep>
  <structure>
   <crystal>
    <varray name="basis" >
     <v>      11.00258152       0.00000000       0.00000000 </v>
     <v>       5.50129076       9.52851510       0.00000000 </v>
     <v>       0.00000000       0.00000000      24.49178509 </v>
    </varray>
    <i name="volume">   2567.67623402 </i>
    <varray name="rec_basis" >
     <v>       0.09088776      -0.05247407       0.00000000 </v>
     <v>       0.00000000       0.10494815       0.00000000 </v>
     <v>       0.00000000       0.00000000       0.04083002 </v>
    </varray>
   </crystal>
   <varray name="positions" >
    <v>       0.08333333       0.08333333       0.40830017 </v>
    <v>       0.08333333       0.33333333       0.40830017 </v>
    <v>       0.91666988       0.66650970       0.50002250 </v>
    <v>       0.08333333       0.83333333       0.40830017 </v>
    <v>       0.91421486       0.41849509       0.50077628 </v>
    <v>       0.33333333       0.33333333       0.40830017 </v>
    <v>       0.91633723       0.16628590       0.50085548 </v>
    <v>       0.16803157       0.16474849       0.50046698 </v>
    <v>       0.75095261       0.74877917       0.59360481 </v>
    <v>       0.16742059       0.41791943       0.50002063 </v>
    <v>       0.24982483       0.24973246       0.59391488 </v>
    <v>       0.24950628       0.50102907       0.59359426 </v>
    <v>       0.91804830       0.91609525       0.50042223 </v>
    <v>       0.49954103       0.00095536       0.59361516 </v>
    <v>       0.58333333       0.33333333       0.40830017 </v>
    <v>       0.41599856       0.66626045       0.49926693 </v>
    <v>       0.50100785       0.49883744       0.59351693 </v>
    <v>       0.41683161       0.91683129       0.49923299 </v>
    <v>       0.49979879       0.74966680       0.59388235 </v>
    <v>       0.66529631       0.16791356       0.50042085 </v>
    <v>       0.75039684       0.00045106       0.59381393 </v>
    <v>       0.83333333       0.33333333       0.40830017 </v>
    <v>       0.83333333       0.83333333       0.40830017 </v>
    <v>       0.58333333       0.08333333       0.40830017 </v>
    <v>       0.41675644       0.41687702       0.49995963 </v>
    <v>       0.41727624       0.16654163       0.49995378 </v>
    <v>       0.00093347       0.74985986       0.59290937 </v>
    <v>       0.66573570       0.91639009       0.49971027 </v>
    <v>       0.33333333       0.58333333       0.40830017 </v>
    <v>       0.33333333       0.83333333       0.40830017 </v>
    <v>       0.33333333       0.08333333       0.40830017 </v>
    <v>       0.16739510       0.66679172       0.50002707 </v>
    <v>       0.50017292       0.25021190       0.59274161 </v>
    <v>       0.16721892       0.91573211       0.50043247 </v>
    <v>       0.58333333       0.58333333       0.40830017 </v>
    <v>       0.66686848       0.66618074       0.49947369 </v>
    <v>       0.08333333       0.58333333       0.40830017 </v>
    <v>       0.66615461       0.41767174       0.50020210 </v>
    <v>       0.75071546       0.49915011       0.59269761 </v>
    <v>       0.83333333       0.58333333       0.40830017 </v>
    <v>       0.75006733       0.25059546       0.59280412 </v>
    <v>       0.00121208      -0.00050803       0.59281117 </v>
    <v>       0.83333333       0.08333333       0.40830017 </v>
    <v>      -0.00054025       0.25000708       0.59303377 </v>
    <v>       0.24883417      -0.00003116       0.59291722 </v>
    <v>       0.58333333       0.83333333       0.40830017 </v>
    <v>      -0.00042390       0.49999862       0.59307158 </v>
    <v>       0.24866581       0.75097187       0.59268424 </v>
   </varray>
  </structure>
  <varray name="forces" >
   <v>       0.07938039      -0.36334229      -1.52181192 </v>
   <v>       0.06587226       0.18028930      -1.63889959 </v>
   <v>      -0.00287524       0.04768345       0.27986561 </v>
   <v>       0.25256215      -0.24986295      -1.37273869 </v>
   <v>      -0.15509136       0.15571164       0.49258454 </v>
   <v>       0.03605054       0.12272745      -1.39503428 </v>
   <v>      -0.07736156      -0.02450887       0.52375033 </v>
   <v>       0.08700927      -0.11126200       0.46958149 </v>
   <v>       0.05448952      -0.16192236       0.98820931 </v>
   <v>       0.19969597       0.10120099       0.36345407 </v>
   <v>      -0.08662882       0.02005749       1.15646860 </v>
   <v>       0.01251951       0.15863393       1.05799739 </v>
   <v>       0.06245037      -0.05278972       0.44845153 </v>
   <v>      -0.02550756       0.07156762       0.97914478 </v>
   <v>       0.12292948       0.34177865      -1.34967795 </v>
   <v>      -0.06722050      -0.06649688       0.05902665 </v>
   <v>       0.06728804      -0.10895738       0.96552510 </v>
   <v>       0.09399244      -0.12053026       0.07155504 </v>
   <v>      -0.11027319      -0.03837516       1.03030759 </v>
   <v>      -0.10920243       0.09464102       0.43827307 </v>
   <v>       0.14612466       0.03818751       1.09477544 </v>
   <v>      -0.22535775       0.27588739      -1.49672534 </v>
   <v>      -0.24029737      -0.12062580      -1.48582440 </v>
   <v>      -0.22913401      -0.26553383      -1.34481591 </v>
   <v>       0.03888998       0.09480781       0.24289303 </v>
   <v>       0.03526673       0.00925832       0.26335370 </v>
   <v>       0.13885829      -0.01490939       0.69922532 </v>
   <v>      -0.14353842      -0.06847124       0.24700215 </v>
   <v>      -0.01346689       0.09913883      -0.68149345 </v>
   <v>       0.07946783      -0.07412779      -0.82671718 </v>
   <v>       0.07519063      -0.19443649      -0.91313351 </v>
   <v>       0.16976359      -0.01798300       0.19119441 </v>
   <v>       0.01799027       0.07017061       0.63440259 </v>
   <v>       0.06110353      -0.17523436       0.31542818 </v>
   <v>       0.02535982       0.12779236      -0.66794301 </v>
   <v>      -0.11138994       0.05709004       0.02374845 </v>
   <v>       0.12956575       0.06345322      -0.90921656 </v>
   <v>      -0.07375744       0.21064739       0.25980735 </v>
   <v>       0.02430415      -0.11742546       0.66434709 </v>
   <v>      -0.17339184       0.15087086      -0.87391922 </v>
   <v>       0.08073288       0.08054832       0.69524946 </v>
   <v>       0.18159264      -0.08083416       0.72573912 </v>
   <v>      -0.00481266      -0.00858398      -1.00407646 </v>
   <v>      -0.08037375      -0.00020611       0.77906564 </v>
   <v>      -0.18178744      -0.04836583       0.70795716 </v>
   <v>      -0.10772226      -0.16182618      -0.73306793 </v>
   <v>      -0.02237596      -0.04194007       0.76814186 </v>
   <v>      -0.09688428       0.11640737       0.57856933 </v>
  </varray>
  <energy>
   <i name="e_fr_energy">   -189.27035227 </i>
   <i name="e_wo_entrp">   -189.14623737 </i>
   <i name="e_0_energy">     -0.24822980 </i>
  </energy>
  <time name="totalsc">   78.03   78.67</time>
 </calculation>
 <calculation>
  <scstep>
   <time name="dav">    7.20    7.27</time>
   <time name="total">    7.47    7.54</time>
   <dipole>
    <v name="dipole">      0.00000000       0.00000000       0.01214805 </v>
    <i name="Tr[quadrupol]"> -10266.48159744 </i>
    <i name="Echarged">      0.00000000 </i>
    <i name="Edipol_quadrupol">      0.00000000 </i>
    <i name="Eion">      0.00000000 </i>
   </dipole>
   <energy>
    <i name="alphaZ">    805.84845809 </i>
    <i name="ewald"> 195103.51537523 </i>
    <i name="hartreedc">-237328.29751354 </i>
    <i name="XCdc">   -347.04768746 </i>
    <i name="pawpsdc">  49174.15057294 </i>
    <i name="pawaedc"> -47250.14564769 </i>
    <i name="eentropy">     -0.24313968 </i>
    <i name="bandstr">  -2006.02573591 </i>
    <i name="atom">  41659.78587232 </i>
    <i name="e_fr_energy">   -188.45944571 </i>
    <i name="e_wo_entrp">   -188.21630604 </i>
    <i name="e_0_energy">   -188.33787588 </i>
   </energy>
  </scstep>
  <scstep>
   <time name="diag">    1.27    1.28</time>
   <time name="diis">    3.44    3.45</time>
   <time name="orth">    0.34    0.34</time>
   <time name="total">    5.32    5.34</time>
   <dipole>
    <v name="dipole">      0.00000000       0.00000000       0.08292642 </v>
    <i name="Tr[quadrupol]"> -10266.00028825 </i>
    <i name="Echarged">      0.00000000 </i>
    <i name="Edipol_quadrupol">      0.00000000 </i>
    <i name="Eion">      0.00000000 </i>
   </dipole>
   <energy>
    <i name="e_fr_energy">   -190.26215067 </i>
    <i name="e_wo_entrp">   -190.02610961 </i>
    <i name="e_0_energy">   -190.14413014 </i>
   </energy>
  </scstep>
  <scstep>
   <time name="diag">    1.28    1.28</time>
   <time name="diis">    3.49    3.50</time>
   <time name="orth">    0.34    0.34</time>
   <time name="total">    5.37    5.39</time>
   <dipole>
    <v name="dipole">      0.00000000       0.00000000      -0.07841144 </v>
    <i name="Tr[quadrupol]"> -10266.58779026 </i>
    <i name="Echarged">      0.00000000 </i>
    <i name="Edipol_quadrupol">      0.00000000 </i>
    <i name="Eion">      0.00000000 </i>
   </dipole>
   <energy>
    <i name="e_fr_energy">   -190.47079979 </i>
    <i name="e_wo_entrp">   -190.23131028 </i>
    <i name="e_0_energy">   -190.35105503 </i>
   </energy>
  </scstep>
  <scstep>
   <time name="diag">    1.28    1.28</time>
   <time name="diis">    3.50    3.51</time>
   <time name="orth">    0.34    0.34</time>
   <time name="total">    5.38    5.41</time>
   <dipole>
    <v name="dipole">      0.00000000       0.00000000       0.07827841 </v>
    <i name="Tr[quadrupol]"> -10266.45727053 </i>
    <i name="Echarged">      0.00000000 </i>
    <i name="Edipol_quadrupol">      0.00000000 </i>
    <i name="Eion">      0.00000000 </i>
   </dipole>
   <energy>
    <i name="e_fr_energy">   -190.25147719 </i>
    <i name="e_wo_entrp">   -190.02397230 </i>
    <i name="e_0_energy">   -190.13772475 </i>
   </energy>
  </scstep>
  <scstep>
   <time name="diag">    1.27    1.27</time>
   <time name="diis">    3.49    3.50</time>
   <time name="orth">    0.34    0.36</time>
   <time name="total">    5.37    5.40</time>
   <dipole>
    <v name="dipole">      0.00000000       0.00000000      -0.04452640 </v>
    <i name="Tr[quadrupol]"> -10266.42641240 </i>
    <i name="Echarged">      0.00000000 </i>
    <i name="Edipol_quadrupol">      0.00000000 </i>
    <i name="Eion">      0.00000000 </i>
   </dipole>
   <energy>
    <i name="e_fr_energy">   -190.25251036 </i>
    <i name="e_wo_entrp">   -190.01927543 </i>
    <i name="e_0_energy">   -190.13589289 </i>
   </energy>
  </scstep>
  <scstep>
   <time name="diag">    1.27    1.27</time>
   <time name="diis">    3.44    3.45</time>
   <time name="orth">    0.34    0.34</time>
   <time name="total">    5.32    5.34</time>
   <dipole>
    <v name="dipole">      0.00000000       0.00000000       0.10400003 </v>
    <i name="Tr[quadrupol]"> -10266.53213858 </i>
    <i name="Echarged">      0.00000000 </i>
    <i name="Edipol_quadrupol">      0.00000000 </i>
    <i name="Eion">      0.00000000 </i>
   </dipole>
   <energy>
    <i name="e_fr_energy">   -190.22110947 </i>
    <i name="e_wo_entrp">   -189.99063324 </i>
    <i name="e_0_energy">   -190.10587135 </i>
   </energy>
  </scstep>
  <scstep>
   <time name="diag">    1.27    1.28</time>
   <time name="diis">    3.47    3.48</time>
   <time name="orth">    0.34    0.35</time>
   <time name="total">    5.36    5.43</time>
   <dipole>
    <v name="dipole">      0.00000000       0.00000000       0.05047010 </v>
    <i name="Tr[quadrupol]"> -10266.50817356 </i>
    <i name="Echarged">      0.00000000 </i>
    <i name="Edipol_quadrupol">      0.00000000 </i>
    <i name="Eion">      0.00000000 </i>
   </dipole>
   <energy>
    <i name="e_fr_energy">   -190.14994382 </i>
    <i name="e_wo_entrp">   -189.90501679 </i>
    <i name="e_0_energy">   -190.02748031 </i>
   </energy>
  </scstep>
  <scstep>
   <time name="diag">    1.26    1.34</time>
   <time name="diis">    3.49    3.50</time>
   <time name="orth">    0.34    0.34</time>
   <time name="total">    5.36    5.46</time>
   <dipole>
    <v name="dipole">      0.00000000       0.00000000       0.03463703 </v>
    <i name="Tr[quadrupol]"> -10266.43634688 </i>
    <i name="Echarged">      0.00000000 </i>
    <i name="Edipol_quadrupol">      0.00000000 </i>
    <i name="Eion">      0.00000000 </i>
   </dipole>
   <energy>
[...]
       <r>    -9.3491     0.0000     0.0000 </r>
       <r>    -9.2950     0.0000     0.0000 </r>
       <r>    -9.2410     0.0000     0.0000 </r>
       <r>    -9.1869     0.0000     0.0000 </r>
       <r>    -9.1329     0.0002     0.0000 </r>
       <r>    -9.0788     0.0036     0.0002 </r>
       <r>    -9.0247     0.0470     0.0027 </r>
       <r>    -8.9707     0.3546     0.0219 </r>
       <r>    -8.9166     1.5348     0.1049 </r>
       <r>    -8.8626     3.8254     0.3117 </r>
       <r>    -8.8085     5.5744     0.6130 </r>
       <r>    -8.7544     5.1821     0.8932 </r>
       <r>    -8.7004     4.4401     1.1332 </r>
       <r>    -8.6463     5.1271     1.4104 </r>
       <r>    -8.5923     5.3752     1.7010 </r>
       <r>    -8.5382     3.6432     1.8979 </r>
       <r>    -8.4841     1.4809     1.9780 </r>
       <r>    -8.4301     0.3772     1.9984 </r>
       <r>    -8.3760     0.2264     2.0106 </r>
       <r>    -8.3220     0.8293     2.0554 </r>
       <r>    -8.2679     2.3392     2.1819 </r>
       <r>    -8.2138     4.1471     2.4061 </r>
       <r>    -8.1598     4.8159     2.6664 </r>
       <r>    -8.1057     4.0660     2.8862 </r>
       <r>    -8.0517     3.6766     3.0850 </r>
       <r>    -7.9976     5.3641     3.3750 </r>
       <r>    -7.9435     8.0121     3.8081 </r>
       <r>    -7.8895     8.9187     4.2903 </r>
       <r>    -7.8354     7.5282     4.6972 </r>
       <r>    -7.7813     5.8274     5.0123 </r>
       <r>    -7.7273     5.8120     5.3265 </r>
       <r>    -7.6732     6.7609     5.6920 </r>
       <r>    -7.6192     7.0358     6.0723 </r>
       <r>    -7.5651     7.3622     6.4703 </r>
       <r>    -7.5110     8.9033     6.9516 </r>
       <r>    -7.4570    11.2145     7.5579 </r>
       <r>    -7.4029    12.4880     8.2330 </r>
       <r>    -7.3489    12.3826     8.9024 </r>
       <r>    -7.2948    13.1680     9.6143 </r>
       <r>    -7.2407    15.4923    10.4518 </r>
       <r>    -7.1867    18.2339    11.4375 </r>
       <r>    -7.1326    21.0414    12.5750 </r>
       <r>    -7.0786    23.1853    13.8284 </r>
       <r>    -7.0245    24.0312    15.1275 </r>
       <r>    -6.9704    24.2948    16.4409 </r>
       <r>    -6.9164    25.3562    17.8117 </r>
       <r>    -6.8623    28.4857    19.3516 </r>
       <r>    -6.8083    33.6857    21.1727 </r>
       <r>    -6.7542    39.1655    23.2900 </r>
       <r>    -6.7001    43.7347    25.6543 </r>
       <r>    -6.6461    48.4340    28.2726 </r>
       <r>    -6.5920    53.3319    31.1557 </r>
       <r>    -6.5380    56.3029    34.1995 </r>
       <r>    -6.4839    57.9050    37.3298 </r>
       <r>    -6.4298    60.5319    40.6022 </r>
       <r>    -6.3758    63.2513    44.0216 </r>
       <r>    -6.3217    64.4053    47.5033 </r>
       <r>    -6.2677    64.9466    51.0143 </r>
       <r>    -6.2136    67.0492    54.6390 </r>
       <r>    -6.1595    71.1064    58.4830 </r>
       <r>    -6.1055    75.2813    62.5527 </r>
       <r>    -6.0514    78.5728    66.8004 </r>
       <r>    -5.9974    80.7806    71.1674 </r>
       <r>    -5.9433    80.3786    75.5127 </r>
       <r>    -5.8892    77.5362    79.7043 </r>
       <r>    -5.8352    75.4502    83.7831 </r>
       <r>    -5.7811    74.9780    87.8365 </r>
       <r>    -5.7271    74.3360    91.8551 </r>
       <r>    -5.6730    73.4039    95.8233 </r>
       <r>    -5.6189    72.8974    99.7641 </r>
       <r>    -5.5649    71.9837   103.6556 </r>
       <r>    -5.5108    69.8689   107.4327 </r>
       <r>    -5.4568    67.2949   111.0707 </r>
       <r>    -5.4027    64.5200   114.5586 </r>
       <r>    -5.3486    62.5394   117.9395 </r>
       <r>    -5.2946    64.0017   121.3994 </r>
       <r>    -5.2405    68.7937   125.1184 </r>
       <r>    -5.1865    74.5453   129.1484 </r>
       <r>    -5.1324    79.9711   133.4716 </r>
       <r>    -5.0783    84.0704   138.0165 </r>
       <r>    -5.0243    86.2942   142.6815 </r>
       <r>    -4.9702    87.2615   147.3989 </r>
       <r>    -4.9162    87.2444   152.1153 </r>
       <r>    -4.8621    86.7357   156.8043 </r>
       <r>    -4.8080    87.0670   161.5111 </r>
       <r>    -4.7540    88.2436   166.2816 </r>
       <r>    -4.6999    88.6890   171.0761 </r>
       <r>    -4.6459    87.8426   175.8249 </r>
       <r>    -4.5918    86.4490   180.4983 </r>
       <r>    -4.5377    85.2484   185.1069 </r>
       <r>    -4.4837    84.5859   189.6796 </r>
       <r>    -4.4296    84.6059   194.2534 </r>
       <r>    -4.3756    85.5036   198.8757 </r>
       <r>    -4.3215    86.9488   203.5762 </r>
       <r>    -4.2674    89.0385   208.3896 </r>
       <r>    -4.2134    91.4679   213.3344 </r>
       <r>    -4.1593    91.8942   218.3022 </r>
       <r>    -4.1053    89.8389   223.1589 </r>
       <r>    -4.0512    88.1579   227.9247 </r>
       <r>    -3.9971    87.9658   232.6802 </r>
       <r>    -3.9431    87.8916   237.4316 </r>
       <r>    -3.8890    87.4704   242.1603 </r>
       <r>    -3.8350    87.1385   246.8710 </r>
       <r>    -3.7809    87.8357   251.6194 </r>
       <r>    -3.7268    89.7562   256.4716 </r>
       <r>    -3.6728    92.0062   261.4455 </r>
       <r>    -3.6187    94.2050   266.5382 </r>
       <r>    -3.5647    95.0221   271.6751 </r>
       <r>    -3.5106    93.4172   276.7252 </r>
       <r>    -3.4565    91.7648   281.6861 </r>
       <r>    -3.4025    92.5212   286.6878 </r>
       <r>    -3.3484    95.1302   291.8305 </r>
       <r>    -3.2944    97.7614   297.1155 </r>
       <r>    -3.2403    98.8694   302.4604 </r>
       <r>    -3.1862    97.4650   307.7294 </r>
       <r>    -3.1322    93.4551   312.7815 </r>
       <r>    -3.0781    88.5540   317.5688 </r>
       <r>    -3.0241    85.8381   322.2092 </r>
       <r>    -2.9700    86.5434   326.8877 </r>
       <r>    -2.9159    88.9749   331.6977 </r>
       <r>    -2.8619    91.1762   336.6267 </r>
       <r>    -2.8078    92.6382   341.6348 </r>
       <r>    -2.7538    93.6088   346.6953 </r>
       <r>    -2.6997    94.6975   351.8146 </r>
       <r>    -2.6456    96.1547   357.0127 </r>
       <r>    -2.5916    96.1116   362.2086 </r>
       <r>    -2.5375    93.1958   367.2467 </r>
       <r>    -2.4835    89.4200   372.0808 </r>
       <r>    -2.4294    87.9026   376.8328 </r>
       <r>    -2.3753    89.4628   381.6692 </r>
       <r>    -2.3213    92.4364   386.6663 </r>
       <r>    -2.2672    94.6899   391.7852 </r>
       <r>    -2.2132    95.2334   396.9336 </r>
       <r>    -2.1591    95.2628   402.0835 </r>
       <r>    -2.1050    96.6058   407.3060 </r>
       <r>    -2.0510    99.6954   412.6955 </r>
       <r>    -1.9969   102.6115   418.2427 </r>
       <r>    -1.9429   103.1905   423.8212 </r>
       <r>    -1.8888   102.0753   429.3394 </r>
       <r>    -1.8347   100.6617   434.7812 </r>
       <r>    -1.7807   100.1991   440.1980 </r>
       <r>    -1.7266   103.0990   445.7715 </r>
       <r>    -1.6726   109.2757   451.6790 </r>
       <r>    -1.6185   114.0817   457.8462 </r>
       <r>    -1.5644   113.7967   463.9981 </r>
       <r>    -1.5104   109.0726   469.8946 </r>
       <r>    -1.4563   101.9709   475.4071 </r>
       <r>    -1.4023    94.5127   480.5165 </r>
       <r>    -1.3482    88.7660   485.3152 </r>
       <r>    -1.2941    85.1072   489.9161 </r>
       <r>    -1.2401    81.0494   494.2976 </r>
       <r>    -1.1860    73.1120   498.2501 </r>
       <r>    -1.1320    61.4258   501.5708 </r>
       <r>    -1.0779    50.0137   504.2745 </r>
       <r>    -1.0238    39.9291   506.4331 </r>
       <r>    -0.9698    28.6266   507.9806 </r>
       <r>    -0.9157    17.4465   508.9238 </r>
       <r>    -0.8617    10.6676   509.5005 </r>
       <r>    -0.8076     8.9219   509.9828 </r>
       <r>    -0.7535     9.3467   510.4881 </r>
       <r>    -0.6995     9.8005   511.0179 </r>
       <r>    -0.6454    10.4243   511.5814 </r>
       <r>    -0.5914    12.2473   512.2435 </r>
       <r>    -0.5373    15.4196   513.0771 </r>
       <r>    -0.4832    18.7279   514.0895 </r>
       <r>    -0.4292    21.0771   515.2290 </r>
       <r>    -0.3751    21.7348   516.4040 </r>
       <r>    -0.3211    20.8728   517.5323 </r>
       <r>    -0.2670    20.7082   518.6518 </r>
       <r>    -0.2129    21.6537   519.8224 </r>
       <r>    -0.1589    20.3269   520.9213 </r>
       <r>    -0.1048    16.0365   521.7882 </r>
       <r>    -0.0508    12.4671   522.4622 </r>
       <r>     0.0033    11.0704   523.0607 </r>
       <r>     0.0574    10.0915   523.6062 </r>
       <r>     0.1114     9.7361   524.1326 </r>
       <r>     0.1655    12.3679   524.8012 </r>
       <r>     0.2195    16.7655   525.7075 </r>
       <r>     0.2736    18.8009   526.7239 </r>
       <r>     0.3277    18.5298   527.7256 </r>
       <r>     0.3817    18.7866   528.7412 </r>
       <r>     0.4358    19.7119   529.8069 </r>
       <r>     0.4898    20.2448   530.9013 </r>
       <r>     0.5439    20.9511   532.0339 </r>
       <r>     0.5980    22.7222   533.2623 </r>
       <r>     0.6520    24.7121   534.5982 </r>
       <r>     0.7061    25.0743   535.9537 </r>
       <r>     0.7601    22.7001   537.1809 </r>
       <r>     0.8142    18.9596   538.2059 </r>
       <r>     0.8683    15.8199   539.0611 </r>
       <r>     0.9223    13.3097   539.7806 </r>
       <r>     0.9764    10.9802   540.3742 </r>
       <r>     1.0304     8.9031   540.8555 </r>
       <r>     1.0845     8.3332   541.3060 </r>
       <r>     1.1386     9.3656   541.8123 </r>
       <r>     1.1926     8.9683   542.2971 </r>
       <r>     1.2467     6.5168   542.6494 </r>
       <r>     1.3007     5.0589   542.9229 </r>
       <r>     1.3548     6.0043   543.2475 </r>
       <r>     1.4089     8.2601   543.6940 </r>
       <r>     1.4629    11.0503   544.2914 </r>
       <r>     1.5170    14.5001   545.0753 </r>
       <r>     1.5710    16.6088   545.9732 </r>
       <r>     1.6251    15.4441   546.8081 </r>
       <r>     1.6792    14.1563   547.5734 </r>
       <r>     1.7332    15.7872   548.4268 </r>
       <r>     1.7873    18.0878   549.4047 </r>
       <r>     1.8413    17.6741   550.3601 </r>
       <r>     1.8954    14.3926   551.1382 </r>
       <r>     1.9495    10.3655   551.6985 </r>
       <r>     2.0035     7.9422   552.1279 </r>
       <r>     2.0576     8.4177   552.5830 </r>
       <r>     2.1116    10.7347   553.1633 </r>
       <r>     2.1657    14.1251   553.9269 </r>
       <r>     2.2198    18.7580   554.9409 </r>
       <r>     2.2738    23.0728   556.1883 </r>
       <r>     2.3279    25.4791   557.5657 </r>
       <r>     2.3819    26.1413   558.9789 </r>
       <r>     2.4360    25.5849   560.3620 </r>
       <r>     2.4901    24.0003   561.6595 </r>
       <r>     2.5441    21.9907   562.8483 </r>
       <r>     2.5982    20.9452   563.9806 </r>
       <r>     2.6522    22.0019   565.1700 </r>
       <r>     2.7063    23.2091   566.4247 </r>
       <r>     2.7604    20.7934   567.5488 </r>
       <r>     2.8144    14.8319   568.3506 </r>
       <r>     2.8685     9.0776   568.8413 </r>
       <r>     2.9225     6.4170   569.1882 </r>
       <r>     2.9766     6.2233   569.5247 </r>
       <r>     3.0307     5.6024   569.8275 </r>
       <r>     3.0847     4.4765   570.0695 </r>
       <r>     3.1388     5.2993   570.3560 </r>
       <r>     3.1928     8.4649   570.8136 </r>
       <r>     3.2469    11.8235   571.4528 </r>
       <r>     3.3010    12.6109   572.1346 </r>
       <r>     3.3550    10.3212   572.6925 </r>
       <r>     3.4091     7.5373   573.1000 </r>
       <r>     3.4631     6.6629   573.4602 </r>
       <r>     3.5172     8.6241   573.9264 </r>
       <r>     3.5713    13.4395   574.6529 </r>
       <r>     3.6253    18.9349   575.6766 </r>
       <r>     3.6794    21.9886   576.8653 </r>
       <r>     3.7334    21.8322   578.0455 </r>
       <r>     3.7875    19.3292   579.0905 </r>
       <r>     3.8416    15.7745   579.9432 </r>
       <r>     3.8956    12.8854   580.6398 </r>
       <r>     3.9497    12.2745   581.3034 </r>
       <r>     4.0038    14.0139   582.0610 </r>
       <r>     4.0578    15.0076   582.8723 </r>
       <r>     4.1119    12.9121   583.5703 </r>
       <r>     4.1659    10.4466   584.1351 </r>
       <r>     4.2200    10.5774   584.7069 </r>
       <r>     4.2741    11.1684   585.3106 </r>
       <r>     4.3281     9.6650   585.8331 </r>
       <r>     4.3822     8.4638   586.2907 </r>
       <r>     4.4362     9.9733   586.8298 </r>
       <r>     4.4903    13.1024   587.5382 </r>
       <r>     4.5444    17.6862   588.4943 </r>
       <r>     4.5984    24.0282   589.7932 </r>
       <r>     4.6525    28.6099   591.3399 </r>
       <r>     4.7065    27.7779   592.8416 </r>
       <r>     4.7606    23.5301   594.1136 </r>
       <r>     4.8147    20.7559   595.2357 </r>
       <r>     4.8687    22.1720   596.4343 </r>
       <r>     4.9228    26.7859   597.8824 </r>
       <r>     4.9768    31.3387   599.5765 </r>
       <r>     5.0309    34.1725   601.4239 </r>
       <r>     5.0850    35.0415   603.3182 </r>
       <r>     5.1390    33.2468   605.1156 </r>
       <r>     5.1931    30.6994   606.7752 </r>
       <r>     5.2471    29.5202   608.3711 </r>
       <r>     5.3012    27.0065   609.8310 </r>
       <r>     5.3553    20.5384   610.9413 </r>
       <r>     5.4093    12.1903   611.6003 </r>
       <r>     5.4634     5.3830   611.8913 </r>
       <r>     5.5174     1.6448   611.9803 </r>
       <r>     5.5715     0.3234   611.9977 </r>
       <r>     5.6256     0.0389   611.9998 </r>
       <r>     5.6796     0.0028   612.0000 </r>
       <r>     5.7337     0.0001   612.0000 </r>
       <r>     5.7877     0.0000   612.0000 </r>
       <r>     5.8418     0.0000   612.0000 </r>
       <r>     5.8959     0.0000   612.0000 </r>
       <r>     5.9499     0.0000   612.0000 </r>
       <r>     6.0040     0.0000   612.0000 </r>
       <r>     6.0580     0.0000   612.0000 </r>
       <r>     6.1121     0.0000   612.0000 </r>
       <r>     6.1662     0.0000   612.0000 </r>
       <r>     6.2202     0.0000   612.0000 </r>
       <r>     6.2743     0.0000   612.0000 </r>
       <r>     6.3283     0.0000   612.0000 </r>
       <r>     6.3824     0.0000   612.0000 </r>
      </set>
     </set>
    </array>
   </total>
  </dos>
 </calculation>
 <structure name="finalpos" >
  <crystal>
   <varray name="basis" >
    <v>      11.00258152       0.00000000       0.00000000 </v>
    <v>       5.50129076       9.52851510       0.00000000 </v>
    <v>       0.00000000       0.00000000      24.49178509 </v>
   </varray>
   <i name="volume">   2567.67623402 </i>
   <varray name="rec_basis" >
    <v>       0.09088776      -0.05247407       0.00000000 </v>
    <v>       0.00000000       0.10494815       0.00000000 </v>
    <v>       0.00000000       0.00000000       0.04083002 </v>
   </varray>
  </crystal>
  <varray name="positions" >
   <v>       0.08333333       0.08333333       0.40830017 </v>
   <v>       0.08333333       0.33333333       0.40830017 </v>
   <v>       0.91595929       0.66759703       0.50800414 </v>
   <v>       0.08333333       0.83333333       0.40830017 </v>
   <v>       0.91316603       0.41978967       0.50970835 </v>
   <v>       0.33333333       0.33333333       0.40830017 </v>
   <v>       0.91579011       0.16686673       0.51010092 </v>
   <v>       0.16916261       0.16543320       0.51039345 </v>
   <v>       0.75279821       0.74699060       0.61031011 </v>
   <v>       0.16947900       0.41834839       0.51011049 </v>
   <v>       0.24890837       0.24986928       0.61420068 </v>
   <v>       0.24904061       0.50281754       0.61180383 </v>
   <v>       0.91790278       0.91636563       0.50995478 </v>
   <v>       0.49946314       0.00106510       0.61044064 </v>
   <v>       0.58333333       0.33333333       0.40830017 </v>
   <v>       0.41649597       0.66583365       0.50552121 </v>
   <v>       0.50229412       0.49812615       0.60974881 </v>
   <v>       0.41863169       0.91622817       0.50600743 </v>
   <v>       0.49932296       0.74918465       0.61123242 </v>
   <v>       0.66389702       0.16837304       0.50980705 </v>
   <v>       0.75246085       0.00100579       0.61290666 </v>
   <v>       0.83333333       0.33333333       0.40830017 </v>
   <v>       0.83333333       0.83333333       0.40830017 </v>
   <v>       0.58333333       0.08333333       0.40830017 </v>
   <v>       0.41616488       0.41829972       0.50877166 </v>
   <v>       0.41701608       0.16697427       0.50896912 </v>
   <v>       0.00211072       0.74984307       0.60628914 </v>
   <v>       0.66549859       0.91670828       0.50926529 </v>
   <v>       0.33333333       0.58333333       0.40830017 </v>
   <v>       0.33333333       0.83333333       0.40830017 </v>
   <v>       0.33333333       0.08333333       0.40830017 </v>
   <v>       0.16831801       0.66630122       0.50735781 </v>
   <v>       0.49968931       0.25072250       0.60643193 </v>
   <v>       0.16820697       0.91546193       0.50770215 </v>
   <v>       0.58333333       0.58333333       0.40830017 </v>
   <v>       0.66568054       0.66761085       0.50679077 </v>
   <v>       0.08333333       0.58333333       0.40830017 </v>
   <v>       0.66406504       0.41972442       0.50828183 </v>
   <v>       0.75185482       0.49794140       0.60582474 </v>
   <v>       0.83333333       0.58333333       0.40830017 </v>
   <v>       0.75109366       0.25048778       0.60656818 </v>
   <v>       0.00390737      -0.00135197       0.60675674 </v>
   <v>       0.83333333       0.08333333       0.40830017 </v>
   <v>      -0.00088194       0.24956336       0.60738595 </v>
   <v>       0.24878536      -0.00075832       0.60616960 </v>
   <v>       0.58333333       0.83333333       0.40830017 </v>
   <v>       0.00026315       0.49924968       0.60731734 </v>
   <v>       0.24884713       0.75129935       0.60393276 </v>
  </varray>
  <varray name="selective"  type="logical" >
   <v type="logical" >  F  F  F </v>
   <v type="logical" >  F  F  F </v>
   <v type="logical" >  T  T  T </v>
   <v type="logical" >  F  F  F </v>
   <v type="logical" >  T  T  T </v>
   <v type="logical" >  F  F  F </v>
   <v type="logical" >  T  T  T </v>
   <v type="logical" >  T  T  T </v>
   <v type="logical" >  T  T  T </v>
   <v type="logical" >  T  T  T </v>
   <v type="logical" >  T  T  T </v>
   <v type="logical" >  T  T  T </v>
   <v type="logical" >  T  T  T </v>
   <v type="logical" >  T  T  T </v>
   <v type="logical" >  F  F  F </v>
   <v type="logical" >  T  T  T </v>
   <v type="logical" >  T  T  T </v>
   <v type="logical" >  T  T  T </v>
   <v type="logical" >  T  T  T </v>
   <v type="logical" >  T  T  T </v>
   <v type="logical" >  T  T  T </v>
   <v type="logical" >  F  F  F </v>
   <v type="logical" >  F  F  F </v>
   <v type="logical" >  F  F  F </v>
   <v type="logical" >  T  T  T </v>
   <v type="logical" >  T  T  T </v>
   <v type="logical" >  T  T  T </v>
   <v type="logical" >  T  T  T </v>
   <v type="logical" >  F  F  F </v>
   <v type="logical" >  F  F  F </v>
   <v type="logical" >  F  F  F </v>
   <v type="logical" >  T  T  T </v>
   <v type="logical" >  T  T  T </v>
   <v type="logical" >  T  T  T </v>
   <v type="logical" >  F  F  F </v>
   <v type="logical" >  T  T  T </v>
   <v type="logical" >  F  F  F </v>
   <v type="logical" >  T  T  T </v>
   <v type="logical" >  T  T  T </v>
   <v type="logical" >  F  F  F </v>
   <v type="logical" >  T  T  T </v>
   <v type="logical" >  T  T  T </v>
   <v type="logical" >  F  F  F </v>
   <v type="logical" >  T  T  T </v>
   <v type="logical" >  T  T  T </v>
   <v type="logical" >  F  F  F </v>
   <v type="logical" >  T  T  T </v>
   <v type="logical" >  T  T  T </v>
  </varray>
  <nose>
   <v>      -3.00000000       0.00000000       0.00010000       0.00010000 </v>
  </nose>
 </structure>
</modeling>
