unknown system                          
           1
    11.002582    0.000000    0.000000
     5.501291    9.528515    0.000000
     0.000000    0.000000   24.491785
   Au   Pd
  24  24
Direct configuration=     1
   0.08333333  0.08333333  0.40830017
   0.08333333  0.33333333  0.40830017
   0.91666667  0.66666667  0.50000000
   0.08333333  0.83333333  0.40830017
   0.91666667  0.41666667  0.50000000
   0.33333333  0.33333333  0.40830017
   0.91666667  0.16666667  0.50000000
   0.16666667  0.16666667  0.50000000
   0.75000000  0.75000000  0.59169983
   0.16666667  0.41666667  0.50000000
   0.25000000  0.25000000  0.59169983
   0.25000000  0.50000000  0.59169983
   0.91666667  0.91666667  0.50000000
   0.50000000  0.00000000  0.59169983
   0.58333333  0.33333333  0.40830017
   0.41666667  0.66666667  0.50000000
   0.50000000  0.50000000  0.59169983
   0.41666667  0.91666667  0.50000000
   0.50000000  0.75000000  0.59169983
   0.66666667  0.16666667  0.50000000
   0.75000000  0.00000000  0.59169983
   0.83333333  0.33333333  0.40830017
   0.83333333  0.83333333  0.40830017
   0.58333333  0.08333333  0.40830017
   0.41666667  0.41666667  0.50000000
   0.41666667  0.16666667  0.50000000
   0.00000000  0.75000000  0.59169983
   0.66666667  0.91666667  0.50000000
   0.33333333  0.58333333  0.40830017
   0.33333333  0.83333333  0.40830017
   0.33333333  0.08333333  0.40830017
   0.16666667  0.66666667  0.50000000
   0.50000000  0.25000000  0.59169983
   0.16666667  0.91666667  0.50000000
   0.58333333  0.58333333  0.40830017
   0.66666667  0.66666667  0.50000000
   0.08333333  0.58333333  0.40830017
   0.66666667  0.41666667  0.50000000
   0.75000000  0.50000000  0.59169983
   0.83333333  0.58333333  0.40830017
   0.75000000  0.25000000  0.59169983
   0.00000000  0.00000000  0.59169983
   0.83333333  0.08333333  0.40830017
   0.00000000  0.25000000  0.59169983
   0.25000000  0.00000000  0.59169983
   0.58333333  0.83333333  0.40830017
   0.00000000  0.50000000  0.59169983
   0.25000000  0.75000000  0.59169983
Direct configuration=     2
   0.08333333  0.08333333  0.40830017
   0.08333333  0.33333333  0.40830017
   0.91666988  0.66650970  0.50002250
   0.08333333  0.83333333  0.40830017
   0.91421486  0.41849509  0.50077628
   0.33333333  0.33333333  0.40830017
   0.91633723  0.16628590  0.50085548
   0.16803157  0.16474849  0.50046698
   0.75095261  0.74877917  0.59360481
   0.16742059  0.41791943  0.50002063
   0.24982483  0.24973246  0.59391488
   0.24950628  0.50102907  0.59359426
   0.91804830  0.91609525  0.50042223
   0.49954103  0.00095536  0.59361516
   0.58333333  0.33333333  0.40830017
   0.41599856  0.66626045  0.49926693
   0.50100785  0.49883744  0.59351693
   0.41683161  0.91683129  0.49923299
   0.49979879  0.74966680  0.59388235
   0.66529631  0.16791356  0.50042085
   0.75039684  0.00045106  0.59381393
   0.83333333  0.33333333  0.40830017
   0.83333333  0.83333333  0.40830017
   0.58333333  0.08333333  0.40830017
   0.41675644  0.41687702  0.49995963
   0.41727624  0.16654163  0.49995378
   0.00093347  0.74985986  0.59290937
   0.66573570  0.91639009  0.49971027
   0.33333333  0.58333333  0.40830017
   0.33333333  0.83333333  0.40830017
   0.33333333  0.08333333  0.40830017
   0.16739510  0.66679172  0.50002707
   0.50017292  0.25021190  0.59274161
   0.16721892  0.91573211  0.50043247
   0.58333333  0.58333333  0.40830017
   0.66686848  0.66618074  0.49947369
   0.08333333  0.58333333  0.40830017
   0.66615461  0.41767174  0.50020210
   0.75071546  0.49915011  0.59269761
   0.83333333  0.58333333  0.40830017
   0.75006733  0.25059546  0.59280412
   0.00121208 -0.00050803  0.59281117
   0.83333333  0.08333333  0.40830017
  -0.00054025  0.25000708  0.59303377
   0.24883417 -0.00003116  0.59291722
   0.58333333  0.83333333  0.40830017
  -0.00042390  0.49999862  0.59307158
   0.24866581  0.75097187  0.59268424
Direct configuration=     3
   0.08333333  0.08333333  0.40830017
   0.08333333  0.33333333  0.40830017
   0.91667953  0.66603881  0.50008999
   0.08333333  0.83333333  0.40830017
   0.90685944  0.42398034  0.50310514
   0.33333333  0.33333333  0.40830017
   0.91534893  0.16514359  0.50342191
   0.17212628  0.15899395  0.50186793
   0.75381043  0.74511668  0.59931974
   0.16968237  0.42167770  0.50008250
   0.24929933  0.24892984  0.60056005
   0.24802513  0.50411629  0.59927755
   0.92219321  0.91438099  0.50168891
   0.49816412  0.00382144  0.59936116
   0.58333333  0.33333333  0.40830017
   0.41399426  0.66504179  0.49706771
   0.50403142  0.49534975  0.59896824
   0.41732644  0.91732518  0.49693195
   0.49919518  0.74866721  0.60042991
   0.66118526  0.17165426  0.50168340
   0.75158738  0.00180425  0.60015622
   0.83333333  0.33333333  0.40830017
   0.83333333  0.83333333  0.40830017
   0.58333333  0.08333333  0.40830017
   0.41702574  0.41750808  0.49983851
   0.41910495  0.16616652  0.49981512
   0.00373387  0.74943945  0.59653800
   0.66294279  0.91556035  0.49884110
   0.33333333  0.58333333  0.40830017
   0.33333333  0.83333333  0.40830017
   0.33333333  0.08333333  0.40830017
   0.16958041  0.66716688  0.50010827
   0.50069166  0.25084761  0.59586694
   0.16887569  0.91292843  0.50172989
   0.58333333  0.58333333  0.40830017
   0.66747392  0.66472298  0.49789477
   0.08333333  0.58333333  0.40830017
   0.66461846  0.42068694  0.50080841
   0.75286185  0.49660044  0.59569097
   0.83333333  0.58333333  0.40830017
   0.75026933  0.25238182  0.59611700
   0.00484833 -0.00203212  0.59614518
   0.83333333  0.08333333  0.40830017
  -0.00216098  0.25002832  0.59703559
   0.24533668 -0.00012462  0.59656938
   0.58333333  0.83333333  0.40830017
  -0.00169562  0.49999448  0.59718683
   0.24466323  0.75388747  0.59563747
Direct configuration=     4
   0.08333333  0.08333333  0.40830017
   0.08333333  0.33333333  0.40830017
   0.91638878  0.66706349  0.50157608
   0.08333333  0.83333333  0.40830017
   0.90906890  0.42219009  0.50431695
   0.33333333  0.33333333  0.40830017
   0.91521120  0.16565457  0.50468403
   0.17119870  0.16101617  0.50354022
   0.75365356  0.74541616  0.60137414
   0.16978751  0.42078104  0.50192058
   0.24838867  0.24975339  0.60299294
   0.24814508  0.50413763  0.60159012
   0.92063394  0.91461815  0.50329358
   0.49839722  0.00301858  0.60138924
   0.58333333  0.33333333  0.40830017
   0.41504688  0.66508617  0.49860681
   0.50367512  0.49602784  0.60106471
   0.41889121  0.91518410  0.49854497
   0.49866550  0.74872086  0.60249495
   0.66212028  0.17054954  0.50323898
   0.75240689  0.00151051  0.60245103
   0.83333333  0.33333333  0.40830017
   0.83333333  0.83333333  0.40830017
   0.58333333  0.08333333  0.40830017
   0.41679576  0.41836771  0.50122121
   0.41817914  0.16662943  0.50128599
   0.00335206  0.74964003  0.59804799
   0.66362937  0.91512267  0.50051138
   0.33333333  0.58333333  0.40830017
   0.33333333  0.83333333  0.40830017
   0.33333333  0.08333333  0.40830017
   0.16989365  0.66670868  0.50114409
   0.50010609  0.25133956  0.59732325
   0.16985317  0.91240492  0.50266418
   0.58333333  0.58333333  0.40830017
   0.66496116  0.66688110  0.49892417
   0.08333333  0.58333333  0.40830017
   0.66313756  0.42147807  0.50188108
   0.75239173  0.49674645  0.59749837
   0.83333333  0.58333333  0.40830017
   0.75068355  0.25206054  0.59778413
   0.00482924 -0.00196674  0.59801800
   0.83333333  0.08333333  0.40830017
  -0.00200009  0.24996826  0.59875860
   0.24583828 -0.00051608  0.59819995
   0.58333333  0.83333333  0.40830017
  -0.00072323  0.49926721  0.59884265
   0.24553582  0.75344045  0.59696319
Direct configuration=     5
   0.08333333  0.08333333  0.40830017
   0.08333333  0.33333333  0.40830017
   0.91551654  0.67013753  0.50603432
   0.08333333  0.83333333  0.40830017
   0.91569726  0.41681931  0.50795239
   0.33333333  0.33333333  0.40830017
   0.91479803  0.16718752  0.50847036
   0.16841596  0.16708283  0.50855710
   0.75318298  0.74631461  0.60753735
   0.17010291  0.41809106  0.50743480
   0.24565669  0.25222405  0.61029162
   0.24850490  0.50420165  0.60852785
   0.91595611  0.91532961  0.50810759
   0.49909653  0.00061001  0.60747347
   0.58333333  0.33333333  0.40830017
   0.41820475  0.66521930  0.50322411
   0.50260622  0.49806210  0.60735410
   0.42358549  0.90876085  0.50338402
   0.49707645  0.74888183  0.60869005
   0.66492533  0.16723538  0.50790571
   0.75486544  0.00062929  0.60933546
   0.83333333  0.33333333  0.40830017
   0.83333333  0.83333333  0.40830017
   0.58333333  0.08333333  0.40830017
   0.41610582  0.42094660  0.50536930
   0.41540169  0.16801815  0.50569860
   0.00220663  0.75024176  0.60257795
   0.66568912  0.91380962  0.50552223
   0.33333333  0.58333333  0.40830017
   0.33333333  0.83333333  0.40830017
   0.33333333  0.08333333  0.40830017
   0.17083336  0.66533408  0.50425155
   0.49834939  0.25281540  0.60169220
   0.17278562  0.91083439  0.50546706
   0.58333333  0.58333333  0.40830017
   0.65742289  0.67335547  0.50201238
   0.08333333  0.58333333  0.40830017
   0.65869488  0.42385145  0.50509910
   0.75098135  0.49718447  0.60292058
   0.83333333  0.58333333  0.40830017
   0.75192622  0.25109668  0.60278550
   0.00477194 -0.00177060  0.60363645
   0.83333333  0.08333333  0.40830017
  -0.00151744  0.24978808  0.60392764
   0.24734310 -0.00169043  0.60309167
   0.58333333  0.83333333  0.40830017
   0.00219394  0.49708542  0.60381012
   0.24815362  0.75209940  0.60094035
Direct configuration=     6
   0.08333333  0.08333333  0.40830017
   0.08333333  0.33333333  0.40830017
   0.91548063  0.66716445  0.50760280
   0.08333333  0.83333333  0.40830017
   0.91332299  0.41994593  0.50894828
   0.33333333  0.33333333  0.40830017
   0.91568386  0.16621397  0.50924681
   0.17005879  0.16482689  0.50998548
   0.75251846  0.74642238  0.60919151
   0.16961437  0.41876646  0.50930537
   0.24759751  0.25075559  0.61260794
   0.24893476  0.50391211  0.61057909
   0.91671010  0.91683440  0.50941392
   0.49923851  0.00068869  0.60901932
   0.58333333  0.33333333  0.40830017
   0.41649361  0.66516193  0.50526182
   0.50194649  0.49850444  0.60923811
   0.41793672  0.91630406  0.50564379
   0.49816006  0.74907632  0.61062900
   0.66436471  0.16696490  0.50921503
   0.75356789  0.00095676  0.61154264
   0.83333333  0.33333333  0.40830017
   0.83333333  0.83333333  0.40830017
   0.58333333  0.08333333  0.40830017
   0.41591888  0.41976281  0.50717659
   0.41613961  0.16653493  0.50754225
   0.00217545  0.74971071  0.60430471
   0.66520197  0.91607452  0.50784003
   0.33333333  0.58333333  0.40830017
   0.33333333  0.83333333  0.40830017
   0.33333333  0.08333333  0.40830017
   0.16972074  0.66546835  0.50573277
   0.49810912  0.25201421  0.60334253
   0.17034007  0.91372102  0.50647714
   0.58333333  0.58333333  0.40830017
   0.66507485  0.66757009  0.50420168
   0.08333333  0.58333333  0.40830017
   0.66185231  0.42170026  0.50669600
   0.75076974  0.49844208  0.60425729
   0.83333333  0.58333333  0.40830017
   0.75137492  0.25083591  0.60463476
   0.00450185 -0.00152768  0.60536869
   0.83333333  0.08333333  0.40830017
  -0.00127794  0.24935194  0.60601316
   0.24865670 -0.00120442  0.60455136
   0.58333333  0.83333333  0.40830017
   0.00112665  0.49849949  0.60542641
   0.24898774  0.75092392  0.60230778
Direct configuration=     7
   0.08333333  0.08333333  0.40830017
   0.08333333  0.33333333  0.40830017
   0.91547483  0.66668400  0.50785627
   0.08333333  0.83333333  0.40830017
   0.91293930  0.42045119  0.50910922
   0.33333333  0.33333333  0.40830017
   0.91582701  0.16605664  0.50937229
   0.17032428  0.16446232  0.51021631
   0.75241107  0.74643979  0.60945883
   0.16953542  0.41887560  0.50960766
   0.24791115  0.25051829  0.61298226
   0.24900423  0.50386533  0.61091057
   0.91683195  0.91707758  0.50962503
   0.49926145  0.00070140  0.60926913
   0.58333333  0.33333333  0.40830017
   0.41621708  0.66515266  0.50559112
   0.50183988  0.49857592  0.60954257
   0.41702387  0.91752305  0.50600897
   0.49833517  0.74910775  0.61094234
   0.66427411  0.16692119  0.50942662
   0.75335820  0.00100968  0.61189932
   0.83333333  0.33333333  0.40830017
   0.83333333  0.83333333  0.40830017
   0.58333333  0.08333333  0.40830017
   0.41588867  0.41957151  0.50746865
   0.41625886  0.16629523  0.50784019
   0.00217042  0.74962489  0.60458376
   0.66512325  0.91644053  0.50821459
   0.33333333  0.58333333  0.40830017
   0.33333333  0.83333333  0.40830017
   0.33333333  0.08333333  0.40830017
   0.16954094  0.66549005  0.50597214
   0.49807029  0.25188473  0.60360922
   0.16994486  0.91418750  0.50664037
   0.58333333  0.58333333  0.40830017
   0.66631142  0.66663517  0.50455548
   0.08333333  0.58333333  0.40830017
   0.66236255  0.42135262  0.50695406
   0.75073554  0.49864532  0.60447330
   0.83333333  0.58333333  0.40830017
   0.75128583  0.25079377  0.60493360
   0.00445820 -0.00148843  0.60564862
   0.83333333  0.08333333  0.40830017
  -0.00123924  0.24928146  0.60635019
   0.24886898 -0.00112588  0.60478725
   0.58333333  0.83333333  0.40830017
   0.00095418  0.49872801  0.60568760
   0.24912253  0.75073396  0.60252876
Direct configuration=     8
   0.08333333  0.08333333  0.40830017
   0.08333333  0.33333333  0.40830017
   0.91566459  0.66731405  0.50798435
   0.08333333  0.83333333  0.40830017
   0.91290123  0.41946025  0.50928429
   0.33333333  0.33333333  0.40830017
   0.91622359  0.16667707  0.50947199
   0.16868617  0.16561561  0.51030950
   0.75217946  0.74685987  0.60979166
   0.16977105  0.41835950  0.50992021
   0.24887083  0.24989022  0.61357182
   0.24900923  0.50336547  0.61138524
   0.91829163  0.91595471  0.50970637
   0.49964538  0.00099073  0.60971060
   0.58333333  0.33333333  0.40830017
   0.41646459  0.66619128  0.50590584
   0.50223395  0.49802335  0.60989458
   0.41804553  0.91675525  0.50631222
   0.49912387  0.74922800  0.61126552
   0.66333135  0.16819079  0.50946314
   0.75229203  0.00113232  0.61246373
   0.83333333  0.33333333  0.40830017
   0.83333333  0.83333333  0.40830017
   0.58333333  0.08333333  0.40830017
   0.41632836  0.41795400  0.50797369
   0.41690778  0.16672156  0.50823692
   0.00204141  0.74959595  0.60515615
   0.66497287  0.91649061  0.50886301
   0.33333333  0.58333333  0.40830017
   0.33333333  0.83333333  0.40830017
   0.33333333  0.08333333  0.40830017
   0.16776950  0.66651619  0.50650405
   0.49858553  0.25118313  0.60441703
   0.16800689  0.91528178  0.50692475
   0.58333333  0.58333333  0.40830017
   0.66636508  0.66683232  0.50549271
   0.08333333  0.58333333  0.40830017
   0.66426464  0.41944561  0.50755050
   0.75098585  0.49868354  0.60480155
   0.83333333  0.58333333  0.40830017
   0.75069061  0.25093395  0.60549335
   0.00447626 -0.00156182  0.60611673
   0.83333333  0.08333333  0.40830017
  -0.00126535  0.24945281  0.60686134
   0.24902202 -0.00097469  0.60544585
   0.58333333  0.83333333  0.40830017
   0.00026746  0.49926453  0.60642996
   0.24877439  0.75101672  0.60299028
Direct configuration=     9
   0.08333333  0.08333333  0.40830017
   0.08333333  0.33333333  0.40830017
   0.91568005  0.66736535  0.50799478
   0.08333333  0.83333333  0.40830017
   0.91289813  0.41937956  0.50929855
   0.33333333  0.33333333  0.40830017
   0.91625589  0.16672759  0.50948011
   0.16855278  0.16570952  0.51031709
   0.75216060  0.74689408  0.60981876
   0.16979024  0.41831748  0.50994566
   0.24894898  0.24983908  0.61361982
   0.24900963  0.50332476  0.61142389
   0.91841049  0.91586328  0.50971299
   0.49967664  0.00101428  0.60974655
   0.58333333  0.33333333  0.40830017
   0.41648475  0.66627585  0.50593146
   0.50226604  0.49797835  0.60992324
   0.41812872  0.91669273  0.50633691
   0.49918810  0.74923780  0.61129183
   0.66325459  0.16829417  0.50946611
   0.75220521  0.00114230  0.61250969
   0.83333333  0.33333333  0.40830017
   0.83333333  0.83333333  0.40830017
   0.58333333  0.08333333  0.40830017
   0.41636416  0.41782229  0.50801481
   0.41696061  0.16675628  0.50826923
   0.00203091  0.74959359  0.60520275
   0.66496062  0.91649469  0.50891581
   0.33333333  0.58333333  0.40830017
   0.33333333  0.83333333  0.40830017
   0.33333333  0.08333333  0.40830017
   0.16762526  0.66659975  0.50654736
   0.49862748  0.25112600  0.60448280
   0.16784908  0.91537088  0.50694790
   0.58333333  0.58333333  0.40830017
   0.66636945  0.66684838  0.50556903
   0.08333333  0.58333333  0.40830017
   0.66441953  0.41929033  0.50759906
   0.75100623  0.49868666  0.60482828
   0.83333333  0.58333333  0.40830017
   0.75064215  0.25094537  0.60553893
   0.00447773 -0.00156780  0.60615485
   0.83333333  0.08333333  0.40830017
  -0.00126748  0.24946676  0.60690296
   0.24903449 -0.00096238  0.60549948
   0.58333333  0.83333333  0.40830017
   0.00021155  0.49930822  0.60649041
   0.24874604  0.75103974  0.60302786
Direct configuration=    10
   0.08333333  0.08333333  0.40830017
   0.08333333  0.33333333  0.40830017
   0.91570445  0.66749489  0.50787987
   0.08333333  0.83333333  0.40830017
   0.91330231  0.41936196  0.50935367
   0.33333333  0.33333333  0.40830017
   0.91584453  0.16658693  0.50961307
   0.16857766  0.16597641  0.51025388
   0.75235898  0.74707877  0.60992827
   0.16963675  0.41818363  0.50999717
   0.24890882  0.24982864  0.61379020
   0.24894766  0.50303188  0.61152613
   0.91790199  0.91626580  0.50969526
   0.49965152  0.00113555  0.60996073
   0.58333333  0.33333333  0.40830017
   0.41671614  0.66604864  0.50587491
   0.50235582  0.49789670  0.60989309
   0.41866876  0.91597841  0.50622862
   0.49930335  0.74919858  0.61133283
   0.66402412  0.16809173  0.50935736
   0.75223076  0.00115134  0.61262304
   0.83333333  0.33333333  0.40830017
   0.83333333  0.83333333  0.40830017
   0.58333333  0.08333333  0.40830017
   0.41622803  0.41829867  0.50818375
   0.41674667  0.16687259  0.50831921
   0.00186597  0.74975759  0.60555136
   0.66532251  0.91641177  0.50906589
   0.33333333  0.58333333  0.40830017
   0.33333333  0.83333333  0.40830017
   0.33333333  0.08333333  0.40830017
   0.16793269  0.66635768  0.50677925
   0.49905512  0.25093179  0.60507426
   0.16770871  0.91555857  0.50711234
   0.58333333  0.58333333  0.40830017
   0.66560214  0.66752507  0.50601409
   0.08333333  0.58333333  0.40830017
   0.66427940  0.41911317  0.50783501
   0.75128621  0.49839448  0.60500585
   0.83333333  0.58333333  0.40830017
   0.75064926  0.25070105  0.60576825
   0.00416055 -0.00144149  0.60631206
   0.83333333  0.08333333  0.40830017
  -0.00124440  0.24965707  0.60708812
   0.24897044 -0.00094041  0.60576583
   0.58333333  0.83333333  0.40830017
   0.00008320  0.49927819  0.60682490
   0.24867829  0.75127580  0.60324552
Direct configuration=    11
   0.08333333  0.08333333  0.40830017
   0.08333333  0.33333333  0.40830017
   0.91571452  0.66754835  0.50783245
   0.08333333  0.83333333  0.40830017
   0.91346909  0.41935470  0.50937642
   0.33333333  0.33333333  0.40830017
   0.91567479  0.16652890  0.50966794
   0.16858792  0.16608653  0.51022780
   0.75244083  0.74715498  0.60997345
   0.16957342  0.41812841  0.51001842
   0.24889225  0.24982433  0.61386050
   0.24892209  0.50291102  0.61156832
   0.91769216  0.91643189  0.50968795
   0.49964115  0.00118559  0.61004911
   0.58333333  0.33333333  0.40830017
   0.41681163  0.66595489  0.50585158
   0.50239287  0.49786300  0.60988065
   0.41889160  0.91568366  0.50618393
   0.49935090  0.74918240  0.61134974
   0.66434166  0.16800819  0.50931249
   0.75224130  0.00115506  0.61266981
   0.83333333  0.33333333  0.40830017
   0.83333333  0.83333333  0.40830017
   0.58333333  0.08333333  0.40830017
   0.41617186  0.41849523  0.50825345
   0.41665838  0.16692059  0.50833983
   0.00179791  0.74982526  0.60569520
   0.66547183  0.91637756  0.50912782
   0.33333333  0.58333333  0.40830017
   0.33333333  0.83333333  0.40830017
   0.33333333  0.08333333  0.40830017
   0.16805954  0.66625780  0.50687494
   0.49923157  0.25085165  0.60531831
   0.16765079  0.91563602  0.50718019
   0.58333333  0.58333333  0.40830017
   0.66528553  0.66780429  0.50619773
   0.08333333  0.58333333  0.40830017
   0.66422158  0.41904007  0.50793237
   0.75140174  0.49827391  0.60507912
   0.83333333  0.58333333  0.40830017
   0.75065220  0.25060023  0.60586288
   0.00402968 -0.00138937  0.60637694
   0.83333333  0.08333333  0.40830017
  -0.00123488  0.24973559  0.60716453
   0.24894401 -0.00093134  0.60587574
   0.58333333  0.83333333  0.40830017
   0.00003024  0.49926580  0.60696292
   0.24865033  0.75137320  0.60333533
Direct configuration=    12
   0.08333333  0.08333333  0.40830017
   0.08333333  0.33333333  0.40830017
   0.91581087  0.66744389  0.50778523
   0.08333333  0.83333333  0.40830017
   0.91316405  0.41980268  0.50945405
   0.33333333  0.33333333  0.40830017
   0.91578733  0.16662464  0.50984414
   0.16908021  0.16543586  0.51024471
   0.75266224  0.74712100  0.61006028
   0.16948708  0.41835117  0.51004997
   0.24878194  0.24984309  0.61397054
   0.24886534  0.50284830  0.61160881
   0.91763077  0.91627166  0.50972322
   0.49944937  0.00123397  0.61018051
   0.58333333  0.33333333  0.40830017
   0.41663674  0.66568785  0.50574093
   0.50226772  0.49800286  0.60981673
   0.41852867  0.91601500  0.50607685
   0.49934676  0.74913197  0.61136178
   0.66405021  0.16802302  0.50932486
   0.75241645  0.00116479  0.61273566
   0.83333333  0.33333333  0.40830017
   0.83333333  0.83333333  0.40830017
   0.58333333  0.08333333  0.40830017
   0.41611771  0.41866618  0.50841281
   0.41688686  0.16678773  0.50843293
   0.00182096  0.74989511  0.60592405
   0.66552836  0.91659666  0.50918776
   0.33333333  0.58333333  0.40830017
   0.33333333  0.83333333  0.40830017
   0.33333333  0.08333333  0.40830017
   0.16836968  0.66620670  0.50707195
   0.49950752  0.25078044  0.60570497
   0.16801898  0.91555951  0.50734863
   0.58333333  0.58333333  0.40830017
   0.66543816  0.66762937  0.50648304
   0.08333333  0.58333333  0.40830017
   0.66402487  0.41940425  0.50807814
   0.75160664  0.49808185  0.60523032
   0.83333333  0.58333333  0.40830017
   0.75087225  0.25039790  0.60607218
   0.00378796 -0.00124119  0.60647202
   0.83333333  0.08333333  0.40830017
  -0.00117757  0.24971998  0.60724570
   0.24881758 -0.00081053  0.60598126
   0.58333333  0.83333333  0.40830017
   0.00004439  0.49923074  0.60715837
   0.24867428  0.75138790  0.60350418
Direct configuration=    13
   0.08333333  0.08333333  0.40830017
   0.08333333  0.33333333  0.40830017
   0.91583797  0.66741453  0.50777195
   0.08333333  0.83333333  0.40830017
   0.91307829  0.41992863  0.50947588
   0.33333333  0.33333333  0.40830017
   0.91581898  0.16665155  0.50989369
   0.16921862  0.16525293  0.51024947
   0.75272449  0.74711145  0.61008469
   0.16946280  0.41841380  0.51005884
   0.24875093  0.24984836  0.61400148
   0.24884939  0.50283067  0.61162019
   0.91761351  0.91622660  0.50973314
   0.49939545  0.00124757  0.61021745
   0.58333333  0.33333333  0.40830017
   0.41658757  0.66561277  0.50570982
   0.50223253  0.49804218  0.60979876
   0.41842663  0.91610816  0.50604675
   0.49934560  0.74911779  0.61136516
   0.66396827  0.16802719  0.50932834
   0.75246569  0.00116753  0.61275417
   0.83333333  0.33333333  0.40830017
   0.83333333  0.83333333  0.40830017
   0.58333333  0.08333333  0.40830017
   0.41610248  0.41871424  0.50845762
   0.41695110  0.16675038  0.50845910
   0.00182744  0.74991474  0.60598839
   0.66554425  0.91665826  0.50920461
   0.33333333  0.58333333  0.40830017
   0.33333333  0.83333333  0.40830017
   0.33333333  0.08333333  0.40830017
   0.16845687  0.66619233  0.50712734
   0.49958510  0.25076042  0.60581368
   0.16812250  0.91553800  0.50739599
   0.58333333  0.58333333  0.40830017
   0.66548107  0.66758019  0.50656325
   0.08333333  0.58333333  0.40830017
   0.66396956  0.41950664  0.50811912
   0.75166425  0.49802785  0.60527283
   0.83333333  0.58333333  0.40830017
   0.75093411  0.25034102  0.60613103
   0.00372000 -0.00119953  0.60649875
   0.83333333  0.08333333  0.40830017
  -0.00116146  0.24971559  0.60726852
   0.24878203 -0.00077656  0.60601093
   0.58333333  0.83333333  0.40830017
   0.00004837  0.49922088  0.60721332
   0.24868101  0.75139203  0.60355165
Direct configuration=    14
   0.08333333  0.08333333  0.40830017
   0.08333333  0.33333333  0.40830017
   0.91594580  0.66743625  0.50782057
   0.08333333  0.83333333  0.40830017
   0.91305253  0.41986988  0.50954775
   0.33333333  0.33333333  0.40830017
   0.91589726  0.16683608  0.51001280
   0.16921462  0.16528991  0.51030019
   0.75275658  0.74707873  0.61016091
   0.16952472  0.41834034  0.51008415
   0.24872237  0.24991264  0.61406682
   0.24885978  0.50283535  0.61165998
   0.91800983  0.91601064  0.50979982
   0.49935631  0.00117222  0.61029600
   0.58333333  0.33333333  0.40830017
   0.41647417  0.66580544  0.50561345
   0.50218557  0.49811874  0.60976648
   0.41857212  0.91606544  0.50600147
   0.49934903  0.74914413  0.61133704
   0.66356738  0.16837513  0.50945688
   0.75249105  0.00112808  0.61281490
   0.83333333  0.33333333  0.40830017
   0.83333333  0.83333333  0.40830017
   0.58333333  0.08333333  0.40830017
   0.41617206  0.41837040  0.50858352
   0.41704819  0.16688554  0.50860935
   0.00198946  0.74987504  0.60610481
   0.66536337  0.91665729  0.50922954
   0.33333333  0.58333333  0.40830017
   0.33333333  0.83333333  0.40830017
   0.33333333  0.08333333  0.40830017
   0.16830822  0.66643254  0.50724645
   0.49965452  0.25075362  0.60602846
   0.16823114  0.91530849  0.50752920
   0.58333333  0.58333333  0.40830017
   0.66549958  0.66762998  0.50669924
   0.08333333  0.58333333  0.40830017
   0.66401975  0.41961384  0.50819359
   0.75173822  0.49794205  0.60544449
   0.83333333  0.58333333  0.40830017
   0.75104887  0.25036262  0.60627872
   0.00374264 -0.00121566  0.60656601
   0.83333333  0.08333333  0.40830017
  -0.00107397  0.24963472  0.60728435
   0.24869042 -0.00073088  0.60608166
   0.58333333  0.83333333  0.40830017
   0.00013506  0.49920669  0.60728676
   0.24868427  0.75137461  0.60369131
Direct configuration=    15
   0.08333333  0.08333333  0.40830017
   0.08333333  0.33333333  0.40830017
   0.91597487  0.66744211  0.50783367
   0.08333333  0.83333333  0.40830017
   0.91304559  0.41985404  0.50956712
   0.33333333  0.33333333  0.40830017
   0.91591836  0.16688582  0.51004491
   0.16921354  0.16529988  0.51031386
   0.75276524  0.74706991  0.61018146
   0.16954141  0.41832053  0.51009098
   0.24871468  0.24992997  0.61408443
   0.24886258  0.50283661  0.61167070
   0.91811668  0.91595241  0.50981780
   0.49934576  0.00115191  0.61031718
   0.58333333  0.33333333  0.40830017
   0.41644360  0.66585738  0.50558748
   0.50217291  0.49813937  0.60975777
   0.41861134  0.91605392  0.50598927
   0.49934996  0.74915123  0.61132946
   0.66345930  0.16846893  0.50949154
   0.75249788  0.00111745  0.61283127
   0.83333333  0.33333333  0.40830017
   0.83333333  0.83333333  0.40830017
   0.58333333  0.08333333  0.40830017
   0.41619082  0.41827771  0.50861746
   0.41707437  0.16692197  0.50864986
   0.00203313  0.74986434  0.60613620
   0.66531461  0.91665703  0.50923626
   0.33333333  0.58333333  0.40830017
   0.33333333  0.83333333  0.40830017
   0.33333333  0.08333333  0.40830017
   0.16826814  0.66649729  0.50727855
   0.49967324  0.25075179  0.60608636
   0.16826042  0.91524662  0.50756512
   0.58333333  0.58333333  0.40830017
   0.66550457  0.66764341  0.50673590
   0.08333333  0.58333333  0.40830017
   0.66403328  0.41964274  0.50821367
   0.75175817  0.49791892  0.60549076
   0.83333333  0.58333333  0.40830017
   0.75107981  0.25036845  0.60631853
   0.00374875 -0.00122001  0.60658414
   0.83333333  0.08333333  0.40830017
  -0.00105038  0.24961292  0.60728862
   0.24866572 -0.00071856  0.60610072
   0.58333333  0.83333333  0.40830017
   0.00015843  0.49920286  0.60730656
   0.24868514  0.75136991  0.60372895
Direct configuration=    16
   0.08333333  0.08333333  0.40830017
   0.08333333  0.33333333  0.40830017
   0.91598111  0.66745337  0.50792376
   0.08333333  0.83333333  0.40830017
   0.91316078  0.41979250  0.50963692
   0.33333333  0.33333333  0.40830017
   0.91579516  0.16682613  0.51008849
   0.16920008  0.16545361  0.51035876
   0.75276632  0.74702344  0.61024728
   0.16955089  0.41825336  0.51010695
   0.24880725  0.24991823  0.61413734
   0.24894953  0.50282938  0.61172761
   0.91808483  0.91626609  0.50989635
   0.49938263  0.00109734  0.61038116
   0.58333333  0.33333333  0.40830017
   0.41646735  0.66591062  0.50552963
   0.50220659  0.49815020  0.60974546
   0.41871885  0.91607534  0.50598624
   0.49933765  0.74918592  0.61128128
   0.66372960  0.16846889  0.50965979
   0.75246497  0.00105484  0.61286860
   0.83333333  0.33333333  0.40830017
   0.83333333  0.83333333  0.40830017
   0.58333333  0.08333333  0.40830017
   0.41613845  0.41821117  0.50871309
   0.41696540  0.16702479  0.50882867
   0.00212383  0.74983174  0.60623495
   0.66532487  0.91662709  0.50925691
   0.33333333  0.58333333  0.40830017
   0.33333333  0.83333333  0.40830017
   0.33333333  0.08333333  0.40830017
   0.16827361  0.66642914  0.50733638
   0.49964957  0.25075456  0.60627638
   0.16821538  0.91528460  0.50765274
   0.58333333  0.58333333  0.40830017
   0.66556652  0.66769389  0.50679264
   0.08333333  0.58333333  0.40830017
   0.66405724  0.41967580  0.50825327
   0.75180410  0.49792596  0.60567766
   0.83333333  0.58333333  0.40830017
   0.75109206  0.25044646  0.60644565
   0.00384473 -0.00130469  0.60665839
   0.83333333  0.08333333  0.40830017
  -0.00095321  0.24957352  0.60732691
   0.24868819 -0.00073046  0.60614844
   0.58333333  0.83333333  0.40830017
   0.00020419  0.49923902  0.60732002
   0.24874191  0.75133585  0.60385445
Direct configuration=    17
   0.08333333  0.08333333  0.40830017
   0.08333333  0.33333333  0.40830017
   0.91598280  0.66745642  0.50794815
   0.08333333  0.83333333  0.40830017