  48  48   0   0
  0.5349325E+02  0.1100258E-08  0.1100258E-08  0.2449179E-08  0.3500000E-15
  1.000000000000000E-004
  CAR 
 unknown system                          
      6.40697494     -9.73359631  301     -1.05378840      1.00000000
     -9.734  0.0000E+00  0.0000E+00
     -9.680  0.0000E+00  0.0000E+00
     -9.626  0.0000E+00  0.0000E+00
     -9.572  0.0000E+00  0.0000E+00
     -9.518  0.0000E+00  0.0000E+00
     -9.465  0.0000E+00  0.0000E+00
     -9.411  0.0000E+00  0.0000E+00
     -9.357  0.0000E+00  0.0000E+00
     -9.303  0.8942E-17  0.4811E-18
     -9.249  0.3555E-14  0.1917E-15
     -9.196  0.7891E-12  0.4265E-13
     -9.142  0.9935E-10  0.5388E-11
     -9.088  0.7107E-08  0.3878E-09
     -9.034  0.2894E-06  0.1596E-07
     -8.980  0.6726E-05  0.3778E-06
     -8.927  0.8937E-04  0.5186E-05
     -8.873  0.6809E-03  0.4182E-04
     -8.819  0.2980E-02  0.2022E-03
     -8.765  0.7512E-02  0.6063E-03
     -8.711  0.1094E-01  0.1195E-02
     -8.658  0.9439E-02  0.1703E-02
     -8.604  0.6058E-02  0.2029E-02
     -8.550  0.6456E-02  0.2376E-02
     -8.496  0.9892E-02  0.2908E-02
     -8.442  0.1053E-01  0.3475E-02
     -8.389  0.6672E-02  0.3834E-02
     -8.335  0.2488E-02  0.3967E-02
     -8.281  0.6318E-03  0.4001E-02
     -8.227  0.6848E-03  0.4038E-02
     -8.173  0.2622E-02  0.4179E-02
     -8.120  0.7537E-02  0.4585E-02
     -8.066  0.1565E-01  0.5427E-02
     -8.012  0.2403E-01  0.6720E-02
     -7.958  0.2680E-01  0.8162E-02
     -7.904  0.2119E-01  0.9302E-02
     -7.851  0.1294E-01  0.9998E-02
     -7.797  0.9296E-02  0.1050E-01
     -7.743  0.1019E-01  0.1105E-01
     -7.689  0.1186E-01  0.1168E-01
     -7.635  0.1317E-01  0.1239E-01
     -7.582  0.1447E-01  0.1317E-01
     -7.528  0.1527E-01  0.1399E-01
     -7.474  0.1690E-01  0.1490E-01
     -7.420  0.2045E-01  0.1600E-01
     -7.366  0.2484E-01  0.1734E-01
     -7.313  0.2927E-01  0.1891E-01
     -7.259  0.3405E-01  0.2075E-01
     -7.205  0.4086E-01  0.2294E-01
     -7.151  0.5048E-01  0.2566E-01
     -7.097  0.5946E-01  0.2886E-01
     -7.044  0.6410E-01  0.3231E-01
     -6.990  0.6567E-01  0.3584E-01
     -6.936  0.6647E-01  0.3942E-01
     -6.882  0.6545E-01  0.4294E-01
     -6.828  0.6051E-01  0.4619E-01
     -6.774  0.5376E-01  0.4909E-01
     -6.721  0.5013E-01  0.5178E-01
     -6.667  0.5029E-01  0.5449E-01
     -6.613  0.5064E-01  0.5721E-01
     -6.559  0.5360E-01  0.6010E-01
     -6.505  0.6592E-01  0.6364E-01
     -6.452  0.8659E-01  0.6830E-01
     -6.398  0.1065E+00  0.7403E-01
     -6.344  0.1179E+00  0.8038E-01
     -6.290  0.1224E+00  0.8696E-01
     -6.236  0.1266E+00  0.9378E-01
     -6.183  0.1332E+00  0.1009E+00
     -6.129  0.1405E+00  0.1085E+00
     -6.075  0.1481E+00  0.1165E+00
     -6.021  0.1579E+00  0.1250E+00
     -5.967  0.1690E+00  0.1341E+00
     -5.914  0.1758E+00  0.1435E+00
     -5.860  0.1743E+00  0.1529E+00
     -5.806  0.1664E+00  0.1619E+00
     -5.752  0.1565E+00  0.1703E+00
     -5.698  0.1452E+00  0.1781E+00
     -5.645  0.1333E+00  0.1853E+00
     -5.591  0.1256E+00  0.1920E+00
     -5.537  0.1257E+00  0.1988E+00
     -5.483  0.1322E+00  0.2059E+00
     -5.429  0.1405E+00  0.2134E+00
     -5.376  0.1490E+00  0.2215E+00
     -5.322  0.1599E+00  0.2301E+00
     -5.268  0.1720E+00  0.2393E+00
     -5.214  0.1788E+00  0.2489E+00
     -5.160  0.1772E+00  0.2585E+00
     -5.107  0.1724E+00  0.2678E+00
     -5.053  0.1709E+00  0.2769E+00
     -4.999  0.1735E+00  0.2863E+00
     -4.945  0.1776E+00  0.2958E+00
     -4.891  0.1816E+00  0.3056E+00
     -4.838  0.1855E+00  0.3156E+00
     -4.784  0.1888E+00  0.3257E+00
     -4.730  0.1887E+00  0.3359E+00
     -4.676  0.1849E+00  0.3458E+00
     -4.622  0.1817E+00  0.3556E+00
     -4.569  0.1826E+00  0.3654E+00
     -4.515  0.1888E+00  0.3756E+00
     -4.461  0.1970E+00  0.3862E+00
     -4.407  0.1991E+00  0.3969E+00
     -4.353  0.1914E+00  0.4072E+00
     -4.300  0.1799E+00  0.4169E+00
     -4.246  0.1755E+00  0.4263E+00
     -4.192  0.1821E+00  0.4361E+00
     -4.138  0.1910E+00  0.4464E+00
     -4.084  0.1941E+00  0.4568E+00
     -4.031  0.1938E+00  0.4673E+00
     -3.977  0.1926E+00  0.4776E+00
     -3.923  0.1910E+00  0.4879E+00
     -3.869  0.1935E+00  0.4983E+00
     -3.815  0.2003E+00  0.5091E+00
     -3.762  0.2068E+00  0.5202E+00
     -3.708  0.2107E+00  0.5316E+00
     -3.654  0.2114E+00  0.5429E+00
     -3.600  0.2102E+00  0.5542E+00
     -3.546  0.2108E+00  0.5656E+00
     -3.493  0.2132E+00  0.5771E+00
     -3.439  0.2133E+00  0.5885E+00
     -3.385  0.2083E+00  0.5997E+00
     -3.331  0.2005E+00  0.6105E+00
     -3.277  0.1909E+00  0.6208E+00
     -3.224  0.1778E+00  0.6304E+00
     -3.170  0.1628E+00  0.6391E+00
     -3.116  0.1510E+00  0.6472E+00
     -3.062  0.1489E+00  0.6552E+00
     -3.008  0.1567E+00  0.6637E+00
     -2.955  0.1652E+00  0.6726E+00
     -2.901  0.1682E+00  0.6816E+00
     -2.847  0.1684E+00  0.6907E+00
     -2.793  0.1678E+00  0.6997E+00
     -2.739  0.1673E+00  0.7087E+00
     -2.686  0.1686E+00  0.7178E+00
     -2.632  0.1716E+00  0.7270E+00
     -2.578  0.1739E+00  0.7364E+00
     -2.524  0.1749E+00  0.7458E+00
     -2.470  0.1766E+00  0.7553E+00
     -2.417  0.1775E+00  0.7648E+00
     -2.363  0.1742E+00  0.7742E+00
     -2.309  0.1702E+00  0.7834E+00
     -2.255  0.1702E+00  0.7925E+00
     -2.201  0.1713E+00  0.8017E+00
     -2.148  0.1714E+00  0.8110E+00
     -2.094  0.1743E+00  0.8203E+00
     -2.040  0.1807E+00  0.8301E+00
     -1.986  0.1856E+00  0.8400E+00
     -1.932  0.1861E+00  0.8501E+00
     -1.879  0.1842E+00  0.8600E+00
     -1.825  0.1855E+00  0.8700E+00
     -1.771  0.1940E+00  0.8804E+00
     -1.717  0.2059E+00  0.8915E+00
     -1.663  0.2130E+00  0.9029E+00
     -1.610  0.2116E+00  0.9143E+00
     -1.556  0.2053E+00  0.9254E+00
     -1.502  0.1961E+00  0.9359E+00
     -1.448  0.1844E+00  0.9458E+00
     -1.394  0.1762E+00  0.9553E+00
     -1.340  0.1749E+00  0.9647E+00
     -1.287  0.1768E+00  0.9742E+00
     -1.233  0.1763E+00  0.9837E+00
     -1.179  0.1668E+00  0.9927E+00
     -1.125  0.1427E+00  0.1000E+01
     -1.071  0.1112E+00  0.1006E+01
     -1.018  0.8583E-01  0.1011E+01
     -0.964  0.6796E-01  0.1015E+01
     -0.910  0.5377E-01  0.1018E+01
     -0.856  0.4231E-01  0.1020E+01
     -0.802  0.3125E-01  0.1021E+01
     -0.749  0.2093E-01  0.1023E+01
     -0.695  0.1421E-01  0.1023E+01
     -0.641  0.1162E-01  0.1024E+01
     -0.587  0.1439E-01  0.1025E+01
     -0.533  0.2392E-01  0.1026E+01
     -0.480  0.3699E-01  0.1028E+01
     -0.426  0.4627E-01  0.1031E+01
     -0.372  0.4750E-01  0.1033E+01
     -0.318  0.4582E-01  0.1036E+01
     -0.264  0.4669E-01  0.1038E+01
     -0.211  0.4535E-01  0.1041E+01
     -0.157  0.3568E-01  0.1042E+01
     -0.103  0.2219E-01  0.1044E+01
     -0.049  0.1629E-01  0.1044E+01
      0.005  0.2255E-01  0.1046E+01
      0.058  0.3344E-01  0.1048E+01
      0.112  0.4038E-01  0.1050E+01
      0.166  0.4265E-01  0.1052E+01
      0.220  0.4251E-01  0.1054E+01
      0.274  0.4132E-01  0.1056E+01
      0.327  0.3868E-01  0.1059E+01
      0.381  0.3219E-01  0.1060E+01
      0.435  0.2252E-01  0.1062E+01
      0.489  0.1800E-01  0.1062E+01
      0.543  0.2564E-01  0.1064E+01
      0.596  0.3923E-01  0.1066E+01
      0.650  0.4712E-01  0.1069E+01
      0.704  0.4651E-01  0.1071E+01
      0.758  0.4196E-01  0.1073E+01
      0.812  0.3748E-01  0.1075E+01
      0.865  0.3309E-01  0.1077E+01
      0.919  0.2776E-01  0.1079E+01
      0.973  0.2323E-01  0.1080E+01
      1.027  0.2072E-01  0.1081E+01
      1.081  0.1892E-01  0.1082E+01
      1.134  0.1724E-01  0.1083E+01
      1.188  0.1507E-01  0.1084E+01
      1.242  0.1114E-01  0.1084E+01
      1.296  0.7680E-02  0.1085E+01
      1.350  0.9945E-02  0.1085E+01
      1.403  0.1951E-01  0.1086E+01
      1.457  0.3032E-01  0.1088E+01
      1.511  0.3404E-01  0.1090E+01
      1.565  0.3010E-01  0.1091E+01
      1.619  0.2741E-01  0.1093E+01
      1.672  0.3362E-01  0.1095E+01
      1.726  0.4479E-01  0.1097E+01
      1.780  0.4927E-01  0.1100E+01
      1.834  0.4094E-01  0.1102E+01
      1.888  0.2499E-01  0.1103E+01
      1.941  0.1156E-01  0.1104E+01
      1.995  0.6869E-02  0.1104E+01
      2.049  0.9580E-02  0.1105E+01
      2.103  0.1350E-01  0.1105E+01
      2.157  0.1579E-01  0.1106E+01
      2.210  0.2059E-01  0.1107E+01
      2.264  0.3071E-01  0.1109E+01
      2.318  0.4158E-01  0.1111E+01
      2.372  0.4689E-01  0.1114E+01
      2.426  0.4642E-01  0.1116E+01
      2.479  0.4549E-01  0.1119E+01
      2.533  0.4750E-01  0.1121E+01
      2.587  0.5000E-01  0.1124E+01
      2.641  0.5170E-01  0.1127E+01
      2.695  0.5303E-01  0.1130E+01
      2.748  0.5184E-01  0.1132E+01
      2.802  0.4581E-01  0.1135E+01
      2.856  0.3550E-01  0.1137E+01
      2.910  0.2518E-01  0.1138E+01
      2.964  0.1871E-01  0.1139E+01
      3.017  0.1629E-01  0.1140E+01
      3.071  0.1797E-01  0.1141E+01
      3.125  0.2231E-01  0.1142E+01
      3.179  0.2568E-01  0.1144E+01
      3.233  0.2539E-01  0.1145E+01
      3.286  0.2078E-01  0.1146E+01
      3.340  0.1495E-01  0.1147E+01
      3.394  0.1053E-01  0.1147E+01
      3.448  0.7280E-02  0.1148E+01
      3.502  0.7102E-02  0.1148E+01
      3.555  0.1339E-01  0.1149E+01
      3.609  0.2509E-01  0.1150E+01
      3.663  0.3586E-01  0.1152E+01
      3.717  0.4008E-01  0.1154E+01
      3.771  0.3851E-01  0.1156E+01
      3.824  0.3509E-01  0.1158E+01
      3.878  0.3082E-01  0.1160E+01
      3.932  0.2585E-01  0.1161E+01
      3.986  0.2446E-01  0.1163E+01
      4.040  0.2856E-01  0.1164E+01
      4.093  0.3096E-01  0.1166E+01
      4.147  0.2731E-01  0.1167E+01
      4.201  0.2345E-01  0.1169E+01
      4.255  0.2315E-01  0.1170E+01
      4.309  0.2274E-01  0.1171E+01
      4.363  0.2203E-01  0.1172E+01
      4.416  0.2537E-01  0.1174E+01
      4.470  0.3118E-01  0.1175E+01
      4.524  0.3746E-01  0.1177E+01
      4.578  0.4853E-01  0.1180E+01
      4.632  0.6225E-01  0.1183E+01
      4.685  0.6632E-01  0.1187E+01
      4.739  0.5646E-01  0.1190E+01
      4.793  0.4302E-01  0.1192E+01
      4.847  0.3668E-01  0.1194E+01
      4.901  0.3919E-01  0.1196E+01
      4.954  0.4735E-01  0.1199E+01
      5.008  0.6050E-01  0.1202E+01
      5.062  0.7398E-01  0.1206E+01
      5.116  0.7656E-01  0.1210E+01
      5.170  0.6759E-01  0.1214E+01
      5.223  0.5719E-01  0.1217E+01
      5.277  0.4831E-01  0.1220E+01
      5.331  0.3721E-01  0.1222E+01
      5.385  0.2432E-01  0.1223E+01
      5.439  0.1322E-01  0.1224E+01
      5.492  0.5671E-02  0.1224E+01
      5.546  0.1743E-02  0.1224E+01
      5.600  0.3500E-03  0.1224E+01
      5.654  0.4333E-04  0.1224E+01
      5.708  0.3199E-05  0.1224E+01
      5.761  0.1382E-06  0.1224E+01
      5.815  0.3451E-08  0.1224E+01
      5.869  0.4944E-10  0.1224E+01
      5.923  0.4042E-12  0.1224E+01
      5.977  0.1878E-14  0.1224E+01
      6.030  0.5503E-17  0.1224E+01
      6.084  0.0000E+00  0.1224E+01
      6.138  0.0000E+00  0.1224E+01
      6.192  0.0000E+00  0.1224E+01
      6.246  0.0000E+00  0.1224E+01
      6.299  0.0000E+00  0.1224E+01
      6.353  0.0000E+00  0.1224E+01
      6.407  0.0000E+00  0.1224E+01
