<?xml version="1.0" encoding="ISO-8859-1"?>
<modeling>
 <generator>
  <i name="program" type="string">vasp </i>
  <i name="version" type="string">5.4.1  </i>
  <i name="subversion" type="string">24Jun15 (build Mar 14 2019 10:18:33) complex                          parallel </i>
  <i name="platform" type="string">INTEL-19.0.2+OPENMPI-3.1.3 </i>
  <i name="date" type="string">2023 01 31 </i>
  <i name="time" type="string">00:42:25 </i>
 </generator>
 <incar>
  <i type="int" name="ISTART">     0</i>
  <i type="string" name="PREC">normal</i>
  <i type="string" name="ALGO"> Fast</i>
  <i type="int" name="NELM">   500</i>
  <i type="int" name="IBRION">     2</i>
  <i type="int" name="NFREE">     2</i>
  <i name="EDIFF">      0.00000100</i>
  <i name="EDIFFG">     -0.02000000</i>
  <i type="int" name="NSW">   500</i>
  <i type="int" name="ISIF">     0</i>
  <i type="int" name="ISYM">     2</i>
  <i name="ENCUT">    400.00000000</i>
  <i name="POTIM">      0.35000000</i>
  <i type="string" name="LREAL"> Auto</i>
  <i type="logical" name="LPLANE"> T  </i>
  <i type="int" name="ISMEAR">     0</i>
  <i name="SIGMA">      0.10000000</i>
  <i type="int" name="NWRITE">     1</i>
  <i type="logical" name="LWAVE"> F  </i>
  <i type="logical" name="LCHARG"> F  </i>
  <i type="logical" name="LVTOT"> F  </i>
  <i type="logical" name="LORBIT"> F  </i>
  <i type="logical" name="LAECHG"> F  </i>
  <v type="int" name="KPOINT_BSE">    -1     0     0     0</v>
  <i type="int" name="NELM">   500</i>
  <i type="string" name="GGA"> PE          ! optPBE-vdW XC-functional</i>
  <i type="int" name="VOSKOWN">     1</i>
  <i type="logical" name="LDIPOL"> T  </i>
  <i type="logical" name="LMONO"> F  </i>
  <i type="int" name="IDIPOL">     3</i>
  <v name="DIPOL">      0.00000000      0.00000000      0.50000000</v>
 </incar>
 <kpoints>
  <generation param="Monkhorst-Pack">
   <v type="int" name="divisions">       2        2        1 </v>
   <v name="usershift">      0.00000000       0.00000000       0.00000000 </v>
   <v name="genvec1">      0.50000000      -0.00000000       0.00000000 </v>
   <v name="genvec2">      0.00000000       0.50000000       0.00000000 </v>
   <v name="genvec3">      0.00000000       0.00000000       1.00000000 </v>
   <v name="shift">      0.50000000       0.50000000       0.00000000 </v>
  </generation>
  <varray name="kpointlist" >
   <v>       0.25000000       0.25000000       0.00000000 </v>
   <v>       0.00000000       0.25000000       0.00000000 </v>
   <v>      -0.25000000       0.00000000       0.00000000 </v>
   <v>      -0.25000000       0.25000000       0.00000000 </v>
   <v>       0.50000000      -0.25000000       0.00000000 </v>
   <v>      -0.25000000       0.50000000       0.00000000 </v>
  </varray>
  <varray name="weights" >
   <v>       0.16666667 </v>
   <v>       0.16666667 </v>
   <v>       0.16666667 </v>
   <v>       0.16666667 </v>
   <v>       0.16666667 </v>
   <v>       0.16666667 </v>
  </varray>
 </kpoints>
 <parameters>
  <separator name="general" >
   <i type="string" name="SYSTEM">unknown system</i>
   <i type="logical" name="LCOMPAT"> F  </i>
  </separator>
  <separator name="electronic" >
   <i type="string" name="PREC">normal</i>
   <i name="ENMAX">    400.00000000</i>
   <i name="ENAUG">    416.23000000</i>
   <i name="EDIFF">      0.00000100</i>
   <i type="int" name="IALGO">    68</i>
   <i type="int" name="IWAVPR">    11</i>
   <i type="int" name="NBANDS">   306</i>
   <i name="NELECT">    504.00000000</i>
   <i type="int" name="TURBO">     0</i>
   <i type="int" name="IRESTART">     0</i>
   <i type="int" name="NREBOOT">     0</i>
   <i type="int" name="NMIN">     0</i>
   <i name="EREF">      0.00000000</i>
   <separator name="electronic smearing" >
    <i type="int" name="ISMEAR">     0</i>
    <i name="SIGMA">      0.10000000</i>
    <i name="KSPACING">      0.50000000</i>
    <i type="logical" name="KGAMMA"> T  </i>
   </separator>
   <separator name="electronic projectors" >
    <i type="logical" name="LREAL"> T  </i>
    <v name="ROPT">     -0.00050000     -0.00050000</v>
    <i type="int" name="LMAXPAW">  -100</i>
    <i type="int" name="LMAXMIX">     2</i>
    <i type="logical" name="NLSPLINE"> F  </i>
   </separator>
   <separator name="electronic startup" >
    <i type="int" name="ISTART">     0</i>
    <i type="int" name="ICHARG">     2</i>
    <i type="int" name="INIWAV">     1</i>
   </separator>
   <separator name="electronic spin" >
    <i type="int" name="ISPIN">     1</i>
    <i type="logical" name="LNONCOLLINEAR"> F  </i>
    <v name="MAGMOM">      1.00000000      1.00000000      1.00000000      1.00000000      1.00000000      1.00000000      1.00000000      1.00000000      1.00000000      1.00000000      1.00000000      1.00000000      1.00000000      1.00000000      1.00000000      1.00000000      1.00000000      1.00000000      1.00000000      1.00000000
      1.00000000      1.00000000      1.00000000      1.00000000      1.00000000      1.00000000      1.00000000      1.00000000      1.00000000      1.00000000      1.00000000      1.00000000      1.00000000      1.00000000      1.00000000      1.00000000      1.00000000      1.00000000      1.00000000      1.00000000
      1.00000000      1.00000000      1.00000000      1.00000000      1.00000000      1.00000000      1.00000000      1.00000000</v>
    <i name="NUPDOWN">     -1.00000000</i>
    <i type="logical" name="LSORBIT"> F  </i>
    <v name="SAXIS">      0.00000000      0.00000000      1.00000000</v>
    <i type="logical" name="LSPIRAL"> F  </i>
    <v name="QSPIRAL">      0.00000000      0.00000000      0.00000000</v>
    <i type="logical" name="LZEROZ"> F  </i>
   </separator>
   <separator name="electronic exchange-correlation" >
    <i type="logical" name="LASPH"> F  </i>
    <i type="logical" name="LMETAGGA"> F  </i>
   </separator>
   <separator name="electronic convergence" >
    <i type="int" name="NELM">   500</i>
    <i type="int" name="NELMDL">    -5</i>
    <i type="int" name="NELMIN">     2</i>
    <i name="ENINI">    400.00000000</i>
    <separator name="electronic convergence detail" >
     <i type="logical" name="LDIAG"> T  </i>
     <i type="logical" name="LSUBROT"> F  </i>
     <i name="WEIMIN">      0.00100000</i>
     <i name="EBREAK">      0.00000000</i>
     <i name="DEPER">      0.30000000</i>
     <i type="int" name="NRMM">     4</i>
     <i name="TIME">      0.40000000</i>
    </separator>
   </separator>
   <separator name="electronic mixer" >
    <i name="AMIX">      0.40000000</i>
    <i name="BMIX">      1.00000000</i>
    <i name="AMIN">      0.10000000</i>
    <i name="AMIX_MAG">      1.60000000</i>
    <i name="BMIX_MAG">      1.00000000</i>
    <separator name="electronic mixer details" >
     <i type="int" name="IMIX">     4</i>
     <i type="logical" name="MIXFIRST"> F  </i>
     <i type="int" name="MAXMIX">   -45</i>
     <i name="WC">    100.00000000</i>
     <i type="int" name="INIMIX">     1</i>
     <i type="int" name="MIXPRE">     1</i>
     <i type="int" name="MREMOVE">     5</i>
    </separator>
   </separator>
   <separator name="electronic dipolcorrection" >
    <i type="logical" name="LDIPOL"> T  </i>
    <i type="logical" name="LMONO"> F  </i>
    <i type="int" name="IDIPOL">     3</i>
    <i name="EPSILON">      1.00000000</i>
    <v name="DIPOL">      0.00000000      0.00000000      0.50000000</v>
    <i name="EFIELD">      0.00000000</i>
   </separator>
  </separator>
  <separator name="grids" >
   <i type="int" name="NGX">    54</i>
   <i type="int" name="NGY">    54</i>
   <i type="int" name="NGZ">   120</i>
   <i type="int" name="NGXF">   108</i>
   <i type="int" name="NGYF">   108</i>
   <i type="int" name="NGZF">   240</i>
   <i type="logical" name="ADDGRID"> F  </i>
  </separator>
  <separator name="ionic" >
   <i type="int" name="NSW">   500</i>
   <i type="int" name="IBRION">     2</i>
   <i type="int" name="ISIF">     0</i>
   <i name="PSTRESS">      0.00000000</i>
   <i name="EDIFFG">     -0.02000000</i>
   <i type="int" name="NFREE">     2</i>
   <i name="POTIM">      0.35000000</i>
   <i name="SMASS">     -3.00000000</i>
   <i name="SCALEE">      1.00000000</i>
  </separator>
  <separator name="ionic md" >
   <i name="TEBEG">      0.00010000</i>
   <i name="TEEND">      0.00010000</i>
   <i type="int" name="NBLOCK">     1</i>
   <i type="int" name="KBLOCK">   500</i>
   <i type="int" name="NPACO">   256</i>
   <i name="APACO">     16.00000000</i>
  </separator>
  <separator name="symmetry" >
   <i type="int" name="ISYM">     2</i>
   <i name="SYMPREC">      0.00001000</i>
  </separator>
  <separator name="dos" >
   <i type="logical" name="LORBIT"> F  </i>
   <v name="RWIGS">     -1.00000000     -1.00000000</v>
   <i type="int" name="NEDOS">   301</i>
   <i name="EMIN">     10.00000000</i>
   <i name="EMAX">    -10.00000000</i>
   <i name="EFERMI">      0.00000000</i>
  </separator>
  <separator name="writing" >
   <i type="int" name="NWRITE">     1</i>
   <i type="logical" name="LWAVE"> F  </i>
   <i type="logical" name="LCHARG"> F  </i>
   <i type="logical" name="LPARD"> F  </i>
   <i type="logical" name="LVTOT"> F  </i>
   <i type="logical" name="LVHAR"> F  </i>
   <i type="logical" name="LELF"> F  </i>
   <i type="logical" name="LOPTICS"> F  </i>
   <v name="STM">      0.00000000      0.00000000      0.00000000      0.00000000      0.00000000      0.00000000      0.00000000</v>
  </separator>
  <separator name="performance" >
   <i type="int" name="NPAR">     6</i>
   <i type="int" name="NSIM">     4</i>
   <i type="int" name="NBLK">    -1</i>
   <i type="logical" name="LPLANE"> T  </i>
   <i type="logical" name="LSCALAPACK"> T  </i>
   <i type="logical" name="LSCAAWARE"> F  </i>
   <i type="logical" name="LSCALU"> F  </i>
   <i type="logical" name="LASYNC"> F  </i>
   <i type="logical" name="LORBITALREAL"> F  </i>
  </separator>
  <separator name="miscellaneous" >
   <i type="int" name="IDIOT">     3</i>
   <i type="logical" name="LMUSIC"> F  </i>
   <v name="POMASS">    196.96600000    106.42000000</v>
   <v name="DARWINR">      0.00000000      0.00000000</v>
   <v name="DARWINV">      1.00000000      1.00000000</v>
   <i type="logical" name="LCORR"> T  </i>
  </separator>
  <i type="logical" name="GGA_COMPAT"> T  </i>
  <i type="logical" name="LBERRY"> F  </i>
  <i type="int" name="ICORELEVEL">     0</i>
  <i type="logical" name="LDAU"> F  </i>
  <i type="int" name="I_CONSTRAINED_M">     0</i>
  <separator name="electronic exchange-correlation" >
   <i type="string" name="GGA">PE</i>
   <i type="int" name="VOSKOWN">     1</i>
   <i type="logical" name="LHFCALC"> F  </i>
   <i type="string" name="PRECFOCK"></i>
   <i type="logical" name="LSYMGRAD"> F  </i>
   <i type="logical" name="LHFONE"> F  </i>
   <i type="logical" name="LRHFCALC"> F  </i>
   <i type="logical" name="LTHOMAS"> F  </i>
   <i type="logical" name="LMODELHF"> F  </i>
   <i name="ENCUT4O">     -1.00000000</i>
   <i type="int" name="EXXOEP">     0</i>
   <i type="int" name="FOURORBIT">     0</i>
   <i name="AEXX">      0.00000000</i>
   <i name="HFALPHA">      0.00000000</i>
   <i name="MCALPHA">      0.00000000</i>
   <i name="ALDAX">      1.00000000</i>
   <i name="AGGAX">      1.00000000</i>
   <i name="ALDAC">      1.00000000</i>
   <i name="AGGAC">      1.00000000</i>
   <i type="int" name="NKREDX">     1</i>
   <i type="int" name="NKREDY">     1</i>
   <i type="int" name="NKREDZ">     1</i>
   <i type="logical" name="SHIFTRED"> F  </i>
   <i type="logical" name="ODDONLY"> F  </i>
   <i type="logical" name="EVENONLY"> F  </i>
   <i type="int" name="LMAXFOCK">     0</i>
   <i type="int" name="NMAXFOCKAE">     0</i>
   <i type="logical" name="LFOCKAEDFT"> F  </i>
   <i name="HFSCREEN">      0.00000000</i>
   <i name="HFSCREENC">      0.00000000</i>
   <i type="int" name="NBANDSGWLOW">     0</i>
  </separator>
  <separator name="vdW DFT" >
   <i type="logical" name="LUSE_VDW"> F  </i>
   <i name="Zab_VDW">     -0.84910000</i>
   <i name="PARAM1">      0.12340000</i>
   <i name="PARAM2">      1.00000000</i>
   <i name="PARAM3">      0.00000000</i>
  </separator>
  <separator name="model GW" >
   <i type="int" name="MODEL_GW">     0</i>
   <i name="MODEL_EPS0">     32.09595293</i>
   <i name="MODEL_ALPHA">      1.00000000</i>
  </separator>
  <separator name="linear response parameters" >
   <i type="logical" name="LEPSILON"> F  </i>
   <i type="logical" name="LRPA"> F  </i>
   <i type="logical" name="LNABLA"> F  </i>
   <i type="logical" name="LVEL"> F  </i>
   <i type="int" name="KINTER">     0</i>
   <i name="CSHIFT">      0.10000000</i>
   <i name="OMEGAMAX">     -1.00000000</i>
   <i name="DEG_THRESHOLD">      0.00200000</i>
  </separator>
  <separator name="orbital magnetization" >
   <i type="logical" name="NUCIND"> F  </i>
   <v name="MAGPOS">      0.00000000      0.00000000      0.00000000</v>
   <i type="logical" name="LNICSALL"> T  </i>
   <i type="logical" name="ORBITALMAG"> F  </i>
   <i type="logical" name="LMAGBLOCH"> F  </i>
   <i type="logical" name="LCHIMAG"> F  </i>
   <i type="logical" name="LGAUGE"> T  </i>
   <i type="int" name="MAGATOM">     0</i>
   <v name="MAGDIPOL">      0.00000000      0.00000000      0.00000000</v>
   <v name="AVECCONST">      0.00000000      0.00000000      0.00000000</v>
  </separator>
  <separator name="response functions" >
   <i type="logical" name="LADDER"> F  </i>
   <i type="logical" name="LFXC"> F  </i>
   <i type="logical" name="LHARTREE"> T  </i>
   <i type="int" name="IBSE">     0</i>
   <v type="int" name="KPOINT">    -1     0     0     0</v>
   <i type="logical" name="LTCTE"> F  </i>
   <i type="logical" name="LTETE"> F  </i>
   <i type="logical" name="LTRIPLET"> F  </i>
   <i type="logical" name="LFXCEPS"> F  </i>
   <i type="logical" name="LFXHEG"> F  </i>
   <i type="int" name="NATURALO">     0</i>
   <i type="logical" name="L2ORDER"> F  </i>
   <i type="logical" name="LUSEW"> F  </i>
   <i name="ENCUTGW">     -2.00000000</i>
   <i name="ENCUTGWSOFT">     -2.00000000</i>
   <i name="ENCUTLF">     -1.00000000</i>
   <i type="int" name="LMAXMP2">    -1</i>
   <i name="SCISSOR">      0.00000000</i>
   <i type="int" name="NOMEGA">     0</i>
   <i type="int" name="NOMEGAR">     0</i>
   <i type="int" name="NBANDSGW">    -1</i>
   <i type="int" name="NBANDSO">    -1</i>
   <i type="int" name="NBANDSV">    -1</i>
   <i type="int" name="NELM">   500</i>
   <i type="int" name="NELMHF">     1</i>
   <i type="int" name="DIM">     3</i>
   <i type="int" name="ANTIRES">     0</i>
   <i name="OMEGAMAX">    -30.00000000</i>
   <i name="OMEGAMIN">    -30.00000000</i>
   <i name="OMEGATL">   -200.00000000</i>
   <i type="int" name="OMEGAGRID">     0</i>
   <i name="CSHIFT">     -0.10000000</i>
   <i type="logical" name="SELFENERGY"> F  </i>
   <i type="logical" name="LSPECTRAL"> F  </i>
   <i type="logical" name="LSPECTRALGW"> F  </i>
   <i type="logical" name="LSINGLES"> F  </i>
   <i type="logical" name="LFERMIGW"> F  </i>
   <i type="logical" name="ODDONLYGW"> F  </i>
   <i type="logical" name="EVENONLYGW"> F  </i>
   <i type="int" name="NKREDLFX">     1</i>
   <i type="int" name="NKREDLFY">     1</i>
   <i type="int" name="NKREDLFZ">     1</i>
   <i type="int" name="MAXMEM">  1800</i>
   <i type="int" name="TELESCOPE">     0</i>
   <i type="int" name="TAUPAR">     1</i>
   <i type="int" name="OMEGAPAR">    -1</i>
   <i name="LAMBDA">      1.00000000</i>
  </separator>
  <separator name="External order field" >
   <i name="OFIELD_KAPPA">      0.00000000</i>
   <v name="OFIELD_K">      0.00000000      0.00000000      0.00000000</v>
   <i name="OFIELD_Q6_NEAR">      0.00000000</i>
   <i name="OFIELD_Q6_FAR">      0.00000000</i>
   <i name="OFIELD_A">      0.00000000</i>
  </separator>
 </parameters>
 <atominfo>
  <atoms>      48 </atoms>
  <types>       2 </types>
  <array name="atoms" >
   <dimension dim="1">ion</dimension>
   <field type="string">element</field>
   <field type="int">atomtype</field>
   <set>
    <rc><c>Au</c><c>   1</c></rc>
    <rc><c>Au</c><c>   1</c></rc>
    <rc><c>Au</c><c>   1</c></rc>
    <rc><c>Au</c><c>   1</c></rc>
    <rc><c>Au</c><c>   1</c></rc>
    <rc><c>Au</c><c>   1</c></rc>
    <rc><c>Au</c><c>   1</c></rc>
    <rc><c>Au</c><c>   1</c></rc>
    <rc><c>Au</c><c>   1</c></rc>
    <rc><c>Au</c><c>   1</c></rc>
    <rc><c>Au</c><c>   1</c></rc>
    <rc><c>Au</c><c>   1</c></rc>
    <rc><c>Au</c><c>   1</c></rc>
    <rc><c>Au</c><c>   1</c></rc>
    <rc><c>Au</c><c>   1</c></rc>
    <rc><c>Au</c><c>   1</c></rc>
    <rc><c>Au</c><c>   1</c></rc>
    <rc><c>Au</c><c>   1</c></rc>
    <rc><c>Au</c><c>   1</c></rc>
    <rc><c>Au</c><c>   1</c></rc>
    <rc><c>Au</c><c>   1</c></rc>
    <rc><c>Au</c><c>   1</c></rc>
    <rc><c>Au</c><c>   1</c></rc>
    <rc><c>Au</c><c>   1</c></rc>
    <rc><c>Pd</c><c>   2</c></rc>
    <rc><c>Pd</c><c>   2</c></rc>
    <rc><c>Pd</c><c>   2</c></rc>
    <rc><c>Pd</c><c>   2</c></rc>
    <rc><c>Pd</c><c>   2</c></rc>
    <rc><c>Pd</c><c>   2</c></rc>
    <rc><c>Pd</c><c>   2</c></rc>
    <rc><c>Pd</c><c>   2</c></rc>
    <rc><c>Pd</c><c>   2</c></rc>
    <rc><c>Pd</c><c>   2</c></rc>
    <rc><c>Pd</c><c>   2</c></rc>
    <rc><c>Pd</c><c>   2</c></rc>
    <rc><c>Pd</c><c>   2</c></rc>
    <rc><c>Pd</c><c>   2</c></rc>
    <rc><c>Pd</c><c>   2</c></rc>
    <rc><c>Pd</c><c>   2</c></rc>
    <rc><c>Pd</c><c>   2</c></rc>
    <rc><c>Pd</c><c>   2</c></rc>
    <rc><c>Pd</c><c>   2</c></rc>
    <rc><c>Pd</c><c>   2</c></rc>
    <rc><c>Pd</c><c>   2</c></rc>
    <rc><c>Pd</c><c>   2</c></rc>
    <rc><c>Pd</c><c>   2</c></rc>
    <rc><c>Pd</c><c>   2</c></rc>
   </set>
  </array>
  <array name="atomtypes" >
   <dimension dim="1">type</dimension>
   <field type="int">atomspertype</field>
   <field type="string">element</field>
   <field>mass</field>
   <field>valence</field>
   <field type="string">pseudopotential</field>
   <set>
    <rc><c>  24</c><c>Au</c><c>    196.96600000</c><c>     11.00000000</c><c>  PAW_PBE Au 04Oct2007                  </c></rc>
    <rc><c>  24</c><c>Pd</c><c>    106.42000000</c><c>     10.00000000</c><c>  PAW_PBE Pd 04Jan2005                  </c></rc>
   </set>
  </array>
 </atominfo>
 <structure name="initialpos" >
  <crystal>
   <varray name="basis" >
    <v>      11.00258152       0.00000000       0.00000000 </v>
    <v>       5.50129076       9.52851510       0.00000000 </v>
    <v>       0.00000000       0.00000000      24.49178509 </v>
   </varray>
   <i name="volume">   2567.67623402 </i>
   <varray name="rec_basis" >
    <v>       0.09088776      -0.05247407       0.00000000 </v>
    <v>       0.00000000       0.10494815       0.00000000 </v>
    <v>       0.00000000       0.00000000       0.04083002 </v>
   </varray>
  </crystal>
  <varray name="positions" >
   <v>       0.08333333       0.08333333       0.40830017 </v>
   <v>       0.08333333       0.58333333       0.40830017 </v>
   <v>       0.66666667       0.41666667       0.50000000 </v>
   <v>       0.00000000       0.50000000       0.59169983 </v>
   <v>       0.91666667       0.41666667       0.50000000 </v>
   <v>       0.08333333       0.83333333       0.40830017 </v>
   <v>       0.08333333       0.33333333       0.40830017 </v>
   <v>       0.00000000       0.00000000       0.59169983 </v>
   <v>       0.83333333       0.83333333       0.40830017 </v>
   <v>       0.75000000       0.25000000       0.59169983 </v>
   <v>       0.33333333       0.33333333       0.40830017 </v>
   <v>       0.25000000       0.00000000       0.59169983 </v>
   <v>       0.00000000       0.25000000       0.59169983 </v>
   <v>       0.25000000       0.25000000       0.59169983 </v>
   <v>       0.33333333       0.58333333       0.40830017 </v>
   <v>       0.33333333       0.83333333       0.40830017 </v>
   <v>       0.83333333       0.08333333       0.40830017 </v>
   <v>       0.50000000       0.75000000       0.59169983 </v>
   <v>       0.58333333       0.08333333       0.40830017 </v>
   <v>       0.41666667       0.16666667       0.50000000 </v>
   <v>       0.58333333       0.33333333       0.40830017 </v>
   <v>       0.58333333       0.83333333       0.40830017 </v>
   <v>       0.50000000       0.25000000       0.59169983 </v>
   <v>       0.58333333       0.58333333       0.40830017 </v>
   <v>       0.25000000       0.50000000       0.59169983 </v>
   <v>       0.16666667       0.66666667       0.50000000 </v>
   <v>       0.16666667       0.41666667       0.50000000 </v>
   <v>       0.16666667       0.16666667       0.50000000 </v>
   <v>       0.91666667       0.16666667       0.50000000 </v>
   <v>       0.00000000       0.75000000       0.59169983 </v>
   <v>       0.91666667       0.91666667       0.50000000 </v>
   <v>       0.91666667       0.66666667       0.50000000 </v>
   <v>       0.16666667       0.91666667       0.50000000 </v>
   <v>       0.33333333       0.08333333       0.40830017 </v>
   <v>       0.66666667       0.91666667       0.50000000 </v>
   <v>       0.66666667       0.16666667       0.50000000 </v>
   <v>       0.41666667       0.41666667       0.50000000 </v>
   <v>       0.25000000       0.75000000       0.59169983 </v>
   <v>       0.50000000       0.50000000       0.59169983 </v>
   <v>       0.83333333       0.58333333       0.40830017 </v>
   <v>       0.83333333       0.33333333       0.40830017 </v>
   <v>       0.66666667       0.66666667       0.50000000 </v>
   <v>       0.75000000       0.00000000       0.59169983 </v>
   <v>       0.75000000       0.50000000       0.59169983 </v>
   <v>       0.41666667       0.91666667       0.50000000 </v>
   <v>       0.41666667       0.66666667       0.50000000 </v>
   <v>       0.50000000       0.00000000       0.59169983 </v>
   <v>       0.75000000       0.75000000       0.59169983 </v>
  </varray>
  <varray name="selective"  type="logical" >
   <v type="logical" >  F  F  F </v>
   <v type="logical" >  F  F  F </v>
   <v type="logical" >  T  T  T </v>
   <v type="logical" >  T  T  T </v>
   <v type="logical" >  T  T  T </v>
   <v type="logical" >  F  F  F </v>
   <v type="logical" >  F  F  F </v>
   <v type="logical" >  T  T  T </v>
   <v type="logical" >  F  F  F </v>
   <v type="logical" >  T  T  T </v>
   <v type="logical" >  F  F  F </v>
   <v type="logical" >  T  T  T </v>
   <v type="logical" >  T  T  T </v>
   <v type="logical" >  T  T  T </v>
   <v type="logical" >  F  F  F </v>
   <v type="logical" >  F  F  F </v>
   <v type="logical" >  F  F  F </v>
   <v type="logical" >  T  T  T </v>
   <v type="logical" >  F  F  F </v>
   <v type="logical" >  T  T  T </v>
   <v type="logical" >  F  F  F </v>
   <v type="logical" >  F  F  F </v>
   <v type="logical" >  T  T  T </v>
   <v type="logical" >  F  F  F </v>
   <v type="logical" >  T  T  T </v>
   <v type="logical" >  T  T  T </v>
   <v type="logical" >  T  T  T </v>
   <v type="logical" >  T  T  T </v>
   <v type="logical" >  T  T  T </v>
   <v type="logical" >  T  T  T </v>
   <v type="logical" >  T  T  T </v>
   <v type="logical" >  T  T  T </v>
   <v type="logical" >  T  T  T </v>
   <v type="logical" >  F  F  F </v>
   <v type="logical" >  T  T  T </v>
   <v type="logical" >  T  T  T </v>
   <v type="logical" >  T  T  T </v>
   <v type="logical" >  T  T  T </v>
   <v type="logical" >  T  T  T </v>
   <v type="logical" >  F  F  F </v>
   <v type="logical" >  F  F  F </v>
   <v type="logical" >  T  T  T </v>
   <v type="logical" >  T  T  T </v>
   <v type="logical" >  T  T  T </v>
   <v type="logical" >  T  T  T </v>
   <v type="logical" >  T  T  T </v>
   <v type="logical" >  T  T  T </v>
   <v type="logical" >  T  T  T </v>
  </varray>
  <nose>
   <v>      -3.00000000       0.00000000       0.00010000       0.00010000 </v>
  </nose>
 </structure>
 <calculation>
  <scstep>
   <time name="dav">    6.80    6.82</time>
   <time name="total">    6.85    6.88</time>
   <dipole>
    <v name="dipole">      0.00000000       0.00000000       0.00000370 </v>
    <i name="Tr[quadrupol]"> -10266.39340118 </i>
    <i name="Echarged">      0.00000000 </i>
    <i name="Edipol_quadrupol">      0.00000000 </i>
    <i name="Eion">      0.00000000 </i>
   </dipole>
   <energy>
    <i name="alphaZ">    805.86936721 </i>
    <i name="ewald"> 199001.17564279 </i>
    <i name="hartreedc">-241410.97619079 </i>
    <i name="XCdc">   -327.94993169 </i>
    <i name="pawpsdc">  40340.05962942 </i>
    <i name="pawaedc"> -38292.62782345 </i>
    <i name="eentropy">     -0.13041039 </i>
    <i name="bandstr">   1424.55996583 </i>
    <i name="atom">  41659.78587232 </i>
    <i name="e_fr_energy">   3199.76612126 </i>
    <i name="e_wo_entrp">   3199.89653166 </i>
    <i name="e_0_energy">   3199.83132646 </i>
   </energy>
  </scstep>
  <scstep>
   <time name="dav">    8.27    8.31</time>
   <time name="total">    8.27    8.31</time>
   <dipole>
    <v name="dipole">      0.00000000       0.00000000       0.00000370 </v>
    <i name="Tr[quadrupol]"> -10266.39340118 </i>
    <i name="Echarged">      0.00000000 </i>
    <i name="Edipol_quadrupol">      0.00000000 </i>
    <i name="Eion">      0.00000000 </i>
   </dipole>
   <energy>
    <i name="e_fr_energy">     11.27160557 </i>
    <i name="e_wo_entrp">     11.39739091 </i>
    <i name="e_0_energy">     11.33449824 </i>
   </energy>
  </scstep>
  <scstep>
   <time name="dav">    7.89    7.98</time>
   <time name="total">    7.89    7.99</time>
   <dipole>
    <v name="dipole">      0.00000000       0.00000000       0.00000370 </v>
    <i name="Tr[quadrupol]"> -10266.39340118 </i>
    <i name="Echarged">      0.00000000 </i>
    <i name="Edipol_quadrupol">      0.00000000 </i>
    <i name="Eion">      0.00000000 </i>
   </dipole>
   <energy>
    <i name="e_fr_energy">   -203.68112408 </i>
    <i name="e_wo_entrp">   -203.53235746 </i>
    <i name="e_0_energy">   -203.60674077 </i>
   </energy>
  </scstep>
  <scstep>
   <time name="dav">    8.02    8.04</time>
   <time name="total">    8.02    8.05</time>
   <dipole>
    <v name="dipole">      0.00000000       0.00000000       0.00000370 </v>
    <i name="Tr[quadrupol]"> -10266.39340118 </i>
    <i name="Echarged">      0.00000000 </i>
    <i name="Edipol_quadrupol">      0.00000000 </i>
    <i name="Eion">      0.00000000 </i>
   </dipole>
   <energy>
    <i name="e_fr_energy">   -209.52925555 </i>
    <i name="e_wo_entrp">   -209.37544041 </i>
    <i name="e_0_energy">   -209.45234798 </i>
   </energy>
  </scstep>
  <scstep>
   <time name="dav">    8.34    8.37</time>
   <time name="total">    8.59    8.62</time>
   <dipole>
    <v name="dipole">      0.00000000       0.00000000       0.00000370 </v>
    <i name="Tr[quadrupol]"> -10266.39340118 </i>
    <i name="Echarged">      0.00000000 </i>
    <i name="Edipol_quadrupol">      0.00000000 </i>
    <i name="Eion">      0.00000000 </i>
   </dipole>
   <energy>
    <i name="e_fr_energy">   -209.72731409 </i>
    <i name="e_wo_entrp">   -209.57304115 </i>
    <i name="e_0_energy">   -209.65017762 </i>
   </energy>
  </scstep>
  <scstep>
   <time name="diag">    1.22    1.22</time>
   <time name="diis">    3.40    3.41</time>
   <time name="orth">    0.29    0.29</time>
   <time name="total">    5.20    5.27</time>
   <dipole>
    <v name="dipole">      0.00000000       0.00000000       1.66597975 </v>
    <i name="Tr[quadrupol]"> -10271.21547954 </i>
    <i name="Echarged">      0.00000000 </i>
    <i name="Edipol_quadrupol">      0.00000000 </i>
    <i name="Eion">      0.00000000 </i>
   </dipole>
   <energy>
    <i name="e_fr_energy">   -217.62967021 </i>
    <i name="e_wo_entrp">   -217.34218384 </i>
    <i name="e_0_energy">   -217.48592702 </i>
   </energy>
  </scstep>
  <scstep>
   <time name="diag">    1.21    1.22</time>
   <time name="diis">    3.29    3.30</time>
   <time name="orth">    0.29    0.29</time>
   <time name="total">    5.09    5.11</time>
   <dipole>
    <v name="dipole">      0.00000000       0.00000000      -0.90174862 </v>
    <i name="Tr[quadrupol]"> -10268.23086140 </i>
    <i name="Echarged">      0.00000000 </i>
    <i name="Edipol_quadrupol">      0.00000000 </i>
    <i name="Eion">      0.00000000 </i>
   </dipole>
   <energy>
    <i name="e_fr_energy">   -207.42833614 </i>
    <i name="e_wo_entrp">   -207.25944681 </i>
    <i name="e_0_energy">   -207.34389148 </i>
   </energy>
  </scstep>
  <scstep>
   <time name="diag">    1.21    1.22</time>
   <time name="diis">    3.36    3.37</time>
   <time name="orth">    0.28    0.29</time>
   <time name="total">    5.15    5.17</time>
   <dipole>
    <v name="dipole">      0.00000000       0.00000000       1.43820187 </v>
    <i name="Tr[quadrupol]"> -10267.76569094 </i>
    <i name="Echarged">      0.00000000 </i>
    <i name="Edipol_quadrupol">      0.00000000 </i>
    <i name="Eion">      0.00000000 </i>
   </dipole>
   <energy>
    <i name="e_fr_energy">   -218.06245786 </i>
    <i name="e_wo_entrp">   -217.80515808 </i>
    <i name="e_0_energy">   -217.93380797 </i>
   </energy>
  </scstep>
  <scstep>
   <time name="diag">    1.21    1.21</time>
   <time name="diis">    3.35    3.36</time>
   <time name="orth">    0.28    0.29</time>
   <time name="total">    5.14    5.16</time>
   <dipole>
    <v name="dipole">      0.00000000       0.00000000      -0.16304721 </v>
    <i name="Tr[quadrupol]"> -10269.54732609 </i>
    <i name="Echarged">      0.00000000 </i>
    <i name="Edipol_quadrupol">      0.00000000 </i>
    <i name="Eion">      0.00000000 </i>
   </dipole>
   <energy>
    <i name="e_fr_energy">   -219.06341546 </i>
    <i name="e_wo_entrp">   -218.82151061 </i>
    <i name="e_0_energy">   -218.94246304 </i>
   </energy>
  </scstep>
  <scstep>
   <time name="diag">    1.20    1.25</time>
   <time name="diis">    3.34    3.39</time>
   <time name="orth">    0.29    0.29</time>
   <time name="total">    5.11    5.21</time>
   <dipole>
    <v name="dipole">      0.00000000       0.00000000       0.69104149 </v>
    <i name="Tr[quadrupol]"> -10268.63895068 </i>
    <i name="Echarged">      0.00000000 </i>
    <i name="Edipol_quadrupol">      0.00000000 </i>
    <i name="Eion">      0.00000000 </i>
   </dipole>
   <energy>
    <i name="e_fr_energy">   -205.82240348 </i>
    <i name="e_wo_entrp">   -205.62996437 </i>
    <i name="e_0_energy">   -205.72618392 </i>
   </energy>
  </scstep>
  <scstep>
   <time name="diag">    1.21    1.22</time>
   <time name="diis">    3.36    3.38</time>
   <time name="orth">    0.29    0.29</time>
   <time name="total">    5.14    5.17</time>
   <dipole>
    <v name="dipole">      0.00000000       0.00000000       0.39328577 </v>
    <i name="Tr[quadrupol]"> -10269.35507677 </i>
    <i name="Echarged">      0.00000000 </i>
    <i name="Edipol_quadrupol">      0.00000000 </i>
    <i name="Eion">      0.00000000 </i>
   </dipole>
   <energy>
    <i name="e_fr_energy">   -198.68902941 </i>
    <i name="e_wo_entrp">   -198.46333675 </i>
    <i name="e_0_energy">   -198.57618308 </i>
   </energy>
  </scstep>
  <scstep>
   <time name="diag">    1.21    1.21</time>
   <time name="diis">    3.34    3.35</time>
   <time name="orth">    0.28    0.29</time>
   <time name="total">    5.11    5.13</time>
   <dipole>
    <v name="dipole">      0.00000000       0.00000000       0.30672475 </v>
    <i name="Tr[quadrupol]"> -10269.38230995 </i>
    <i name="Echarged">      0.00000000 </i>
    <i name="Edipol_quadrupol">      0.00000000 </i>
    <i name="Eion">      0.00000000 </i>
   </dipole>
   <energy>
    <i name="e_fr_energy">   -193.11758115 </i>
    <i name="e_wo_entrp">   -192.91065774 </i>
    <i name="e_0_energy">   -193.01411945 </i>
   </energy>
  </scstep>
  <scstep>
   <time name="diag">    1.21    1.22</time>
   <time name="diis">    3.29    3.29</time>
   <time name="orth">    0.29    0.30</time>
   <time name="total">    5.08    5.10</time>
   <dipole>
    <v name="dipole">      0.00000000       0.00000000       0.23661679 </v>
    <i name="Tr[quadrupol]"> -10269.80543869 </i>
    <i name="Echarged">      0.00000000 </i>
    <i name="Edipol_quadrupol">      0.00000000 </i>
    <i name="Eion">      0.00000000 </i>
   </dipole>
   <energy>
    <i name="e_fr_energy">   -191.87025434 </i>
    <i name="e_wo_entrp">   -191.63988117 </i>
    <i name="e_0_energy">   -191.75506776 </i>
   </energy>
  </scstep>
  <scstep>
   <time name="diag">    1.20    1.21</time>
   <time name="diis">    3.33    3.34</time>
   <time name="orth">    0.28    0.28</time>
   <time name="total">    5.11    5.13</time>
   <dipole>
    <v name="dipole">      0.00000000       0.00000000       0.18181645 </v>
    <i name="Tr[quadrupol]"> -10270.01651286 </i>
    <i name="Echarged">      0.00000000 </i>
    <i name="Edipol_quadrupol">      0.00000000 </i>
    <i name="Eion">      0.00000000 </i>
   </dipole>
   <energy>
    <i name="e_fr_energy">   -191.23422662 </i>
    <i name="e_wo_entrp">   -191.03862867 </i>
    <i name="e_0_energy">   -191.13642764 </i>
   </energy>
  </scstep>
  <scstep>
   <time name="diag">    1.20    1.20</time>
   <time name="diis">    3.35    3.35</time>
   <time name="orth">    0.28    0.28</time>
   <time name="total">    5.11    5.13</time>
   <dipole>
    <v name="dipole">      0.00000000       0.00000000       0.15222261 </v>
    <i name="Tr[quadrupol]"> -10269.99130824 </i>
    <i name="Echarged">      0.00000000 </i>
    <i name="Edipol_quadrupol">      0.00000000 </i>
    <i name="Eion">      0.00000000 </i>
   </dipole>
   <energy>
    <i name="e_fr_energy">   -190.96355437 </i>
    <i name="e_wo_entrp">   -190.72165640 </i>
    <i name="e_0_energy">   -190.84260539 </i>
   </energy>
  </scstep>
  <scstep>
   <time name="diag">    1.20    1.21</time>
   <time name="diis">    3.40    3.41</time>
   <time name="orth">    0.28    0.28</time>
   <time name="total">    5.17    5.18</time>
   <dipole>
    <v name="dipole">      0.00000000       0.00000000       0.14157802 </v>
    <i name="Tr[quadrupol]"> -10270.37043892 </i>
    <i name="Echarged">      0.00000000 </i>
    <i name="Edipol_quadrupol">      0.00000000 </i>
    <i name="Eion">      0.00000000 </i>
   </dipole>
   <energy>
    <i name="e_fr_energy">   -190.79333631 </i>
    <i name="e_wo_entrp">   -190.55095838 </i>
    <i name="e_0_energy">   -190.67214734 </i>
   </energy>
  </scstep>
  <scstep>
   <time name="diag">    1.20    1.20</time>
   <time name="diis">    3.37    3.38</time>
   <time name="orth">    0.28    0.29</time>
   <time name="total">    5.14    5.19</time>
   <dipole>
    <v name="dipole">      0.00000000       0.00000000       0.19006582 </v>
    <i name="Tr[quadrupol]"> -10270.54639035 </i>
    <i name="Echarged">      0.00000000 </i>
    <i name="Edipol_quadrupol">      0.00000000 </i>
    <i name="Eion">      0.00000000 </i>
   </dipole>
   <energy>
    <i name="e_fr_energy">   -190.60207131 </i>
    <i name="e_wo_entrp">   -190.34179891 </i>
    <i name="e_0_energy">   -190.47193511 </i>
   </energy>
  </scstep>
  <scstep>
   <time name="diag">    1.19    1.24</time>
   <time name="diis">    3.36    3.37</time>
   <time name="orth">    0.28    0.28</time>
   <time name="total">    5.11    5.18</time>
   <dipole>
    <v name="dipole">      0.00000000       0.00000000       0.18168876 </v>
    <i name="Tr[quadrupol]"> -10270.93529197 </i>
    <i name="Echarged">      0.00000000 </i>
    <i name="Edipol_quadrupol">      0.00000000 </i>
    <i name="Eion">      0.00000000 </i>
   </dipole>
   <energy>
    <i name="e_fr_energy">   -190.44980458 </i>
    <i name="e_wo_entrp">   -190.17253871 </i>
    <i name="e_0_energy">   -190.31117165 </i>
   </energy>
  </scstep>
  <scstep>
   <time name="diag">    1.20    1.20</time>
   <time name="diis">    3.36    3.37</time>
   <time name="orth">    0.28    0.28</time>
   <time name="total">    5.12    5.13</time>
   <dipole>
    <v name="dipole">      0.00000000       0.00000000       0.13353338 </v>
    <i name="Tr[quadrupol]"> -10271.05191692 </i>
    <i name="Echarged">      0.00000000 </i>
    <i name="Edipol_quadrupol">      0.00000000 </i>
    <i name="Eion">      0.00000000 </i>
   </dipole>
   <energy>
    <i name="e_fr_energy">   -190.39178894 </i>
    <i name="e_wo_entrp">   -190.11352720 </i>
    <i name="e_0_energy">   -190.25265807 </i>
   </energy>
  </scstep>
  <scstep>
   <time name="diag">    1.20    1.20</time>
   <time name="diis">    3.36    3.36</time>
   <time name="orth">    0.28    0.28</time>
   <time name="total">    5.12    5.13</time>
   <dipole>
    <v name="dipole">      0.00000000       0.00000000       0.10617322 </v>
    <i name="Tr[quadrupol]"> -10271.13530312 </i>
    <i name="Echarged">      0.00000000 </i>
    <i name="Edipol_quadrupol">      0.00000000 </i>
    <i name="Eion">      0.00000000 </i>
   </dipole>
   <energy>
    <i name="e_fr_energy">   -190.35361413 </i>
    <i name="e_wo_entrp">   -190.07746930 </i>
    <i name="e_0_energy">   -190.21554172 </i>
   </energy>
  </scstep>
  <scstep>
   <time name="diag">    1.19    1.20</time>
   <time name="diis">    3.33    3.34</time>
   <time name="orth">    0.28    0.28</time>
   <time name="total">    5.09    5.11</time>
   <dipole>
    <v name="dipole">      0.00000000       0.00000000       0.09897379 </v>
    <i name="Tr[quadrupol]"> -10271.19293755 </i>
    <i name="Echarged">      0.00000000 </i>
    <i name="Edipol_quadrupol">      0.00000000 </i>
    <i name="Eion">      0.00000000 </i>
   </dipole>
   <energy>
    <i name="e_fr_energy">   -190.34977916 </i>
    <i name="e_wo_entrp">   -190.07328195 </i>
    <i name="e_0_energy">   -190.21153056 </i>
   </energy>
  </scstep>
  <scstep>
   <time name="diag">    1.20    1.20</time>
   <time name="diis">    3.28    3.29</time>
   <time name="orth">    0.28    0.28</time>
   <time name="total">    5.04    5.06</time>
   <dipole>
    <v name="dipole">      0.00000000       0.00000000       0.09605994 </v>
    <i name="Tr[quadrupol]"> -10271.30781777 </i>
    <i name="Echarged">      0.00000000 </i>
    <i name="Edipol_quadrupol">      0.00000000 </i>
    <i name="Eion">      0.00000000 </i>
   </dipole>
   <energy>
    <i name="e_fr_energy">   -190.34418889 </i>
    <i name="e_wo_entrp">   -190.07134166 </i>
    <i name="e_0_energy">   -190.20776528 </i>
   </energy>
  </scstep>
  <scstep>
   <time name="diag">    1.20    1.20</time>
   <time name="diis">    3.32    3.36</time>
   <time name="orth">    0.28    0.28</time>
   <time name="total">    5.08    5.13</time>
   <dipole>
    <v name="dipole">      0.00000000       0.00000000       0.09582251 </v>
    <i name="Tr[quadrupol]"> -10271.38895514 </i>
    <i name="Echarged">      0.00000000 </i>
    <i name="Edipol_quadrupol">      0.00000000 </i>
    <i name="Eion">      0.00000000 </i>
   </dipole>
   <energy>
    <i name="e_fr_energy">   -190.34159124 </i>
    <i name="e_wo_entrp">   -190.06976130 </i>
    <i name="e_0_energy">   -190.20567627 </i>
   </energy>
  </scstep>
  <scstep>
   <time name="diag">    1.20    1.21</time>
   <time name="diis">    3.32    3.32</time>
   <time name="orth">    0.28    0.28</time>
   <time name="total">    5.08    5.10</time>
   <dipole>
    <v name="dipole">      0.00000000       0.00000000       0.08976195 </v>
    <i name="Tr[quadrupol]"> -10271.45118049 </i>
    <i name="Echarged">      0.00000000 </i>
    <i name="Edipol_quadrupol">      0.00000000 </i>
    <i name="Eion">      0.00000000 </i>
   </dipole>
   <energy>
    <i name="e_fr_energy">   -190.33957251 </i>
    <i name="e_wo_entrp">   -190.06845858 </i>
    <i name="e_0_energy">   -190.20401555 </i>
   </energy>
  </scstep>
  <scstep>
   <time name="diag">    1.19    1.20</time>
   <time name="diis">    3.31    3.40</time>
   <time name="orth">    0.27    0.28</time>
   <time name="total">    5.07    5.18</time>
   <dipole>
    <v name="dipole">      0.00000000       0.00000000       0.08625660 </v>
    <i name="Tr[quadrupol]"> -10271.48874073 </i>
    <i name="Echarged">      0.00000000 </i>
    <i name="Edipol_quadrupol">      0.00000000 </i>
    <i name="Eion">      0.00000000 </i>
   </dipole>
   <energy>
    <i name="e_fr_energy">   -190.33926372 </i>
    <i name="e_wo_entrp">   -190.06843129 </i>
    <i name="e_0_energy">   -190.20384750 </i>
   </energy>
  </scstep>
  <scstep>
   <time name="diag">    1.20    1.20</time>
   <time name="diis">    3.37    3.37</time>
   <time name="orth">    0.28    0.28</time>
   <time name="total">    5.13    5.14</time>
   <dipole>
    <v name="dipole">      0.00000000       0.00000000       0.07747320 </v>
    <i name="Tr[quadrupol]"> -10271.58376818 </i>
    <i name="Echarged">      0.00000000 </i>
    <i name="Edipol_quadrupol">      0.00000000 </i>
    <i name="Eion">      0.00000000 </i>
   </dipole>
   <energy>
    <i name="e_fr_energy">   -190.33914388 </i>
    <i name="e_wo_entrp">   -190.06848704 </i>
    <i name="e_0_energy">   -190.20381546 </i>
   </energy>
  </scstep>
  <scstep>
   <time name="diag">    1.21    1.22</time>
   <time name="diis">    3.35    3.36</time>
   <time name="orth">    0.28    0.28</time>
   <time name="total">    5.12    5.14</time>
   <dipole>
    <v name="dipole">      0.00000000       0.00000000       0.07402394 </v>
    <i name="Tr[quadrupol]"> -10271.62572015 </i>
    <i name="Echarged">      0.00000000 </i>
    <i name="Edipol_quadrupol">      0.00000000 </i>
    <i name="Eion">      0.00000000 </i>
   </dipole>
   <energy>
    <i name="e_fr_energy">   -190.33926344 </i>
    <i name="e_wo_entrp">   -190.06869808 </i>
    <i name="e_0_energy">   -190.20398076 </i>
   </energy>
  </scstep>
  <scstep>
   <time name="diag">    1.20    1.20</time>
   <time name="diis">    3.35    3.35</time>
   <time name="orth">    0.28    0.28</time>
   <time name="total">    5.10    5.12</time>
   <dipole>
    <v name="dipole">      0.00000000       0.00000000       0.07050630 </v>
    <i name="Tr[quadrupol]"> -10271.67325555 </i>
    <i name="Echarged">      0.00000000 </i>
    <i name="Edipol_quadrupol">      0.00000000 </i>
    <i name="Eion">      0.00000000 </i>
   </dipole>
   <energy>
    <i name="e_fr_energy">   -190.33953060 </i>
    <i name="e_wo_entrp">   -190.06911858 </i>
    <i name="e_0_energy">   -190.20432459 </i>
   </energy>
  </scstep>
  <scstep>
   <time name="diag">    1.20    1.20</time>
   <time name="diis">    3.37    3.39</time>
   <time name="orth">    0.28    0.28</time>
   <time name="total">    5.14    5.17</time>
   <dipole>
    <v name="dipole">      0.00000000       0.00000000       0.06773231 </v>
    <i name="Tr[quadrupol]"> -10271.70837733 </i>
    <i name="Echarged">      0.00000000 </i>
    <i name="Edipol_quadrupol">      0.00000000 </i>
    <i name="Eion">      0.00000000 </i>
   </dipole>
   <energy>
    <i name="e_fr_energy">   -190.33983713 </i>
    <i name="e_wo_entrp">   -190.06940953 </i>
    <i name="e_0_energy">   -190.20462333 </i>
   </energy>
  </scstep>
  <scstep>
   <time name="diag">    1.20    1.20</time>
   <time name="diis">    3.46    3.47</time>
   <time name="orth">    0.28    0.28</time>
   <time name="total">    5.23    5.24</time>
   <dipole>
    <v name="dipole">      0.00000000       0.00000000       0.06352357 </v>
    <i name="Tr[quadrupol]"> -10271.75294062 </i>
    <i name="Echarged">      0.00000000 </i>
    <i name="Edipol_quadrupol">      0.00000000 </i>
    <i name="Eion">      0.00000000 </i>
   </dipole>
   <energy>
    <i name="e_fr_energy">   -190.34034952 </i>
    <i name="e_wo_entrp">   -190.06977890 </i>
    <i name="e_0_energy">   -190.20506421 </i>
   </energy>
  </scstep>
  <scstep>
   <time name="diag">    1.20    1.20</time>
   <time name="diis">    3.35    3.36</time>
   <time name="orth">    0.28    0.28</time>
   <time name="total">    5.11    5.13</time>
   <dipole>
    <v name="dipole">      0.00000000       0.00000000       0.05964978 </v>
    <i name="Tr[quadrupol]"> -10271.78746231 </i>
    <i name="Echarged">      0.00000000 </i>
    <i name="Edipol_quadrupol">      0.00000000 </i>
    <i name="Eion">      0.00000000 </i>
   </dipole>
   <energy>
    <i name="e_fr_energy">   -190.34079311 </i>
    <i name="e_wo_entrp">   -190.07014677 </i>
    <i name="e_0_energy">   -190.20546994 </i>
   </energy>
  </scstep>
  <scstep>
   <time name="diag">    1.20    1.20</time>
   <time name="diis">    3.31    3.32</time>
   <time name="orth">    0.28    0.28</time>
   <time name="total">    5.08    5.09</time>
   <dipole>
    <v name="dipole">      0.00000000       0.00000000       0.05417907 </v>
    <i name="Tr[quadrupol]"> -10271.83084063 </i>
    <i name="Echarged">      0.00000000 </i>
    <i name="Edipol_quadrupol">      0.00000000 </i>
    <i name="Eion">      0.00000000 </i>
   </dipole>
   <energy>
    <i name="e_fr_energy">   -190.34134753 </i>
    <i name="e_wo_entrp">   -190.07071648 </i>
    <i name="e_0_energy">   -190.20603200 </i>
   </energy>
  </scstep>
  <scstep>
   <time name="diag">    1.20    1.20</time>
   <time name="diis">    2.66    2.76</time>
   <time name="orth">    0.28    0.28</time>
   <time name="total">    4.43    4.54</time>
   <dipole>
    <v name="dipole">      0.00000000       0.00000000       0.05222708 </v>
    <i name="Tr[quadrupol]"> -10271.84411724 </i>
    <i name="Echarged">      0.00000000 </i>
    <i name="Edipol_quadrupol">      0.00000000 </i>
    <i name="Eion">      0.00000000 </i>
   </dipole>
   <energy>
    <i name="e_fr_energy">   -190.34155194 </i>
    <i name="e_wo_entrp">   -190.07089450 </i>
    <i name="e_0_energy">   -190.20622322 </i>
   </energy>
  </scstep>
  <scstep>
   <time name="diag">    1.20    1.21</time>
   <time name="diis">    2.67    2.68</time>
   <time name="orth">    0.28    0.28</time>
   <time name="total">    4.45    4.46</time>
   <dipole>
    <v name="dipole">      0.00000000       0.00000000       0.04935563 </v>
    <i name="Tr[quadrupol]"> -10271.86085628 </i>
    <i name="Echarged">      0.00000000 </i>
    <i name="Edipol_quadrupol">      0.00000000 </i>
    <i name="Eion">      0.00000000 </i>
   </dipole>
   <energy>
    <i name="e_fr_energy">   -190.34181153 </i>
    <i name="e_wo_entrp">   -190.07119472 </i>
    <i name="e_0_energy">   -190.20650313 </i>
   </energy>
  </scstep>
  <scstep>
   <time name="diag">    1.19    1.21</time>
   <time name="diis">    2.54    2.57</time>
   <time name="orth">    0.28    0.28</time>
   <time name="total">    4.30    4.35</time>
   <dipole>
    <v name="dipole">      0.00000000       0.00000000       0.04700918 </v>
    <i name="Tr[quadrupol]"> -10271.87401201 </i>
    <i name="Echarged">      0.00000000 </i>
    <i name="Edipol_quadrupol">      0.00000000 </i>
    <i name="Eion">      0.00000000 </i>
   </dipole>
   <energy>
    <i name="e_fr_energy">   -190.34198095 </i>
    <i name="e_wo_entrp">   -190.07133681 </i>
    <i name="e_0_energy">   -190.20665888 </i>
   </energy>
  </scstep>
  <scstep>
   <time name="diag">    1.20    1.20</time>
   <time name="diis">    2.37    2.37</time>
   <time name="orth">    0.28    0.28</time>
   <time name="total">    4.14    4.15</time>
   <dipole>
    <v name="dipole">      0.00000000       0.00000000       0.04536387 </v>
    <i name="Tr[quadrupol]"> -10271.88234074 </i>
    <i name="Echarged">      0.00000000 </i>
    <i name="Edipol_quadrupol">      0.00000000 </i>
    <i name="Eion">      0.00000000 </i>
   </dipole>
   <energy>
    <i name="e_fr_energy">   -190.34206411 </i>
    <i name="e_wo_entrp">   -190.07142423 </i>
    <i name="e_0_energy">   -190.20674417 </i>
   </energy>
  </scstep>
  <scstep>
   <time name="diag">    1.20    1.20</time>
   <time name="diis">    2.08    2.09</time>
   <time name="orth">    0.28    0.28</time>
   <time name="total">    3.85    3.87</time>
   <dipole>
    <v name="dipole">      0.00000000       0.00000000       0.04456922 </v>
    <i name="Tr[quadrupol]"> -10271.88452827 </i>
    <i name="Echarged">      0.00000000 </i>
    <i name="Edipol_quadrupol">      0.00000000 </i>
    <i name="Eion">      0.00000000 </i>
   </dipole>
   <energy>
    <i name="e_fr_energy">   -190.34210018 </i>
    <i name="e_wo_entrp">   -190.07147164 </i>
    <i name="e_0_energy">   -190.20678591 </i>
   </energy>
  </scstep>
  <scstep>
   <time name="diag">    1.21    1.21</time>
   <time name="diis">    2.05    2.05</time>
   <time name="orth">    0.28    0.28</time>
   <time name="total">    3.83    3.84</time>
   <dipole>
    <v name="dipole">      0.00000000       0.00000000       0.04362294 </v>
    <i name="Tr[quadrupol]"> -10271.88703687 </i>
    <i name="Echarged">      0.00000000 </i>
    <i name="Edipol_quadrupol">      0.00000000 </i>
    <i name="Eion">      0.00000000 </i>
   </dipole>
   <energy>
    <i name="e_fr_energy">   -190.34213600 </i>
    <i name="e_wo_entrp">   -190.07152315 </i>
    <i name="e_0_energy">   -190.20682957 </i>
   </energy>
  </scstep>
  <scstep>
   <time name="diag">    1.20    1.20</time>
   <time name="diis">    2.07    2.08</time>
   <time name="orth">    0.28    0.28</time>
   <time name="total">    3.83    3.85</time>
   <dipole>
    <v name="dipole">      0.00000000       0.00000000       0.04257391 </v>
    <i name="Tr[quadrupol]"> -10271.88932044 </i>
    <i name="Echarged">      0.00000000 </i>
    <i name="Edipol_quadrupol">      0.00000000 </i>
    <i name="Eion">      0.00000000 </i>
   </dipole>
   <energy>
    <i name="e_fr_energy">   -190.34216606 </i>
    <i name="e_wo_entrp">   -190.07155946 </i>
    <i name="e_0_energy">   -190.20686276 </i>
   </energy>
  </scstep>
  <scstep>
   <time name="diag">    1.20    1.20</time>
   <time name="diis">    1.75    1.75</time>
   <time name="orth">    0.28    0.28</time>
   <time name="total">    3.52    3.53</time>
   <dipole>
    <v name="dipole">      0.00000000       0.00000000       0.04211375 </v>
    <i name="Tr[quadrupol]"> -10271.89042349 </i>
    <i name="Echarged">      0.00000000 </i>
    <i name="Edipol_quadrupol">      0.00000000 </i>
    <i name="Eion">      0.00000000 </i>
   </dipole>
   <energy>
    <i name="e_fr_energy">   -190.34217442 </i>
    <i name="e_wo_entrp">   -190.07156479 </i>
    <i name="e_0_energy">   -190.20686960 </i>
   </energy>
  </scstep>
  <scstep>
   <time name="diag">    1.20    1.20</time>
   <time name="diis">    1.82    1.82</time>
   <time name="orth">    0.28    0.28</time>
   <time name="total">    3.59    3.60</time>
   <dipole>
    <v name="dipole">      0.00000000       0.00000000       0.04169518 </v>
    <i name="Tr[quadrupol]"> -10271.89159842 </i>
    <i name="Echarged">      0.00000000 </i>
    <i name="Edipol_quadrupol">      0.00000000 </i>
    <i name="Eion">      0.00000000 </i>
   </dipole>
   <energy>
    <i name="e_fr_energy">   -190.34218004 </i>
    <i name="e_wo_entrp">   -190.07156600 </i>
    <i name="e_0_energy">   -190.20687302 </i>
   </energy>
  </scstep>
  <scstep>
   <time name="diag">    1.21    1.21</time>
   <time name="diis">    1.66    1.66</time>
   <time name="orth">    0.28    0.28</time>
   <time name="total">    3.43    3.45</time>
   <dipole>
    <v name="dipole">      0.00000000       0.00000000       0.04132198 </v>
    <i name="Tr[quadrupol]"> -10271.89268761 </i>
    <i name="Echarged">      0.00000000 </i>
    <i name="Edipol_quadrupol">      0.00000000 </i>
    <i name="Eion">      0.00000000 </i>
   </dipole>
   <energy>
    <i name="e_fr_energy">   -190.34218351 </i>
    <i name="e_wo_entrp">   -190.07157039 </i>
    <i name="e_0_energy">   -190.20687695 </i>
   </energy>
  </scstep>
  <scstep>
   <time name="diag">    1.20    1.20</time>
   <time name="diis">    1.44    1.45</time>
   <time name="orth">    0.28    0.28</time>
   <time name="total">    3.22    3.25</time>
   <dipole>
    <v name="dipole">      0.00000000       0.00000000       0.04104655 </v>
    <i name="Tr[quadrupol]"> -10271.89348728 </i>
    <i name="Echarged">      0.00000000 </i>
    <i name="Edipol_quadrupol">      0.00000000 </i>
    <i name="Eion">      0.00000000 </i>
   </dipole>
   <energy>
    <i name="e_fr_energy">   -190.34218502 </i>
    <i name="e_wo_entrp">   -190.07157133 </i>
    <i name="e_0_energy">   -190.20687817 </i>
   </energy>
  </scstep>
  <scstep>
   <time name="diag">    1.19    1.24</time>
   <time name="diis">    1.43    1.43</time>
   <time name="orth">    0.28    0.28</time>
   <time name="total">    3.19    3.25</time>
   <dipole>
    <v name="dipole">      0.00000000       0.00000000       0.04077862 </v>
    <i name="Tr[quadrupol]"> -10271.89438157 </i>
    <i name="Echarged">      0.00000000 </i>
    <i name="Edipol_quadrupol">      0.00000000 </i>
    <i name="Eion">      0.00000000 </i>
   </dipole>
   <energy>
    <i name="e_fr_energy">   -190.34218614 </i>
    <i name="e_wo_entrp">   -190.07157269 </i>
    <i name="e_0_energy">   -190.20687942 </i>
   </energy>
  </scstep>
  <scstep>
   <time name="diag">    1.21    1.21</time>
   <time name="diis">    1.37    1.37</time>
   <time name="orth">    0.28    0.28</time>
   <time name="total">    2.90    2.91</time>
   <dipole>
    <v name="dipole">      0.00000000       0.00000000       0.04060100 </v>
    <i name="Tr[quadrupol]"> -10271.89502247 </i>
    <i name="Echarged">      0.00000000 </i>
    <i name="Edipol_quadrupol">      0.00000000 </i>
    <i name="Eion">      0.00000000 </i>
   </dipole>
   <energy>
    <i name="alphaZ">    805.90143753 </i>
    <i name="ewald"> 199001.17564279 </i>
    <i name="hartreedc">-241194.84584233 </i>
    <i name="XCdc">   -344.21627087 </i>
    <i name="pawpsdc">  49162.19201890 </i>
    <i name="pawaedc"> -47241.42160857 </i>
    <i name="eentropy">     -0.27061464 </i>
    <i name="bandstr">  -2038.64282187 </i>
    <i name="atom">  41659.78587232 </i>
    <i name="e_fr_energy">   -190.34218673 </i>
    <i name="e_wo_entrp">   -190.07157210 </i>
    <i name="e_0_energy">   -190.20687942 </i>
   </energy>
  </scstep>
  <structure>
   <crystal>
    <varray name="basis" >
     <v>      11.00258152       0.00000000       0.00000000 </v>
     <v>       5.50129076       9.52851510       0.00000000 </v>
     <v>       0.00000000       0.00000000      24.49178509 </v>
    </varray>
    <i name="volume">   2567.67623402 </i>
    <varray name="rec_basis" >
     <v>       0.09088776      -0.05247407       0.00000000 </v>
     <v>       0.00000000       0.10494815       0.00000000 </v>
     <v>       0.00000000       0.00000000       0.04083002 </v>
    </varray>
   </crystal>
   <varray name="positions" >
    <v>       0.08333333       0.08333333       0.40830017 </v>
    <v>       0.08333333       0.58333333       0.40830017 </v>
    <v>       0.66666667       0.41666667       0.50000000 </v>
    <v>       0.00000000       0.50000000       0.59169983 </v>
    <v>       0.91666667       0.41666667       0.50000000 </v>
    <v>       0.08333333       0.83333333       0.40830017 </v>
    <v>       0.08333333       0.33333333       0.40830017 </v>
    <v>       0.00000000       0.00000000       0.59169983 </v>
    <v>       0.83333333       0.83333333       0.40830017 </v>
    <v>       0.75000000       0.25000000       0.59169983 </v>
    <v>       0.33333333       0.33333333       0.40830017 </v>
    <v>       0.25000000       0.00000000       0.59169983 </v>
    <v>       0.00000000       0.25000000       0.59169983 </v>
    <v>       0.25000000       0.25000000       0.59169983 </v>
    <v>       0.33333333       0.58333333       0.40830017 </v>
    <v>       0.33333333       0.83333333       0.40830017 </v>
    <v>       0.83333333       0.08333333       0.40830017 </v>
    <v>       0.50000000       0.75000000       0.59169983 </v>
    <v>       0.58333333       0.08333333       0.40830017 </v>
    <v>       0.41666667       0.16666667       0.50000000 </v>
    <v>       0.58333333       0.33333333       0.40830017 </v>
    <v>       0.58333333       0.83333333       0.40830017 </v>
    <v>       0.50000000       0.25000000       0.59169983 </v>
    <v>       0.58333333       0.58333333       0.40830017 </v>
    <v>       0.25000000       0.50000000       0.59169983 </v>
    <v>       0.16666667       0.66666667       0.50000000 </v>
    <v>       0.16666667       0.41666667       0.50000000 </v>
    <v>       0.16666667       0.16666667       0.50000000 </v>
    <v>       0.91666667       0.16666667       0.50000000 </v>
    <v>       0.00000000       0.75000000       0.59169983 </v>
    <v>       0.91666667       0.91666667       0.50000000 </v>
    <v>       0.91666667       0.66666667       0.50000000 </v>
    <v>       0.16666667       0.91666667       0.50000000 </v>
    <v>       0.33333333       0.08333333       0.40830017 </v>
    <v>       0.66666667       0.91666667       0.50000000 </v>
    <v>       0.66666667       0.16666667       0.50000000 </v>
    <v>       0.41666667       0.41666667       0.50000000 </v>
    <v>       0.25000000       0.75000000       0.59169983 </v>
    <v>       0.50000000       0.50000000       0.59169983 </v>
    <v>       0.83333333       0.58333333       0.40830017 </v>
    <v>       0.83333333       0.33333333       0.40830017 </v>
    <v>       0.66666667       0.66666667       0.50000000 </v>
    <v>       0.75000000       0.00000000       0.59169983 </v>
    <v>       0.75000000       0.50000000       0.59169983 </v>
    <v>       0.41666667       0.91666667       0.50000000 </v>
    <v>       0.41666667       0.66666667       0.50000000 </v>
    <v>       0.50000000       0.00000000       0.59169983 </v>
    <v>       0.75000000       0.75000000       0.59169983 </v>
   </varray>
  </structure>
  <varray name="forces" >
   <v>       0.12507217       0.19849345      -1.10369249 </v>
   <v>      -0.24675694       0.00419510      -1.15021334 </v>
   <v>      -0.09145455       0.12008758       0.25949409 </v>
   <v>       0.14424221       0.51462727       1.33992158 </v>
   <v>      -0.08178362       0.25319423      -0.25896390 </v>
   <v>      -0.00577949       0.00458981      -1.12318805 </v>
   <v>      -0.13351250      -0.06332728      -1.29731936 </v>
   <v>      -0.26550629      -0.42063583       1.09784023 </v>
   <v>      -0.14074059      -0.23238761      -1.11992561 </v>
   <v>      -0.17094166       0.04171167       1.34589423 </v>
   <v>      -0.12556619      -0.05111752      -1.34720885 </v>
   <v>       0.10635573      -0.24153812       1.14894974 </v>
   <v>      -0.09340562       0.02516310       1.41192171 </v>
   <v>       0.14751293       0.06784983       1.39547054 </v>
   <v>      -0.00590198      -0.00004592      -1.12377348 </v>
   <v>       0.14777754       0.20625034      -1.10918153 </v>
   <v>       0.14970733       0.20551242      -1.12004474 </v>
   <v>       0.12701194      -0.17018025       1.06210873 </v>
   <v>      -0.10828384      -0.09964906      -1.33644488 </v>
   <v>      -0.16934258      -0.32341995       0.06846172 </v>
   <v>       0.13426926      -0.06679927      -1.37621625 </v>
   <v>       0.01104853      -0.04704076      -1.11974169 </v>
   <v>       0.11474205       0.06980037       1.34460896 </v>
   <v>       0.34195250      -0.03123451      -1.36096612 </v>
   <v>       0.17251859       0.35402092       0.49275903 </v>
   <v>       0.02005915      -0.05056582       0.61614208 </v>
   <v>       0.21715115       0.30188455       0.13485243 </v>
   <v>       0.02375022      -0.27269104      -0.21835358 </v>
   <v>      -0.04535025      -0.21159718      -0.15723450 </v>
   <v>       0.01299551      -0.01308710       0.43737534 </v>
   <v>      -0.13280195      -0.06158610       0.45770577 </v>
   <v>      -0.01024825       0.25729558       0.26646951 </v>
   <v>       0.03216237      -0.13746257       0.19042591 </v>
   <v>      -0.09191764      -0.01821850      -0.73665814 </v>
   <v>       0.10122672      -0.23740418       0.55708378 </v>
   <v>       0.12757986      -0.33718406       0.19966948 </v>
   <v>      -0.11243753       0.35765257       0.37038366 </v>
   <v>      -0.21947161      -0.28552917       0.46431679 </v>
   <v>      -0.14971938       0.17635868       0.67425849 </v>
   <v>      -0.02804042      -0.04152266      -0.68625850 </v>
   <v>       0.08195412       0.01675870      -0.88931859 </v>
   <v>       0.22642066       0.25495560       0.21981220 </v>
   <v>      -0.17978830      -0.33760286       0.53595837 </v>
   <v>      -0.11029221       0.26446300       0.82980905 </v>
   <v>       0.00306750      -0.01754344       0.05581255 </v>
   <v>      -0.23487792       0.08090339       0.42203059 </v>
   <v>       0.27897705      -0.22666525       0.72016979 </v>
   <v>       0.10636622       0.22026786       0.51499724 </v>
  </varray>
  <energy>
   <i name="e_fr_energy">   -190.34218673 </i>
   <i name="e_wo_entrp">   -190.20687942 </i>
   <i name="e_0_energy">     -0.27061464 </i>
  </energy>
  <time name="totalsc">  228.94  230.34</time>
 </calculation>
 <calculation>
  <scstep>
   <time name="dav">    6.98    7.00</time>
   <time name="total">    7.27    7.30</time>
   <dipole>
    <v name="dipole">      0.00000000       0.00000000       0.04049617 </v>
    <i name="Tr[quadrupol]"> -10263.68157584 </i>
    <i name="Echarged">      0.00000000 </i>
    <i name="Edipol_quadrupol">      0.00000000 </i>
    <i name="Eion">      0.00000000 </i>
   </dipole>
   <energy>
    <i name="alphaZ">    805.88302218 </i>
    <i name="ewald"> 197876.60654673 </i>
    <i name="hartreedc">-240076.83767764 </i>
    <i name="XCdc">   -345.12850228 </i>
    <i name="pawpsdc">  49162.19182539 </i>
    <i name="pawaedc"> -47241.42134874 </i>
    <i name="eentropy">     -0.26609863 </i>
    <i name="bandstr">  -2031.60667090 </i>
    <i name="atom">  41659.78587232 </i>
    <i name="e_fr_energy">   -190.79303158 </i>
    <i name="e_wo_entrp">   -190.52693295 </i>
    <i name="e_0_energy">   -190.65998227 </i>
   </energy>
  </scstep>
  <scstep>
   <time name="diag">    1.20    1.20</time>
   <time name="diis">    3.38    3.39</time>
   <time name="orth">    0.28    0.28</time>
   <time name="total">    5.15    5.17</time>
   <dipole>
    <v name="dipole">      0.00000000       0.00000000       0.08104376 </v>
    <i name="Tr[quadrupol]"> -10263.53245162 </i>
    <i name="Echarged">      0.00000000 </i>
    <i name="Edipol_quadrupol">      0.00000000 </i>
    <i name="Eion">      0.00000000 </i>
   </dipole>
   <energy>
    <i name="e_fr_energy">   -190.96488521 </i>
    <i name="e_wo_entrp">   -190.69331436 </i>
    <i name="e_0_energy">   -190.82909978 </i>
   </energy>
  </scstep>
  <scstep>
   <time name="diag">    1.20    1.21</time>
   <time name="diis">    3.50    3.51</time>
   <time name="orth">    0.28    0.28</time>
   <time name="total">    5.27    5.29</time>
   <dipole>
    <v name="dipole">      0.00000000       0.00000000      -0.00269172 </v>
    <i name="Tr[quadrupol]"> -10263.71103750 </i>
    <i name="Echarged">      0.00000000 </i>
    <i name="Edipol_quadrupol">      0.00000000 </i>
    <i name="Eion">      0.00000000 </i>
   </dipole>
   <energy>
    <i name="e_fr_energy">   -190.99637104 </i>
    <i name="e_wo_entrp">   -190.74442908 </i>
    <i name="e_0_energy">   -190.87040006 </i>
   </energy>
  </scstep>
  <scstep>
   <time name="diag">    1.20    1.21</time>
   <time name="diis">    3.36    3.38</time>
   <time name="orth">    0.28    0.28</time>
   <time name="total">    5.12    5.16</time>
   <dipole>
    <v name="dipole">      0.00000000       0.00000000       0.04522730 </v>
    <i name="Tr[quadrupol]"> -10263.72604321 </i>
    <i name="Echarged">      0.00000000 </i>
    <i name="Edipol_quadrupol">      0.00000000 </i>
    <i name="Eion">      0.00000000 </i>
   </dipole>
   <energy>
    <i name="e_fr_energy">   -190.93944523 </i>
    <i name="e_wo_entrp">   -190.67340679 </i>
    <i name="e_0_energy">   -190.80642601 </i>
   </energy>
  </scstep>
  <scstep>
   <time name="diag">    1.19    1.20</time>
   <time name="diis">    3.38    3.39</time>
   <time name="orth">    0.28    0.28</time>
   <time name="total">    5.14    5.16</time>
   <dipole>
    <v name="dipole">      0.00000000       0.00000000       0.01535816 </v>
    <i name="Tr[quadrupol]"> -10263.68778233 </i>
    <i name="Echarged">      0.00000000 </i>
    <i name="Edipol_quadrupol">      0.00000000 </i>
    <i name="Eion">      0.00000000 </i>
   </dipole>
   <energy>
    <i name="e_fr_energy">   -190.94469799 </i>
    <i name="e_wo_entrp">   -190.67136529 </i>
    <i name="e_0_energy">   -190.80803164 </i>
   </energy>
  </scstep>
  <scstep>
   <time name="diag">    1.20    1.20</time>
   <time name="diis">    3.26    3.35</time>
   <time name="orth">    0.28    0.28</time>
   <time name="total">    5.02    5.12</time>
   <dipole>
    <v name="dipole">      0.00000000       0.00000000       0.05769147 </v>
    <i name="Tr[quadrupol]"> -10263.70200261 </i>
    <i name="Echarged">      0.00000000 </i>
    <i name="Edipol_quadrupol">      0.00000000 </i>
    <i name="Eion">      0.00000000 </i>
   </dipole>
   <energy>
    <i name="e_fr_energy">   -190.93451546 </i>
    <i name="e_wo_entrp">   -190.66647751 </i>
    <i name="e_0_energy">   -190.80049648 </i>
   </energy>
  </scstep>
  <scstep>
   <time name="diag">    1.20    1.21</time>
   <time name="diis">    3.35    3.36</time>
   <time name="orth">    0.28    0.28</time>
   <time name="total">    5.12    5.13</time>
   <dipole>
    <v name="dipole">      0.00000000       0.00000000       0.05207684 </v>
    <i name="Tr[quadrupol]"> -10263.69930007 </i>
    <i name="Echarged">      0.00000000 </i>
    <i name="Edipol_quadrupol">      0.00000000 </i>
    <i name="Eion">      0.00000000 </i>
   </dipole>
   <energy>
    <i name="e_fr_energy">   -190.93281542 </i>
    <i name="e_wo_entrp">   -190.66209993 </i>
    <i name="e_0_energy">   -190.79745768 </i>
   </energy>
  </scstep>
  <scstep>
   <time name="diag">    1.20    1.21</time>
   <time name="diis">    3.38    3.39</time>
   <time name="orth">    0.28    0.28</time>
   <time name="total">    5.15    5.16</time>
   <dipole>
    <v name="dipole">      0.00000000       0.00000000       0.04543866 </v>
    <i name="Tr[quadrupol]"> -10263.69123226 </i>
    <i name="Echarged">      0.00000000 </i>
    <i name="Edipol_quadrupol">      0.00000000 </i>
    <i name="Eion">      0.00000000 </i>
   </dipole>
   <energy>
    <i name="e_fr_energy">   -190.93159140 </i>
    <i name="e_wo_entrp">   -190.66178495 </i>
    <i name="e_0_energy">   -190.79668818 </i>
   </energy>
  </scstep>
  <scstep>
   <time name="diag">    1.19    1.20</time>
   <time name="diis">    3.37    3.38</time>
   <time name="orth">    0.28    0.28</time>
   <time name="total">    5.15    5.17</time>
   <dipole>
    <v name="dipole">      0.00000000       0.00000000       0.04527036 </v>
    <i name="Tr[quadrupol]"> -10263.68758223 </i>
    <i name="Echarged">      0.00000000 </i>
    <i name="Edipol_quadrupol">      0.00000000 </i>
    <i name="Eion">      0.00000000 </i>
   </dipole>
   <energy>
    <i name="e_fr_energy">   -190.93138594 </i>
    <i name="e_wo_entrp">   -190.66177405 </i>
    <i name="e_0_energy">   -190.79658000 </i>
   </energy>
  </scstep>
  <scstep>
   <time name="diag">    1.20    1.20</time>
   <time name="diis">    3.32    3.33</time>
   <time name="orth">    0.28    0.28</time>
   <time name="total">    5.09    5.11</time>
   <dipole>
    <v name="dipole">      0.00000000       0.00000000       0.04551158 </v>
    <i name="Tr[quadrupol]"> -10263.68413798 </i>
    <i name="Echarged">      0.00000000 </i>
    <i name="Edipol_quadrupol">      0.00000000 </i>
    <i name="Eion">      0.00000000 </i>
   </dipole>
   <energy>
    <i name="e_fr_energy">   -190.93126629 </i>
    <i name="e_wo_entrp">   -190.66182062 </i>
    <i name="e_0_energy">   -190.79654345 </i>
   </energy>
  </scstep>
  <scstep>
   <time name="diag">    1.20    1.21</time>
   <time name="diis">    3.37    3.38</time>
   <time name="orth">    0.28    0.28</time>
   <time name="total">    5.13    5.15</time>
   <dipole>
    <v name="dipole">      0.00000000       0.00000000       0.04553764 </v>
    <i name="Tr[quadrupol]"> -10263.68378079 </i>
    <i name="Echarged">      0.00000000 </i>
    <i name="Edipol_quadrupol">      0.00000000 </i>
    <i name="Eion">      0.00000000 </i>
   </dipole>
   <energy>
    <i name="e_fr_energy">   -190.93123689 </i>
    <i name="e_wo_entrp">   -190.66175577 </i>
    <i name="e_0_energy">   -190.79649633 </i>
   </energy>
  </scstep>
  <scstep>
   <time name="diag">    1.20    1.20</time>
   <time name="diis">    3.32    3.34</time>
   <time name="orth">    0.28    0.28</time>
   <time name="total">    5.09    5.11</time>
   <dipole>
    <v name="dipole">      0.00000000       0.00000000       0.04569371 </v>
    <i name="Tr[quadrupol]"> -10263.68521769 </i>
    <i name="Echarged">      0.00000000 </i>
    <i name="Edipol_quadrupol">      0.00000000 </i>
    <i name="Eion">      0.00000000 </i>
   </dipole>
   <energy>
    <i name="e_fr_energy">   -190.93123203 </i>
    <i name="e_wo_entrp">   -190.66171527 </i>
    <i name="e_0_energy">   -190.79647365 </i>
   </energy>
  </scstep>
  <scstep>
   <time name="diag">    1.19    1.19</time>
   <time name="diis">    3.02    3.03</time>
   <time name="orth">    0.28    0.28</time>
   <time name="total">    4.79    4.80</time>
   <dipole>
    <v name="dipole">      0.00000000       0.00000000       0.04561724 </v>
    <i name="Tr[quadrupol]"> -10263.68624739 </i>
    <i name="Echarged">      0.00000000 </i>
    <i name="Edipol_quadrupol">      0.00000000 </i>
    <i name="Eion">      0.00000000 </i>
   </dipole>
   <energy>
    <i name="e_fr_energy">   -190.93122874 </i>
    <i name="e_wo_entrp">   -190.66172458 </i>
    <i name="e_0_energy">   -190.79647666 </i>
   </energy>
  </scstep>
  <scstep>
   <time name="diag">    1.20    1.20</time>
   <time name="diis">    2.29    2.39</time>
   <time name="orth">    0.28    0.28</time>
   <time name="total">    3.82    3.92</time>
   <dipole>
    <v name="dipole">      0.00000000       0.00000000       0.04571210 </v>
    <i name="Tr[quadrupol]"> -10263.68731677 </i>
    <i name="Echarged">      0.00000000 </i>
    <i name="Edipol_quadrupol">      0.00000000 </i>
    <i name="Eion">      0.00000000 </i>
   </dipole>
   <energy>
    <i name="alphaZ">    805.88477293 </i>
    <i name="ewald"> 197876.60654673 </i>
    <i name="hartreedc">-240077.24056280 </i>
    <i name="XCdc">   -345.10400814 </i>
    <i name="pawpsdc">  48981.99589100 </i>
    <i name="pawaedc"> -47059.93165441 </i>
    <i name="eentropy">     -0.26954950 </i>
    <i name="bandstr">  -2032.65853677 </i>
    <i name="atom">  41659.78587232 </i>
    <i name="e_fr_energy">   -190.93122867 </i>
    <i name="e_wo_entrp">   -190.66167917 </i>
    <i name="e_0_energy">   -190.79645392 </i>
   </energy>
  </scstep>
  <structure>
   <crystal>
    <varray name="basis" >
     <v>      11.00258152       0.00000000       0.00000000 </v>
     <v>       5.50129076       9.52851510       0.00000000 </v>
     <v>       0.00000000       0.00000000      24.49178509 </v>
    </varray>
    <i name="volume">   2567.67623402 </i>
    <varray name="rec_basis" >
     <v>       0.09088776      -0.05247407       0.00000000 </v>
     <v>       0.00000000       0.10494815       0.00000000 </v>
     <v>       0.00000000       0.00000000       0.04083002 </v>
    </varray>
   </crystal>
   <varray name="positions" >
    <v>       0.08333333       0.08333333       0.40830017 </v>
    <v>       0.08333333       0.58333333       0.40830017 </v>
    <v>       0.66617317       0.41709227       0.50035780 </v>
    <v>      -0.00046922       0.50182388       0.59354735 </v>
    <v>       0.91596698       0.41756401       0.49964293 </v>
    <v>       0.08333333       0.83333333       0.40830017 </v>
    <v>       0.08333333       0.33333333       0.40830017 </v>
    <v>      -0.00006953      -0.00149077       0.59321356 </v>
    <v>       0.83333333       0.83333333       0.40830017 </v>
    <v>       0.74940142       0.25014783       0.59355558 </v>
    <v>       0.33333333       0.33333333       0.40830017 </v>
    <v>       0.25075445      -0.00085603       0.59328403 </v>
    <v>      -0.00033128       0.25008918       0.59364662 </v>
    <v>       0.25033252       0.25024047       0.59362394 </v>
    <v>       0.33333333       0.58333333       0.40830017 </v>
    <v>       0.33333333       0.83333333       0.40830017 </v>
    <v>       0.83333333       0.08333333       0.40830017 </v>
    <v>       0.50069140       0.74939687       0.59316429 </v>
    <v>       0.58333333       0.08333333       0.40830017 </v>
    <v>       0.41672002       0.16552044       0.50009440 </v>
    <v>       0.58333333       0.33333333       0.40830017 </v>
    <v>       0.58333333       0.83333333       0.40830017 </v>
    <v>       0.50022848       0.25024738       0.59355381 </v>
    <v>       0.58333333       0.58333333       0.40830017 </v>
    <v>       0.24990217       0.50125468       0.59237926 </v>
    <v>       0.16681784       0.66648746       0.50084955 </v>
    <v>       0.16679821       0.41773657       0.50018594 </v>
    <v>       0.16722278       0.16570023       0.49969893 </v>
    <v>       0.91690243       0.16591675       0.49978320 </v>
    <v>       0.00006308       0.74995362       0.59230289 </v>
    <v>       0.91636820       0.91644840       0.50063110 </v>
    <v>       0.91617927       0.66757854       0.50036741 </v>
    <v>       0.16700897       0.91617949       0.50026256 </v>
    <v>       0.33333333       0.08333333       0.40830017 </v>
    <v>       0.66739805       0.91582529       0.50076812 </v>
    <v>       0.66765575       0.16547166       0.50027531 </v>
    <v>       0.41568779       0.41793422       0.50051069 </v>
    <v>       0.24983235       0.74898806       0.59234004 </v>
    <v>       0.49922796       0.50062503       0.59262951 </v>
    <v>       0.83333333       0.58333333       0.40830017 </v>
    <v>       0.83333333       0.33333333       0.40830017 </v>
    <v>       0.66690982       0.66757025       0.50030308 </v>
    <v>       0.75004643      -0.00119649       0.59243882 </v>
    <v>       0.74919284       0.50093728       0.59284399 </v>
    <v>       0.41670717       0.91660449       0.50007696 </v>
    <v>       0.41580240       0.66695340       0.50058191 </v>
    <v>       0.50125792      -0.00080332       0.59269282 </v>
    <v>       0.74993614       0.75078065       0.59240992 </v>
   </varray>
  </structure>
  <varray name="forces" >
   <v>       0.11655644       0.16771786      -1.11393650 </v>
   <v>      -0.23449067       0.03697199      -1.07935365 </v>
   <v>      -0.06274747       0.03205117       0.39995808 </v>
   <v>       0.04294202       0.26234604       0.98733601 </v>
   <v>       0.02013516       0.10386966       0.21754409 </v>
   <v>      -0.02619006      -0.01393537      -1.02037802 </v>
   <v>      -0.10154216      -0.05599418      -1.26249702 </v>
   <v>      -0.14005677      -0.20985383       0.85969798 </v>
   <v>      -0.14010682      -0.21137485      -1.05782909 </v>
   <v>      -0.07434328       0.00922486       1.01319239 </v>
   <v>      -0.10343097      -0.05903460      -1.26443332 </v>
   <v>       0.06138431      -0.13981572       0.87742472 </v>
   <v>      -0.04943513       0.04683807       0.95271989 </v>
   <v>       0.07257071       0.06330144       1.00900479 </v>
   <v>      -0.01526753       0.01584846      -1.05299340 </v>
   <v>       0.14484632       0.18425587      -1.06470012 </v>
   <v>       0.13155520       0.17279188      -1.09802396 </v>
   <v>       0.07193098      -0.09891470       0.85463651 </v>
   <v>      -0.09985830      -0.12323086      -1.25816890 </v>
   <v>      -0.06814908      -0.12500432       0.35494273 </v>
   <v>       0.11640939      -0.06796774      -1.25804577 </v>
   <v>       0.03379812      -0.03197523      -1.07283160 </v>
   <v>       0.04398194       0.03348993       0.99154762 </v>
   <v>       0.33160476      -0.01550489      -1.25659159 </v>
   <v>       0.09782158       0.19483353       0.49902839 </v>
   <v>      -0.02224023       0.01423337       0.44013597 </v>
   <v>       0.06478605       0.14272678       0.34698081 </v>
   <v>      -0.01635975      -0.12279877       0.20367213 </v>
   <v>      -0.00647340      -0.11330375       0.23091573 </v>
   <v>       0.00046863      -0.01227083       0.46207455 </v>
   <v>      -0.03531613      -0.03658095       0.38534980 </v>
   <v>       0.01427176       0.11306364       0.29068927 </v>
   <v>       0.00727986      -0.06004149       0.32901467 </v>
   <v>      -0.08117312      -0.02726072      -0.76604417 </v>
   <v>       0.04400757      -0.13378436       0.40971874 </v>
   <v>       0.04399191      -0.16072167       0.36175625 </v>
   <v>      -0.06781542       0.10032089       0.39413043 </v>
   <v>      -0.12094555      -0.15939267       0.47459838 </v>
   <v>      -0.07932137       0.10668122       0.60819073 </v>
   <v>      -0.02453751      -0.00873269      -0.69003721 </v>
   <v>       0.04853516       0.02105230      -0.87024732 </v>
   <v>       0.09400803       0.18727940       0.28025173 </v>
   <v>      -0.12231368      -0.19383109       0.52712523 </v>
   <v>      -0.02921626       0.13733966       0.64778413 </v>
   <v>      -0.02568150      -0.07043621       0.24835708 </v>
   <v>      -0.08675875       0.09583740       0.39845157 </v>
   <v>       0.16267064      -0.11434281       0.60861812 </v>
   <v>       0.06821434       0.12402885       0.52126317 </v>
  </varray>
  <energy>
   <i name="e_fr_energy">   -190.93122867 </i>
   <i name="e_wo_entrp">   -190.79645392 </i>
   <i name="e_0_energy">     -0.26954950 </i>
  </energy>
  <time name="totalsc">   74.74   75.20</time>
 </calculation>
 <calculation>
  <scstep>
   <time name="dav">    6.86    6.88</time>
   <time name="total">    7.15    7.17</time>
   <dipole>
    <v name="dipole">      0.00000000       0.00000000       0.04562006 </v>
    <i name="Tr[quadrupol]"> -10241.09618275 </i>
    <i name="Echarged">      0.00000000 </i>
    <i name="Edipol_quadrupol">      0.00000000 </i>
    <i name="Eion">      0.00000000 </i>
   </dipole>
   <energy>
    <i name="alphaZ">    805.82680419 </i>
    <i name="ewald"> 194751.56157408 </i>
    <i name="hartreedc">-236968.80728648 </i>
    <i name="XCdc">   -347.33649836 </i>
    <i name="pawpsdc">  48981.90339615 </i>
    <i name="pawaedc"> -47059.83919441 </i>
    <i name="eentropy">     -0.25161738 </i>
    <i name="bandstr">  -2013.51150425 </i>
    <i name="atom">  41659.78587232 </i>
    <i name="e_fr_energy">   -190.66845415 </i>
    <i name="e_wo_entrp">   -190.41683677 </i>
    <i name="e_0_energy">   -190.54264546 </i>
   </energy>
  </scstep>
  <scstep>
   <time name="diag">    1.20    1.21</time>
   <time name="diis">    3.34    3.35</time>
   <time name="orth">    0.28    0.28</time>
   <time name="total">    5.11    5.12</time>
   <dipole>
    <v name="dipole">      0.00000000       0.00000000       0.13929638 </v>
    <i name="Tr[quadrupol]"> -10240.66672345 </i>
    <i name="Echarged">      0.00000000 </i>
    <i name="Edipol_quadrupol">      0.00000000 </i>
    <i name="Eion">      0.00000000 </i>
   </dipole>
   <energy>
    <i name="e_fr_energy">   -191.96096310 </i>
    <i name="e_wo_entrp">   -191.69881449 </i>
    <i name="e_0_energy">   -191.82988879 </i>
   </energy>
  </scstep>
  <scstep>
   <time name="diag">    1.20    1.21</time>
   <time name="diis">    3.53    3.54</time>
   <time name="orth">    0.28    0.28</time>
   <time name="total">    5.31    5.34</time>
   <dipole>
    <v name="dipole">      0.00000000       0.00000000      -0.06805419 </v>
    <i name="Tr[quadrupol]"> -10241.16412060 </i>
    <i name="Echarged">      0.00000000 </i>
    <i name="Edipol_quadrupol">      0.00000000 </i>
    <i name="Eion">      0.00000000 </i>
   </dipole>
   <energy>
[...]
       <r>    -9.2494     0.0000     0.0000 </r>
       <r>    -9.1956     0.0000     0.0000 </r>
       <r>    -9.1418     0.0000     0.0000 </r>
       <r>    -9.0880     0.0000     0.0000 </r>
       <r>    -9.0342     0.0001     0.0000 </r>
       <r>    -8.9804     0.0034     0.0002 </r>
       <r>    -8.9266     0.0447     0.0026 </r>
       <r>    -8.8728     0.3404     0.0209 </r>
       <r>    -8.8190     1.4902     0.1011 </r>
       <r>    -8.7652     3.7560     0.3032 </r>
       <r>    -8.7114     5.4702     0.5975 </r>
       <r>    -8.6576     4.7196     0.8514 </r>
       <r>    -8.6038     3.0290     1.0144 </r>
       <r>    -8.5500     3.2280     1.1880 </r>
       <r>    -8.4962     4.9458     1.4541 </r>
       <r>    -8.4424     5.2639     1.7373 </r>
       <r>    -8.3885     3.3358     1.9168 </r>
       <r>    -8.3347     1.2440     1.9837 </r>
       <r>    -8.2809     0.3159     2.0007 </r>
       <r>    -8.2271     0.3424     2.0192 </r>
       <r>    -8.1733     1.3108     2.0897 </r>
       <r>    -8.1195     3.7687     2.2924 </r>
       <r>    -8.0657     7.8252     2.7135 </r>
       <r>    -8.0119    12.0153     3.3599 </r>
       <r>    -7.9581    13.4010     4.0809 </r>
       <r>    -7.9043    10.5950     4.6509 </r>
       <r>    -7.8505     6.4698     4.9990 </r>
       <r>    -7.7967     4.6478     5.2491 </r>
       <r>    -7.7429     5.0973     5.5233 </r>
       <r>    -7.6891     5.9289     5.8423 </r>
       <r>    -7.6353     6.5829     6.1965 </r>
       <r>    -7.5815     7.2344     6.5857 </r>
       <r>    -7.5277     7.6369     6.9966 </r>
       <r>    -7.4739     8.4512     7.4513 </r>
       <r>    -7.4201    10.2263     8.0015 </r>
       <r>    -7.3663    12.4215     8.6698 </r>
       <r>    -7.3125    14.6341     9.4571 </r>
       <r>    -7.2587    17.0235    10.3730 </r>
       <r>    -7.2049    20.4309    11.4722 </r>
       <r>    -7.1511    25.2384    12.8301 </r>
       <r>    -7.0973    29.7306    14.4297 </r>
       <r>    -7.0435    32.0488    16.1540 </r>
       <r>    -6.9897    32.8328    17.9204 </r>
       <r>    -6.9359    33.2365    19.7086 </r>
       <r>    -6.8821    32.7239    21.4692 </r>
       <r>    -6.8283    30.2571    23.0971 </r>
       <r>    -6.7745    26.8779    24.5432 </r>
       <r>    -6.7207    25.0673    25.8919 </r>
       <r>    -6.6669    25.1453    27.2447 </r>
       <r>    -6.6131    25.3222    28.6071 </r>
       <r>    -6.5593    26.7985    30.0489 </r>
       <r>    -6.5055    32.9621    31.8223 </r>
       <r>    -6.4517    43.2940    34.1516 </r>
       <r>    -6.3979    53.2488    37.0165 </r>
       <r>    -6.3441    58.9671    40.1891 </r>
       <r>    -6.2903    61.2084    43.4822 </r>
       <r>    -6.2365    63.3221    46.8890 </r>
       <r>    -6.1827    66.5816    50.4713 </r>
       <r>    -6.1289    70.2472    54.2507 </r>
       <r>    -6.0751    74.0484    58.2346 </r>
       <r>    -6.0213    78.9544    62.4825 </r>
       <r>    -5.9675    84.5223    67.0300 </r>
       <r>    -5.9137    87.9155    71.7600 </r>
       <r>    -5.8599    87.1561    76.4492 </r>
       <r>    -5.8061    83.2024    80.9256 </r>
       <r>    -5.7523    78.2615    85.1363 </r>
       <r>    -5.6985    72.6098    89.0428 </r>
       <r>    -5.6447    66.6298    92.6276 </r>
       <r>    -5.5908    62.8057    96.0067 </r>
       <r>    -5.5370    62.8417    99.3877 </r>
       <r>    -5.4832    66.0780   102.9428 </r>
       <r>    -5.4294    70.2676   106.7233 </r>
       <r>    -5.3756    74.5033   110.7318 </r>
       <r>    -5.3218    79.9736   115.0345 </r>
       <r>    -5.2680    86.0029   119.6616 </r>
       <r>    -5.2142    89.3906   124.4710 </r>
       <r>    -5.1604    88.6170   129.2388 </r>
       <r>    -5.1066    86.1930   133.8761 </r>
       <r>    -5.0528    85.4513   138.4735 </r>
       <r>    -4.9990    86.7746   143.1422 </r>
       <r>    -4.9452    88.8093   147.9203 </r>
       <r>    -4.8914    90.7892   152.8049 </r>
       <r>    -4.8376    92.7540   157.7953 </r>
       <r>    -4.7838    94.3782   162.8730 </r>
       <r>    -4.7300    94.3251   167.9479 </r>
       <r>    -4.6762    92.4528   172.9220 </r>
       <r>    -4.6224    90.8618   177.8105 </r>
       <r>    -4.5686    91.3040   182.7229 </r>
       <r>    -4.5148    94.3766   187.8005 </r>
       <r>    -4.4610    98.4867   193.0993 </r>
       <r>    -4.4072    99.5728   198.4565 </r>
       <r>    -4.3534    95.6850   203.6045 </r>
       <r>    -4.2996    89.9321   208.4430 </r>
       <r>    -4.2458    87.7526   213.1643 </r>
       <r>    -4.1920    91.0653   218.0638 </r>
       <r>    -4.1382    95.5048   223.2021 </r>
       <r>    -4.0844    97.0302   228.4225 </r>
       <r>    -4.0306    96.9000   233.6359 </r>
       <r>    -3.9768    96.2804   238.8160 </r>
       <r>    -3.9230    95.4826   243.9531 </r>
       <r>    -3.8692    96.7411   249.1580 </r>
       <r>    -3.8154   100.1643   254.5470 </r>
       <r>    -3.7616   103.4133   260.1109 </r>
       <r>    -3.7078   105.3536   265.7791 </r>
       <r>    -3.6540   105.6875   271.4653 </r>
       <r>    -3.6002   105.1094   277.1204 </r>
       <r>    -3.5464   105.3805   282.7900 </r>
       <r>    -3.4926   106.6187   288.5263 </r>
       <r>    -3.4388   106.6265   294.2630 </r>
       <r>    -3.3850   104.1422   299.8661 </r>
       <r>    -3.3312   100.2722   305.2609 </r>
       <r>    -3.2774    95.4367   310.3956 </r>
       <r>    -3.2236    88.9109   315.1792 </r>
       <r>    -3.1698    81.3781   319.5575 </r>
       <r>    -3.1160    75.4861   323.6188 </r>
       <r>    -3.0622    74.4301   327.6232 </r>
       <r>    -3.0084    78.3443   331.8383 </r>
       <r>    -2.9546    82.6113   336.2830 </r>
       <r>    -2.9008    84.1131   340.8084 </r>
       <r>    -2.8470    84.1851   345.3377 </r>
       <r>    -2.7932    83.9125   349.8524 </r>
       <r>    -2.7393    83.6419   354.3525 </r>
       <r>    -2.6855    84.2992   358.8879 </r>
       <r>    -2.6317    85.8126   363.5048 </r>
       <r>    -2.5779    86.9343   368.1820 </r>
       <r>    -2.5241    87.4439   372.8867 </r>
       <r>    -2.4703    88.3119   377.6380 </r>
       <r>    -2.4165    88.7305   382.4119 </r>
       <r>    -2.3627    87.0832   387.0971 </r>
       <r>    -2.3089    85.1007   391.6757 </r>
       <r>    -2.2551    85.1041   396.2545 </r>
       <r>    -2.2013    85.6702   400.8637 </r>
       <r>    -2.1475    85.7244   405.4758 </r>
       <r>    -2.0937    87.1737   410.1659 </r>
       <r>    -2.0399    90.3677   415.0279 </r>
       <r>    -1.9861    92.8112   420.0213 </r>
       <r>    -1.9323    93.0616   425.0282 </r>
       <r>    -1.8785    92.1169   429.9843 </r>
       <r>    -1.8247    92.7624   434.9751 </r>
       <r>    -1.7709    97.0124   440.1945 </r>
       <r>    -1.7171   102.9696   445.7345 </r>
       <r>    -1.6633   106.4991   451.4643 </r>
       <r>    -1.6095   105.7942   457.1563 </r>
       <r>    -1.5557   102.6607   462.6796 </r>
       <r>    -1.5019    98.0252   467.9536 </r>
       <r>    -1.4481    92.2126   472.9148 </r>
       <r>    -1.3943    88.1168   477.6556 </r>
       <r>    -1.3405    87.4721   482.3618 </r>
       <r>    -1.2867    88.3952   487.1176 </r>
       <r>    -1.2329    88.1582   491.8607 </r>
       <r>    -1.1791    83.4069   496.3481 </r>
       <r>    -1.1253    71.3411   500.1864 </r>
       <r>    -1.0715    55.5963   503.1776 </r>
       <r>    -1.0177    42.9160   505.4866 </r>
       <r>    -0.9639    33.9804   507.3148 </r>
       <r>    -0.9101    26.8856   508.7613 </r>
       <r>    -0.8563    21.1527   509.8993 </r>
       <r>    -0.8025    15.6231   510.7399 </r>
       <r>    -0.7487    10.4671   511.3030 </r>
       <r>    -0.6949     7.1025   511.6852 </r>
       <r>    -0.6411     5.8106   511.9978 </r>
       <r>    -0.5873     7.1930   512.3848 </r>
       <r>    -0.5335    11.9595   513.0282 </r>
       <r>    -0.4797    18.4948   514.0233 </r>
       <r>    -0.4259    23.1361   515.2680 </r>
       <r>    -0.3721    23.7491   516.5458 </r>
       <r>    -0.3183    22.9085   517.7783 </r>
       <r>    -0.2645    23.3464   519.0344 </r>
       <r>    -0.2107    22.6754   520.2544 </r>
       <r>    -0.1569    17.8384   521.2141 </r>
       <r>    -0.1031    11.0929   521.8109 </r>
       <r>    -0.0493     8.1448   522.2491 </r>
       <r>     0.0045    11.2743   522.8557 </r>
       <r>     0.0584    16.7209   523.7553 </r>
       <r>     0.1122    20.1885   524.8415 </r>
       <r>     0.1660    21.3256   525.9889 </r>
       <r>     0.2198    21.2561   527.1325 </r>
       <r>     0.2736    20.6586   528.2440 </r>
       <r>     0.3274    19.3382   529.2844 </r>
       <r>     0.3812    16.0934   530.1503 </r>
       <r>     0.4350    11.2611   530.7561 </r>
       <r>     0.4888     8.9999   531.2403 </r>
       <r>     0.5426    12.8188   531.9300 </r>
       <r>     0.5964    19.6149   532.9853 </r>
       <r>     0.6502    23.5582   534.2528 </r>
       <r>     0.7040    23.2560   535.5040 </r>
       <r>     0.7578    20.9814   536.6329 </r>
       <r>     0.8116    18.7393   537.6411 </r>
       <r>     0.8654    16.5438   538.5312 </r>
       <r>     0.9192    13.8823   539.2780 </r>
       <r>     0.9730    11.6165   539.9030 </r>
       <r>     1.0268    10.3582   540.4603 </r>
       <r>     1.0806     9.4578   540.9692 </r>
       <r>     1.1344     8.6224   541.4331 </r>
       <r>     1.1882     7.5374   541.8386 </r>
       <r>     1.2420     5.5694   542.1383 </r>
       <r>     1.2958     3.8402   542.3449 </r>
       <r>     1.3496     4.9725   542.6124 </r>
       <r>     1.4034     9.7543   543.1372 </r>
       <r>     1.4572    15.1593   543.9528 </r>
       <r>     1.5110    17.0198   544.8685 </r>
       <r>     1.5648    15.0522   545.6783 </r>
       <r>     1.6186    13.7052   546.4157 </r>
       <r>     1.6724    16.8108   547.3201 </r>
       <r>     1.7262    22.3968   548.5251 </r>
       <r>     1.7800    24.6371   549.8507 </r>
       <r>     1.8338    20.4686   550.9519 </r>
       <r>     1.8876    12.4969   551.6243 </r>
       <r>     1.9414     5.7804   551.9353 </r>
       <r>     1.9952     3.4343   552.1200 </r>
       <r>     2.0490     4.7898   552.3777 </r>
       <r>     2.1028     6.7488   552.7408 </r>
       <r>     2.1566     7.8944   553.1656 </r>
       <r>     2.2104    10.2958   553.7195 </r>
       <r>     2.2642    15.3549   554.5456 </r>
       <r>     2.3180    20.7879   555.6641 </r>
       <r>     2.3718    23.4458   556.9255 </r>
       <r>     2.4256    23.2078   558.1741 </r>
       <r>     2.4794    22.7457   559.3979 </r>
       <r>     2.5332    23.7476   560.6755 </r>
       <r>     2.5870    24.9985   562.0205 </r>
       <r>     2.6408    25.8505   563.4113 </r>
       <r>     2.6946    26.5165   564.8379 </r>
       <r>     2.7484    25.9190   566.2324 </r>
       <r>     2.8022    22.9026   567.4646 </r>
       <r>     2.8560    17.7521   568.4197 </r>
       <r>     2.9099    12.5881   569.0970 </r>
       <r>     2.9637     9.3548   569.6003 </r>
       <r>     3.0175     8.1456   570.0386 </r>
       <r>     3.0713     8.9862   570.5220 </r>
       <r>     3.1251    11.1554   571.1222 </r>
       <r>     3.1789    12.8423   571.8131 </r>
       <r>     3.2327    12.6960   572.4962 </r>
       <r>     3.2865    10.3901   573.0552 </r>
       <r>     3.3403     7.4753   573.4574 </r>
       <r>     3.3941     5.2657   573.7407 </r>
       <r>     3.4479     3.6401   573.9366 </r>
       <r>     3.5017     3.5508   574.1276 </r>
       <r>     3.5555     6.6947   574.4878 </r>
       <r>     3.6093    12.5450   575.1627 </r>
       <r>     3.6631    17.9304   576.1274 </r>
       <r>     3.7169    20.0411   577.2057 </r>
       <r>     3.7707    19.2574   578.2417 </r>
       <r>     3.8245    17.5475   579.1858 </r>
       <r>     3.8783    15.4095   580.0149 </r>
       <r>     3.9321    12.9248   580.7103 </r>
       <r>     3.9859    12.2312   581.3683 </r>
       <r>     4.0397    14.2801   582.1366 </r>
       <r>     4.0935    15.4802   582.9695 </r>
       <r>     4.1473    13.6563   583.7042 </r>
       <r>     4.2011    11.7265   584.3351 </r>
       <r>     4.2549    11.5746   584.9579 </r>
       <r>     4.3087    11.3688   585.5695 </r>
       <r>     4.3625    11.0156   586.1622 </r>
       <r>     4.4163    12.6830   586.8446 </r>
       <r>     4.4701    15.5901   587.6834 </r>
       <r>     4.5239    18.7283   588.6910 </r>
       <r>     4.5777    24.2638   589.9964 </r>
       <r>     4.6315    31.1260   591.6711 </r>
       <r>     4.6853    33.1606   593.4552 </r>
       <r>     4.7391    28.2282   594.9739 </r>
       <r>     4.7929    21.5085   596.1311 </r>
       <r>     4.8467    18.3408   597.1179 </r>
       <r>     4.9005    19.5955   598.1721 </r>
       <r>     4.9543    23.6754   599.4459 </r>
       <r>     5.0081    30.2480   601.0733 </r>
       <r>     5.0619    36.9902   603.0635 </r>
       <r>     5.1157    38.2779   605.1229 </r>
       <r>     5.1695    33.7946   606.9411 </r>
       <r>     5.2233    28.5957   608.4796 </r>
       <r>     5.2771    24.1566   609.7793 </r>
       <r>     5.3309    18.6037   610.7802 </r>
       <r>     5.3847    12.1594   611.4344 </r>
       <r>     5.4385     6.6078   611.7899 </r>
       <r>     5.4923     2.8357   611.9425 </r>
       <r>     5.5461     0.8713   611.9893 </r>
       <r>     5.5999     0.1750   611.9987 </r>
       <r>     5.6537     0.0217   611.9999 </r>
       <r>     5.7076     0.0016   612.0000 </r>
       <r>     5.7614     0.0001   612.0000 </r>
       <r>     5.8152     0.0000   612.0000 </r>
       <r>     5.8690     0.0000   612.0000 </r>
       <r>     5.9228     0.0000   612.0000 </r>
       <r>     5.9766     0.0000   612.0000 </r>
       <r>     6.0304     0.0000   612.0000 </r>
       <r>     6.0842     0.0000   612.0000 </r>
       <r>     6.1380     0.0000   612.0000 </r>
       <r>     6.1918     0.0000   612.0000 </r>
       <r>     6.2456     0.0000   612.0000 </r>
       <r>     6.2994     0.0000   612.0000 </r>
       <r>     6.3532     0.0000   612.0000 </r>
       <r>     6.4070     0.0000   612.0000 </r>
      </set>
     </set>
    </array>
   </total>
  </dos>
 </calculation>
 <structure name="finalpos" >
  <crystal>
   <varray name="basis" >
    <v>      11.00258152       0.00000000       0.00000000 </v>
    <v>       5.50129076       9.52851510       0.00000000 </v>
    <v>       0.00000000       0.00000000      24.49178509 </v>
   </varray>
   <i name="volume">   2567.67623402 </i>
   <varray name="rec_basis" >
    <v>       0.09088776      -0.05247407       0.00000000 </v>
    <v>       0.00000000       0.10494815       0.00000000 </v>
    <v>       0.00000000       0.00000000       0.04083002 </v>
   </varray>
  </crystal>
  <varray name="positions" >
   <v>       0.08333333       0.08333333       0.40830017 </v>
   <v>       0.08333333       0.58333333       0.40830017 </v>
   <v>       0.66548231       0.41620511       0.50913437 </v>
   <v>      -0.00208812       0.50511078       0.61033090 </v>
   <v>       0.91611113       0.41780484       0.50740319 </v>
   <v>       0.08333333       0.83333333       0.40830017 </v>
   <v>       0.08333333       0.33333333       0.40830017 </v>
   <v>      -0.00052246      -0.00320700       0.60893111 </v>
   <v>       0.83333333       0.83333333       0.40830017 </v>
   <v>       0.74862840       0.25050877       0.61150102 </v>
   <v>       0.33333333       0.33333333       0.40830017 </v>
   <v>       0.25183540      -0.00188677       0.60919583 </v>
   <v>      -0.00106095       0.25116210       0.61048578 </v>
   <v>       0.25031087       0.25160985       0.61154226 </v>
   <v>       0.33333333       0.58333333       0.40830017 </v>
   <v>       0.33333333       0.83333333       0.40830017 </v>
   <v>       0.83333333       0.08333333       0.40830017 </v>
   <v>       0.50191773       0.74845913       0.60798746 </v>
   <v>       0.58333333       0.08333333       0.40830017 </v>
   <v>       0.41571847       0.16512692       0.50907553 </v>
   <v>       0.58333333       0.33333333       0.40830017 </v>
   <v>       0.58333333       0.83333333       0.40830017 </v>
   <v>       0.50001928       0.25096224       0.61058220 </v>
   <v>       0.58333333       0.58333333       0.40830017 </v>
   <v>       0.24966403       0.50342151       0.60444235 </v>
   <v>       0.16623947       0.66651833       0.50804943 </v>
   <v>       0.16592175       0.41803220       0.50947587 </v>
   <v>       0.16660786       0.16481744       0.50850788 </v>
   <v>       0.91715714       0.16455310       0.50868859 </v>
   <v>       0.00024429       0.74992368       0.60343639 </v>
   <v>       0.91637075       0.91674883       0.50880667 </v>
   <v>       0.91630715       0.66775868       0.50772409 </v>
   <v>       0.16643348       0.91659373       0.50891871 </v>
   <v>       0.33333333       0.08333333       0.40830017 </v>
   <v>       0.66768622       0.91490323       0.50827453 </v>
   <v>       0.66790789       0.16436984       0.50968482 </v>
   <v>       0.41480571       0.41734008       0.50922124 </v>
   <v>       0.24964765       0.74768754       0.60386989 </v>
   <v>       0.49843917       0.50163524       0.60544380 </v>
   <v>       0.83333333       0.58333333       0.40830017 </v>
   <v>       0.83333333       0.33333333       0.40830017 </v>
   <v>       0.66541905       0.66961917       0.50769405 </v>
   <v>       0.74952273      -0.00267889       0.60473413 </v>
   <v>       0.74893514       0.50199647       0.60530860 </v>
   <v>       0.41591701       0.91532141       0.50817699 </v>
   <v>       0.41467963       0.66774554       0.50876613 </v>
   <v>       0.50261222      -0.00118915       0.60534150 </v>
   <v>       0.74982976       0.75223380       0.60387255 </v>
  </varray>
  <varray name="selective"  type="logical" >
   <v type="logical" >  F  F  F </v>
   <v type="logical" >  F  F  F </v>
   <v type="logical" >  T  T  T </v>
   <v type="logical" >  T  T  T </v>
   <v type="logical" >  T  T  T </v>
   <v type="logical" >  F  F  F </v>
   <v type="logical" >  F  F  F </v>
   <v type="logical" >  T  T  T </v>
   <v type="logical" >  F  F  F </v>
   <v type="logical" >  T  T  T </v>
   <v type="logical" >  F  F  F </v>
   <v type="logical" >  T  T  T </v>
   <v type="logical" >  T  T  T </v>
   <v type="logical" >  T  T  T </v>
   <v type="logical" >  F  F  F </v>
   <v type="logical" >  F  F  F </v>
   <v type="logical" >  F  F  F </v>
   <v type="logical" >  T  T  T </v>
   <v type="logical" >  F  F  F </v>
   <v type="logical" >  T  T  T </v>
   <v type="logical" >  F  F  F </v>
   <v type="logical" >  F  F  F </v>
   <v type="logical" >  T  T  T </v>
   <v type="logical" >  F  F  F </v>
   <v type="logical" >  T  T  T </v>
   <v type="logical" >  T  T  T </v>
   <v type="logical" >  T  T  T </v>
   <v type="logical" >  T  T  T </v>
   <v type="logical" >  T  T  T </v>
   <v type="logical" >  T  T  T </v>
   <v type="logical" >  T  T  T </v>
   <v type="logical" >  T  T  T </v>
   <v type="logical" >  T  T  T </v>
   <v type="logical" >  F  F  F </v>
   <v type="logical" >  T  T  T </v>
   <v type="logical" >  T  T  T </v>
   <v type="logical" >  T  T  T </v>
   <v type="logical" >  T  T  T </v>
   <v type="logical" >  T  T  T </v>
   <v type="logical" >  F  F  F </v>
   <v type="logical" >  F  F  F </v>
   <v type="logical" >  T  T  T </v>
   <v type="logical" >  T  T  T </v>
   <v type="logical" >  T  T  T </v>
   <v type="logical" >  T  T  T </v>
   <v type="logical" >  T  T  T </v>
   <v type="logical" >  T  T  T </v>
   <v type="logical" >  T  T  T </v>
  </varray>
  <nose>
   <v>      -3.00000000       0.00000000       0.00010000       0.00010000 </v>
  </nose>
 </structure>
</modeling>
