unknown system                          
           1
    11.002582    0.000000    0.000000
     5.501291    9.528515    0.000000
     0.000000    0.000000   24.491785
   Au   Pd
  24  24
Direct configuration=     1
   0.08333333  0.08333333  0.40830017
   0.08333333  0.58333333  0.40830017
   0.66666667  0.41666667  0.50000000
   0.00000000  0.50000000  0.59169983
   0.91666667  0.41666667  0.50000000
   0.08333333  0.83333333  0.40830017
   0.08333333  0.33333333  0.40830017
   0.00000000  0.00000000  0.59169983
   0.83333333  0.83333333  0.40830017
   0.75000000  0.25000000  0.59169983
   0.33333333  0.33333333  0.40830017
   0.25000000  0.00000000  0.59169983
   0.00000000  0.25000000  0.59169983
   0.25000000  0.25000000  0.59169983
   0.33333333  0.58333333  0.40830017
   0.33333333  0.83333333  0.40830017
   0.83333333  0.08333333  0.40830017
   0.50000000  0.75000000  0.59169983
   0.58333333  0.08333333  0.40830017
   0.41666667  0.16666667  0.50000000
   0.58333333  0.33333333  0.40830017
   0.58333333  0.83333333  0.40830017
   0.50000000  0.25000000  0.59169983
   0.58333333  0.58333333  0.40830017
   0.25000000  0.50000000  0.59169983
   0.16666667  0.66666667  0.50000000
   0.16666667  0.41666667  0.50000000
   0.16666667  0.16666667  0.50000000
   0.91666667  0.16666667  0.50000000
   0.00000000  0.75000000  0.59169983
   0.91666667  0.91666667  0.50000000
   0.91666667  0.66666667  0.50000000
   0.16666667  0.91666667  0.50000000
   0.33333333  0.08333333  0.40830017
   0.66666667  0.91666667  0.50000000
   0.66666667  0.16666667  0.50000000
   0.41666667  0.41666667  0.50000000
   0.25000000  0.75000000  0.59169983
   0.50000000  0.50000000  0.59169983
   0.83333333  0.58333333  0.40830017
   0.83333333  0.33333333  0.40830017
   0.66666667  0.66666667  0.50000000
   0.75000000  0.00000000  0.59169983
   0.75000000  0.50000000  0.59169983
   0.41666667  0.91666667  0.50000000
   0.41666667  0.66666667  0.50000000
   0.50000000  0.00000000  0.59169983
   0.75000000  0.75000000  0.59169983
Direct configuration=     2
   0.08333333  0.08333333  0.40830017
   0.08333333  0.58333333  0.40830017
   0.66617317  0.41709227  0.50035780
  -0.00046922  0.50182388  0.59354735
   0.91596698  0.41756401  0.49964293
   0.08333333  0.83333333  0.40830017
   0.08333333  0.33333333  0.40830017
  -0.00006953 -0.00149077  0.59321356
   0.83333333  0.83333333  0.40830017
   0.74940142  0.25014783  0.59355558
   0.33333333  0.33333333  0.40830017
   0.25075445 -0.00085603  0.59328403
  -0.00033128  0.25008918  0.59364662
   0.25033252  0.25024047  0.59362394
   0.33333333  0.58333333  0.40830017
   0.33333333  0.83333333  0.40830017
   0.83333333  0.08333333  0.40830017
   0.50069140  0.74939687  0.59316429
   0.58333333  0.08333333  0.40830017
   0.41672002  0.16552044  0.50009440
   0.58333333  0.33333333  0.40830017
   0.58333333  0.83333333  0.40830017
   0.50022848  0.25024738  0.59355381
   0.58333333  0.58333333  0.40830017
   0.24990217  0.50125468  0.59237926
   0.16681784  0.66648746  0.50084955
   0.16679821  0.41773657  0.50018594
   0.16722278  0.16570023  0.49969893
   0.91690243  0.16591675  0.49978320
   0.00006308  0.74995362  0.59230289
   0.91636820  0.91644840  0.50063110
   0.91617927  0.66757854  0.50036741
   0.16700897  0.91617949  0.50026256
   0.33333333  0.08333333  0.40830017
   0.66739805  0.91582529  0.50076812
   0.66765575  0.16547166  0.50027531
   0.41568779  0.41793422  0.50051069
   0.24983235  0.74898806  0.59234004
   0.49922796  0.50062503  0.59262951
   0.83333333  0.58333333  0.40830017
   0.83333333  0.33333333  0.40830017
   0.66690982  0.66757025  0.50030308
   0.75004643 -0.00119649  0.59243882
   0.74919284  0.50093728  0.59284399
   0.41670717  0.91660449  0.50007696
   0.41580240  0.66695340  0.50058191
   0.50125792 -0.00080332  0.59269282
   0.74993614  0.75078065  0.59240992
Direct configuration=     3
   0.08333333  0.08333333  0.40830017
   0.08333333  0.58333333  0.40830017
   0.66478871  0.41828625  0.50136156
  -0.00178558  0.50694060  0.59873037
   0.91400408  0.42008141  0.49864122
   0.08333333  0.83333333  0.40830017
   0.08333333  0.33333333  0.40830017
  -0.00026457 -0.00567297  0.59746017
   0.83333333  0.83333333  0.40830017
   0.74772216  0.25056255  0.59876170
   0.33333333  0.33333333  0.40830017
   0.25287098 -0.00325754  0.59772834
  -0.00126064  0.25033937  0.59910815
   0.25126539  0.25091507  0.59902183
   0.33333333  0.58333333  0.40830017
   0.33333333  0.83333333  0.40830017
   0.83333333  0.08333333  0.40830017
   0.50263105  0.74770484  0.59727269
   0.58333333  0.08333333  0.40830017
   0.41686971  0.16230481  0.50035922
   0.58333333  0.33333333  0.40830017
   0.58333333  0.83333333  0.40830017
   0.50086948  0.25094137  0.59875496
   0.58333333  0.58333333  0.40830017
   0.24962770  0.50477456  0.59428532
   0.16724194  0.66598470  0.50323288
   0.16716724  0.42073808  0.50070757
   0.16878291  0.16298898  0.49885430
   0.91756385  0.16381293  0.49917499
   0.00024004  0.74982350  0.59399473
   0.91553086  0.91583608  0.50240157
   0.91481194  0.67013672  0.50139816
   0.16796927  0.91481276  0.50099916
   0.33333333  0.08333333  0.40830017
   0.66944987  0.91346488  0.50292300
   0.67043051  0.16211918  0.50104766
   0.41294165  0.42149020  0.50194339
   0.24936204  0.74614917  0.59413609
   0.49706207  0.50237849  0.59523765
   0.83333333  0.58333333  0.40830017
   0.83333333  0.33333333  0.40830017
   0.66759196  0.67010516  0.50115335
   0.75017668 -0.00455313  0.59451199
   0.74692845  0.50356672  0.59605382
   0.41682080  0.91643006  0.50029285
   0.41337779  0.66775778  0.50221438
   0.50478687 -0.00305696  0.59547854
   0.74975700  0.75297068  0.59440201
Direct configuration=     4
   0.08333333  0.08333333  0.40830017
   0.08333333  0.58333333  0.40830017
   0.66439215  0.41862824  0.50164907
  -0.00216263  0.50840620  0.60021495
   0.91344184  0.42080248  0.49835430
   0.08333333  0.83333333  0.40830017
   0.08333333  0.33333333  0.40830017
  -0.00032044 -0.00687089  0.59867654
   0.83333333  0.83333333  0.40830017
   0.74724117  0.25068134  0.60025291
   0.33333333  0.33333333  0.40830017
   0.25347723 -0.00394541  0.59900134
  -0.00152684  0.25041103  0.60067251
   0.25153259  0.25110830  0.60056796
   0.33333333  0.58333333  0.40830017
   0.33333333  0.83333333  0.40830017
   0.83333333  0.08333333  0.40830017
   0.50318663  0.74722018  0.59844947
   0.58333333  0.08333333  0.40830017
   0.41691258  0.16138375  0.50043507
   0.58333333  0.33333333  0.40830017
   0.58333333  0.83333333  0.40830017
   0.50105308  0.25114016  0.60024474
   0.58333333  0.58333333  0.40830017
   0.24954909  0.50578277  0.59483129
   0.16736341  0.66584070  0.50391555
   0.16727294  0.42159781  0.50085698
   0.16922978  0.16221239  0.49861238
   0.91775331  0.16321033  0.49900078
   0.00029072  0.74978623  0.59447933
   0.91529102  0.91566069  0.50290869
   0.91442029  0.67086947  0.50169340
   0.16824433  0.91442128  0.50121015
   0.33333333  0.08333333  0.40830017
   0.67003758  0.91278878  0.50354024
   0.67122530  0.16115892  0.50126889
   0.41215507  0.42250876  0.50235377
   0.24922732  0.74533601  0.59465054
   0.49644168  0.50288074  0.59598470
   0.83333333  0.58333333  0.40830017
   0.83333333  0.33333333  0.40830017
   0.66778735  0.67083125  0.50139689
   0.75021399 -0.00551459  0.59510582
   0.74627985  0.50431988  0.59697322
   0.41685334  0.91638010  0.50035469
   0.41268330  0.66798819  0.50268198
   0.50579768 -0.00370247  0.59627647
   0.74970568  0.75359797  0.59497261
Direct configuration=     5
   0.08333333  0.08333333  0.40830017
   0.08333333  0.58333333  0.40830017
   0.66444145  0.41817229  0.50327238
  -0.00233576  0.50788902  0.60227000
   0.91443009  0.42028261  0.50039716
   0.08333333  0.83333333  0.40830017
   0.08333333  0.33333333  0.40830017
  -0.00038353 -0.00631109  0.60058699
   0.83333333  0.83333333  0.40830017
   0.74772608  0.25046511  0.60231451
   0.33333333  0.33333333  0.40830017
   0.25351466 -0.00410266  0.60076921
  -0.00166735  0.25077984  0.60240939
   0.25126731  0.25156206  0.60252166
   0.33333333  0.58333333  0.40830017
   0.33333333  0.83333333  0.40830017
   0.83333333  0.08333333  0.40830017
   0.50297099  0.74742535  0.60031460
   0.58333333  0.08333333  0.40830017
   0.41698191  0.16229892  0.50234147
   0.58333333  0.33333333  0.40830017
   0.58333333  0.83333333  0.40830017
   0.50071391  0.25104863  0.60221241
   0.58333333  0.58333333  0.40830017
   0.24967592  0.50496718  0.59641442
   0.16613496  0.66691728  0.50433218
   0.16661930  0.42108373  0.50244466
   0.16843184  0.16277827  0.50046441
   0.91802272  0.16328566  0.50082236
   0.00016267  0.74970592  0.59592261
   0.91611331  0.91565325  0.50375856
   0.91526599  0.67003210  0.50258920
   0.16781933  0.91469013  0.50260440
   0.33333333  0.08333333  0.40830017
   0.66948192  0.91314974  0.50412156
   0.67045682  0.16173960  0.50281211
   0.41316810  0.42065807  0.50349272
   0.24933244  0.74598891  0.59616675
   0.49660694  0.50292345  0.59752722
   0.83333333  0.58333333  0.40830017
   0.83333333  0.33333333  0.40830017
   0.66682995  0.67128588  0.50244887
   0.74996776 -0.00503605  0.59666202
   0.74711207  0.50386324  0.59825167
   0.41709977  0.91509099  0.50176177
   0.41310435  0.66888262  0.50371743
   0.50539055 -0.00322971  0.59770002
   0.74992152  0.75311744  0.59657585
Direct configuration=     6
   0.08333333  0.08333333  0.40830017
   0.08333333  0.58333333  0.40830017
   0.66457631  0.41692501  0.50771305
  -0.00280936  0.50647426  0.60789169
   0.91713352  0.41886050  0.50598553
   0.08333333  0.83333333  0.40830017
   0.08333333  0.33333333  0.40830017
  -0.00055610 -0.00477970  0.60581313
   0.83333333  0.83333333  0.40830017
   0.74905260  0.24987358  0.60795413
   0.33333333  0.33333333  0.40830017
   0.25361707 -0.00453281  0.60560533
  -0.00205173  0.25178875  0.60716072
   0.25054161  0.25280335  0.60786611
   0.33333333  0.58333333  0.40830017
   0.33333333  0.83333333  0.40830017
   0.83333333  0.08333333  0.40830017
   0.50238108  0.74798658  0.60541676
   0.58333333  0.08333333  0.40830017
   0.41717156  0.16480240  0.50755655
   0.58333333  0.33333333  0.40830017
   0.58333333  0.83333333  0.40830017
   0.49978611  0.25079824  0.60759509
   0.58333333  0.58333333  0.40830017
   0.25002287  0.50273610  0.60074517
   0.16277447  0.66986234  0.50547192
   0.16483122  0.41967745  0.50678784
   0.16624903  0.16432630  0.50553077
   0.91875972  0.16349173  0.50580539
  -0.00018764  0.74948625  0.59987080
   0.91836272  0.91563292  0.50608340
   0.91757944  0.66774144  0.50503972
   0.16665671  0.91542561  0.50641848
   0.33333333  0.08333333  0.40830017
   0.66796190  0.91413716  0.50571182
   0.66835460  0.16332809  0.50703368
   0.41593931  0.41559543  0.50660840
   0.24962001  0.74777496  0.60031445
   0.49705903  0.50304029  0.60174688
   0.83333333  0.58333333  0.40830017
   0.83333333  0.33333333  0.40830017
   0.66421092  0.67252955  0.50532660
   0.74929418 -0.00372698  0.60091911
   0.74938866  0.50261407  0.60174895
   0.41777387  0.91156456  0.50561092
   0.41425618  0.67132940  0.50654996
   0.50427681 -0.00193644  0.60159424
   0.75051197  0.75180293  0.60096162
Direct configuration=     7
   0.08333333  0.08333333  0.40830017
   0.08333333  0.58333333  0.40830017
   0.66460839  0.41662834  0.50876926
  -0.00292200  0.50613776  0.60922881
   0.91777652  0.41852225  0.50731472
   0.08333333  0.83333333  0.40830017
   0.08333333  0.33333333  0.40830017
  -0.00059715 -0.00441546  0.60705617
   0.83333333  0.83333333  0.40830017
   0.74936812  0.24973289  0.60929551
   0.33333333  0.33333333  0.40830017
   0.25364143 -0.00463512  0.60675560
  -0.00214316  0.25202872  0.60829083
   0.25036900  0.25309859  0.60913728
   0.33333333  0.58333333  0.40830017
   0.33333333  0.83333333  0.40830017
   0.83333333  0.08333333  0.40830017
   0.50224077  0.74812007  0.60663031
   0.58333333  0.08333333  0.40830017
   0.41721667  0.16539785  0.50879696
   0.58333333  0.33333333  0.40830017
   0.58333333  0.83333333  0.40830017
   0.49956544  0.25073869  0.60887535
   0.58333333  0.58333333  0.40830017
   0.25010539  0.50220544  0.60177524
   0.16197518  0.67056283  0.50574301
   0.16440593  0.41934296  0.50782087
   0.16572985  0.16469449  0.50673580
   0.91893501  0.16354075  0.50699060
  -0.00027096  0.74943400  0.60080988
   0.91889775  0.91562808  0.50663637
   0.91812969  0.66719660  0.50562257
   0.16638018  0.91560054  0.50732566
   0.33333333  0.08333333  0.40830017
   0.66760037  0.91437202  0.50609006
   0.66785459  0.16370591  0.50803779
   0.41659844  0.41439128  0.50734946
   0.24968841  0.74819978  0.60130097
   0.49716655  0.50306808  0.60275052
   0.83333333  0.58333333  0.40830017
   0.83333333  0.33333333  0.40830017
   0.66358799  0.67282536  0.50601107
   0.74913397 -0.00341562  0.60193166
   0.74993014  0.50231695  0.60258078
   0.41793421  0.91072580  0.50652645
   0.41453014  0.67191137  0.50722368
   0.50401191 -0.00162883  0.60252047
   0.75065241  0.75149027  0.60200478
Direct configuration=     8
   0.08333333  0.08333333  0.40830017
   0.08333333  0.58333333  0.40830017
   0.66577316  0.41634743  0.50901271
  -0.00211672  0.50525010  0.61029584
   0.91611101  0.41846783  0.50778625
   0.08333333  0.83333333  0.40830017
   0.08333333  0.33333333  0.40830017
  -0.00068551 -0.00343773  0.60801525
   0.83333333  0.83333333  0.40830017
   0.74882046  0.24995183  0.61031229
   0.33333333  0.33333333  0.40830017
   0.25224860 -0.00212643  0.60765443
  -0.00045730  0.25061328  0.60925732
   0.24948215  0.25188848  0.61015871
   0.33333333  0.58333333  0.40830017
   0.33333333  0.83333333  0.40830017
   0.83333333  0.08333333  0.40830017
   0.50289572  0.74785221  0.60770804
   0.58333333  0.08333333  0.40830017
   0.41542811  0.16489113  0.50921023
   0.58333333  0.33333333  0.40830017
   0.58333333  0.83333333  0.40830017
   0.50043694  0.25098743  0.61000848
   0.58333333  0.58333333  0.40830017
   0.24967908  0.50320039  0.60250153
   0.16541031  0.66759121  0.50653710
   0.16584826  0.41823953  0.50868805
   0.16737791  0.16424173  0.50795701
   0.91750491  0.16466311  0.50808823
   0.00012978  0.74942890  0.60180413
   0.91673744  0.91732076  0.50742353
   0.91667358  0.66755713  0.50650692
   0.16615163  0.91698594  0.50808068
   0.33333333  0.08333333  0.40830017
   0.66807333  0.91479221  0.50670857
   0.66892126  0.16360758  0.50892879
   0.41524608  0.41662814  0.50807974
   0.24946527  0.74755596  0.60224830
   0.49778055  0.50218347  0.60371637
   0.83333333  0.58333333  0.40830017
   0.83333333  0.33333333  0.40830017
   0.66568480  0.67000380  0.50682718
   0.74952145 -0.00303222  0.60281571
   0.74925486  0.50238006  0.60361856
   0.41610118  0.91495052  0.50739759
   0.41470060  0.66852390  0.50784207
   0.50306091 -0.00167836  0.60351860
   0.75020589  0.75181021  0.60268176
Direct configuration=     9
   0.08333333  0.08333333  0.40830017
   0.08333333  0.58333333  0.40830017
   0.66594372  0.41630629  0.50904835
  -0.00199880  0.50512012  0.61045208
   0.91586713  0.41845986  0.50785530
   0.08333333  0.83333333  0.40830017
   0.08333333  0.33333333  0.40830017
  -0.00069845 -0.00329456  0.60815569
   0.83333333  0.83333333  0.40830017
   0.74874027  0.24998389  0.61046117
   0.33333333  0.33333333  0.40830017
   0.25204464 -0.00175908  0.60778604
  -0.00021045  0.25040602  0.60939884
   0.24935229  0.25171128  0.61030828
   0.33333333  0.58333333  0.40830017
   0.33333333  0.83333333  0.40830017
   0.83333333  0.08333333  0.40830017
   0.50299162  0.74781299  0.60786585
   0.58333333  0.08333333  0.40830017
   0.41516621  0.16481693  0.50927074
   0.58333333  0.33333333  0.40830017
   0.58333333  0.83333333  0.40830017
   0.50056455  0.25102386  0.61017441
   0.58333333  0.58333333  0.40830017
   0.24961665  0.50334608  0.60260788
   0.16591331  0.66715608  0.50665337
   0.16605946  0.41807796  0.50881503
   0.16761924  0.16417544  0.50813583
   0.91729550  0.16482746  0.50824895
   0.00018846  0.74942816  0.60194972
   0.91642110  0.91756862  0.50753879
   0.91646037  0.66760993  0.50663641
   0.16611816  0.91718881  0.50819124
   0.33333333  0.08333333  0.40830017
   0.66814259  0.91485374  0.50679914
   0.66907745  0.16359318  0.50905926
   0.41504806  0.41695568  0.50818667
   0.24943260  0.74746168  0.60238701
   0.49787045  0.50205394  0.60385780
   0.83333333  0.58333333  0.40830017
   0.83333333  0.33333333  0.40830017
   0.66599183  0.66959065  0.50694668
   0.74957819 -0.00297607  0.60294516
   0.74915598  0.50238930  0.60377052
   0.41583277  0.91556914  0.50752515
   0.41472555  0.66802788  0.50793262
   0.50292166 -0.00168561  0.60366475
   0.75014050  0.75185706  0.60278089
Direct configuration=    10
   0.08333333  0.08333333  0.40830017
   0.08333333  0.58333333  0.40830017
   0.66583642  0.41608934  0.50875457
  -0.00187047  0.50504387  0.61060622
   0.91635858  0.41781694  0.50754484
   0.08333333  0.83333333  0.40830017
   0.08333333  0.33333333  0.40830017
  -0.00055318 -0.00336876  0.60839661
   0.83333333  0.83333333  0.40830017
   0.74877524  0.25042747  0.61079473
   0.33333333  0.33333333  0.40830017
   0.25210011 -0.00211750  0.60818658
  -0.00077199  0.25050664  0.60977376
   0.25009350  0.25161931  0.61071198
   0.33333333  0.58333333  0.40830017
   0.33333333  0.83333333  0.40830017
   0.83333333  0.08333333  0.40830017
   0.50225756  0.74822963  0.60794692
   0.58333333  0.08333333  0.40830017
   0.41553836  0.16516741  0.50904268
   0.58333333  0.33333333  0.40830017
   0.58333333  0.83333333  0.40830017
   0.50008897  0.25104403  0.61037715
   0.58333333  0.58333333  0.40830017
   0.24956559  0.50341288  0.60298242
   0.16680293  0.66633440  0.50713416
   0.16601961  0.41792588  0.50898993
   0.16704251  0.16473960  0.50822558
   0.91710550  0.16518813  0.50847698
   0.00027290  0.74965149  0.60221100
   0.91629004  0.91732829  0.50795104
   0.91629403  0.66775078  0.50711741
   0.16623466  0.91723179  0.50839960
   0.33333333  0.08333333  0.40830017
   0.66802948  0.91495328  0.50721840
   0.66830708  0.16434884  0.50921631
   0.41500288  0.41727124  0.50842975
   0.24944795  0.74763477  0.60273474
   0.49823250  0.50172468  0.60428907
   0.83333333  0.58333333  0.40830017
   0.83333333  0.33333333  0.40830017
   0.66574970  0.66939722  0.50720214
   0.74972197 -0.00308637  0.60336181
   0.74913070  0.50187237  0.60447728
   0.41590677  0.91569622  0.50773598
   0.41490005  0.66734638  0.50817734
   0.50288831 -0.00164850  0.60417324
   0.75008112  0.75219589  0.60292532
Direct configuration=    11
   0.08333333  0.08333333  0.40830017
   0.08333333  0.58333333  0.40830017
   0.66576325  0.41594140  0.50855422
  -0.00178295  0.50499188  0.61071133
   0.91669372  0.41737849  0.50733312
   0.08333333  0.83333333  0.40830017
   0.08333333  0.33333333  0.40830017
  -0.00045411 -0.00341935  0.60856091
   0.83333333  0.83333333  0.40830017
   0.74879909  0.25072997  0.61102220
   0.33333333  0.33333333  0.40830017
   0.25213794 -0.00236193  0.60845973
  -0.00115494  0.25057526  0.61002944
   0.25059898  0.25155659  0.61098728
   0.33333333  0.58333333  0.40830017
   0.33333333  0.83333333  0.40830017
   0.83333333  0.08333333  0.40830017
   0.50175697  0.74851377  0.60800221
   0.58333333  0.08333333  0.40830017
   0.41579216  0.16540642  0.50888715
   0.58333333  0.33333333  0.40830017
   0.58333333  0.83333333  0.40830017
   0.49976464  0.25105780  0.61051542
   0.58333333  0.58333333  0.40830017
   0.24953077  0.50345843  0.60323784
   0.16740962  0.66577405  0.50746203
   0.16599243  0.41782217  0.50910920
   0.16664921  0.16512434  0.50828678
   0.91697593  0.16543409  0.50863248
   0.00033049  0.74980379  0.60238919
   0.91620066  0.91716439  0.50823217
   0.91618060  0.66784683  0.50744543
   0.16631410  0.91726110  0.50854170
   0.33333333  0.08333333  0.40830017
   0.66795235  0.91502117  0.50750432
   0.66778171  0.16486417  0.50932342
   0.41497208  0.41748644  0.50859552
   0.24945842  0.74775281  0.60297188
   0.49847939  0.50150014  0.60458319
   0.83333333  0.58333333  0.40830017
   0.83333333  0.33333333  0.40830017
   0.66558458  0.66926531  0.50737636
   0.74982002 -0.00316158  0.60364595
   0.74911347  0.50151985  0.60495926
   0.41595724  0.91578288  0.50787976
   0.41501905  0.66688163  0.50834422
   0.50286557 -0.00162319  0.60452000
   0.75004062  0.75242696  0.60302382
Direct configuration=    12
   0.08333333  0.08333333  0.40830017
   0.08333333  0.58333333  0.40830017
   0.66578775  0.41610378  0.50855664
  -0.00200041  0.50494855  0.61063749
   0.91647281  0.41777258  0.50724085
   0.08333333  0.83333333  0.40830017
   0.08333333  0.33333333  0.40830017
  -0.00054761 -0.00340933  0.60867370
   0.83333333  0.83333333  0.40830017
   0.74843481  0.25061154  0.61121079
   0.33333333  0.33333333  0.40830017
   0.25196253 -0.00218277  0.60874488
  -0.00093445  0.25083978  0.61028313
   0.25058312  0.25145103  0.61123295
   0.33333333  0.58333333  0.40830017
   0.33333333  0.83333333  0.40830017
   0.83333333  0.08333333  0.40830017
   0.50182904  0.74828785  0.60792825
   0.58333333  0.08333333  0.40830017
   0.41601049  0.16546751  0.50878274
   0.58333333  0.33333333  0.40830017
   0.58333333  0.83333333  0.40830017
   0.49998479  0.25093406  0.61056424
   0.58333333  0.58333333  0.40830017
   0.24966451  0.50338049  0.60363697
   0.16683564  0.66618395  0.50766192
   0.16579005  0.41794715  0.50921540
   0.16664953  0.16516897  0.50832418
   0.91700378  0.16496531  0.50867894
   0.00045721  0.74981996  0.60264420
   0.91657093  0.91691218  0.50843610
   0.91647223  0.66756571  0.50766613
   0.16641242  0.91692788  0.50863980
   0.33333333  0.08333333  0.40830017
   0.66764929  0.91506926  0.50777286
   0.66747019  0.16506273  0.50947225
   0.41512211  0.41711187  0.50877515
   0.24961515  0.74775334  0.60325434
   0.49859067  0.50146464  0.60491043
   0.83333333  0.58333333  0.40830017
   0.83333333  0.33333333  0.40830017
   0.66528695  0.66929718  0.50758056
   0.74960006 -0.00270007  0.60399863
   0.74899110  0.50175152  0.60524429
   0.41613096  0.91529991  0.50796742
   0.41507824  0.66746185  0.50850980
   0.50294508 -0.00148495  0.60485309
   0.74990685  0.75221464  0.60320606
Direct configuration=    13
   0.08333333  0.08333333  0.40830017
   0.08333333  0.58333333  0.40830017
   0.66579504  0.41615209  0.50855736
  -0.00206511  0.50493566  0.61061553
   0.91640709  0.41788982  0.50721340
   0.08333333  0.83333333  0.40830017
   0.08333333  0.33333333  0.40830017
  -0.00057542 -0.00340635  0.60870725
   0.83333333  0.83333333  0.40830017
   0.74832644  0.25057631  0.61126689
   0.33333333  0.33333333  0.40830017
   0.25191034 -0.00212948  0.60882971
  -0.00086886  0.25091847  0.61035860
   0.25057840  0.25141963  0.61130603
   0.33333333  0.58333333  0.40830017
   0.33333333  0.83333333  0.40830017
   0.83333333  0.08333333  0.40830017
   0.50185048  0.74822064  0.60790625
   0.58333333  0.08333333  0.40830017
   0.41607544  0.16548569  0.50875168
   0.58333333  0.33333333  0.40830017
   0.58333333  0.83333333  0.40830017
   0.50005028  0.25089725  0.61057876
   0.58333333  0.58333333  0.40830017
   0.24970429  0.50335730  0.60375571
   0.16666489  0.66630589  0.50772138
   0.16572984  0.41798434  0.50924700
   0.16664963  0.16518224  0.50833530
   0.91701207  0.16482585  0.50869276
   0.00049490  0.74982478  0.60272007
   0.91668109  0.91683714  0.50849676
   0.91655900  0.66748208  0.50773179
   0.16644167  0.91682875  0.50866898
   0.33333333  0.08333333  0.40830017
   0.66755913  0.91508357  0.50785275
   0.66737752  0.16512180  0.50951653
   0.41516675  0.41700044  0.50882859
   0.24966178  0.74775349  0.60333837
   0.49862378  0.50145408  0.60500778
   0.83333333  0.58333333  0.40830017
   0.83333333  0.33333333  0.40830017
   0.66519841  0.66930667  0.50764131
   0.74953462 -0.00256277  0.60410355
   0.74895470  0.50182044  0.60532909
   0.41618265  0.91515623  0.50799350
   0.41509585  0.66763446  0.50855905
   0.50296874 -0.00144382  0.60495218
   0.74986705  0.75215147  0.60326027
Direct configuration=    14
   0.08333333  0.08333333  0.40830017
   0.08333333  0.58333333  0.40830017
   0.66581361  0.41628384  0.50880414
  -0.00214957  0.50501000  0.61050221
   0.91596519  0.41812181  0.50729736
   0.08333333  0.83333333  0.40830017
   0.08333333  0.33333333  0.40830017
  -0.00070036 -0.00314186  0.60879197
   0.83333333  0.83333333  0.40830017
   0.74854237  0.25049176  0.61135633
   0.33333333  0.33333333  0.40830017
   0.25186459 -0.00194018  0.60897550
  -0.00096306  0.25108181  0.61045370
   0.25051275  0.25142276  0.61140711
   0.33333333  0.58333333  0.40830017
   0.33333333  0.83333333  0.40830017
   0.83333333  0.08333333  0.40830017
   0.50194649  0.74824762  0.60789786
   0.58333333  0.08333333  0.40830017
   0.41577286  0.16517408  0.50884296
   0.58333333  0.33333333  0.40830017
   0.58333333  0.83333333  0.40830017
   0.49995968  0.25093434  0.61059404
   0.58333333  0.58333333  0.40830017
   0.24982377  0.50322299  0.60403882
   0.16641114  0.66650408  0.50777482
   0.16583196  0.41805718  0.50933919
   0.16692638  0.16490336  0.50838903
   0.91708390  0.16451574  0.50870603
   0.00040481  0.74973787  0.60299119
   0.91653229  0.91681506  0.50857625
   0.91648102  0.66759359  0.50774964
   0.16651750  0.91668100  0.50874853
   0.33333333  0.08333333  0.40830017
   0.66764682  0.91494502  0.50802411
   0.66782425  0.16468093  0.50958895
   0.41499885  0.41725335  0.50899498
   0.24981278  0.74764367  0.60354364
   0.49854252  0.50151446  0.60516104
   0.83333333  0.58333333  0.40830017
   0.83333333  0.33333333  0.40830017
   0.66532989  0.66939412  0.50771512
   0.74945437 -0.00251053  0.60433083
   0.74899613  0.50182856  0.60533365
   0.41604001  0.91528663  0.50807695
   0.41491737  0.66783568  0.50864278
   0.50289590 -0.00136250  0.60510710
   0.74982606  0.75210049  0.60345577
Direct configuration=    15
   0.08333333  0.08333333  0.40830017
   0.08333333  0.58333333  0.40830017
   0.66582198  0.41634325  0.50891542
  -0.00218765  0.50504352  0.61045111
   0.91576593  0.41822642  0.50733523
   0.08333333  0.83333333  0.40830017
   0.08333333  0.33333333  0.40830017
  -0.00075670 -0.00302260  0.60883017
   0.83333333  0.83333333  0.40830017
   0.74863974  0.25045363  0.61139666
   0.33333333  0.33333333  0.40830017
   0.25184395 -0.00185482  0.60904125
  -0.00100554  0.25115547  0.61049658
   0.25048315  0.25142417  0.61145270
   0.33333333  0.58333333  0.40830017
   0.33333333  0.83333333  0.40830017
   0.83333333  0.08333333  0.40830017
   0.50198978  0.74825979  0.60789408
   0.58333333  0.08333333  0.40830017
   0.41563641  0.16503356  0.50888412
   0.58333333  0.33333333  0.40830017
   0.58333333  0.83333333  0.40830017
   0.49991883  0.25095107  0.61060094
   0.58333333  0.58333333  0.40830017
   0.24987764  0.50316242  0.60416648
   0.16629671  0.66659345  0.50779892
   0.16587800  0.41809003  0.50938076
   0.16705118  0.16477760  0.50841326
   0.91711630  0.16437590  0.50871201
   0.00036419  0.74969868  0.60311344
   0.91646519  0.91680510  0.50861209
   0.91644586  0.66764387  0.50775769
   0.16655169  0.91661438  0.50878441
   0.33333333  0.08333333  0.40830017
   0.66768636  0.91488255  0.50810138
   0.66802570  0.16448213  0.50962161
   0.41492314  0.41736739  0.50907001
   0.24988088  0.74759414  0.60363620
   0.49850588  0.50154168  0.60523015
   0.83333333  0.58333333  0.40830017
   0.83333333  0.33333333  0.40830017
   0.66538917  0.66943356  0.50774840
   0.74941818 -0.00248697  0.60443332
   0.74901482  0.50183223  0.60533570
   0.41597569  0.91534544  0.50811458
   0.41483688  0.66792641  0.50868053
   0.50286306 -0.00132582  0.60517696
   0.74980758  0.75207749  0.60354392
Direct configuration=    16
   0.08333333  0.08333333  0.40830017
   0.08333333  0.58333333  0.40830017
   0.66553883  0.41628668  0.50910723
  -0.00204760  0.50505000  0.61036343
   0.91603198  0.41786434  0.50740917
   0.08333333  0.83333333  0.40830017
   0.08333333  0.33333333  0.40830017
  -0.00056684 -0.00313749  0.60889138
   0.83333333  0.83333333  0.40830017
   0.74869187  0.25056671  0.61145624
   0.33333333  0.33333333  0.40830017
   0.25185839 -0.00188140  0.60913537
  -0.00109812  0.25122847  0.61049915
   0.25036271  0.25155255  0.61151714
   0.33333333  0.58333333  0.40830017
   0.33333333  0.83333333  0.40830017
   0.83333333  0.08333333  0.40830017
   0.50192803  0.74845652  0.60794271
   0.58333333  0.08333333  0.40830017
   0.41569281  0.16498068  0.50901146
   0.58333333  0.33333333  0.40830017
   0.58333333  0.83333333  0.40830017
   0.49991451  0.25098677  0.61058739
   0.58333333  0.58333333  0.40830017
   0.24976023  0.50325560  0.60435815
   0.16627104  0.66658936  0.50791243
   0.16589812  0.41809218  0.50944968
   0.16671852  0.16478944  0.50847210
   0.91727901  0.16445967  0.50870459
   0.00027149  0.74981674  0.60332798
   0.91635642  0.91671899  0.50871226
   0.91633127  0.66781341  0.50772320
   0.16651998  0.91659137  0.50887475
   0.33333333  0.08333333  0.40830017
   0.66776294  0.91481867  0.50821522
   0.66801911  0.16432206  0.50965886
   0.41486785  0.41747757  0.50918994
   0.24974644  0.74765152  0.60377864
   0.49849502  0.50154093  0.60534209
   0.83333333  0.58333333  0.40830017
   0.83333333  0.33333333  0.40830017
   0.66539291  0.66969157  0.50771877
   0.74946368 -0.00267377  0.60461639
   0.74898678  0.50180550  0.60532054
   0.41594763  0.91534782  0.50816629
   0.41469215  0.66782412  0.50872693
   0.50273135 -0.00127651  0.60528156
   0.74980122  0.75220909  0.60374677
Direct configuration=    17
   0.08333333  0.08333333  0.40830017
   0.08333333  0.58333333  0.40830017
   0.66550163  0.41627925  0.50913243
  -0.00202920  0.50505085  0.61035191