  48  48   0   0
  0.5349325E+02  0.1100258E-08  0.1100258E-08  0.2449179E-08  0.3500000E-15
  1.000000000000000E-004
  CAR 
 unknown system                          
      6.38058028     -9.67412067  301     -1.08539466      1.00000000
     -9.674  0.0000E+00  0.0000E+00
     -9.621  0.0000E+00  0.0000E+00
     -9.567  0.0000E+00  0.0000E+00
     -9.514  0.0000E+00  0.0000E+00
     -9.460  0.0000E+00  0.0000E+00
     -9.407  0.0000E+00  0.0000E+00
     -9.353  0.0000E+00  0.0000E+00
     -9.300  0.0000E+00  0.0000E+00
     -9.246  0.8990E-17  0.4811E-18
     -9.192  0.3496E-14  0.1876E-15
     -9.139  0.7611E-12  0.4092E-13
     -9.085  0.9443E-10  0.5094E-11
     -9.032  0.6688E-08  0.3630E-09
     -8.978  0.2709E-06  0.1486E-07
     -8.925  0.6289E-05  0.3514E-06
     -8.871  0.8389E-04  0.4841E-05
     -8.818  0.6444E-03  0.3932E-04
     -8.764  0.2857E-02  0.1922E-03
     -8.711  0.7329E-02  0.5844E-03
     -8.657  0.1095E-01  0.1171E-02
     -8.604  0.9999E-02  0.1706E-02
     -8.550  0.7525E-02  0.2108E-02
     -8.497  0.8663E-02  0.2572E-02
     -8.443  0.1107E-01  0.3164E-02
     -8.390  0.9351E-02  0.3665E-02
     -8.336  0.4679E-02  0.3915E-02
     -8.283  0.1521E-02  0.3997E-02
     -8.229  0.1277E-02  0.4065E-02
     -8.176  0.3865E-02  0.4272E-02
     -8.122  0.8335E-02  0.4718E-02
     -8.069  0.1084E-01  0.5298E-02
     -8.015  0.9028E-02  0.5781E-02
     -7.962  0.7227E-02  0.6168E-02
     -7.908  0.1079E-01  0.6745E-02
     -7.855  0.1911E-01  0.7768E-02
     -7.801  0.2626E-01  0.9173E-02
     -7.748  0.2578E-01  0.1055E-01
     -7.694  0.1756E-01  0.1149E-01
     -7.641  0.9606E-02  0.1201E-01
     -7.587  0.9246E-02  0.1250E-01
     -7.533  0.1551E-01  0.1333E-01
     -7.480  0.2058E-01  0.1443E-01
     -7.426  0.1898E-01  0.1545E-01
     -7.373  0.1505E-01  0.1625E-01
     -7.319  0.1523E-01  0.1707E-01
     -7.266  0.1909E-01  0.1809E-01
     -7.212  0.2407E-01  0.1938E-01
     -7.159  0.2900E-01  0.2093E-01
     -7.105  0.3273E-01  0.2268E-01
     -7.052  0.3654E-01  0.2464E-01
     -6.998  0.4149E-01  0.2686E-01
     -6.945  0.4512E-01  0.2927E-01
     -6.891  0.4812E-01  0.3185E-01
     -6.838  0.5451E-01  0.3477E-01
     -6.784  0.6454E-01  0.3822E-01
     -6.731  0.7526E-01  0.4225E-01
     -6.677  0.8596E-01  0.4685E-01
     -6.624  0.9638E-01  0.5201E-01
     -6.570  0.1034E+00  0.5754E-01
     -6.517  0.1071E+00  0.6327E-01
     -6.463  0.1129E+00  0.6931E-01
     -6.410  0.1222E+00  0.7585E-01
     -6.356  0.1294E+00  0.8278E-01
     -6.303  0.1327E+00  0.8988E-01
     -6.249  0.1378E+00  0.9725E-01
     -6.196  0.1470E+00  0.1051E+00
     -6.142  0.1565E+00  0.1135E+00
     -6.089  0.1614E+00  0.1221E+00
     -6.035  0.1607E+00  0.1307E+00
     -5.982  0.1580E+00  0.1392E+00
     -5.928  0.1568E+00  0.1476E+00
     -5.875  0.1566E+00  0.1560E+00
     -5.821  0.1548E+00  0.1642E+00
     -5.767  0.1518E+00  0.1724E+00
     -5.714  0.1490E+00  0.1803E+00
     -5.660  0.1457E+00  0.1881E+00
     -5.607  0.1410E+00  0.1957E+00
     -5.553  0.1382E+00  0.2031E+00
     -5.500  0.1407E+00  0.2106E+00
     -5.446  0.1441E+00  0.2183E+00
     -5.393  0.1445E+00  0.2261E+00
     -5.339  0.1465E+00  0.2339E+00
     -5.286  0.1503E+00  0.2419E+00
     -5.232  0.1534E+00  0.2502E+00
     -5.179  0.1594E+00  0.2587E+00
     -5.125  0.1695E+00  0.2678E+00
     -5.072  0.1780E+00  0.2773E+00
     -5.018  0.1833E+00  0.2871E+00
     -4.965  0.1858E+00  0.2970E+00
     -4.911  0.1854E+00  0.3070E+00
     -4.858  0.1843E+00  0.3168E+00
     -4.804  0.1831E+00  0.3266E+00
     -4.751  0.1809E+00  0.3363E+00
     -4.697  0.1792E+00  0.3459E+00
     -4.644  0.1795E+00  0.3555E+00
     -4.590  0.1824E+00  0.3653E+00
     -4.537  0.1866E+00  0.3752E+00
     -4.483  0.1881E+00  0.3853E+00
     -4.430  0.1845E+00  0.3952E+00
     -4.376  0.1794E+00  0.4048E+00
     -4.323  0.1794E+00  0.4144E+00
     -4.269  0.1844E+00  0.4243E+00
     -4.216  0.1877E+00  0.4343E+00
     -4.162  0.1857E+00  0.4442E+00
     -4.108  0.1819E+00  0.4540E+00
     -4.055  0.1791E+00  0.4636E+00
     -4.001  0.1748E+00  0.4729E+00
     -3.948  0.1671E+00  0.4819E+00
     -3.894  0.1611E+00  0.4905E+00
     -3.841  0.1624E+00  0.4992E+00
     -3.787  0.1696E+00  0.5082E+00
     -3.734  0.1781E+00  0.5178E+00
     -3.680  0.1851E+00  0.5277E+00
     -3.627  0.1894E+00  0.5378E+00
     -3.573  0.1893E+00  0.5479E+00
     -3.520  0.1875E+00  0.5580E+00
     -3.466  0.1902E+00  0.5682E+00
     -3.413  0.1974E+00  0.5787E+00
     -3.359  0.2023E+00  0.5895E+00
     -3.306  0.2000E+00  0.6003E+00
     -3.252  0.1925E+00  0.6106E+00
     -3.199  0.1844E+00  0.6204E+00
     -3.145  0.1773E+00  0.6299E+00
     -3.092  0.1716E+00  0.6391E+00
     -3.038  0.1702E+00  0.6482E+00
     -2.985  0.1732E+00  0.6575E+00
     -2.931  0.1785E+00  0.6670E+00
     -2.878  0.1861E+00  0.6770E+00
     -2.824  0.1940E+00  0.6874E+00
     -2.771  0.1982E+00  0.6980E+00
     -2.717  0.1995E+00  0.7086E+00
     -2.664  0.2001E+00  0.7194E+00
     -2.610  0.1962E+00  0.7299E+00
     -2.557  0.1867E+00  0.7398E+00
     -2.503  0.1788E+00  0.7494E+00
     -2.450  0.1775E+00  0.7589E+00
     -2.396  0.1804E+00  0.7686E+00
     -2.342  0.1817E+00  0.7783E+00
     -2.289  0.1812E+00  0.7880E+00
     -2.235  0.1850E+00  0.7979E+00
     -2.182  0.1929E+00  0.8082E+00
     -2.128  0.1975E+00  0.8188E+00
     -2.075  0.1966E+00  0.8293E+00
     -2.021  0.1951E+00  0.8397E+00
     -1.968  0.1961E+00  0.8502E+00
     -1.914  0.1964E+00  0.8607E+00
     -1.861  0.1941E+00  0.8711E+00
     -1.807  0.1920E+00  0.8814E+00
     -1.754  0.1942E+00  0.8918E+00
     -1.700  0.2031E+00  0.9027E+00
     -1.647  0.2143E+00  0.9141E+00
     -1.593  0.2205E+00  0.9259E+00
     -1.540  0.2177E+00  0.9376E+00
     -1.486  0.2053E+00  0.9486E+00
     -1.433  0.1900E+00  0.9587E+00
     -1.379  0.1780E+00  0.9683E+00
     -1.326  0.1662E+00  0.9772E+00
     -1.272  0.1514E+00  0.9853E+00
     -1.219  0.1382E+00  0.9927E+00
     -1.165  0.1269E+00  0.9994E+00
     -1.112  0.1117E+00  0.1005E+01
     -1.058  0.9391E-01  0.1010E+01
     -1.005  0.7691E-01  0.1015E+01
     -0.951  0.5785E-01  0.1018E+01
     -0.898  0.3756E-01  0.1020E+01
     -0.844  0.2386E-01  0.1021E+01
     -0.791  0.1890E-01  0.1022E+01
     -0.737  0.1752E-01  0.1023E+01
     -0.683  0.1597E-01  0.1024E+01
     -0.630  0.1567E-01  0.1025E+01
     -0.576  0.1948E-01  0.1026E+01
     -0.523  0.2785E-01  0.1027E+01
     -0.469  0.3831E-01  0.1029E+01
     -0.416  0.4505E-01  0.1032E+01
     -0.362  0.4290E-01  0.1034E+01
     -0.309  0.3602E-01  0.1036E+01
     -0.255  0.3531E-01  0.1038E+01
     -0.202  0.4116E-01  0.1040E+01
     -0.148  0.4141E-01  0.1042E+01
     -0.095  0.3293E-01  0.1044E+01
     -0.041  0.2600E-01  0.1045E+01
      0.012  0.2678E-01  0.1047E+01
      0.066  0.3186E-01  0.1048E+01
      0.119  0.3615E-01  0.1050E+01
      0.173  0.3765E-01  0.1052E+01
      0.226  0.3629E-01  0.1054E+01
      0.280  0.3408E-01  0.1056E+01
      0.333  0.3372E-01  0.1058E+01
      0.387  0.3427E-01  0.1060E+01
      0.440  0.3297E-01  0.1062E+01
      0.494  0.3202E-01  0.1063E+01
      0.547  0.3680E-01  0.1065E+01
      0.601  0.4499E-01  0.1068E+01
      0.654  0.4923E-01  0.1070E+01
      0.708  0.4747E-01  0.1073E+01
      0.761  0.4216E-01  0.1075E+01
      0.815  0.3449E-01  0.1077E+01
      0.868  0.2550E-01  0.1078E+01
      0.922  0.1802E-01  0.1079E+01
      0.975  0.1400E-01  0.1080E+01
      1.029  0.1447E-01  0.1081E+01
      1.083  0.1812E-01  0.1082E+01
      1.136  0.2115E-01  0.1083E+01
      1.190  0.2154E-01  0.1084E+01
      1.243  0.1989E-01  0.1085E+01
      1.297  0.1781E-01  0.1086E+01
      1.350  0.1621E-01  0.1087E+01
      1.404  0.1678E-01  0.1088E+01
      1.457  0.2198E-01  0.1089E+01
      1.511  0.2955E-01  0.1091E+01
      1.564  0.3422E-01  0.1092E+01
      1.618  0.3397E-01  0.1094E+01
      1.671  0.3045E-01  0.1096E+01
      1.725  0.2783E-01  0.1097E+01
      1.778  0.2986E-01  0.1099E+01
      1.832  0.3331E-01  0.1101E+01
      1.885  0.3100E-01  0.1102E+01
      1.939  0.2266E-01  0.1104E+01
      1.992  0.1706E-01  0.1104E+01
      2.046  0.1911E-01  0.1105E+01
      2.099  0.2336E-01  0.1107E+01
      2.153  0.2531E-01  0.1108E+01
      2.206  0.2775E-01  0.1110E+01
      2.260  0.3440E-01  0.1111E+01
      2.313  0.4366E-01  0.1114E+01
      2.367  0.4900E-01  0.1116E+01
      2.420  0.4753E-01  0.1119E+01
      2.474  0.4461E-01  0.1121E+01
      2.527  0.4488E-01  0.1124E+01
      2.581  0.4593E-01  0.1126E+01
      2.634  0.4599E-01  0.1129E+01
      2.688  0.4781E-01  0.1131E+01
      2.742  0.4887E-01  0.1134E+01
      2.795  0.4118E-01  0.1136E+01
      2.849  0.2612E-01  0.1137E+01
      2.902  0.1488E-01  0.1138E+01
      2.956  0.1209E-01  0.1139E+01
      3.009  0.1171E-01  0.1139E+01
      3.063  0.1047E-01  0.1140E+01
      3.116  0.1264E-01  0.1141E+01
      3.170  0.1934E-01  0.1142E+01
      3.223  0.2486E-01  0.1143E+01
      3.277  0.2514E-01  0.1144E+01
      3.330  0.2196E-01  0.1146E+01
      3.384  0.1899E-01  0.1147E+01
      3.437  0.1782E-01  0.1148E+01
      3.491  0.1888E-01  0.1149E+01
      3.544  0.2254E-01  0.1150E+01
      3.598  0.2784E-01  0.1151E+01
      3.651  0.3298E-01  0.1153E+01
      3.705  0.3604E-01  0.1155E+01
      3.758  0.3697E-01  0.1157E+01
      3.812  0.3573E-01  0.1159E+01
      3.865  0.3039E-01  0.1160E+01
      3.919  0.2386E-01  0.1162E+01
      3.972  0.2331E-01  0.1163E+01
      4.026  0.2789E-01  0.1165E+01
      4.079  0.2941E-01  0.1166E+01
      4.133  0.2676E-01  0.1168E+01
      4.186  0.2446E-01  0.1169E+01
      4.240  0.2308E-01  0.1170E+01
      4.293  0.2053E-01  0.1171E+01
      4.347  0.1804E-01  0.1172E+01
      4.401  0.1943E-01  0.1173E+01
      4.454  0.2480E-01  0.1174E+01
      4.508  0.3228E-01  0.1176E+01
      4.561  0.4219E-01  0.1178E+01
      4.615  0.5144E-01  0.1181E+01
      4.668  0.5303E-01  0.1184E+01
      4.722  0.4823E-01  0.1187E+01
      4.775  0.4538E-01  0.1189E+01
      4.829  0.4740E-01  0.1192E+01
      4.882  0.5195E-01  0.1194E+01
      4.936  0.5727E-01  0.1197E+01
      4.989  0.6354E-01  0.1201E+01
      5.043  0.7028E-01  0.1205E+01
      5.096  0.7356E-01  0.1209E+01
      5.150  0.6967E-01  0.1212E+01
      5.203  0.6133E-01  0.1216E+01
      5.257  0.5327E-01  0.1218E+01
      5.310  0.4434E-01  0.1221E+01
      5.364  0.3180E-01  0.1222E+01
      5.417  0.1799E-01  0.1223E+01
      5.471  0.7542E-02  0.1224E+01
      5.524  0.2195E-02  0.1224E+01
      5.578  0.4156E-03  0.1224E+01
      5.631  0.4866E-04  0.1224E+01
      5.685  0.3411E-05  0.1224E+01
      5.738  0.1405E-06  0.1224E+01
      5.792  0.3363E-08  0.1224E+01
      5.845  0.4646E-10  0.1224E+01
      5.899  0.3689E-12  0.1224E+01
      5.952  0.1678E-14  0.1224E+01
      6.006  0.2766E-17  0.1224E+01
      6.059  0.0000E+00  0.1224E+01
      6.113  0.0000E+00  0.1224E+01
      6.167  0.0000E+00  0.1224E+01
      6.220  0.0000E+00  0.1224E+01
      6.274  0.0000E+00  0.1224E+01
      6.327  0.0000E+00  0.1224E+01
      6.381  0.0000E+00  0.1224E+01
