48
Lattice="11.002581515 0.0 0.0 5.501290758 9.528515099 0.0 0.0 0.0 24.491785094" Properties=species:S:1:pos:R:3:forces:R:3 energy=-191.68181291 free_energy=-191.78888251 pbc="T T T"
Au       1.38208000       0.77655000       9.70011000       0.00422200      -0.00116600      -0.00202100
Au      11.01048000       4.76655000      14.78174000       0.00349000       0.00864100       0.00189500
Au      10.99874000       6.35473000      12.23133000      -0.00218800       0.01558200       0.00392500
Au      12.37397000       5.58891000       9.61471000      -0.00452000       0.00514700      -0.00693500
Au      11.00101000       3.16965000       9.73624000      -0.00850900      -0.00081800      -0.00373100
Au       8.23651000      -0.02027000      14.78024000       0.00047100      -0.00052200      -0.00559300
Au       9.63283000       7.18540000      14.82994000      -0.00211600      -0.01492800       0.00458500
Au       8.24202000       4.75294000      14.78883000       0.00416700       0.00492900       0.00668900
Au       8.25478000       6.35359000      12.24275000       0.00114800       0.01416300      -0.00031000
Au       6.85355000       2.37089000      14.79982000      -0.00026000       0.00608500       0.00658700
Au       6.89862000       3.96930000      12.23392000      -0.00947300      -0.01027600       0.00036800
Au       8.24395000       3.14665000       9.73969000       0.00658700       0.00233700      -0.00497000
Au       5.51805000       1.57537000      12.25495000      -0.00841700       0.00543000      -0.00033700
Au      12.39627000       8.75103000      12.25126000      -0.00021600      -0.01149700      -0.00113600
Au       6.86156000       8.73434000      12.24569000      -0.00663400      -0.00585800      -0.00100700
Au       6.88126000       5.57827000       9.68110000      -0.00502000      -0.00662900      -0.00938500
Au       6.84345000       7.13591000      14.80722000       0.00479300       0.00310800       0.00485600
Au      13.78511000       6.37460000      12.19906000       0.00454100       0.01795600       0.00419500
Au      -0.01533000       0.00133000      14.75298000       0.00030600      -0.00740300       0.00703200
Au       2.74618000       1.57037000      12.23227000       0.00411100       0.00432300       0.00351700
Au      12.36588000       3.96258000      12.22519000      -0.00817000      -0.00798400      -0.00701500
Au       1.38644000       2.38054000      14.77379000       0.01194600       0.00411900       0.00299300
Au       4.13036000       5.56325000       9.63262000       0.00531400       0.00628700      -0.00228000
Au       4.13796000       3.98075000      12.20940000       0.01644900      -0.01039700       0.00079300
Pd      13.75680000       7.96913000       9.83883000       0.00267200      -0.00683300       0.00524000
Pd      10.98203000       1.59034000      12.24452000      -0.00650700       0.00875800       0.00176100
Pd       2.76492000       3.16883000       9.80468000      -0.00187300      -0.00503700      -0.00552900
Pd       9.61970000       2.38744000      14.60873000      -0.00693300       0.00358700      -0.00087100
Pd       9.63068000       3.95655000      12.22960000       0.00440700      -0.01375900       0.00486300
Pd       8.28394000       1.59143000      12.26736000       0.00591200       0.00810400      -0.00180300
Pd       9.62089000       0.76595000       9.91473000       0.00623600       0.00907700      -0.00170300
Pd       9.62910000       8.72762000      12.26243000       0.00391000      -0.01226100      -0.00200200
Pd      10.98855000       7.96224000       9.85263000      -0.00423900      -0.00501800       0.00180700
Pd       4.11962000       2.37889000      14.65017000      -0.00379400       0.00234200      -0.00350700
Pd       9.62974000       5.56852000       9.84453000       0.00502700      -0.00736900       0.00008400
Pd       5.48862000       7.94866000       9.87719000      -0.00054800      -0.00225300      -0.00231700
Pd      15.13925000       8.75387000      12.28307000       0.00119400      -0.00750300      -0.00394400
Pd       4.11136000       7.12127000      14.60462000      -0.00295000       0.00706200       0.00421400
Pd       5.48179000      -0.00167000      14.66383000       0.00647700       0.00203100      -0.00427000
Pd       4.14235000       0.79281000       9.85418000      -0.00402400      -0.00269800       0.00075500
Pd       6.87733000       0.77640000       9.87282000       0.00099800       0.00218300      -0.00752500
Pd       2.75495000       0.00648000      14.64882000      -0.01153600       0.00530500       0.00423300
Pd       8.27509000       7.94760000       9.85715000       0.00403700       0.00109600       0.00285300
Pd       5.47627000       4.76020000      14.60684000      -0.00525100      -0.00576400       0.00231000
Pd       5.50907000       6.36518000      12.21256000      -0.00345900       0.00206700      -0.00056400
Pd       5.49450000       3.15324000       9.81838000       0.00410100       0.00183200       0.00122400
Pd       2.76429000       4.77352000      14.60840000      -0.00369900      -0.00550200      -0.00302500
Pd      12.37860000       7.13958000      14.63192000      -0.00218300      -0.00007600       0.00500200
48
Lattice="11.002581515 0.0 0.0 5.501290758 9.528515099 0.0 0.0 0.0 24.491785094" Properties=species:S:1:pos:R:3:forces:R:3 energy=-191.49136593 free_energy=-191.6084471 pbc="T T T"
Au       6.83140000       7.16909000      14.88384000      -0.00552500      -0.00285900      -0.00323600
Au       8.25108000       6.36996000      12.33110000       0.00054400      -0.00228300       0.00762700
Au       6.88392000       0.77995000       9.64485000      -0.00440300      -0.00101900      -0.00551000
Au       8.22367000       4.74409000      14.91598000      -0.00189300       0.00097300       0.00589800
Au       6.89032000       8.74933000      12.28944000      -0.00024100       0.00135500       0.00188200
Au      10.99136000       7.92294000       9.69134000      -0.00192100      -0.00309800      -0.00179800
Au       9.63297000       7.19404000      14.85628000      -0.00984400      -0.00159400       0.00170900
Au       9.66012000       0.76002000       9.66314000      -0.00041600      -0.00612400      -0.00670900
Au       8.24167000       1.57703000      12.20665000      -0.00240700      -0.00516900      -0.00111900
Au       4.13536000       3.95362000      12.25982000       0.01743800       0.00419100      -0.00537200
Au       5.48534000       3.20899000       9.64392000       0.00314000      -0.00362500      -0.00404700
Au       8.25701000       3.20223000       9.60156000       0.00272800      -0.00159700       0.00416300
Au      11.02506000       3.16227000       9.64837000       0.00111600      -0.01209700       0.00074500
Au       6.86915000       3.96933000      12.26452000      -0.00708700       0.00439700      -0.00040600
Au       9.63987000       3.95652000      12.27082000      -0.00311700       0.00295700       0.00015000
Au      15.13078000       8.73757000      12.23268000      -0.00944900      -0.00221500      -0.00663800
Au       2.76957000       4.77907000      14.87843000      -0.00050600       0.00584800       0.00027500
Au      13.76183000       6.36306000      12.26696000       0.00253800       0.01058400      -0.00234000
Au      12.40549000       5.55445000       9.64978000       0.00987500      -0.00283100       0.01041900
Au       1.37169000       2.35538000      14.76640000      -0.00036400       0.00047300       0.00512500
Au      12.38737000       3.94070000      12.25492000      -0.00389400       0.00973600      -0.00084800
Au      11.01009000       6.37927000      12.28008000       0.00611500      -0.00684000       0.00602000
Au      10.99816000       4.76637000      14.92736000      -0.00028100       0.00497000      -0.00592800
Au       4.09219000       0.79148000       9.74096000       0.00377500       0.00023500      -0.00975700
Pd       9.60905000       2.37474000      14.61885000       0.00463000       0.00182300      -0.00029000
Pd       9.64804000       8.75107000      12.21656000       0.00021800       0.00478600       0.00215200
Pd      13.77185000       7.92499000       9.82452000       0.00063400       0.00222500       0.01181900
Pd       9.62886000       5.55562000       9.90967000       0.01046200      -0.00993100       0.00850200
Pd       8.23393000       0.00153000      14.58253000      -0.00014800      -0.00263200       0.00279100
Pd       1.38343000       0.77560000       9.89426000      -0.00053400       0.00118600       0.01199300
Pd       5.49764000       0.01328000      14.51690000       0.00817100       0.00281400       0.00810600
Pd      11.01884000       1.58469000      12.22881000      -0.01106600       0.00856700      -0.00038800
Pd      -0.02945000       0.00990000      14.63418000      -0.00506000       0.00008600      -0.00543100
Pd       2.75207000       3.17288000       9.85773000       0.00561800       0.00080700       0.00061700
Pd       4.14082000       5.57129000       9.90146000      -0.00126900       0.00281700       0.00830500
Pd       5.51880000       7.91202000       9.89207000       0.00315000      -0.01262700       0.00574700
Pd       4.10707000       7.16453000      14.67306000      -0.00613500      -0.00422200      -0.01202300
Pd       2.76547000       1.57267000      12.25731000       0.00044200      -0.00273200      -0.00136800
Pd       2.75420000       0.01920000      14.63555000      -0.00032100      -0.00942500      -0.00567400
Pd       4.14389000       2.36882000      14.59837000      -0.00499500       0.00600400      -0.00896000
Pd       6.88152000       5.56484000       9.92266000      -0.00541500      -0.00488300      -0.00173100
Pd       5.51077000       6.35860000      12.31778000      -0.00246100       0.00193400       0.00310200
Pd       5.48605000       4.76016000      14.68426000      -0.00614000       0.00503900      -0.01001200
Pd       8.23550000       7.92177000       9.91254000       0.00501100       0.00139300      -0.00379000
Pd      12.35927000       8.75083000      12.17345000       0.00590600      -0.00673000       0.00065700
Pd       5.48974000       1.56962000      12.15984000       0.00079300       0.01135000      -0.00170400
Pd       6.85716000       2.36939000      14.58567000      -0.00193700       0.00496900       0.00460500
Pd      12.37519000       7.17248000      14.63562000       0.00452700       0.00301400      -0.00732900
