  48  48   0   0
  0.5349325E+02  0.1100258E-08  0.1100258E-08  0.2449179E-08  0.3500000E-15
  1.000000000000000E-004
  CAR 
 unknown system                          
      6.35032463     -9.99241948  301     -1.07375144      1.00000000
     -9.992  0.0000E+00  0.0000E+00
     -9.938  0.0000E+00  0.0000E+00
     -9.883  0.0000E+00  0.0000E+00
     -9.829  0.0000E+00  0.0000E+00
     -9.775  0.0000E+00  0.0000E+00
     -9.720  0.0000E+00  0.0000E+00
     -9.666  0.0000E+00  0.0000E+00
     -9.611  0.0000E+00  0.0000E+00
     -9.557  0.1019E-16  0.5551E-18
     -9.502  0.4044E-14  0.2209E-15
     -9.448  0.8983E-12  0.4916E-13
     -9.393  0.1124E-09  0.6174E-11
     -9.339  0.7955E-08  0.4396E-09
     -9.284  0.3193E-06  0.1783E-07
     -9.230  0.7297E-05  0.4153E-06
     -9.175  0.9526E-04  0.5605E-05
     -9.121  0.7128E-03  0.4444E-04
     -9.066  0.3067E-02  0.2115E-03
     -9.012  0.7627E-02  0.6270E-03
     -8.957  0.1118E-01  0.1236E-02
     -8.903  0.1065E-01  0.1816E-02
     -8.848  0.9296E-02  0.2322E-02
     -8.794  0.9997E-02  0.2867E-02
     -8.739  0.9793E-02  0.3401E-02
     -8.685  0.6782E-02  0.3770E-02
     -8.631  0.3167E-02  0.3943E-02
     -8.576  0.1253E-02  0.4011E-02
     -8.522  0.1478E-02  0.4091E-02
     -8.467  0.3032E-02  0.4256E-02
     -8.413  0.4395E-02  0.4496E-02
     -8.358  0.5273E-02  0.4783E-02
     -8.304  0.6795E-02  0.5153E-02
     -8.249  0.8167E-02  0.5598E-02
     -8.195  0.8467E-02  0.6059E-02
     -8.140  0.9199E-02  0.6561E-02
     -8.086  0.1063E-01  0.7140E-02
     -8.031  0.1195E-01  0.7791E-02
     -7.977  0.1284E-01  0.8490E-02
     -7.922  0.1216E-01  0.9152E-02
     -7.868  0.1052E-01  0.9726E-02
     -7.813  0.1026E-01  0.1028E-01
     -7.759  0.1165E-01  0.1092E-01
     -7.704  0.1338E-01  0.1165E-01
     -7.650  0.1540E-01  0.1249E-01
     -7.595  0.1800E-01  0.1347E-01
     -7.541  0.2043E-01  0.1458E-01
     -7.487  0.2265E-01  0.1582E-01
     -7.432  0.2502E-01  0.1718E-01
     -7.378  0.2781E-01  0.1869E-01
     -7.323  0.3314E-01  0.2050E-01
     -7.269  0.4182E-01  0.2278E-01
     -7.214  0.5139E-01  0.2558E-01
     -7.160  0.5947E-01  0.2882E-01
     -7.105  0.6393E-01  0.3230E-01
     -7.051  0.6260E-01  0.3571E-01
     -6.996  0.5734E-01  0.3883E-01
     -6.942  0.5265E-01  0.4170E-01
     -6.887  0.4925E-01  0.4438E-01
     -6.833  0.4695E-01  0.4694E-01
     -6.778  0.5095E-01  0.4972E-01
     -6.724  0.6458E-01  0.5324E-01
     -6.669  0.8078E-01  0.5764E-01
     -6.615  0.9161E-01  0.6263E-01
     -6.560  0.9592E-01  0.6785E-01
     -6.506  0.9860E-01  0.7322E-01
     -6.451  0.1059E+00  0.7899E-01
     -6.397  0.1171E+00  0.8537E-01
     -6.343  0.1296E+00  0.9243E-01
     -6.288  0.1411E+00  0.1001E+00
     -6.234  0.1493E+00  0.1083E+00
     -6.179  0.1574E+00  0.1168E+00
     -6.125  0.1648E+00  0.1258E+00
     -6.070  0.1648E+00  0.1348E+00
     -6.016  0.1572E+00  0.1433E+00
     -5.961  0.1496E+00  0.1515E+00
     -5.907  0.1481E+00  0.1596E+00
     -5.852  0.1516E+00  0.1678E+00
     -5.798  0.1541E+00  0.1762E+00
     -5.743  0.1514E+00  0.1845E+00
     -5.689  0.1447E+00  0.1923E+00
     -5.634  0.1360E+00  0.1998E+00
     -5.580  0.1281E+00  0.2067E+00
     -5.525  0.1247E+00  0.2135E+00
     -5.471  0.1263E+00  0.2204E+00
     -5.416  0.1305E+00  0.2275E+00
     -5.362  0.1362E+00  0.2349E+00
     -5.307  0.1427E+00  0.2427E+00
     -5.253  0.1478E+00  0.2508E+00
     -5.199  0.1517E+00  0.2590E+00
     -5.144  0.1557E+00  0.2675E+00
     -5.090  0.1605E+00  0.2762E+00
     -5.035  0.1662E+00  0.2853E+00
     -4.981  0.1718E+00  0.2947E+00
     -4.926  0.1758E+00  0.3042E+00
     -4.872  0.1785E+00  0.3140E+00
     -4.817  0.1798E+00  0.3238E+00
     -4.763  0.1797E+00  0.3336E+00
     -4.708  0.1804E+00  0.3434E+00
     -4.654  0.1825E+00  0.3533E+00
     -4.599  0.1836E+00  0.3633E+00
     -4.545  0.1815E+00  0.3732E+00
     -4.490  0.1747E+00  0.3827E+00
     -4.436  0.1657E+00  0.3918E+00
     -4.381  0.1597E+00  0.4005E+00
     -4.327  0.1588E+00  0.4091E+00
     -4.272  0.1614E+00  0.4179E+00
     -4.218  0.1648E+00  0.4269E+00
     -4.164  0.1681E+00  0.4360E+00
     -4.109  0.1713E+00  0.4454E+00
     -4.055  0.1766E+00  0.4550E+00
     -4.000  0.1852E+00  0.4651E+00
     -3.946  0.1917E+00  0.4755E+00
     -3.891  0.1928E+00  0.4860E+00
     -3.837  0.1917E+00  0.4965E+00
     -3.782  0.1885E+00  0.5067E+00
     -3.728  0.1818E+00  0.5166E+00
     -3.673  0.1757E+00  0.5262E+00
     -3.619  0.1747E+00  0.5357E+00
     -3.564  0.1786E+00  0.5454E+00
     -3.510  0.1832E+00  0.5554E+00
     -3.455  0.1844E+00  0.5655E+00
     -3.401  0.1804E+00  0.5753E+00
     -3.346  0.1747E+00  0.5848E+00
     -3.292  0.1731E+00  0.5943E+00
     -3.237  0.1754E+00  0.6038E+00
     -3.183  0.1781E+00  0.6135E+00
     -3.128  0.1808E+00  0.6234E+00
     -3.074  0.1832E+00  0.6333E+00
     -3.020  0.1844E+00  0.6434E+00
     -2.965  0.1859E+00  0.6535E+00
     -2.911  0.1883E+00  0.6638E+00
     -2.856  0.1894E+00  0.6741E+00
     -2.802  0.1886E+00  0.6844E+00
     -2.747  0.1890E+00  0.6946E+00
     -2.693  0.1933E+00  0.7052E+00
     -2.638  0.1997E+00  0.7161E+00
     -2.584  0.2034E+00  0.7271E+00
     -2.529  0.2019E+00  0.7381E+00
     -2.475  0.1968E+00  0.7489E+00
     -2.420  0.1906E+00  0.7592E+00
     -2.366  0.1865E+00  0.7694E+00
     -2.311  0.1862E+00  0.7795E+00
     -2.257  0.1854E+00  0.7896E+00
     -2.202  0.1809E+00  0.7995E+00
     -2.148  0.1779E+00  0.8092E+00
     -2.093  0.1818E+00  0.8191E+00
     -2.039  0.1908E+00  0.8295E+00
     -1.984  0.1970E+00  0.8402E+00
     -1.930  0.1973E+00  0.8510E+00
     -1.876  0.1982E+00  0.8618E+00
     -1.821  0.2047E+00  0.8729E+00
     -1.767  0.2139E+00  0.8846E+00
     -1.712  0.2185E+00  0.8965E+00
     -1.658  0.2156E+00  0.9082E+00
     -1.603  0.2129E+00  0.9198E+00
     -1.549  0.2140E+00  0.9315E+00
     -1.494  0.2113E+00  0.9430E+00
     -1.440  0.2003E+00  0.9539E+00
     -1.385  0.1883E+00  0.9642E+00
     -1.331  0.1806E+00  0.9740E+00
     -1.276  0.1688E+00  0.9832E+00
     -1.222  0.1487E+00  0.9913E+00
     -1.167  0.1291E+00  0.9983E+00
     -1.113  0.1111E+00  0.1004E+01
     -1.058  0.8934E-01  0.1009E+01
     -1.004  0.6721E-01  0.1013E+01
     -0.949  0.5051E-01  0.1016E+01
     -0.895  0.3760E-01  0.1018E+01
     -0.840  0.2578E-01  0.1019E+01
     -0.786  0.1779E-01  0.1020E+01
     -0.732  0.1821E-01  0.1021E+01
     -0.677  0.2457E-01  0.1022E+01
     -0.623  0.3035E-01  0.1024E+01
     -0.568  0.3480E-01  0.1026E+01
     -0.514  0.4007E-01  0.1028E+01
     -0.459  0.4420E-01  0.1031E+01
     -0.405  0.4455E-01  0.1033E+01
     -0.350  0.4288E-01  0.1035E+01
     -0.296  0.4238E-01  0.1038E+01
     -0.241  0.4256E-01  0.1040E+01
     -0.187  0.3796E-01  0.1042E+01
     -0.132  0.2713E-01  0.1043E+01
     -0.078  0.1874E-01  0.1045E+01
     -0.023  0.1842E-01  0.1046E+01
      0.031  0.2077E-01  0.1047E+01
      0.086  0.2096E-01  0.1048E+01
      0.140  0.2210E-01  0.1049E+01
      0.195  0.2540E-01  0.1050E+01
      0.249  0.2670E-01  0.1052E+01
      0.304  0.2791E-01  0.1053E+01
      0.358  0.3481E-01  0.1055E+01
      0.412  0.4573E-01  0.1058E+01
      0.467  0.5375E-01  0.1061E+01
      0.521  0.5522E-01  0.1064E+01
      0.576  0.5226E-01  0.1067E+01
      0.630  0.4927E-01  0.1069E+01
      0.685  0.4799E-01  0.1072E+01
      0.739  0.4661E-01  0.1074E+01
      0.794  0.4195E-01  0.1077E+01
      0.848  0.3275E-01  0.1078E+01
      0.903  0.2231E-01  0.1080E+01
      0.957  0.1727E-01  0.1081E+01
      1.012  0.1914E-01  0.1082E+01
      1.066  0.2159E-01  0.1083E+01
      1.121  0.2012E-01  0.1084E+01
      1.175  0.1607E-01  0.1085E+01
      1.230  0.1278E-01  0.1085E+01
      1.284  0.1275E-01  0.1086E+01
      1.339  0.1437E-01  0.1087E+01
      1.393  0.1467E-01  0.1088E+01
      1.448  0.1542E-01  0.1089E+01
      1.502  0.2085E-01  0.1090E+01
      1.556  0.2920E-01  0.1091E+01
      1.611  0.3344E-01  0.1093E+01
      1.665  0.3278E-01  0.1095E+01
      1.720  0.3268E-01  0.1097E+01
      1.774  0.3380E-01  0.1099E+01
      1.829  0.3188E-01  0.1100E+01
      1.883  0.2632E-01  0.1102E+01
      1.938  0.2188E-01  0.1103E+01
      1.992  0.2187E-01  0.1104E+01
      2.047  0.2521E-01  0.1105E+01
      2.101  0.2957E-01  0.1107E+01
      2.156  0.3407E-01  0.1109E+01
      2.210  0.3916E-01  0.1111E+01
      2.265  0.4635E-01  0.1114E+01
      2.319  0.5361E-01  0.1117E+01
      2.374  0.5330E-01  0.1119E+01
      2.428  0.4487E-01  0.1122E+01
      2.483  0.3738E-01  0.1124E+01
      2.537  0.3668E-01  0.1126E+01
      2.591  0.4014E-01  0.1128E+01
      2.646  0.4375E-01  0.1130E+01
      2.700  0.4514E-01  0.1133E+01
      2.755  0.4083E-01  0.1135E+01
      2.809  0.2985E-01  0.1137E+01
      2.864  0.1715E-01  0.1138E+01
      2.918  0.1043E-01  0.1138E+01
      2.973  0.1081E-01  0.1139E+01
      3.027  0.1130E-01  0.1139E+01
      3.082  0.9014E-02  0.1140E+01
      3.136  0.9353E-02  0.1140E+01
      3.191  0.1490E-01  0.1141E+01
      3.245  0.2128E-01  0.1142E+01
      3.300  0.2384E-01  0.1144E+01
      3.354  0.2121E-01  0.1145E+01
      3.409  0.1608E-01  0.1146E+01
      3.463  0.1549E-01  0.1147E+01
      3.518  0.2276E-01  0.1148E+01
      3.572  0.3249E-01  0.1150E+01
      3.627  0.4015E-01  0.1152E+01
      3.681  0.4481E-01  0.1154E+01
      3.735  0.4374E-01  0.1157E+01
      3.790  0.3745E-01  0.1159E+01
      3.844  0.3078E-01  0.1160E+01
      3.899  0.2639E-01  0.1162E+01
      3.953  0.2579E-01  0.1163E+01
      4.008  0.2869E-01  0.1165E+01
      4.062  0.2894E-01  0.1166E+01
      4.117  0.2375E-01  0.1168E+01
      4.171  0.1984E-01  0.1169E+01
      4.226  0.2089E-01  0.1170E+01
      4.280  0.2201E-01  0.1171E+01
      4.335  0.2028E-01  0.1172E+01
      4.389  0.1964E-01  0.1173E+01
      4.444  0.2309E-01  0.1174E+01
      4.498  0.3003E-01  0.1176E+01
      4.553  0.4071E-01  0.1178E+01
      4.607  0.5212E-01  0.1181E+01
      4.662  0.5581E-01  0.1184E+01
      4.716  0.5049E-01  0.1187E+01
      4.771  0.4588E-01  0.1189E+01
      4.825  0.4761E-01  0.1192E+01
      4.879  0.5095E-01  0.1195E+01
      4.934  0.5248E-01  0.1198E+01
      4.988  0.5801E-01  0.1201E+01
      5.043  0.6829E-01  0.1205E+01
      5.097  0.7347E-01  0.1209E+01
      5.152  0.6936E-01  0.1212E+01
      5.206  0.6301E-01  0.1216E+01
      5.261  0.5683E-01  0.1219E+01
      5.315  0.4545E-01  0.1221E+01
      5.370  0.2901E-01  0.1223E+01
      5.424  0.1379E-01  0.1224E+01
      5.479  0.4524E-02  0.1224E+01
      5.533  0.9512E-03  0.1224E+01
      5.588  0.1216E-03  0.1224E+01
      5.642  0.9137E-05  0.1224E+01
      5.697  0.3965E-06  0.1224E+01
      5.751  0.9821E-08  0.1224E+01
      5.806  0.1379E-09  0.1224E+01
      5.860  0.1093E-11  0.1224E+01
      5.915  0.4869E-14  0.1224E+01
      5.969  0.1223E-16  0.1224E+01
      6.023  0.0000E+00  0.1224E+01
      6.078  0.0000E+00  0.1224E+01
      6.132  0.0000E+00  0.1224E+01
      6.187  0.0000E+00  0.1224E+01
      6.241  0.0000E+00  0.1224E+01
      6.296  0.0000E+00  0.1224E+01
      6.350  0.0000E+00  0.1224E+01
