 vasp.5.4.1 24Jun15 (build Mar 14 2019 10:18:33) complex                        
  
 executed on INTEL-19.0.2+OPENMPI date 2023.01.31  01:37:20
 running on   36 total cores
 distrk:  each k-point on   36 cores,    1 groups
 distr:  one band on NCORES_PER_BAND=   6 cores,    6 groups


--------------------------------------------------------------------------------------------------------


 INCAR:
 POTCAR:    PAW_PBE Au 04Oct2007                  
 POTCAR:    PAW_PBE Pd 04Jan2005                  
 POTCAR:    PAW_PBE Au 04Oct2007                  
  local pseudopotential read in
  partial core-charges read in
  partial kinetic energy density read in
  atomic valenz-charges read in
  non local Contribution for L=           2  read in
    real space projection operators read in
  non local Contribution for L=           2  read in
    real space projection operators read in
  non local Contribution for L=           0  read in
    real space projection operators read in
  non local Contribution for L=           0  read in
    real space projection operators read in
  non local Contribution for L=           1  read in
    real space projection operators read in
  non local Contribution for L=           1  read in
    real space projection operators read in
    PAW grid and wavefunctions read in
 
   number of l-projection  operators is LMAX  =           6
   number of lm-projection operators is LMMAX =          18
 
 POTCAR:    PAW_PBE Pd 04Jan2005                  
  local pseudopotential read in
  partial core-charges read in
  partial kinetic energy density read in
  atomic valenz-charges read in
  non local Contribution for L=           2  read in
    real space projection operators read in
  non local Contribution for L=           2  read in
    real space projection operators read in
  non local Contribution for L=           0  read in
    real space projection operators read in
  non local Contribution for L=           0  read in
    real space projection operators read in
  non local Contribution for L=           1  read in
    real space projection operators read in
  non local Contribution for L=           1  read in
    real space projection operators read in
    PAW grid and wavefunctions read in
 
   number of l-projection  operators is LMAX  =           6
   number of lm-projection operators is LMMAX =          18
 
 Optimization of the real space projectors (new method)

 maximal supplied QI-value         = 15.12
 optimisation between [QCUT,QGAM] = [ 10.13, 20.41] = [ 28.73,116.64] Ry 
 Optimized for a Real-space Cutoff    1.51 Angstroem

   l    n(q)    QCUT    max X(q) W(low)/X(q) W(high)/X(q)  e(spline) 
   2      8    10.129    60.898    0.46E-03    0.46E-03    0.14E-06
   2      8    10.129    58.894    0.47E-03    0.47E-03    0.14E-06
   0      9    10.129   109.617    0.16E-03    0.11E-03    0.54E-07
   0      9    10.129    75.026    0.15E-03    0.11E-03    0.52E-07
   1      9    10.129    16.344    0.96E-04    0.15E-03    0.14E-06
   1      9    10.129    10.160    0.81E-04    0.12E-03    0.11E-06
 Optimization of the real space projectors (new method)

 maximal supplied QI-value         = 14.36
 optimisation between [QCUT,QGAM] = [ 10.20, 20.39] = [ 29.12,116.47] Ry 
 Optimized for a Real-space Cutoff    1.51 Angstroem

   l    n(q)    QCUT    max X(q) W(low)/X(q) W(high)/X(q)  e(spline) 
   2      8    10.197    59.108    0.26E-03    0.14E-03    0.96E-07
   2      8    10.197    58.101    0.27E-03    0.14E-03    0.98E-07
   0      9    10.197   102.235    0.54E-04    0.60E-05    0.72E-07
   0      9    10.197    58.388    0.52E-04    0.60E-05    0.68E-07
   1      9    10.197    22.191    0.18E-03    0.25E-03    0.79E-07
   1      9    10.197    15.590    0.15E-03    0.21E-03    0.69E-07
  PAW_PBE Au 04Oct2007                  :
 energy of atom  1       EATOM= -926.0867
 kinetic energy error for atom=    0.0062 (will be added to EATOM!!)
  PAW_PBE Pd 04Jan2005                  :
 energy of atom  2       EATOM= -809.7530
 kinetic energy error for atom=    0.0091 (will be added to EATOM!!)
 
 
 POSCAR: Au Pd                                   
  positions in cartesian coordinates
  No initial velocities read in
 exchange correlation table for  LEXCH =        8
   RHO(1)=    0.500       N(1)  =     2000
   RHO(2)=  100.500       N(2)  =     4000

 VTST: version 3.2, (02/03/18)

 CHAIN: initializing optimizer
 
 OPT: Using VASP Conjugate-Gradient optimizer
 CHAIN: Read ICHAIN            0
 
 POSCAR: Au Pd                                   
  positions in cartesian coordinates
  No initial velocities read in
 


--------------------------------------------------------------------------------------------------------


 ion  position               nearest neighbor table
   1  0.083  0.083  0.408-   2 2.75   5 2.75  31 2.75  40 2.75  42 2.75  21 2.75   4 2.75  30 2.75
                            45 2.75
   2  0.167  0.167  0.500-   1 2.75  29 2.75  46 2.75  19 2.75   9 2.75  30 2.75  13 2.75  45 2.75
                            14 2.75  42 2.75   4 2.75  47 2.75
   3  0.917  0.917  0.500-  39 2.75  34 2.75  22 2.75  11 2.75  38 2.75   6 2.75  45 2.75  12 2.75
                            30 2.75  21 2.75  36 2.75   5 2.75
   4  0.333  0.083  0.408-  14 2.75  31 2.75  33 2.75  35 2.75  42 2.75   1 2.75  24 2.75  19 2.75
                             2 2.75
   5  0.083  0.833  0.408-  30 2.75   7 2.75  10 2.75  21 2.75   1 2.75  31 2.75  39 2.75  11 2.75
                             3 2.75
   6  0.917  0.667  0.500-  23 2.75  26 2.75   8 2.75  12 2.75  13 2.75   3 2.75   9 2.75  11 2.75
                            37 2.75  39 2.75   7 2.75  34 2.75
   7  0.083  0.583  0.408-  11 2.75   5 2.75  33 2.75  39 2.75  42 2.75  23 2.75  10 2.75   9 2.75
                             6 2.75
   8  0.750  0.750  0.592-  12 2.75   6 2.75  22 2.75  26 2.75  28 2.75  44 2.75  34 2.75  20 2.75
                            37 2.75
   9  0.167  0.417  0.500-  42 2.75  47 2.75  26 2.75  14 2.75   2 2.75   6 2.75  11 2.75  15 2.75
                            13 2.75   7 2.75  32 2.75  33 2.75
  10  0.333  0.583  0.408-  25 2.75   5 2.75  27 2.75  31 2.75  33 2.75   7 2.75  17 2.75  15 2.75
                            11 2.75
  11  0.167  0.667  0.500-   7 2.75  32 2.75  34 2.75  15 2.75  30 2.75   3 2.75   9 2.75  25 2.75
                             6 2.75   5 2.75  10 2.75  48 2.75
  12  0.667  0.917  0.500-  35 2.75   8 2.75  28 2.75   6 2.75  14 2.75  37 2.75  38 2.75   3 2.75
                            19 2.75  24 2.75  22 2.75  39 2.75
  13  0.917  0.417  0.500-  40 2.75  46 2.75  44 2.75   2 2.75   6 2.75  45 2.75  37 2.75  41 2.75
                             9 2.75  23 2.75  42 2.75  26 2.75
  14  0.417  0.167  0.500-   4 2.75  28 2.75  47 2.75  15 2.75  19 2.75   9 2.75  12 2.75  38 2.75
                             2 2.75  33 2.75  16 2.75  24 2.75
  15  0.417  0.417  0.500-  33 2.75  16 2.75  32 2.75  25 2.75  14 2.75  11 2.75  38 2.75   9 2.75
                            41 2.75  10 2.75  18 2.75  27 2.75
  16  0.500  0.250  0.592-  15 2.75  38 2.75  22 2.75  28 2.75  32 2.75  18 2.75  43 2.75  47 2.75
                            14 2.75
  17  0.583  0.583  0.408-  37 2.75  31 2.75  35 2.75  27 2.75  40 2.75  23 2.75  10 2.75  41 2.75
                            25 2.75
  18  0.500  0.500  0.592-  25 2.75  41 2.75  16 2.75  20 2.75  43 2.75  48 2.75  44 2.75  32 2.75
                            15 2.75
  19  0.417  0.917  0.500-  31 2.75  20 2.75  29 2.75  25 2.75  14 2.75   2 2.75  37 2.75  12 2.75
                            30 2.75   4 2.75  35 2.75  28 2.75
  20  0.500  0.750  0.592-  19 2.75  37 2.75  28 2.75  29 2.75  18 2.75  44 2.75   8 2.75  48 2.75
                            25 2.75
  21  0.833  0.083  0.408-  45 2.75  27 2.75  39 2.75  40 2.75   5 2.75   1 2.75  24 2.75   3 2.75
                            38 2.75
  22  0.750  0.000  0.592-  38 2.75   3 2.75  16 2.75  34 2.75   8 2.75  43 2.75  28 2.75  36 2.75
                            12 2.75
  23  0.833  0.583  0.408-   6 2.75  35 2.75  39 2.75  40 2.75  42 2.75   7 2.75  17 2.75  13 2.75
                            37 2.75
  24  0.583  0.083  0.408-  38 2.75  33 2.75  35 2.75  27 2.75  39 2.75  21 2.75   4 2.75  12 2.75
                            14 2.75
  25  0.417  0.667  0.500-  10 2.75  18 2.75  48 2.75  19 2.75  30 2.75  41 2.75  15 2.75  11 2.75
                            37 2.75  31 2.75  20 2.75  17 2.75
  26  0.000  0.500  0.592-   6 2.75   9 2.75   8 2.75  34 2.75  46 2.75  47 2.75  32 2.75  44 2.75
                            13 2.75
  27  0.583  0.333  0.408-  41 2.75  17 2.75  21 2.75  24 2.75  10 2.75  40 2.75  33 2.75  38 2.75
                            15 2.75
  28  0.500  0.000  0.592-  14 2.75  12 2.75   8 2.75  16 2.75  20 2.75  47 2.75  29 2.75  22 2.75
                            19 2.75
  29  0.250  0.000  0.592-   2 2.75  19 2.75  20 2.75  46 2.75  47 2.75  48 2.75  36 2.75  28 2.75
                            30 2.75
  30  0.167  0.917  0.500-   5 2.75  48 2.75  36 2.75  25 2.75   2 2.75  45 2.75  11 2.75   3 2.75
                            19 2.75   1 2.75  31 2.75  29 2.75
  31  0.333  0.833  0.408-  19 2.75   4 2.75  10 2.75  17 2.75   1 2.75   5 2.75  35 2.75  25 2.75
                            30 2.75
  32  0.250  0.500  0.592-  11 2.75  15 2.75  16 2.75  34 2.75  47 2.75  48 2.75  26 2.75  18 2.75
                             9 2.75
  33  0.333  0.333  0.408-  15 2.75   7 2.75  10 2.75   4 2.75  24 2.75  27 2.75  42 2.75  14 2.75
                             9 2.75
  34  0.000  0.750  0.592-   3 2.75  11 2.75  22 2.75  26 2.75  32 2.75  36 2.75   8 2.75  48 2.75
                             6 2.75
  35  0.583  0.833  0.408-  12 2.75   4 2.75  17 2.75  23 2.75  24 2.75  31 2.75  39 2.75  37 2.75
                            19 2.75
  36  0.000  0.000  0.592-  45 2.75  30 2.75  43 2.75  34 2.75  46 2.75  48 2.75  22 2.75  29 2.75
                             3 2.75
  37  0.667  0.667  0.500-  17 2.75  44 2.75  20 2.75  19 2.75  13 2.75  41 2.75  12 2.75   6 2.75
                            25 2.75  35 2.75   8 2.75  23 2.75
  38  0.667  0.167  0.500-  24 2.75  22 2.75  16 2.75   3 2.75  12 2.75  15 2.75  41 2.75  14 2.75
                            45 2.75  27 2.75  43 2.75  21 2.75
  39  0.833  0.833  0.408-   3 2.75   7 2.75  21 2.75  23 2.75  24 2.75   5 2.75  35 2.75   6 2.75
                            12 2.75
  40  0.833  0.333  0.408-  13 2.75   1 2.75  17 2.75  21 2.75  23 2.75  27 2.75  42 2.75  45 2.75
                            41 2.75
  41  0.667  0.417  0.500-  27 2.75  43 2.75  18 2.75  37 2.75  38 2.75  25 2.75  45 2.75  15 2.75
                            13 2.75  17 2.75  44 2.75  40 2.75
  42  0.083  0.333  0.408-   9 2.75   4 2.75   7 2.75   1 2.75  23 2.75  33 2.75  40 2.75   2 2.75
                            13 2.75
  43  0.750  0.250  0.592-  41 2.75  45 2.75  36 2.75  18 2.75  44 2.75  22 2.75  16 2.75  46 2.75
                            38 2.75
  44  0.750  0.500  0.592-  37 2.75  13 2.75  20 2.75   8 2.75  43 2.75  46 2.75  26 2.75  18 2.75
                            41 2.75
  45  0.917  0.167  0.500-  21 2.75  36 2.75  43 2.75  30 2.75  13 2.75  41 2.75   3 2.75   2 2.75
                            38 2.75  40 2.75   1 2.75  46 2.75
  46  0.000  0.250  0.592-  13 2.75   2 2.75  26 2.75  29 2.75  36 2.75  44 2.75  43 2.75  47 2.75
                            45 2.75
  47  0.250  0.250  0.592-   9 2.75  14 2.75  26 2.75  28 2.75  29 2.75  32 2.75  16 2.75  46 2.75
                             2 2.75
  48  0.250  0.750  0.592-  30 2.75  25 2.75  29 2.75  18 2.75  32 2.75  36 2.75  34 2.75  20 2.75
                            11 2.75
 
  LATTYP: Found a hexagonal cell.
 ALAT       =    11.0025815153
 C/A-ratio  =     2.2260035120
  
  Lattice vectors:
  
 A1 = (   5.5012907576,  -9.5285150994,   0.0000000000)
 A2 = ( -11.0025815153,   0.0000000000,   0.0000000000)
 A3 = (   0.0000000000,   0.0000000000, -24.4917850943)


Analysis of symmetry for initial positions (statically):
=====================================================================
 Subroutine PRICEL returns:
 Original cell was already a primitive cell.
 

 Routine SETGRP: Setting up the symmetry group for a 
 hexagonal supercell.


 Subroutine GETGRP returns: Found  1 space group operations
 (whereof  1 operations were pure point group operations)
 out of a pool of 24 trial point group operations.


The static configuration has the point symmetry C_1 .


Analysis of symmetry for dynamics (positions and initial velocities):
=====================================================================
 Subroutine PRICEL returns:
 Original cell was already a primitive cell.
 

 Routine SETGRP: Setting up the symmetry group for a 
 hexagonal supercell.


 Subroutine GETGRP returns: Found  1 space group operations
 (whereof  1 operations were pure point group operations)
 out of a pool of 24 trial point group operations.


The dynamic configuration has the point symmetry C_1 .


Analysis of constrained symmetry for selective dynamics:
=====================================================================
 Subroutine PRICEL returns:
 Original cell was already a primitive cell.
 

 Routine SETGRP: Setting up the symmetry group for a 
 hexagonal supercell.


 Subroutine GETGRP returns: Found  1 space group operations
 (whereof  1 operations were pure point group operations)
 out of a pool of 24 trial point group operations.


The constrained configuration has the point symmetry C_1 .
 
 
 KPOINTS: Automatic mesh                          

Automatic generation of k-mesh.
Space group operators:
 irot       det(A)        alpha          n_x          n_y          n_z        tau_x        tau_y        tau_z
    1     1.000000     0.000000     1.000000     0.000000     0.000000     0.000000     0.000000     0.000000
 
 Subroutine IBZKPT returns following result:
 ===========================================
 
 Found      6 irreducible k-points:
 
 Following reciprocal coordinates:
            Coordinates               Weight
  0.250000  0.250000  0.000000     16.000000
  0.000000  0.250000  0.000000     16.000000
 -0.250000  0.000000  0.000000     16.000000
 -0.250000  0.250000  0.000000     16.000000
  0.500000 -0.250000  0.000000     16.000000
 -0.250000  0.500000  0.000000     16.000000
 
 Following cartesian coordinates:
            Coordinates               Weight
  0.022722  0.013119  0.000000     16.000000
  0.000000  0.026237  0.000000     16.000000
 -0.022722  0.013119  0.000000     16.000000
 -0.022722  0.039356  0.000000     16.000000
  0.045444 -0.052474  0.000000     16.000000
 -0.022722  0.065593  0.000000     16.000000
 


--------------------------------------------------------------------------------------------------------




 Dimension of arrays:
   k-points           NKPTS =      6   k-points in BZ     NKDIM =      6   number of bands    NBANDS=    306
   number of dos      NEDOS =    301   number of ions     NIONS =     48
   non local maximal  LDIM  =      6   non local SUM 2l+1 LMDIM =     18
   total plane-waves  NPLWV = 349920
   max r-space proj   IRMAX =   2009   max aug-charges    IRDMAX=   8532
   dimension x,y,z NGX =    54 NGY =   54 NGZ =  120
   dimension x,y,z NGXF=   108 NGYF=  108 NGZF=  240
   support grid    NGXF=   108 NGYF=  108 NGZF=  240
   ions per type =              24  24
 NGX,Y,Z   is equivalent  to a cutoff of   8.16,  8.16,  8.15 a.u.
 NGXF,Y,Z  is equivalent  to a cutoff of  16.32, 16.32, 16.29 a.u.


 I would recommend the setting:
   dimension x,y,z NGX =    54 NGY =   54 NGZ =  120
 SYSTEM =  unknown system                          
 POSCAR =  Au Pd                                   

 Startparameter for this run:
   NWRITE =      1    write-flag & timer
   PREC   = normal    normal or accurate (medium, high low for compatibility)
   ISTART =      0    job   : 0-new  1-cont  2-samecut
   ICHARG =      2    charge: 1-file 2-atom 10-const
   ISPIN  =      1    spin polarized calculation?
   LNONCOLLINEAR =      F non collinear calculations
   LSORBIT =      F    spin-orbit coupling
   INIWAV =      1    electr: 0-lowe 1-rand  2-diag
   LASPH  =      F    aspherical Exc in radial PAW
   METAGGA=      F    non-selfconsistent MetaGGA calc.

 Electronic Relaxation 1
   ENCUT  =  400.0 eV  29.40 Ry    5.42 a.u.  17.94 17.94 39.94*2*pi/ulx,y,z
   ENINI  =  400.0     initial cutoff
   ENAUG  =  416.2 eV  augmentation charge cutoff
   NELM   =    500;   NELMIN=  2; NELMDL= -5     # of ELM steps 
   EDIFF  = 0.1E-05   stopping-criterion for ELM
   LREAL  =      T    real-space projection
   NLSPLINE    = F    spline interpolate recip. space projectors
   LCOMPAT=      F    compatible to vasp.4.4
   GGA_COMPAT  = T    GGA compatible to vasp.4.4-vasp.4.6
   LMAXPAW     = -100 max onsite density
   LMAXMIX     =    2 max onsite mixed and CHGCAR
   VOSKOWN=      1    Vosko Wilk Nusair interpolation
   ROPT   =   -0.00050  -0.00050
 Ionic relaxation
   EDIFFG = -.2E-01   stopping-criterion for IOM
   NSW    =    500    number of steps for IOM
   NBLOCK =      1;   KBLOCK =    500    inner block; outer block 
   IBRION =      2    ionic relax: 0-MD 1-quasi-New 2-CG
   NFREE  =      2    steps in history (QN), initial steepest desc. (CG)
   ISIF   =      0    stress and relaxation
   IWAVPR =     11    prediction:  0-non 1-charg 2-wave 3-comb
   ISYM   =      2    0-nonsym 1-usesym 2-fastsym
   LCORR  =      T    Harris-Foulkes like correction to forces

   POTIM  = 0.3500    time-step for ionic-motion
   TEIN   =    0.0    initial temperature
   TEBEG  =    0.0;   TEEND  =   0.0 temperature during run
   SMASS  =  -3.00    Nose mass-parameter (am)
   estimated Nose-frequenzy (Omega)   =  0.10E-29 period in steps =****** mass=  -0.277E-26a.u.
   SCALEE = 1.0000    scale energy and forces
   NPACO  =    256;   APACO  = 16.0  distance and # of slots for P.C.
   PSTRESS=    0.0 pullay stress

  Mass of Ions in am
   POMASS = 196.97106.42
  Ionic Valenz
   ZVAL   =  11.00 10.00
  Atomic Wigner-Seitz radii
   RWIGS  =  -1.00 -1.00
  virtual crystal weights 
   VCA    =   1.00  1.00
   NELECT =     504.0000    total number of electrons
   NUPDOWN=      -1.0000    fix difference up-down

 DOS related values:
   EMIN   =  10.00;   EMAX   =-10.00  energy-range for DOS
   EFERMI =   0.00
   ISMEAR =     0;   SIGMA  =   0.10  broadening in eV -4-tet -1-fermi 0-gaus

 Electronic relaxation 2 (details)
   IALGO  =     68    algorithm
   LDIAG  =      T    sub-space diagonalisation (order eigenvalues)
   LSUBROT=      F    optimize rotation matrix (better conditioning)
   TURBO    =      0    0=normal 1=particle mesh
   IRESTART =      0    0=no restart 2=restart with 2 vectors
   NREBOOT  =      0    no. of reboots
   NMIN     =      0    reboot dimension
   EREF     =   0.00    reference energy to select bands
   IMIX   =      4    mixing-type and parameters
     AMIX     =   0.40;   BMIX     =  1.00
     AMIX_MAG =   1.60;   BMIX_MAG =  1.00
     AMIN     =   0.10
     WC   =   100.;   INIMIX=   1;  MIXPRE=   1;  MAXMIX= -45

 Intra band minimization:
   WEIMIN = 0.0010     energy-eigenvalue tresh-hold
   EBREAK =  0.82E-09  absolut break condition
   DEPER  =   0.30     relativ break condition  

   TIME   =   0.40     timestep for ELM

  volume/ion in A,a.u.               =      53.49       360.99
  Fermi-wavevector in a.u.,A,eV,Ry     =   0.951418  1.797920 12.315955  0.905197
  Thomas-Fermi vector in A             =   2.079887
 
 Write flags
   LWAVE  =      F    write WAVECAR
   LCHARG =      F    write CHGCAR
   LVTOT  =      F    write LOCPOT, total local potential
   LVHAR  =      F    write LOCPOT, Hartree potential only
   LELF   =      F    write electronic localiz. function (ELF)
   LORBIT =      0    0 simple, 1 ext, 2 COOP (PROOUT)


 Dipole corrections
   LMONO  =      F    monopole corrections only (constant potential shift)
   LDIPOL =      T    correct potential (dipole corrections)
   IDIPOL =      3    1-x, 2-y, 3-z, 4-all directions 
   EPSILON=  1.0000000 bulk dielectric constant

 Exchange correlation treatment:
   GGA     =    PE    GGA type
   LEXCH   =     8    internal setting for exchange type
   VOSKOWN=      1    Vosko Wilk Nusair interpolation
   LHFCALC =     F    Hartree Fock is set to
   LHFONE  =     F    Hartree Fock one center treatment
   AEXX    =    0.0000 exact exchange contribution

 Linear response parameters
   LEPSILON=     F    determine dielectric tensor
   LRPA    =     F    only Hartree local field effects (RPA)
   LNABLA  =     F    use nabla operator in PAW spheres
   LVEL    =     F    velocity operator in full k-point grid
   LINTERFAST=   F  fast interpolation
   KINTER  =     0    interpolate to denser k-point grid
   CSHIFT  =0.1000    complex shift for real part using Kramers Kronig
   OMEGAMAX=  -1.0    maximum frequency
   DEG_THRESHOLD= 0.2000000E-02 threshold for treating states as degnerate
   RTIME   =    0.100 relaxation time in fs

 Orbital magnetization related:
   ORBITALMAG=     F  switch on orbital magnetization
   LCHIMAG   =     F  perturbation theory with respect to B field
   DQ        =  0.001000  dq finite difference perturbation B field



--------------------------------------------------------------------------------------------------------


 conjugate gradient relaxation of ions
   using selective dynamics as specified on POSCAR
   WARNING: If single coordinates had been selected the selection of coordinates
            is made according to the corresponding   d i r e c t   coordinates!
            Don't support selection of single cartesian coordinates -- sorry ...
  !
 charge density and potential will be updated during run
 non-spin polarized calculation
 RMM-DIIS sequential band-by-band and
  variant of blocked Davidson during initial phase
 perform sub-space diagonalisation
    before iterative eigenvector-optimisation
 modified Broyden-mixing scheme, WC =      100.0
 initial mixing is a Kerker type mixing with AMIX =  0.4000 and BMIX =      1.0000
 Hartree-type preconditioning will be used
 using additional bands           54
 real space projection scheme for non local part
 use partial core corrections
 calculate Harris-corrections to forces 
   (improved forces if not selfconsistent)
 use gradient corrections 
 use of overlap-Matrix (Vanderbilt PP)
 Gauss-broadening in eV      SIGMA  =   0.10


--------------------------------------------------------------------------------------------------------


  energy-cutoff  :      400.00
  volume of cell :     2567.68
      direct lattice vectors                 reciprocal lattice vectors
    11.002581515  0.000000000  0.000000000     0.090887761 -0.052474073  0.000000000
     5.501290758  9.528515099  0.000000000     0.000000000  0.104948147  0.000000000
     0.000000000  0.000000000 24.491785094     0.000000000  0.000000000  0.040830017

  length of vectors
    11.002581515 11.002581515 24.491785094     0.104948147  0.104948147  0.040830017


 
 k-points in units of 2pi/SCALE and weight: Automatic mesh                          
   0.02272194  0.01311852  0.00000000       0.167
   0.00000000  0.02623704  0.00000000       0.167
  -0.02272194  0.01311852  0.00000000       0.167
  -0.02272194  0.03935555  0.00000000       0.167
   0.04544388 -0.05247407  0.00000000       0.167
  -0.02272194  0.06559259  0.00000000       0.167
 
 k-points in reciprocal lattice and weights: Automatic mesh                          
   0.25000000  0.25000000  0.00000000       0.167
   0.00000000  0.25000000  0.00000000       0.167
  -0.25000000  0.00000000  0.00000000       0.167
  -0.25000000  0.25000000  0.00000000       0.167
   0.50000000 -0.25000000  0.00000000       0.167
  -0.25000000  0.50000000  0.00000000       0.167
 
 position of ions in fractional coordinates (direct lattice) 
   0.08333333  0.08333333  0.40830017
   0.16666667  0.16666667  0.50000000
   0.91666667  0.91666667  0.50000000
   0.33333333  0.08333333  0.40830017
   0.08333333  0.83333333  0.40830017
   0.91666667  0.66666667  0.50000000
   0.08333333  0.58333333  0.40830017
   0.75000000  0.75000000  0.59169983
   0.16666667  0.41666667  0.50000000
   0.33333333  0.58333333  0.40830017
   0.16666667  0.66666667  0.50000000
   0.66666667  0.91666667  0.50000000
   0.91666667  0.41666667  0.50000000
   0.41666667  0.16666667  0.50000000
   0.41666667  0.41666667  0.50000000
   0.50000000  0.25000000  0.59169983
   0.58333333  0.58333333  0.40830017
   0.50000000  0.50000000  0.59169983
   0.41666667  0.91666667  0.50000000
   0.50000000  0.75000000  0.59169983
   0.83333333  0.08333333  0.40830017
   0.75000000  0.00000000  0.59169983
   0.83333333  0.58333333  0.40830017
   0.58333333  0.08333333  0.40830017
   0.41666667  0.66666667  0.50000000
   0.00000000  0.50000000  0.59169983
   0.58333333  0.33333333  0.40830017
   0.50000000  0.00000000  0.59169983
   0.25000000  0.00000000  0.59169983
   0.16666667  0.91666667  0.50000000
   0.33333333  0.83333333  0.40830017
   0.25000000  0.50000000  0.59169983
   0.33333333  0.33333333  0.40830017
   0.00000000  0.75000000  0.59169983
   0.58333333  0.83333333  0.40830017
   0.00000000  0.00000000  0.59169983
   0.66666667  0.66666667  0.50000000
   0.66666667  0.16666667  0.50000000
   0.83333333  0.83333333  0.40830017
   0.83333333  0.33333333  0.40830017
   0.66666667  0.41666667  0.50000000
   0.08333333  0.33333333  0.40830017
   0.75000000  0.25000000  0.59169983
   0.75000000  0.50000000  0.59169983
   0.91666667  0.16666667  0.50000000
   0.00000000  0.25000000  0.59169983
   0.25000000  0.25000000  0.59169983
   0.25000000  0.75000000  0.59169983
 
 position of ions in cartesian coordinates  (Angst):
   1.37532269  0.79404292 10.00000000
   2.75064538  1.58808585 12.24589255
  15.12854958  8.73447217 12.24589255
   4.12596807  0.79404292 10.00000000
   5.50129076  7.94042925 10.00000000
  13.75322689  6.35234340 12.24589255
   4.12596807  5.55830047 10.00000000
  12.37790420  7.14638632 14.49178509
   4.12596807  3.97021462 12.24589255
   6.87661345  5.55830047 10.00000000
   5.50129076  6.35234340 12.24589255
  12.37790420  8.73447217 12.24589255
  12.37790420  3.97021462 12.24589255
   5.50129076  1.58808585 12.24589255
   6.87661345  3.97021462 12.24589255
   6.87661345  2.38212877 14.49178509
   9.62725883  5.55830047 10.00000000
   8.25193614  4.76425755 14.49178509
   9.62725883  8.73447217 12.24589255
   9.62725883  7.14638632 14.49178509
   9.62725883  0.79404292 10.00000000
   8.25193614  0.00000000 14.49178509
  12.37790420  5.55830047 10.00000000
   6.87661345  0.79404292 10.00000000
   8.25193614  6.35234340 12.24589255
   2.75064538  4.76425755 14.49178509
   8.25193614  3.17617170 10.00000000
   5.50129076  0.00000000 14.49178509
   2.75064538  0.00000000 14.49178509
   6.87661345  8.73447217 12.24589255
   8.25193614  7.94042925 10.00000000
   5.50129076  4.76425755 14.49178509
   5.50129076  3.17617170 10.00000000
   4.12596807  7.14638632 14.49178509
  11.00258152  7.94042925 10.00000000
   0.00000000  0.00000000 14.49178509
  11.00258152  6.35234340 12.24589255
   8.25193614  1.58808585 12.24589255
  13.75322689  7.94042925 10.00000000
  11.00258152  3.17617170 10.00000000
   9.62725883  3.97021462 12.24589255
   2.75064538  3.17617170 10.00000000
   9.62725883  2.38212877 14.49178509
  11.00258152  4.76425755 14.49178509
  11.00258152  1.58808585 12.24589255
   1.37532269  2.38212877 14.49178509
   4.12596807  2.38212877 14.49178509
   6.87661345  7.14638632 14.49178509
 


--------------------------------------------------------------------------------------------------------


 k-point  1 :   0.2500 0.2500 0.0000  plane waves:   46635
 k-point  2 :   0.0000 0.2500 0.0000  plane waves:   46635
 k-point  3 :  -0.2500 0.0000 0.0000  plane waves:   46635
 k-point  4 :  -0.2500 0.2500 0.0000  plane waves:   46644
 k-point  5 :   0.5000-0.2500 0.0000  plane waves:   46644
 k-point  6 :  -0.2500 0.5000 0.0000  plane waves:   46644

 maximum and minimum number of plane-waves per node :      7818     7732

 maximum number of plane-waves:     46644
 maximum index in each direction: 
   IXMAX=   18   IYMAX=   18   IZMAX=   39
   IXMIN=  -18   IYMIN=  -18   IZMIN=  -39

 WARNING: aliasing errors must be expected set NGX to  74 to avoid them
 WARNING: aliasing errors must be expected set NGY to  74 to avoid them
 WARNING: aliasing errors must be expected set NGZ to 158 to avoid them
 aliasing errors are usually negligible using standard VASP settings
 and one can safely disregard these warnings

 real space projection operators:
  total allocation   :      12803.06 KBytes
  max/ min on nodes  :       2145.66       2127.94


 parallel 3D FFT for wavefunctions:
    minimum data exchange during FFTs selected (reduces bandwidth)
 parallel 3D FFT for charge:
    minimum data exchange during FFTs selected (reduces bandwidth)


 total amount of memory used by VASP on root node    84353. kBytes
========================================================================

   base      :      30000. kBytes
   nonlr-proj:       4285. kBytes
   fftplans  :       4447. kBytes
   grid      :       6721. kBytes
   one-center:        124. kBytes
   wavefun   :      38776. kBytes
 
     INWAV:  cpu time    0.0000: real time    0.0000
 Broyden mixing: mesh for mixing (old mesh)
   NGX = 35   NGY = 35   NGZ = 79
  (NGX  =108   NGY  =108   NGZ  =240)
  gives a total of  96775 points

 initial charge density was supplied:
 charge density of overlapping atoms calculated
 number of electron     504.0000000 magnetization 
 keeping initial charge density in first step


--------------------------------------------------------------------------------------------------------


 Maximum index for non-local projection operator          355
 Maximum index for augmentation-charges          437 (set IRDMAX)


--------------------------------------------------------------------------------------------------------


 First call to EWALD:  gamma=   0.129
 Maximum number of real-space cells 4x 4x 2
 Maximum number of reciprocal cells 2x 2x 5

 FEWALD executed in parallel
    FEWALD:  cpu time    0.0027: real time    0.0027


----------------------------------------- Iteration    1(   1)  ---------------------------------------


    POTLOK:  cpu time    0.0457: real time    0.0459
    SETDIJ:  cpu time    0.0054: real time    0.0055
     EDDAV:  cpu time    7.1127: real time    7.1342
       DOS:  cpu time    0.0013: real time    0.0013
    --------------------------------------------
      LOOP:  cpu time    7.1678: real time    7.1931

 eigenvalue-minimisations  :  3672
 total energy-change (2. order) : 0.3200435E+04  (-0.1897393E+05)
 number of electron     504.0000000 magnetization 
 augmentation part      504.0000000 magnetization 

 DIPCOR: dipole corrections for dipol
 direction  3 min pos     1,
 dipolmoment           0.000000      0.000000      0.000003 electrons x Angstroem
 Tr[quadrupol]    -10296.657569

 energy correction for charged system         0.000000 eV
 dipol+quadrupol energy correction           -0.000000 eV
 added-field ion interaction          0.000002 eV  (added to PSCEN)


 Free energy of the ion-electron system (eV)
  ---------------------------------------------------
  alpha Z        PSCENC =       805.86936616
  Ewald energy   TEWEN  =    200641.37074668
  -Hartree energ DENC   =   -243057.66289809
  -exchange      EXHF   =         0.00000000
  -V(xc)+E(xc)   XCENC  =      -327.49735155
  PAW double counting   =     40340.05962942   -38292.62782345
  entropy T*S    EENTRO =        -0.13708877
  eigenvalues    EBANDS =      1431.27487666
  atomic energy  EATOM  =     41659.78587232
  Solvation  Ediel_sol  =         0.00000000
  ---------------------------------------------------
  free energy    TOTEN  =      3200.43532938 eV

  energy without entropy =     3200.57241815  energy(sigma->0) =     3200.50387377


--------------------------------------------------------------------------------------------------------




----------------------------------------- Iteration    1(   2)  ---------------------------------------


     EDDAV:  cpu time    8.4308: real time    8.4768
       DOS:  cpu time    0.0013: real time    0.0013
    --------------------------------------------
      LOOP:  cpu time    8.4327: real time    8.4799

 eigenvalue-minimisations  :  4356
 total energy-change (2. order) :-0.3183132E+04  (-0.2923082E+04)
 number of electron     504.0000000 magnetization 
 augmentation part      504.0000000 magnetization 

 DIPCOR: dipole corrections for dipol
 direction  3 min pos     1,
 dipolmoment           0.000000      0.000000      0.000003 electrons x Angstroem
 Tr[quadrupol]    -10296.657569

 energy correction for charged system         0.000000 eV
 dipol+quadrupol energy correction           -0.000000 eV
 added-field ion interaction          0.000002 eV  (added to PSCEN)


 Free energy of the ion-electron system (eV)
  ---------------------------------------------------
  alpha Z        PSCENC =       805.86936616
  Ewald energy   TEWEN  =    200641.37074668
  -Hartree energ DENC   =   -243057.66289809
  -exchange      EXHF   =         0.00000000
  -V(xc)+E(xc)   XCENC  =      -327.49735155
  PAW double counting   =     40340.05962942   -38292.62782345
  entropy T*S    EENTRO =        -0.11692333
  eigenvalues    EBANDS =     -1751.87748706
  atomic energy  EATOM  =     41659.78587232
  Solvation  Ediel_sol  =         0.00000000
  ---------------------------------------------------
  free energy    TOTEN  =        17.30313110 eV

  energy without entropy =       17.42005442  energy(sigma->0) =       17.36159276


--------------------------------------------------------------------------------------------------------




----------------------------------------- Iteration    1(   3)  ---------------------------------------


     EDDAV:  cpu time    8.1839: real time    8.2169
       DOS:  cpu time    0.0014: real time    0.0014
    --------------------------------------------
      LOOP:  cpu time    8.1860: real time    8.2221

 eigenvalue-minimisations  :  4140
 total energy-change (2. order) :-0.2168814E+03  (-0.2017350E+03)
 number of electron     504.0000000 magnetization 
 augmentation part      504.0000000 magnetization 

 DIPCOR: dipole corrections for dipol
 direction  3 min pos     1,
 dipolmoment           0.000000      0.000000      0.000003 electrons x Angstroem
 Tr[quadrupol]    -10296.657569

 energy correction for charged system         0.000000 eV
 dipol+quadrupol energy correction           -0.000000 eV
 added-field ion interaction          0.000002 eV  (added to PSCEN)


 Free energy of the ion-electron system (eV)
  ---------------------------------------------------
  alpha Z        PSCENC =       805.86936616
  Ewald energy   TEWEN  =    200641.37074668
  -Hartree energ DENC   =   -243057.66289809
  -exchange      EXHF   =         0.00000000
  -V(xc)+E(xc)   XCENC  =      -327.49735155
  PAW double counting   =     40340.05962942   -38292.62782345
  entropy T*S    EENTRO =        -0.20901397
  eigenvalues    EBANDS =     -1968.66675656
  atomic energy  EATOM  =     41659.78587232
  Solvation  Ediel_sol  =         0.00000000
  ---------------------------------------------------
  free energy    TOTEN  =      -199.57822904 eV

  energy without entropy =     -199.36921507  energy(sigma->0) =     -199.47372206


--------------------------------------------------------------------------------------------------------




----------------------------------------- Iteration    1(   4)  ---------------------------------------


     EDDAV:  cpu time    8.2578: real time    8.3545
       DOS:  cpu time    0.0014: real time    0.0014
    --------------------------------------------
      LOOP:  cpu time    8.2601: real time    8.3591

 eigenvalue-minimisations  :  4200
 total energy-change (2. order) :-0.5908401E+01  (-0.5827716E+01)
 number of electron     504.0000000 magnetization 
 augmentation part      504.0000000 magnetization 

 DIPCOR: dipole corrections for dipol
 direction  3 min pos     1,
 dipolmoment           0.000000      0.000000      0.000003 electrons x Angstroem
 Tr[quadrupol]    -10296.657569

 energy correction for charged system         0.000000 eV
 dipol+quadrupol energy correction           -0.000000 eV
 added-field ion interaction          0.000002 eV  (added to PSCEN)


 Free energy of the ion-electron system (eV)
  ---------------------------------------------------
  alpha Z        PSCENC =       805.86936616
  Ewald energy   TEWEN  =    200641.37074668
  -Hartree energ DENC   =   -243057.66289809
  -exchange      EXHF   =         0.00000000
  -V(xc)+E(xc)   XCENC  =      -327.49735155
  PAW double counting   =     40340.05962942   -38292.62782345
  entropy T*S    EENTRO =        -0.22270739
  eigenvalues    EBANDS =     -1974.56146426
  atomic energy  EATOM  =     41659.78587232
  Solvation  Ediel_sol  =         0.00000000
  ---------------------------------------------------
  free energy    TOTEN  =      -205.48663017 eV

  energy without entropy =     -205.26392278  energy(sigma->0) =     -205.37527647


--------------------------------------------------------------------------------------------------------




----------------------------------------- Iteration    1(   5)  ---------------------------------------


     EDDAV:  cpu time    8.6051: real time    8.6279
       DOS:  cpu time    0.0015: real time    0.0015
    CHARGE:  cpu time    0.2225: real time    0.2230
    MIXING:  cpu time    0.0020: real time    0.0020
    --------------------------------------------
      LOOP:  cpu time    8.8320: real time    8.8590

 eigenvalue-minimisations  :  4428
 total energy-change (2. order) :-0.2001525E+00  (-0.1995832E+00)
 number of electron     503.9998406 magnetization 
 augmentation part      191.3844411 magnetization 

 DIPCOR: dipole corrections for dipol
 direction  3 min pos     1,
 dipolmoment           0.000000      0.000000      0.000003 electrons x Angstroem
 Tr[quadrupol]    -10296.657569

 energy correction for charged system         0.000000 eV
 dipol+quadrupol energy correction           -0.000000 eV
 added-field ion interaction          0.000002 eV  (added to PSCEN)


 Broyden mixing:
  rms(total) = 0.62768E+01    rms(broyden)= 0.62768E+01
  rms(prec ) = 0.64100E+01
  weight for this iteration     100.00

 Free energy of the ion-electron system (eV)
  ---------------------------------------------------
  alpha Z        PSCENC =       805.86936616
  Ewald energy   TEWEN  =    200641.37074668
  -Hartree energ DENC   =   -243057.66289809
  -exchange      EXHF   =         0.00000000
  -V(xc)+E(xc)   XCENC  =      -327.49735155
  PAW double counting   =     40340.05962942   -38292.62782345
  entropy T*S    EENTRO =        -0.22255311
  eigenvalues    EBANDS =     -1974.76177105
  atomic energy  EATOM  =     41659.78587232
  Solvation  Ediel_sol  =         0.00000000
  ---------------------------------------------------
  free energy    TOTEN  =      -205.68678267 eV

  energy without entropy =     -205.46422956  energy(sigma->0) =     -205.57550612


--------------------------------------------------------------------------------------------------------




----------------------------------------- Iteration    1(   6)  ---------------------------------------


    POTLOK:  cpu time    0.0408: real time    0.0410
    SETDIJ:  cpu time    0.0053: real time    0.0059
    EDDIAG:  cpu time    1.2814: real time    1.2845
  RMM-DIIS:  cpu time    3.3796: real time    3.3880
    ORTHCH:  cpu time    0.3536: real time    0.3553
       DOS:  cpu time    0.0014: real time    0.0014
    CHARGE:  cpu time    0.2255: real time    0.2261
    MIXING:  cpu time    0.0021: real time    0.0021
    --------------------------------------------
      LOOP:  cpu time    5.2903: real time    5.3063

 eigenvalue-minimisations  :  3679
 total energy-change (2. order) :-0.3003987E+01  (-0.9744371E+01)
 number of electron     503.9998430 magnetization 
 augmentation part      190.7378887 magnetization 

 DIPCOR: dipole corrections for dipol
 direction  3 min pos     1,
 dipolmoment           0.000000      0.000000      1.339318 electrons x Angstroem
 Tr[quadrupol]    -10296.663834

 energy correction for charged system         0.000000 eV
 dipol+quadrupol energy correction           -0.063208 eV
 added-field ion interaction          0.847941 eV  (added to PSCEN)


 Broyden mixing:
  rms(total) = 0.61886E+01    rms(broyden)= 0.61885E+01
  rms(prec ) = 0.67736E+01
  weight for this iteration     100.00

 eigenvalues of (default mixing * dielectric matrix)
  average eigenvalue GAMMA=   0.5496
  0.5496

 Free energy of the ion-electron system (eV)
  ---------------------------------------------------
  alpha Z        PSCENC =       806.65409725
  Ewald energy   TEWEN  =    200641.37074668
  -Hartree energ DENC   =   -242760.11928050
  -exchange      EXHF   =         0.00000000
  -V(xc)+E(xc)   XCENC  =      -339.77056032
  PAW double counting   =     43941.56475871   -41953.12912011
  entropy T*S    EENTRO =        -0.25536488
  eigenvalues    EBANDS =     -2204.79191875
  atomic energy  EATOM  =     41659.78587232
  Solvation  Ediel_sol  =         0.00000000
  ---------------------------------------------------
  free energy    TOTEN  =      -208.69076961 eV

  energy without entropy =     -208.43540473  energy(sigma->0) =     -208.56308717


--------------------------------------------------------------------------------------------------------




----------------------------------------- Iteration    1(   7)  ---------------------------------------


    POTLOK:  cpu time    0.0412: real time    0.0416
    SETDIJ:  cpu time    0.0059: real time    0.0059
    EDDIAG:  cpu time    1.2943: real time    1.2999
  RMM-DIIS:  cpu time    3.4139: real time    3.4225
    ORTHCH:  cpu time    0.3510: real time    0.3518
       DOS:  cpu time    0.0014: real time    0.0014
    CHARGE:  cpu time    0.2243: real time    0.2249
    MIXING:  cpu time    0.0019: real time    0.0019
    --------------------------------------------
      LOOP:  cpu time    5.3346: real time    5.3532

 eigenvalue-minimisations  :  3679
 total energy-change (2. order) :-0.8336761E+01  (-0.5986491E+01)
 number of electron     503.9998389 magnetization 
 augmentation part      193.7965299 magnetization 

 DIPCOR: dipole corrections for dipol
 direction  3 min pos     1,
 dipolmoment           0.000000      0.000000     -1.446319 electrons x Angstroem
 Tr[quadrupol]    -10296.862808

 energy correction for charged system         0.000000 eV
 dipol+quadrupol energy correction           -0.073711 eV
 added-field ion interaction         -0.915685 eV  (added to PSCEN)


 Broyden mixing:
  rms(total) = 0.52698E+01    rms(broyden)= 0.52695E+01
  rms(prec ) = 0.62089E+01
  weight for this iteration     100.00

 eigenvalues of (default mixing * dielectric matrix)
  average eigenvalue GAMMA=   0.7212
  1.1734  0.2690

 Free energy of the ion-electron system (eV)
  ---------------------------------------------------
  alpha Z        PSCENC =       804.87996879
  Ewald energy   TEWEN  =    200641.37074668
  -Hartree energ DENC   =   -242689.10534062
  -exchange      EXHF   =         0.00000000
  -V(xc)+E(xc)   XCENC  =      -341.81784210
  PAW double counting   =     44936.95569561   -42967.83758602
  entropy T*S    EENTRO =        -0.23594930
  eigenvalues    EBANDS =     -2261.02309603
  atomic energy  EATOM  =     41659.78587232
  Solvation  Ediel_sol  =         0.00000000
  ---------------------------------------------------
  free energy    TOTEN  =      -217.02753067 eV

  energy without entropy =     -216.79158137  energy(sigma->0) =     -216.90955602


--------------------------------------------------------------------------------------------------------




----------------------------------------- Iteration    1(   8)  ---------------------------------------


    POTLOK:  cpu time    0.0403: real time    0.0404
    SETDIJ:  cpu time    0.0059: real time    0.0060
    EDDIAG:  cpu time    1.2855: real time    1.2896
  RMM-DIIS:  cpu time    3.4076: real time    3.4200
    ORTHCH:  cpu time    0.3511: real time    0.3519
       DOS:  cpu time    0.0014: real time    0.0014
    CHARGE:  cpu time    0.2242: real time    0.2248
    MIXING:  cpu time    0.0019: real time    0.0019
    --------------------------------------------
      LOOP:  cpu time    5.3186: real time    5.3401

 eigenvalue-minimisations  :  3679
 total energy-change (2. order) :-0.2577980E+00  (-0.9066857E+01)
 number of electron     503.9998351 magnetization 
 augmentation part      196.9711514 magnetization 

 DIPCOR: dipole corrections for dipol
 direction  3 min pos     1,
 dipolmoment           0.000000      0.000000      1.443692 electrons x Angstroem
 Tr[quadrupol]    -10297.716673

 energy correction for charged system         0.000000 eV
 dipol+quadrupol energy correction           -0.073443 eV
 added-field ion interaction          0.914022 eV  (added to PSCEN)


 Broyden mixing:
  rms(total) = 0.43865E+01    rms(broyden)= 0.43861E+01
  rms(prec ) = 0.51291E+01
  weight for this iteration     100.00

 eigenvalues of (default mixing * dielectric matrix)
  average eigenvalue GAMMA=   0.8298
  1.8710  0.4055  0.2130

 Free energy of the ion-electron system (eV)
  ---------------------------------------------------
  alpha Z        PSCENC =       806.70994268
  Ewald energy   TEWEN  =    200641.37074668
  -Hartree energ DENC   =   -242620.40034273
  -exchange      EXHF   =         0.00000000
  -V(xc)+E(xc)   XCENC  =      -344.42939482
  PAW double counting   =     46532.56648388   -44591.83655326
  entropy T*S    EENTRO =        -0.25101375
  eigenvalues    EBANDS =     -2300.80106962
  atomic energy  EATOM  =     41659.78587232
  Solvation  Ediel_sol  =         0.00000000
  ---------------------------------------------------
  free energy    TOTEN  =      -217.28532864 eV

  energy without entropy =     -217.03431489  energy(sigma->0) =     -217.15982176


--------------------------------------------------------------------------------------------------------




----------------------------------------- Iteration    1(   9)  ---------------------------------------


    POTLOK:  cpu time    0.0399: real time    0.0407
    SETDIJ:  cpu time    0.0050: real time    0.0054
    EDDIAG:  cpu time    1.2837: real time    1.2868
  RMM-DIIS:  cpu time    3.4047: real time    3.4131
    ORTHCH:  cpu time    0.3511: real time    0.3520
       DOS:  cpu time    0.0014: real time    0.0014
    CHARGE:  cpu time    0.2228: real time    0.2234
    MIXING:  cpu time    0.0021: real time    0.0021
    --------------------------------------------
      LOOP:  cpu time    5.3115: real time    5.3280

 eigenvalue-minimisations  :  3679
 total energy-change (2. order) : 0.4357161E+01  (-0.6685137E+01)
 number of electron     503.9998333 magnetization 
 augmentation part      198.8405463 magnetization 

 DIPCOR: dipole corrections for dipol
 direction  3 min pos     1,
 dipolmoment           0.000000      0.000000     -0.274303 electrons x Angstroem
 Tr[quadrupol]    -10298.264264

 energy correction for charged system         0.000000 eV
 dipol+quadrupol energy correction           -0.002651 eV
 added-field ion interaction         -0.173665 eV  (added to PSCEN)


 Broyden mixing:
  rms(total) = 0.37945E+01    rms(broyden)= 0.37942E+01
  rms(prec ) = 0.41338E+01
  weight for this iteration     100.00

 eigenvalues of (default mixing * dielectric matrix)
  average eigenvalue GAMMA=   0.7828
  2.1794  0.3600  0.3600  0.2316

 Free energy of the ion-electron system (eV)
  ---------------------------------------------------
  alpha Z        PSCENC =       805.69304768
  Ewald energy   TEWEN  =    200641.37074668
  -Hartree energ DENC   =   -242595.59520809
  -exchange      EXHF   =         0.00000000
  -V(xc)+E(xc)   XCENC  =      -346.11318329
  PAW double counting   =     48206.49506905   -46290.64299258
  entropy T*S    EENTRO =        -0.19348569
  eigenvalues    EBANDS =     -2293.72803359
  atomic energy  EATOM  =     41659.78587232
  Solvation  Ediel_sol  =         0.00000000
  ---------------------------------------------------
  free energy    TOTEN  =      -212.92816752 eV

  energy without entropy =     -212.73468183  energy(sigma->0) =     -212.83142468


--------------------------------------------------------------------------------------------------------




----------------------------------------- Iteration    1(  10)  ---------------------------------------


    POTLOK:  cpu time    0.0402: real time    0.0403
    SETDIJ:  cpu time    0.0051: real time    0.0051
    EDDIAG:  cpu time    1.2761: real time    1.2793
  RMM-DIIS:  cpu time    3.3827: real time    3.4545
    ORTHCH:  cpu time    0.3445: real time    0.3631
       DOS:  cpu time    0.0014: real time    0.0014
    CHARGE:  cpu time    0.2216: real time    0.2221
    MIXING:  cpu time    0.0021: real time    0.0021
    --------------------------------------------
      LOOP:  cpu time    5.2744: real time    5.3705

 eigenvalue-minimisations  :  3681
 total energy-change (2. order) : 0.1558094E+02  (-0.2041035E+01)
 number of electron     503.9998338 magnetization 
 augmentation part      199.6244532 magnetization 

 DIPCOR: dipole corrections for dipol
 direction  3 min pos     1,
 dipolmoment           0.000000      0.000000      0.335636 electrons x Angstroem
 Tr[quadrupol]    -10297.478398

 energy correction for charged system         0.000000 eV
 dipol+quadrupol energy correction           -0.003970 eV
 added-field ion interaction          0.212496 eV  (added to PSCEN)


 Broyden mixing:
  rms(total) = 0.21241E+01    rms(broyden)= 0.21239E+01
  rms(prec ) = 0.23797E+01
  weight for this iteration     100.00

 eigenvalues of (default mixing * dielectric matrix)
  average eigenvalue GAMMA=   0.7520
  2.2756  0.4605  0.4605  0.2149  0.3486

 Free energy of the ion-electron system (eV)
  ---------------------------------------------------
  alpha Z        PSCENC =       806.07789029
  Ewald energy   TEWEN  =    200641.37074668
  -Hartree energ DENC   =   -242574.24556811
  -exchange      EXHF   =         0.00000000
  -V(xc)+E(xc)   XCENC  =      -346.14858871
  PAW double counting   =     49032.41097506   -47125.48095545
  entropy T*S    EENTRO =        -0.16589425
  eigenvalues    EBANDS =     -2290.95170764
  atomic energy  EATOM  =     41659.78587232
  Solvation  Ediel_sol  =         0.00000000
  ---------------------------------------------------
  free energy    TOTEN  =      -197.34722981 eV

  energy without entropy =     -197.18133556  energy(sigma->0) =     -197.26428268


--------------------------------------------------------------------------------------------------------




----------------------------------------- Iteration    1(  11)  ---------------------------------------


    POTLOK:  cpu time    0.0398: real time    0.0399
    SETDIJ:  cpu time    0.0051: real time    0.0051
    EDDIAG:  cpu time    1.2864: real time    1.2895
  RMM-DIIS:  cpu time    3.3975: real time    3.4059
    ORTHCH:  cpu time    0.3534: real time    0.3542
       DOS:  cpu time    0.0014: real time    0.0014
    CHARGE:  cpu time    0.2209: real time    0.2215
    MIXING:  cpu time    0.0023: real time    0.0024
    --------------------------------------------
      LOOP:  cpu time    5.3076: real time    5.3223

 eigenvalue-minimisations  :  3682
 total energy-change (2. order) : 0.5912862E+01  (-0.1437155E+01)
 number of electron     503.9998338 magnetization 
 augmentation part      198.9862782 magnetization 

 DIPCOR: dipole corrections for dipol
 direction  3 min pos     1,
 dipolmoment           0.000000      0.000000      0.134453 electrons x Angstroem
 Tr[quadrupol]    -10298.559432

 energy correction for charged system         0.000000 eV
 dipol+quadrupol energy correction           -0.000637 eV
 added-field ion interaction          0.085124 eV  (added to PSCEN)


 Broyden mixing:
  rms(total) = 0.14339E+01    rms(broyden)= 0.14337E+01
  rms(prec ) = 0.16170E+01
  weight for this iteration     100.00

 eigenvalues of (default mixing * dielectric matrix)
  average eigenvalue GAMMA=   0.7105
  2.2259  0.5661  0.5661  0.3983  0.2171  0.2893

 Free energy of the ion-electron system (eV)
  ---------------------------------------------------
  alpha Z        PSCENC =       805.95385165
  Ewald energy   TEWEN  =    200641.37074668
  -Hartree energ DENC   =   -242638.41835394
  -exchange      EXHF   =         0.00000000
  -V(xc)+E(xc)   XCENC  =      -345.61488405
  PAW double counting   =     49290.44520377   -47382.42034444
  entropy T*S    EENTRO =        -0.21072150
  eigenvalues    EBANDS =     -2222.32573868
  atomic energy  EATOM  =     41659.78587232
  Solvation  Ediel_sol  =         0.00000000
  ---------------------------------------------------
  free energy    TOTEN  =      -191.43436820 eV

  energy without entropy =     -191.22364670  energy(sigma->0) =     -191.32900745


--------------------------------------------------------------------------------------------------------




----------------------------------------- Iteration    1(  12)  ---------------------------------------


    POTLOK:  cpu time    0.0420: real time    0.0422
    SETDIJ:  cpu time    0.0052: real time    0.0052
    EDDIAG:  cpu time    1.2832: real time    1.2864
  RMM-DIIS:  cpu time    3.3943: real time    3.4441
    ORTHCH:  cpu time    0.3516: real time    0.3525
       DOS:  cpu time    0.0014: real time    0.0014
    CHARGE:  cpu time    0.2207: real time    0.2227
    MIXING:  cpu time    0.0025: real time    0.0025
    --------------------------------------------
      LOOP:  cpu time    5.3017: real time    5.3595

 eigenvalue-minimisations  :  3681
 total energy-change (2. order) : 0.2729672E+01  (-0.5644134E+00)
 number of electron     503.9998362 magnetization 
 augmentation part      197.9316474 magnetization 

 DIPCOR: dipole corrections for dipol
 direction  3 min pos     1,
 dipolmoment           0.000000      0.000000      0.169415 electrons x Angstroem
 Tr[quadrupol]    -10298.468467

 energy correction for charged system         0.000000 eV
 dipol+quadrupol energy correction           -0.001011 eV
 added-field ion interaction          0.107259 eV  (added to PSCEN)


 Broyden mixing:
  rms(total) = 0.92031E+00    rms(broyden)= 0.92010E+00
  rms(prec ) = 0.10103E+01
  weight for this iteration     100.00

 eigenvalues of (default mixing * dielectric matrix)
  average eigenvalue GAMMA=   0.6862
  2.2501  0.5814  0.5814  0.5237  0.3692  0.2125  0.2855

 Free energy of the ion-electron system (eV)
  ---------------------------------------------------
  alpha Z        PSCENC =       805.97561211
  Ewald energy   TEWEN  =    200641.37074668
  -Hartree energ DENC   =   -242671.45221478
  -exchange      EXHF   =         0.00000000
  -V(xc)+E(xc)   XCENC  =      -344.58959880
  PAW double counting   =     49327.01229511   -47414.16982277
  entropy T*S    EENTRO =        -0.16958311
  eigenvalues    EBANDS =     -2192.46800305
  atomic energy  EATOM  =     41659.78587232
  Solvation  Ediel_sol  =         0.00000000
  ---------------------------------------------------
  free energy    TOTEN  =      -188.70469629 eV

  energy without entropy =     -188.53511318  energy(sigma->0) =     -188.61990473


--------------------------------------------------------------------------------------------------------




----------------------------------------- Iteration    1(  13)  ---------------------------------------


    POTLOK:  cpu time    0.0403: real time    0.0408
    SETDIJ:  cpu time    0.0050: real time    0.0057
    EDDIAG:  cpu time    1.2882: real time    1.2936
  RMM-DIIS:  cpu time    3.4592: real time    3.4688
    ORTHCH:  cpu time    0.3504: real time    0.3513
       DOS:  cpu time    0.0014: real time    0.0014
    CHARGE:  cpu time    0.2226: real time    0.2232
    MIXING:  cpu time    0.0026: real time    0.0027
    --------------------------------------------
      LOOP:  cpu time    5.3708: real time    5.3912

 eigenvalue-minimisations  :  3682
 total energy-change (2. order) : 0.3684192E+00  (-0.1407504E+00)
 number of electron     503.9998360 magnetization 
 augmentation part      197.6613044 magnetization 

 DIPCOR: dipole corrections for dipol
 direction  3 min pos     1,
 dipolmoment           0.000000      0.000000      0.174949 electrons x Angstroem
 Tr[quadrupol]    -10298.969897

 energy correction for charged system         0.000000 eV
 dipol+quadrupol energy correction           -0.001079 eV
 added-field ion interaction          0.110763 eV  (added to PSCEN)


 Broyden mixing:
  rms(total) = 0.63660E+00    rms(broyden)= 0.63651E+00
  rms(prec ) = 0.69310E+00
  weight for this iteration     100.00

 eigenvalues of (default mixing * dielectric matrix)
  average eigenvalue GAMMA=   0.6961
  2.2055  0.7528  0.7528  0.6937  0.3470  0.3470  0.2152  0.2547

 Free energy of the ion-electron system (eV)
  ---------------------------------------------------
  alpha Z        PSCENC =       805.97904858
  Ewald energy   TEWEN  =    200641.37074668
  -Hartree energ DENC   =   -242694.03790236
  -exchange      EXHF   =         0.00000000
  -V(xc)+E(xc)   XCENC  =      -344.39137705
  PAW double counting   =     49380.06928622   -47466.09296218
  entropy T*S    EENTRO =        -0.22150309
  eigenvalues    EBANDS =     -2170.79748617
  atomic energy  EATOM  =     41659.78587232
  Solvation  Ediel_sol  =         0.00000000
  ---------------------------------------------------
  free energy    TOTEN  =      -188.33627706 eV

  energy without entropy =     -188.11477396  energy(sigma->0) =     -188.22552551


--------------------------------------------------------------------------------------------------------




----------------------------------------- Iteration    1(  14)  ---------------------------------------


    POTLOK:  cpu time    0.0412: real time    0.0413
    SETDIJ:  cpu time    0.0059: real time    0.0059
    EDDIAG:  cpu time    1.2731: real time    1.2770
  RMM-DIIS:  cpu time    3.4339: real time    3.4425
    ORTHCH:  cpu time    0.3478: real time    0.3487
       DOS:  cpu time    0.0014: real time    0.0014
    CHARGE:  cpu time    0.2233: real time    0.2238
    MIXING:  cpu time    0.0027: real time    0.0027
    --------------------------------------------
      LOOP:  cpu time    5.3300: real time    5.3458

 eigenvalue-minimisations  :  3682
 total energy-change (2. order) :-0.8538724E-01  (-0.6675468E-01)
 number of electron     503.9998363 magnetization 
 augmentation part      197.4340188 magnetization 

 DIPCOR: dipole corrections for dipol
 direction  3 min pos     1,
 dipolmoment           0.000000      0.000000      0.135844 electrons x Angstroem
 Tr[quadrupol]    -10299.162182

 energy correction for charged system         0.000000 eV
 dipol+quadrupol energy correction           -0.000650 eV
 added-field ion interaction          0.086005 eV  (added to PSCEN)


 Broyden mixing:
  rms(total) = 0.69950E+00    rms(broyden)= 0.69942E+00
  rms(prec ) = 0.77713E+00
  weight for this iteration     100.00

 eigenvalues of (default mixing * dielectric matrix)
  average eigenvalue GAMMA=   0.7076
  2.1774  0.9656  0.9656  0.7041  0.4199  0.4199  0.2119  0.2519  0.2519

 Free energy of the ion-electron system (eV)
  ---------------------------------------------------
  alpha Z        PSCENC =       805.95471895
  Ewald energy   TEWEN  =    200641.37074668
  -Hartree energ DENC   =   -242709.87855276
  -exchange      EXHF   =         0.00000000
  -V(xc)+E(xc)   XCENC  =      -344.03437615
  PAW double counting   =     49379.73431394   -47463.42805939
  entropy T*S    EENTRO =        -0.22182552
  eigenvalues    EBANDS =     -2157.70450235
  atomic energy  EATOM  =     41659.78587232
  Solvation  Ediel_sol  =         0.00000000
  ---------------------------------------------------
  free energy    TOTEN  =      -188.42166429 eV

  energy without entropy =     -188.19983877  energy(sigma->0) =     -188.31075153


--------------------------------------------------------------------------------------------------------




----------------------------------------- Iteration    1(  15)  ---------------------------------------


    POTLOK:  cpu time    0.0404: real time    0.0412
    SETDIJ:  cpu time    0.0055: real time    0.0055
    EDDIAG:  cpu time    1.2844: real time    1.2905
  RMM-DIIS:  cpu time    3.4614: real time    3.4700
    ORTHCH:  cpu time    0.3473: real time    0.3481
       DOS:  cpu time    0.0014: real time    0.0014
    CHARGE:  cpu time    0.2204: real time    0.2209
    MIXING:  cpu time    0.0027: real time    0.0028
    --------------------------------------------
      LOOP:  cpu time    5.3641: real time    5.3827

 eigenvalue-minimisations  :  3679
 total energy-change (2. order) : 0.1620905E+00  (-0.4221103E-01)
 number of electron     503.9998362 magnetization 
 augmentation part      197.4137061 magnetization 

 DIPCOR: dipole corrections for dipol
 direction  3 min pos     1,
 dipolmoment           0.000000      0.000000      0.100984 electrons x Angstroem
 Tr[quadrupol]    -10299.522611

 energy correction for charged system         0.000000 eV
 dipol+quadrupol energy correction           -0.000359 eV
 added-field ion interaction          0.063934 eV  (added to PSCEN)


 Broyden mixing:
  rms(total) = 0.53545E+00    rms(broyden)= 0.53538E+00
  rms(prec ) = 0.60335E+00
  weight for this iteration     100.00

 eigenvalues of (default mixing * dielectric matrix)
  average eigenvalue GAMMA=   0.7262
  2.1470  1.2516  1.2516  0.5831  0.4947  0.4947  0.3217  0.2875  0.2112  0.2185

 Free energy of the ion-electron system (eV)
  ---------------------------------------------------
  alpha Z        PSCENC =       805.93293911
  Ewald energy   TEWEN  =    200641.37074668
  -Hartree energ DENC   =   -242726.48431494
  -exchange      EXHF   =         0.00000000
  -V(xc)+E(xc)   XCENC  =      -343.83809431
  PAW double counting   =     49386.43536463   -47468.54579005
  entropy T*S    EENTRO =        -0.22627749
  eigenvalues    EBANDS =     -2142.69001971
  atomic energy  EATOM  =     41659.78587232
  Solvation  Ediel_sol  =         0.00000000
  ---------------------------------------------------
  free energy    TOTEN  =      -188.25957376 eV

  energy without entropy =     -188.03329628  energy(sigma->0) =     -188.14643502


--------------------------------------------------------------------------------------------------------




----------------------------------------- Iteration    1(  16)  ---------------------------------------


    POTLOK:  cpu time    0.0467: real time    0.0468
    SETDIJ:  cpu time    0.0051: real time    0.0051
    EDDIAG:  cpu time    1.2822: real time    1.2853
  RMM-DIIS:  cpu time    3.4679: real time    3.4785
    ORTHCH:  cpu time    0.3475: real time    0.3483
       DOS:  cpu time    0.0014: real time    0.0014
    CHARGE:  cpu time    0.2214: real time    0.2220
    MIXING:  cpu time    0.0029: real time    0.0029
    --------------------------------------------
      LOOP:  cpu time    5.3759: real time    5.3949

 eigenvalue-minimisations  :  3681
 total energy-change (2. order) : 0.1580109E+00  (-0.3393579E-01)
 number of electron     503.9998362 magnetization 
 augmentation part      197.3829050 magnetization 

 DIPCOR: dipole corrections for dipol
 direction  3 min pos     1,
 dipolmoment           0.000000      0.000000      0.093976 electrons x Angstroem
 Tr[quadrupol]    -10299.882382

 energy correction for charged system         0.000000 eV
 dipol+quadrupol energy correction           -0.000311 eV
 added-field ion interaction          0.059498 eV  (added to PSCEN)


 Broyden mixing:
  rms(total) = 0.37279E+00    rms(broyden)= 0.37272E+00
  rms(prec ) = 0.42791E+00
  weight for this iteration     100.00

 eigenvalues of (default mixing * dielectric matrix)
  average eigenvalue GAMMA=   0.7362
  2.1102  1.4864  1.4864  0.5860  0.5860  0.4413  0.4413  0.2899  0.2439  0.2204
  0.2059

 Free energy of the ion-electron system (eV)
  ---------------------------------------------------
  alpha Z        PSCENC =       805.92855092
  Ewald energy   TEWEN  =    200641.37074668
  -Hartree energ DENC   =   -242744.23836786
  -exchange      EXHF   =         0.00000000
  -V(xc)+E(xc)   XCENC  =      -343.63190425
  PAW double counting   =     49401.91057288   -47482.41003227
  entropy T*S    EENTRO =        -0.23498631
  eigenvalues    EBANDS =     -2126.58201501
  atomic energy  EATOM  =     41659.78587232
  Solvation  Ediel_sol  =         0.00000000
  ---------------------------------------------------
  free energy    TOTEN  =      -188.10156291 eV

  energy without entropy =     -187.86657660  energy(sigma->0) =     -187.98406975


--------------------------------------------------------------------------------------------------------




----------------------------------------- Iteration    1(  17)  ---------------------------------------


    POTLOK:  cpu time    0.0400: real time    0.0401
    SETDIJ:  cpu time    0.0053: real time    0.0053
    EDDIAG:  cpu time    1.2792: real time    1.2823
  RMM-DIIS:  cpu time    3.4554: real time    3.4643
    ORTHCH:  cpu time    0.3480: real time    0.3488
       DOS:  cpu time    0.0014: real time    0.0015
    CHARGE:  cpu time    0.2221: real time    0.2227
    MIXING:  cpu time    0.0030: real time    0.0030
    --------------------------------------------
      LOOP:  cpu time    5.3552: real time    5.3708

 eigenvalue-minimisations  :  3679
 total energy-change (2. order) : 0.1251112E+00  (-0.1660016E-01)
 number of electron     503.9998364 magnetization 
 augmentation part      197.2923184 magnetization 

 DIPCOR: dipole corrections for dipol
 direction  3 min pos     1,
 dipolmoment           0.000000      0.000000      0.104444 electrons x Angstroem
 Tr[quadrupol]    -10300.199522

 energy correction for charged system         0.000000 eV
 dipol+quadrupol energy correction           -0.000384 eV
 added-field ion interaction          0.066125 eV  (added to PSCEN)


 Broyden mixing:
  rms(total) = 0.22613E+00    rms(broyden)= 0.22609E+00
  rms(prec ) = 0.26027E+00
  weight for this iteration     100.00

 eigenvalues of (default mixing * dielectric matrix)
  average eigenvalue GAMMA=   0.7329
  2.1611  1.6048  1.6048  0.6242  0.6242  0.4446  0.4446  0.3375  0.2667  0.2667
  0.2138  0.2012

 Free energy of the ion-electron system (eV)
  ---------------------------------------------------
  alpha Z        PSCENC =       805.93510473
  Ewald energy   TEWEN  =    200641.37074668
  -Hartree energ DENC   =   -242760.40574151
  -exchange      EXHF   =         0.00000000
  -V(xc)+E(xc)   XCENC  =      -343.43085793
  PAW double counting   =     49423.55195918   -47502.66640817
  entropy T*S    EENTRO =        -0.22770258
  eigenvalues    EBANDS =     -2111.88942445
  atomic energy  EATOM  =     41659.78587232
  Solvation  Ediel_sol  =         0.00000000
  ---------------------------------------------------
  free energy    TOTEN  =      -187.97645174 eV

  energy without entropy =     -187.74874915  energy(sigma->0) =     -187.86260044


--------------------------------------------------------------------------------------------------------




----------------------------------------- Iteration    1(  18)  ---------------------------------------


    POTLOK:  cpu time    0.0405: real time    0.0406
    SETDIJ:  cpu time    0.0052: real time    0.0052
    EDDIAG:  cpu time    1.2664: real time    1.2908
  RMM-DIIS:  cpu time    3.3558: real time    3.4291
    ORTHCH:  cpu time    0.3490: real time    0.3498
       DOS:  cpu time    0.0014: real time    0.0014
    CHARGE:  cpu time    0.2214: real time    0.2220
    MIXING:  cpu time    0.0032: real time    0.0032
    --------------------------------------------
      LOOP:  cpu time    5.2436: real time    5.3447

 eigenvalue-minimisations  :  3683
 total energy-change (2. order) : 0.5488384E-01  (-0.6196264E-02)
 number of electron     503.9998364 magnetization 
 augmentation part      197.2339450 magnetization 

 DIPCOR: dipole corrections for dipol
 direction  3 min pos     1,
 dipolmoment           0.000000      0.000000      0.093165 electrons x Angstroem
 Tr[quadrupol]    -10300.451737

 energy correction for charged system         0.000000 eV
 dipol+quadrupol energy correction           -0.000306 eV
 added-field ion interaction          0.058984 eV  (added to PSCEN)


 Broyden mixing:
  rms(total) = 0.12004E+00    rms(broyden)= 0.12000E+00
  rms(prec ) = 0.13559E+00
  weight for this iteration     100.00

 eigenvalues of (default mixing * dielectric matrix)
  average eigenvalue GAMMA=   0.7239
  2.1497  1.8992  1.4238  0.6539  0.6539  0.4664  0.4664  0.4547  0.3162  0.2730
  0.2357  0.2148  0.2025

 Free energy of the ion-electron system (eV)
  ---------------------------------------------------
  alpha Z        PSCENC =       805.92804227
  Ewald energy   TEWEN  =    200641.37074668
  -Hartree energ DENC   =   -242771.91552495
  -exchange      EXHF   =         0.00000000
  -V(xc)+E(xc)   XCENC  =      -343.32181504
  PAW double counting   =     49443.88464295   -47522.28800180
  entropy T*S    EENTRO =        -0.23630683
  eigenvalues    EBANDS =     -2101.12922348
  atomic energy  EATOM  =     41659.78587232
  Solvation  Ediel_sol  =         0.00000000
  ---------------------------------------------------
  free energy    TOTEN  =      -187.92156790 eV

  energy without entropy =     -187.68526107  energy(sigma->0) =     -187.80341448


--------------------------------------------------------------------------------------------------------




----------------------------------------- Iteration    1(  19)  ---------------------------------------


    POTLOK:  cpu time    0.0402: real time    0.0403
    SETDIJ:  cpu time    0.0053: real time    0.0053
    EDDIAG:  cpu time    1.2945: real time    1.2977
  RMM-DIIS:  cpu time    3.4509: real time    3.4594
    ORTHCH:  cpu time    0.3477: real time    0.3485
       DOS:  cpu time    0.0014: real time    0.0014
    CHARGE:  cpu time    0.2193: real time    0.2199
    MIXING:  cpu time    0.0034: real time    0.0035
    --------------------------------------------
      LOOP:  cpu time    5.3635: real time    5.3780

 eigenvalue-minimisations  :  3681
 total energy-change (2. order) : 0.1176530E-01  (-0.1651420E-02)
 number of electron     503.9998365 magnetization 
 augmentation part      197.1983987 magnetization 

 DIPCOR: dipole corrections for dipol
 direction  3 min pos     1,
 dipolmoment           0.000000      0.000000      0.074806 electrons x Angstroem
 Tr[quadrupol]    -10300.566003

 energy correction for charged system         0.000000 eV
 dipol+quadrupol energy correction           -0.000197 eV
 added-field ion interaction          0.047360 eV  (added to PSCEN)


 Broyden mixing:
  rms(total) = 0.84980E-01    rms(broyden)= 0.84960E-01
  rms(prec ) = 0.93543E-01
  weight for this iteration     100.00

 eigenvalues of (default mixing * dielectric matrix)
  average eigenvalue GAMMA=   0.7076
  2.2424  1.6468  1.6468  0.6929  0.6929  0.4944  0.4944  0.4247  0.3836  0.2822
  0.2455  0.2455  0.2141  0.2000

 Free energy of the ion-electron system (eV)
  ---------------------------------------------------
  alpha Z        PSCENC =       805.91652758
  Ewald energy   TEWEN  =    200641.37074668
  -Hartree energ DENC   =   -242777.24056880
  -exchange      EXHF   =         0.00000000
  -V(xc)+E(xc)   XCENC  =      -343.26491861
  PAW double counting   =     49450.71655289   -47528.79994618
  entropy T*S    EENTRO =        -0.23413711
  eigenvalues    EBANDS =     -2096.15993134
  atomic energy  EATOM  =     41659.78587232
  Solvation  Ediel_sol  =         0.00000000
  ---------------------------------------------------
  free energy    TOTEN  =      -187.90980259 eV

  energy without entropy =     -187.67566548  energy(sigma->0) =     -187.79273404


--------------------------------------------------------------------------------------------------------




----------------------------------------- Iteration    1(  20)  ---------------------------------------


    POTLOK:  cpu time    0.0400: real time    0.0401
    SETDIJ:  cpu time    0.0053: real time    0.0053
    EDDIAG:  cpu time    1.2818: real time    1.2852
  RMM-DIIS:  cpu time    3.3970: real time    3.4071
    ORTHCH:  cpu time    0.3498: real time    0.3507
       DOS:  cpu time    0.0013: real time    0.0013
    CHARGE:  cpu time    0.2216: real time    0.2222
    MIXING:  cpu time    0.0037: real time    0.0037
    --------------------------------------------
      LOOP:  cpu time    5.3011: real time    5.3178

 eigenvalue-minimisations  :  3684
 total energy-change (2. order) : 0.3856715E-02  (-0.4538713E-03)
 number of electron     503.9998365 magnetization 
 augmentation part      197.1868487 magnetization 

 DIPCOR: dipole corrections for dipol
 direction  3 min pos     1,
 dipolmoment           0.000000      0.000000      0.066988 electrons x Angstroem
 Tr[quadrupol]    -10300.649413

 energy correction for charged system         0.000000 eV
 dipol+quadrupol energy correction           -0.000158 eV
 added-field ion interaction          0.042411 eV  (added to PSCEN)


 Broyden mixing:
  rms(total) = 0.66179E-01    rms(broyden)= 0.66173E-01
  rms(prec ) = 0.71574E-01
  weight for this iteration     100.00

 eigenvalues of (default mixing * dielectric matrix)
  average eigenvalue GAMMA=   0.7453
  2.3188  1.6907  1.6907  0.9248  0.9248  0.5951  0.5951  0.4696  0.4696  0.3273
  0.2643  0.2643  0.2286  0.2144  0.2009

 Free energy of the ion-electron system (eV)
  ---------------------------------------------------
  alpha Z        PSCENC =       805.91161721
  Ewald energy   TEWEN  =    200641.37074668
  -Hartree energ DENC   =   -242780.36341879
  -exchange      EXHF   =         0.00000000
  -V(xc)+E(xc)   XCENC  =      -343.25310514
  PAW double counting   =     49455.15408909   -47533.19084950
  entropy T*S    EENTRO =        -0.23532712
  eigenvalues    EBANDS =     -2093.08557062
  atomic energy  EATOM  =     41659.78587232
  Solvation  Ediel_sol  =         0.00000000
  ---------------------------------------------------
  free energy    TOTEN  =      -187.90594588 eV

  energy without entropy =     -187.67061876  energy(sigma->0) =     -187.78828232


--------------------------------------------------------------------------------------------------------




----------------------------------------- Iteration    1(  21)  ---------------------------------------


    POTLOK:  cpu time    0.0405: real time    0.0406
    SETDIJ:  cpu time    0.0052: real time    0.0052
    EDDIAG:  cpu time    1.2813: real time    1.2852
  RMM-DIIS:  cpu time    3.3987: real time    3.4074
    ORTHCH:  cpu time    0.3478: real time    0.3488
       DOS:  cpu time    0.0014: real time    0.0014
    CHARGE:  cpu time    0.2238: real time    0.2244
    MIXING:  cpu time    0.0037: real time    0.0037
    --------------------------------------------
      LOOP:  cpu time    5.3031: real time    5.3198

 eigenvalue-minimisations  :  3682
 total energy-change (2. order) : 0.2947418E-02  (-0.4953907E-03)
 number of electron     503.9998365 magnetization 
 augmentation part      197.1506054 magnetization 

 DIPCOR: dipole corrections for dipol
 direction  3 min pos     1,
 dipolmoment           0.000000      0.000000      0.060342 electrons x Angstroem
 Tr[quadrupol]    -10300.849816

 energy correction for charged system         0.000000 eV
 dipol+quadrupol energy correction           -0.000128 eV
 added-field ion interaction          0.038203 eV  (added to PSCEN)


 Broyden mixing:
  rms(total) = 0.48965E-01    rms(broyden)= 0.48959E-01
  rms(prec ) = 0.54557E-01
  weight for this iteration     100.00

 eigenvalues of (default mixing * dielectric matrix)
  average eigenvalue GAMMA=   0.7828
  2.4705  1.9997  1.9997  1.1284  0.7085  0.7085  0.6078  0.4916  0.4697  0.4697
  0.2904  0.2904  0.2483  0.2011  0.2138  0.2263

 Free energy of the ion-electron system (eV)
  ---------------------------------------------------
  alpha Z        PSCENC =       805.90743946
  Ewald energy   TEWEN  =    200641.37074668
  -Hartree energ DENC   =   -242788.35457131
  -exchange      EXHF   =         0.00000000
  -V(xc)+E(xc)   XCENC  =      -343.20601609
  PAW double counting   =     49462.89423426   -47540.72993629
  entropy T*S    EENTRO =        -0.23321948
  eigenvalues    EBANDS =     -2085.33754801
  atomic energy  EATOM  =     41659.78587232
  Solvation  Ediel_sol  =         0.00000000
  ---------------------------------------------------
  free energy    TOTEN  =      -187.90299846 eV

  energy without entropy =     -187.66977898  energy(sigma->0) =     -187.78638872


--------------------------------------------------------------------------------------------------------




----------------------------------------- Iteration    1(  22)  ---------------------------------------


    POTLOK:  cpu time    0.0404: real time    0.0405
    SETDIJ:  cpu time    0.0053: real time    0.0053
    EDDIAG:  cpu time    1.2738: real time    1.2770
  RMM-DIIS:  cpu time    3.4503: real time    3.4588
    ORTHCH:  cpu time    0.3482: real time    0.3490
       DOS:  cpu time    0.0014: real time    0.0014
    CHARGE:  cpu time    0.2226: real time    0.2232
    MIXING:  cpu time    0.0039: real time    0.0040
    --------------------------------------------
      LOOP:  cpu time    5.3465: real time    5.3626

 eigenvalue-minimisations  :  3679
 total energy-change (2. order) : 0.2132410E-02  (-0.5121604E-03)
 number of electron     503.9998366 magnetization 
 augmentation part      197.1175416 magnetization 

 DIPCOR: dipole corrections for dipol
 direction  3 min pos     1,
 dipolmoment           0.000000      0.000000      0.056797 electrons x Angstroem
 Tr[quadrupol]    -10301.097940

 energy correction for charged system         0.000000 eV
 dipol+quadrupol energy correction           -0.000114 eV
 added-field ion interaction          0.035959 eV  (added to PSCEN)


 Broyden mixing:
  rms(total) = 0.35466E-01    rms(broyden)= 0.35460E-01
  rms(prec ) = 0.41907E-01
  weight for this iteration     100.00

 eigenvalues of (default mixing * dielectric matrix)
  average eigenvalue GAMMA=   0.7803
  2.3607  2.1210  2.1210  1.1658  0.6778  0.6778  0.7213  0.7213  0.4585  0.4585
  0.3157  0.3087  0.2662  0.2500  0.2009  0.2148  0.2246

 Free energy of the ion-electron system (eV)
  ---------------------------------------------------
  alpha Z        PSCENC =       805.90520979
  Ewald energy   TEWEN  =    200641.37074668
  -Hartree energ DENC   =   -242797.95398875
  -exchange      EXHF   =         0.00000000
  -V(xc)+E(xc)   XCENC  =      -343.15492563
  PAW double counting   =     49469.03838812   -47546.68490204
  entropy T*S    EENTRO =        -0.23101340
  eigenvalues    EBANDS =     -2075.97625315
  atomic energy  EATOM  =     41659.78587232
  Solvation  Ediel_sol  =         0.00000000
  ---------------------------------------------------
  free energy    TOTEN  =      -187.90086605 eV

  energy without entropy =     -187.66985265  energy(sigma->0) =     -187.78535935


--------------------------------------------------------------------------------------------------------




----------------------------------------- Iteration    1(  23)  ---------------------------------------


    POTLOK:  cpu time    0.0406: real time    0.0406
    SETDIJ:  cpu time    0.0052: real time    0.0054
    EDDIAG:  cpu time    1.2825: real time    1.2863
  RMM-DIIS:  cpu time    3.4010: real time    3.4511
[...]
    275       1.7363      0.00000
    276       1.7857      0.00000
    277       2.0958      0.00000
    278       2.2052      0.00000
    279       2.2771      0.00000
    280       2.3317      0.00000
    281       2.4016      0.00000
    282       2.5454      0.00000
    283       2.6667      0.00000
    284       2.9778      0.00000
    285       3.1706      0.00000
    286       3.2851      0.00000
    287       3.5594      0.00000
    288       3.6306      0.00000
    289       3.7152      0.00000
    290       3.9745      0.00000
    291       4.0691      0.00000
    292       4.2106      0.00000
    293       4.5199      0.00000
    294       4.5553      0.00000
    295       4.6227      0.00000
    296       4.6405      0.00000
    297       4.7369      0.00000
    298       4.8397      0.00000
    299       4.8707      0.00000
    300       4.9080      0.00000
    301       4.9567      0.00000
    302       4.9942      0.00000
    303       5.0534      0.00000
    304       5.0875      0.00000
    305       5.1797      0.00000
    306       5.2503      0.00000


--------------------------------------------------------------------------------------------------------


 soft charge-density along one line, spin component           1
         0         1         2         3         4         5         6         7         8         9
 total charge-density along one line
 
 pseudopotential strength for first ion, spin component:           1
 -8.052  -0.002   0.004  -0.004   0.000  -8.198  -0.002   0.004
 -0.002  -7.966  -0.000  -0.004  -0.002  -0.002  -8.115  -0.000
  0.004  -0.000  -7.965  -0.001   0.007   0.004  -0.000  -8.113
 -0.004  -0.004  -0.001  -7.976  -0.002  -0.004  -0.003  -0.001
  0.000  -0.002   0.007  -0.002  -8.053   0.000  -0.002   0.007
 -8.198  -0.002   0.004  -0.004   0.000  -8.329  -0.002   0.004
 -0.002  -8.115  -0.000  -0.003  -0.002  -0.002  -8.247  -0.000
  0.004  -0.000  -8.113  -0.001   0.007   0.004  -0.000  -8.245
 -0.004  -0.003  -0.001  -8.124  -0.002  -0.004  -0.003  -0.001
  0.000  -0.002   0.007  -0.002  -8.199   0.000  -0.002   0.007
  0.002   0.001  -0.026   0.001   0.004   0.002   0.001  -0.026
  0.003   0.001  -0.037   0.001   0.005   0.003   0.001  -0.037
 -0.001  -0.004   0.001   0.000   0.002  -0.001  -0.004   0.001
  0.000  -0.002  -0.006  -0.000   0.000   0.000  -0.002  -0.006
 -0.002   0.000   0.000  -0.004  -0.000  -0.002   0.000   0.000
 -0.001  -0.004   0.002   0.000   0.003  -0.001  -0.004   0.002
  0.000  -0.002  -0.007  -0.000   0.000   0.000  -0.002  -0.006
 -0.002   0.000   0.001  -0.004  -0.000  -0.002   0.000   0.001
 total augmentation occupancy for first ion, spin component:           1
  4.186  -0.014  -0.060  -0.010  -0.097  -2.389   0.004   0.071  -0.037   0.098  -0.126   0.069   0.050  -0.007   0.002  -0.003
 -0.014   4.150   0.058   0.030  -0.003   0.004  -1.882  -0.050  -0.034  -0.034  -0.035   0.020  -0.147  -0.014   0.002   0.003
 -0.060   0.058   4.537   0.072  -0.137   0.071  -0.050  -2.421  -0.068   0.155   1.011  -0.143  -0.032  -0.236  -0.022   0.003
 -0.010   0.030   0.072   4.190  -0.008  -0.036  -0.034  -0.068  -1.934   0.006  -0.048   0.034   0.002  -0.017  -0.135   0.000
 -0.097  -0.003  -0.137  -0.008   4.534   0.098  -0.035   0.155   0.006  -2.733  -0.218   0.094  -0.053   0.001  -0.018   0.004
 -2.389   0.004   0.071  -0.036   0.098   2.470   0.003  -0.079   0.073  -0.098   0.111  -0.062  -0.043   0.005   0.002   0.002
  0.004  -1.882  -0.050  -0.034  -0.035   0.003   1.587   0.044   0.038   0.064   0.029  -0.018   0.135   0.012  -0.002  -0.005
  0.071  -0.050  -2.421  -0.068   0.155  -0.079   0.044   2.250   0.064  -0.166  -0.938   0.156   0.027   0.244   0.018  -0.002
 -0.037  -0.034  -0.068  -1.934   0.006   0.073   0.038   0.064   1.650  -0.004   0.038  -0.028  -0.002   0.014   0.126  -0.000
  0.098  -0.034   0.155   0.006  -2.733  -0.098   0.064  -0.166  -0.004   2.807   0.189  -0.087   0.048  -0.002   0.015  -0.002
 -0.126  -0.035   1.011  -0.048  -0.218   0.111   0.029  -0.938   0.038   0.189   2.446  -0.515  -0.012   0.115  -0.006   0.000
  0.069   0.020  -0.143   0.034   0.094  -0.062  -0.018   0.156  -0.028  -0.087  -0.515   0.148   0.011  -0.051   0.005  -0.000
  0.050  -0.147  -0.032   0.002  -0.053  -0.043   0.135   0.027  -0.002   0.048  -0.012   0.011   0.193   0.001   0.002  -0.006
 -0.007  -0.014  -0.236  -0.017   0.001   0.005   0.012   0.244   0.014  -0.002   0.115  -0.051   0.001   0.096   0.001  -0.000
  0.002   0.002  -0.022  -0.135  -0.018   0.002  -0.002   0.018   0.126   0.015  -0.006   0.005   0.002   0.001   0.205  -0.000
 -0.003   0.003   0.003   0.000   0.004   0.002  -0.005  -0.002  -0.000  -0.002   0.000  -0.000  -0.006  -0.000  -0.000   0.000
  0.000  -0.001  -0.000   0.001   0.000  -0.000  -0.000  -0.006  -0.001  -0.000  -0.007   0.002  -0.000  -0.003  -0.000   0.000
 -0.003   0.000   0.002   0.003   0.000   0.001  -0.000  -0.001  -0.005  -0.001   0.000  -0.000  -0.000  -0.000  -0.007   0.000


------------------------ aborting loop because EDIFF is reached ----------------------------------------


    CHARGE:  cpu time    0.2170: real time    0.2176
    FORLOC:  cpu time    0.0159: real time    0.0159
    FORNL :  cpu time    1.3091: real time    1.3123
    FORCOR:  cpu time    0.0554: real time    0.0568
    FORHAR:  cpu time    0.0240: real time    0.0240
    MIXING:  cpu time    0.0027: real time    0.0027
    OFIELD:  cpu time    0.0000: real time    0.0000

 VOLUME and BASIS-vectors are now :
 -----------------------------------------------------------------------------
  energy-cutoff  :      400.00
  volume of cell :     2567.68
      direct lattice vectors                 reciprocal lattice vectors
    11.002581515  0.000000000  0.000000000     0.090887761 -0.052474073  0.000000000
     5.501290758  9.528515099  0.000000000     0.000000000  0.104948147  0.000000000
     0.000000000  0.000000000 24.491785094     0.000000000  0.000000000  0.040830017

  length of vectors
    11.002581515 11.002581515 24.491785094     0.104948147  0.104948147  0.040830017


 FORCES acting on ions
    electron-ion (+dipol)            ewald-force                    non-local-force                 convergence-correction
 -----------------------------------------------------------------------------------------------
   -.420E+01 -.914E+01 0.222E+04   0.431E+01 0.951E+01 -.222E+04   -.580E-01 -.246E+00 -.285E+00   -.242E-02 0.222E-02 0.362E-03
   -.148E+01 0.134E+01 -.358E+02   0.673E+00 -.165E+01 0.370E+02   0.805E+00 0.305E+00 -.114E+01   -.188E-02 -.442E-03 -.188E-02
   0.111E+02 -.437E+01 -.520E+02   -.105E+02 0.517E+01 0.526E+02   -.586E+00 -.801E+00 -.571E+00   -.782E-02 0.204E-02 -.152E-01
   -.495E+01 -.225E+01 0.222E+04   0.491E+01 0.232E+01 -.222E+04   0.503E-01 -.443E-01 0.480E+00   -.453E-03 0.427E-03 -.803E-03
   0.344E+00 0.241E+01 0.221E+04   -.508E-01 -.247E+01 -.221E+04   -.233E+00 0.371E-01 0.733E-01   -.103E-02 0.102E-02 -.130E-02
   0.949E+01 -.654E+01 -.645E+02   -.984E+01 0.669E+01 0.652E+02   0.349E+00 -.155E+00 -.616E+00   0.191E-02 0.380E-02 -.123E-01
   0.619E+01 0.575E+01 0.221E+04   -.639E+01 -.627E+01 -.221E+04   0.121E+00 0.393E+00 0.431E+00   -.774E-04 0.545E-03 -.650E-03
   0.292E+01 0.110E+02 -.232E+04   -.287E+01 -.115E+02 0.232E+04   -.381E-01 0.494E+00 -.104E+00   -.309E-02 0.185E-02 -.101E-01
   -.213E+01 0.109E+00 -.108E+02   0.218E+01 -.341E+00 0.113E+02   -.456E-01 0.228E+00 -.505E+00   0.124E-02 0.651E-02 -.392E-02
   -.837E+01 0.682E+01 0.221E+04   0.882E+01 -.706E+01 -.221E+04   -.309E+00 0.160E+00 0.961E-01   -.335E-03 -.939E-03 -.123E-02
   -.116E+01 0.192E+01 -.787E+02   0.204E+01 -.144E+01 0.806E+02   -.878E+00 -.499E+00 -.187E+01   0.205E-02 -.351E-02 -.122E-01
   -.473E+01 0.207E+01 -.219E+02   0.444E+01 -.227E+01 0.213E+02   0.286E+00 0.190E+00 0.584E+00   0.483E-02 0.310E-02 -.874E-02
   0.411E+01 -.514E+01 0.345E+01   -.534E+01 0.495E+01 -.294E+01   0.122E+01 0.200E+00 -.499E+00   0.555E-03 -.175E-02 -.669E-02
   -.110E+02 0.292E+00 -.593E+02   0.114E+02 -.223E+00 0.601E+02   -.396E+00 -.763E-01 -.782E+00   0.505E-02 0.217E-03 -.761E-02
   -.797E+01 0.611E+01 -.726E+01   0.897E+01 -.637E+01 0.657E+01   -.102E+01 0.260E+00 0.695E+00   -.106E-02 -.267E-03 -.637E-02
   -.171E+01 -.526E+01 -.232E+04   0.132E+01 0.516E+01 0.232E+04   0.389E+00 0.965E-01 -.439E-01   0.192E-02 -.212E-02 -.820E-02
   -.149E+01 -.207E+01 0.221E+04   0.135E+01 0.208E+01 -.221E+04   0.113E+00 0.318E-01 -.486E+00   0.175E-03 -.320E-02 -.300E-02
   -.692E+01 0.172E+00 -.225E+04   0.715E+01 -.828E-01 0.225E+04   -.229E+00 -.903E-01 0.348E+00   -.335E-02 0.605E-04 -.178E-02
   -.432E+01 0.901E+01 -.632E+01   0.376E+01 -.100E+02 0.627E+01   0.566E+00 0.103E+01 0.493E-01   -.217E-02 0.601E-02 -.366E-02
   0.714E+01 0.509E+00 -.227E+04   -.736E+01 -.278E+00 0.227E+04   0.224E+00 -.241E+00 0.189E+00   -.770E-03 0.414E-02 -.731E-02
   0.110E+02 -.132E+02 0.221E+04   -.112E+02 0.140E+02 -.221E+04   0.155E+00 -.510E+00 -.174E+00   0.565E-03 0.276E-02 0.140E-02
   -.120E+02 -.612E+01 -.230E+04   0.124E+02 0.639E+01 0.230E+04   -.459E+00 -.276E+00 0.233E-01   -.238E-02 0.666E-02 -.936E-02
   0.360E+01 -.651E+01 0.222E+04   -.369E+01 0.668E+01 -.222E+04   0.511E-01 -.883E-01 0.150E+00   0.203E-03 -.165E-02 -.192E-02
   -.144E+01 -.346E+01 0.222E+04   0.170E+01 0.375E+01 -.222E+04   -.213E+00 -.209E+00 0.128E+00   0.225E-02 0.114E-02 -.104E-03
   -.950E+01 0.233E+01 -.237E+02   0.960E+01 -.200E+01 0.237E+02   -.105E+00 -.328E+00 0.150E-01   -.305E-02 0.471E-02 -.457E-02
   0.326E+01 0.142E+02 -.203E+04   -.308E+01 -.144E+02 0.203E+04   -.174E+00 0.132E+00 0.149E+01   0.313E-03 0.209E-03 -.102E-01
   -.258E+01 0.425E+01 0.202E+04   0.274E+01 -.427E+01 -.202E+04   -.106E+00 -.151E-01 -.178E+01   0.204E-02 -.184E-02 -.427E-05
   0.130E+02 -.198E+01 -.202E+04   -.133E+02 0.227E+01 0.201E+04   0.354E+00 -.287E+00 0.140E+01   -.119E-05 0.312E-02 -.421E-02
   0.937E+01 -.533E+01 -.203E+04   -.972E+01 0.549E+01 0.202E+04   0.343E+00 -.164E+00 0.170E+01   0.215E-02 0.472E-03 -.121E-01
   -.317E+01 0.130E+01 -.121E+02   0.334E+01 -.145E+01 0.129E+02   -.168E+00 0.146E+00 -.867E+00   0.964E-02 0.223E-02 -.923E-02
   -.102E+02 0.544E+01 0.202E+04   0.104E+02 -.547E+01 -.202E+04   -.383E-02 0.108E-01 -.171E+01   -.873E-03 0.807E-03 -.117E-02
   0.407E+01 -.378E+01 -.204E+04   -.455E+01 0.392E+01 0.203E+04   0.483E+00 -.142E+00 0.142E+01   0.564E-03 0.179E-02 -.102E-01
   -.165E+01 0.504E+01 0.202E+04   0.154E+01 -.505E+01 -.202E+04   0.932E-01 -.441E-01 -.136E+01   0.121E-02 -.192E-03 -.895E-03
   -.122E+02 0.354E+01 -.206E+04   0.126E+02 -.378E+01 0.206E+04   -.379E+00 0.238E+00 0.142E+01   -.148E-03 0.167E-03 -.141E-01
   -.146E+01 0.518E+01 0.202E+04   0.136E+01 -.543E+01 -.202E+04   0.896E-01 0.176E+00 -.150E+01   0.885E-03 0.635E-03 -.203E-02
   -.124E+02 -.944E+01 -.201E+04   0.128E+02 0.952E+01 0.201E+04   -.384E+00 -.813E-01 0.195E+01   0.992E-03 0.429E-02 -.176E-01
   0.317E+01 -.461E+01 -.252E+02   -.360E+01 0.434E+01 0.251E+02   0.434E+00 0.262E+00 0.770E-01   0.327E-02 0.252E-02 -.937E-02
   0.657E+01 0.226E+00 -.258E+02   -.584E+01 0.396E+00 0.258E+02   -.744E+00 -.633E+00 0.407E-01   0.438E-02 0.640E-02 -.126E-01
   0.120E+02 0.134E+01 0.202E+04   -.122E+02 -.139E+01 -.201E+04   0.106E+00 0.252E-01 -.131E+01   0.891E-03 0.959E-03 -.324E-03
   0.572E+01 -.650E+00 0.202E+04   -.582E+01 0.449E+00 -.202E+04   0.710E-01 0.161E+00 -.171E+01   -.116E-02 -.226E-02 0.669E-03
   0.455E+01 -.327E+01 0.168E+02   -.441E+01 0.291E+01 -.167E+02   -.137E+00 0.366E+00 -.897E-01   0.282E-02 -.810E-02 -.124E-01
   -.133E+01 0.789E+00 0.203E+04   0.139E+01 -.765E+00 -.203E+04   -.655E-01 -.267E-01 -.132E+01   -.212E-02 -.437E-03 -.783E-03
   -.169E+02 -.531E+01 -.196E+04   0.174E+02 0.525E+01 0.196E+04   -.520E+00 0.518E-01 0.178E+01   -.558E-02 -.178E-02 -.188E-01
   0.123E+01 0.144E+02 -.199E+04   -.108E+01 -.148E+02 0.198E+04   -.136E+00 0.392E+00 0.188E+01   0.201E-03 0.449E-02 -.903E-02
   0.475E+01 -.144E+01 0.183E+01   -.517E+01 0.167E+01 -.103E+01   0.414E+00 -.239E+00 -.793E+00   -.146E-02 0.918E-02 -.132E-01
   0.478E+01 0.190E+01 -.203E+04   -.496E+01 -.205E+01 0.203E+04   0.184E+00 0.135E+00 0.162E+01   0.273E-02 0.165E-02 -.149E-01
   0.162E+02 -.743E+00 -.205E+04   -.164E+02 0.771E+00 0.204E+04   0.158E+00 -.298E-01 0.135E+01   0.123E-02 0.555E-04 -.928E-02
   0.869E+00 -.679E+01 -.203E+04   -.112E+01 0.720E+01 0.202E+04   0.238E+00 -.409E+00 0.180E+01   0.277E-02 0.144E-02 -.177E-01
 -----------------------------------------------------------------------------------------------
   0.507E-01 0.351E-01 -.139E+01   -.659E-12 -.366E-12 0.296E-11   -.904E-01 -.119E+00 0.169E+01   0.156E-01 0.591E-01 -.326E+00
 
 
 POSITION                                       TOTAL-FORCE (eV/Angst)
 -----------------------------------------------------------------------------------
      1.37532      0.79404     10.00000         0.050164      0.131504     -0.171612
      2.71380      1.56965     12.49026        -0.000189     -0.007233      0.006949
     15.13444      8.75275     12.50712        -0.014817     -0.003948      0.000854
      4.12597      0.79404     10.00000         0.012544      0.024952     -0.313507
      5.50129      7.94043     10.00000         0.060148     -0.024503     -0.217516
     13.73414      6.35379     12.52452        -0.000853     -0.002544      0.002961
      4.12597      5.55830     10.00000        -0.083602     -0.132797     -0.276812
     12.38333      7.12213     15.06196         0.000880     -0.010423      0.001418
      4.12200      3.95494     12.46559         0.007965      0.002180     -0.001342
      6.87661      5.55830     10.00000         0.142305     -0.081588     -0.192350
      5.53171      6.36085     12.54799        -0.004139     -0.015067      0.007693
     12.36412      8.71647     12.46197         0.001936     -0.000284      0.004652
     12.33348      3.95141     12.44411        -0.007018      0.008226     -0.001334
      5.51170      1.58232     12.51658         0.003887     -0.006999     -0.006209
      6.91080      3.95197     12.44634        -0.011988     -0.005893      0.007137
      6.86562      2.38236     15.05119        -0.000182     -0.008376      0.000349
      9.62726      5.55830     10.00000        -0.019289      0.037790     -0.006308
      8.25918      4.76349     14.94849         0.000400     -0.000717      0.004323
      9.60107      8.68825     12.45272         0.000008      0.000930     -0.005023
      9.61844      7.15419     14.97762        -0.001369     -0.005509      0.003551
      9.62726      0.79404     10.00000        -0.126031      0.249057     -0.097743
      8.27503      0.00408     15.03370        -0.002729     -0.000658      0.003456
     12.37790      5.55830     10.00000        -0.033273      0.083827     -0.171834
      6.87661      0.79404     10.00000         0.054146      0.079520     -0.156405
      8.26266      6.34054     12.47206        -0.003245      0.001051     -0.002124
      2.75700      4.74213     14.87431         0.002698     -0.011249      0.003756
      8.25194      3.17617     10.00000         0.055656     -0.037522      0.252639
      5.49031      0.00088     14.89234         0.001845     -0.001546      0.003567
      2.74076      0.01478     14.85967        -0.003479     -0.001788     -0.001738
      6.87691      8.72262     12.46275         0.011698      0.000512     -0.003253
      8.25194      7.94043     10.00000         0.121634     -0.017463      0.248007
      5.48417      4.76200     14.88917        -0.004091     -0.001225      0.001551
      5.50129      3.17617     10.00000        -0.020850     -0.054626      0.188536
      4.14380      7.13820     14.92197         0.000753     -0.005336      0.011173
     11.00258      7.94043     10.00000        -0.006641     -0.069014      0.229896
      0.02587      0.00756     14.83826         0.001828      0.000127      0.008882
     10.97715      6.33347     12.46920         0.001496     -0.009179      0.003921
      8.26996      1.59432     12.47068        -0.006610     -0.004455      0.006881
     13.75323      7.94043     10.00000        -0.135570     -0.028702      0.273904
     11.00258      3.17617     10.00000        -0.034646     -0.041250      0.197622
      9.61917      3.96043     12.42218         0.005361     -0.006474     -0.006871
      2.75065      3.17617     10.00000        -0.005355     -0.002930      0.149538
      9.64453      2.37708     14.79578        -0.004760     -0.009746     -0.000552
     11.01469      4.74184     14.82739         0.006003      0.002575     -0.003387
     10.97831      1.58892     12.44302        -0.006159     -0.000272      0.001072
      1.36029      2.38197     14.84969         0.006725     -0.009081      0.007511
      4.10924      2.37834     14.89288        -0.005990     -0.001129      0.001975
      6.87153      7.17133     14.87034        -0.007202     -0.002729      0.002146
 -----------------------------------------------------------------------------------
    total drift:                               -0.024029     -0.024334     -0.025904


--------------------------------------------------------------------------------------------------------



  FREE ENERGIE OF THE ION-ELECTRON SYSTEM (eV)
  ---------------------------------------------------
  free  energy   TOTEN  =      -191.57973318 eV

  energy  without entropy=     -191.36924944  energy(sigma->0) =     -191.47449131
 
 d Force = 0.4220975E-03[ 0.666E-04, 0.778E-03]  d Energy = 0.4329818E-03-0.109E-04
 d Force = 0.5288430E+02[ 0.529E+02, 0.529E+02]  d Ewald  = 0.5288430E+02-0.722E-05


--------------------------------------------------------------------------------------------------------


    POTLOK:  cpu time    0.0466: real time    0.0467


--------------------------------------------------------------------------------------------------------


 stress matrix after NEB project (eV)
      0.00000      0.00000      0.00000
      0.00000      0.00000      0.00000
      0.00000      0.00000      0.00000
  FORCES: max atom, RMS     0.017416    0.007813
  FORCE total and by dimension    0.054130    0.015067
  Stress total and by dimension    0.000000    0.000000
 Conjugate gradient step on ions:
 trial-energy change:   -0.000433  1 .order   -0.000422   -0.000778   -0.000067
  (g-gl).g = 0.262E-03      g.g   = 0.277E-03  gl.gl    = 0.542E-03
 g(Force)  = 0.277E-03   g(Stress)= 0.000E+00 ortho     = 0.104E-05
 gamma     =   0.48252
 trial     =   2.79721
 opt step  =   3.03535  (harmonic =   3.05908) maximal distance =0.00373734
 next E    =  -191.579736   (d E  =  -0.00044)


--------------------------------------------------------------------------------------------------------


  
 reached required accuracy - stopping structural energy minimisation
     LOOP+:  cpu time   53.9462: real time   54.2504
    4ORBIT:  cpu time    0.0000: real time    0.0000

 total amount of memory used by VASP on root node    84353. kBytes
========================================================================

   base      :      30000. kBytes
   nonlr-proj:       4285. kBytes
   fftplans  :       4447. kBytes
   grid      :       6721. kBytes
   one-center:        124. kBytes
   wavefun   :      38776. kBytes
 
  
  
 General timing and accounting informations for this job:
 ========================================================
  
                  Total CPU time used (sec):     1565.628
                            User time (sec):     1493.077
                          System time (sec):       72.551
                         Elapsed time (sec):     1575.359
  
                   Maximum memory used (kb):      855296.
                   Average memory used (kb):           0.
  
                          Minor page faults:       752905
                          Major page faults:            0
                 Voluntary context switches:        10339
