 vasp.5.4.1 24Jun15 (build Mar 14 2019 10:18:33) complex                        
  
 executed on INTEL-19.0.2+OPENMPI date 2022.07.15  17:12:18
 running on   36 total cores
 distrk:  each k-point on   36 cores,    1 groups
 distr:  one band on NCORES_PER_BAND=   6 cores,    6 groups


--------------------------------------------------------------------------------------------------------


 INCAR:
 POTCAR:    PAW_PBE Au 04Oct2007                  
 POTCAR:    PAW_PBE Pd 04Jan2005                  
 POTCAR:    PAW_PBE Au 04Oct2007                  
  local pseudopotential read in
  partial core-charges read in
  partial kinetic energy density read in
  atomic valenz-charges read in
  non local Contribution for L=           2  read in
    real space projection operators read in
  non local Contribution for L=           2  read in
    real space projection operators read in
  non local Contribution for L=           0  read in
    real space projection operators read in
  non local Contribution for L=           0  read in
    real space projection operators read in
  non local Contribution for L=           1  read in
    real space projection operators read in
  non local Contribution for L=           1  read in
    real space projection operators read in
    PAW grid and wavefunctions read in
 
   number of l-projection  operators is LMAX  =           6
   number of lm-projection operators is LMMAX =          18
 
 POTCAR:    PAW_PBE Pd 04Jan2005                  
  local pseudopotential read in
  partial core-charges read in
  partial kinetic energy density read in
  atomic valenz-charges read in
  non local Contribution for L=           2  read in
    real space projection operators read in
  non local Contribution for L=           2  read in
    real space projection operators read in
  non local Contribution for L=           0  read in
    real space projection operators read in
  non local Contribution for L=           0  read in
    real space projection operators read in
  non local Contribution for L=           1  read in
    real space projection operators read in
  non local Contribution for L=           1  read in
    real space projection operators read in
    PAW grid and wavefunctions read in
 
   number of l-projection  operators is LMAX  =           6
   number of lm-projection operators is LMMAX =          18
 
 Optimization of the real space projectors (new method)

 maximal supplied QI-value         = 15.12
 optimisation between [QCUT,QGAM] = [ 10.13, 20.41] = [ 28.73,116.64] Ry 
 Optimized for a Real-space Cutoff    1.51 Angstroem

   l    n(q)    QCUT    max X(q) W(low)/X(q) W(high)/X(q)  e(spline) 
   2      8    10.129    60.898    0.46E-03    0.46E-03    0.14E-06
   2      8    10.129    58.894    0.47E-03    0.47E-03    0.14E-06
   0      9    10.129   109.617    0.16E-03    0.11E-03    0.54E-07
   0      9    10.129    75.026    0.15E-03    0.11E-03    0.52E-07
   1      9    10.129    16.344    0.96E-04    0.15E-03    0.14E-06
   1      9    10.129    10.160    0.81E-04    0.12E-03    0.11E-06
 Optimization of the real space projectors (new method)

 maximal supplied QI-value         = 14.36
 optimisation between [QCUT,QGAM] = [ 10.20, 20.39] = [ 29.12,116.47] Ry 
 Optimized for a Real-space Cutoff    1.51 Angstroem

   l    n(q)    QCUT    max X(q) W(low)/X(q) W(high)/X(q)  e(spline) 
   2      8    10.197    59.108    0.26E-03    0.14E-03    0.96E-07
   2      8    10.197    58.101    0.27E-03    0.14E-03    0.98E-07
   0      9    10.197   102.235    0.54E-04    0.60E-05    0.72E-07
   0      9    10.197    58.388    0.52E-04    0.60E-05    0.68E-07
   1      9    10.197    22.191    0.18E-03    0.25E-03    0.79E-07
   1      9    10.197    15.590    0.15E-03    0.21E-03    0.69E-07
  PAW_PBE Au 04Oct2007                  :
 energy of atom  1       EATOM= -926.0867
 kinetic energy error for atom=    0.0062 (will be added to EATOM!!)
  PAW_PBE Pd 04Jan2005                  :
 energy of atom  2       EATOM= -809.7530
 kinetic energy error for atom=    0.0091 (will be added to EATOM!!)
 
 
 POSCAR: Au Pd                                   
  positions in cartesian coordinates
  No initial velocities read in
 exchange correlation table for  LEXCH =        8
   RHO(1)=    0.500       N(1)  =     2000
   RHO(2)=  100.500       N(2)  =     4000

 VTST: version 3.2, (02/03/18)

 CHAIN: initializing optimizer
 
 OPT: Using VASP Conjugate-Gradient optimizer
 CHAIN: Read ICHAIN            0
 
 POSCAR: Au Pd                                   
  positions in cartesian coordinates
  No initial velocities read in
 


--------------------------------------------------------------------------------------------------------


 ion  position               nearest neighbor table
   1  0.250  0.750  0.592-  41 2.75  11 2.75  12 2.75  24 2.75  30 2.75  10 2.75  31 2.75  43 2.75
                            13 2.75
   2  0.833  0.833  0.408-  16 2.75   7 2.75   4 2.75  19 2.75  39 2.75  27 2.75   9 2.75  18 2.75
                            40 2.75
   3  0.750  0.500  0.592-  32 2.75  21 2.75  25 2.75  29 2.75  31 2.75  15 2.75  17 2.75  10 2.75
                            26 2.75
   4  0.833  0.583  0.408-  18 2.75   5 2.75   9 2.75   2 2.75  20 2.75  19 2.75  47 2.75  21 2.75
                            32 2.75
   5  0.833  0.333  0.408-  21 2.75   7 2.75   4 2.75  47 2.75  48 2.75  20 2.75  36 2.75  23 2.75
                            26 2.75
   6  0.667  0.167  0.500-  39 2.75  28 2.75  34 2.75  26 2.75  35 2.75  16 2.75  40 2.75  23 2.75
                            38 2.75  36 2.75   7 2.75  25 2.75
   7  0.833  0.083  0.408-  23 2.75   5 2.75   2 2.75  27 2.75  36 2.75  39 2.75  48 2.75  16 2.75
                             6 2.75
   8  0.417  0.917  0.500-  42 2.75  31 2.75  24 2.75  22 2.75  32 2.75  38 2.75  11 2.75  41 2.75
                            40 2.75  44 2.75  37 2.75   9 2.75
   9  0.583  0.833  0.408-  40 2.75  39 2.75   4 2.75  44 2.75  47 2.75   2 2.75  42 2.75  32 2.75
                             8 2.75
  10  0.500  0.500  0.592-  11 2.75  26 2.75  25 2.75   1 2.75  31 2.75  34 2.75   3 2.75  12 2.75
                            35 2.75
  11  0.417  0.667  0.500-  45 2.75  10 2.75   1 2.75  26 2.75  35 2.75  41 2.75   8 2.75  32 2.75
                            13 2.75  42 2.75  31 2.75  47 2.75
  12  0.250  0.500  0.592-  13 2.75  35 2.75  14 2.75  34 2.75   1 2.75  43 2.75  17 2.75  10 2.75
                            46 2.75
  13  0.167  0.667  0.500-  19 2.75  12 2.75  43 2.75  35 2.75  41 2.75  16 2.75  46 2.75  18 2.75
                            11 2.75  27 2.75  45 2.75   1 2.75
  14  0.250  0.250  0.592-  46 2.75  38 2.75  24 2.75  37 2.75  12 2.75  17 2.75  34 2.75  29 2.75
                            22 2.75
  15  0.750  0.750  0.592-  40 2.75  18 2.75   3 2.75  28 2.75  37 2.75  17 2.75  31 2.75  43 2.75
                            32 2.75
  16  0.917  0.917  0.500-   2 2.75  43 2.75  28 2.75  18 2.75  23 2.75   6 2.75  13 2.75  41 2.75
                            40 2.75   7 2.75  30 2.75  27 2.75
  17  0.000  0.500  0.592-  18 2.75  46 2.75  14 2.75  29 2.75  43 2.75  15 2.75   3 2.75  12 2.75
                            21 2.75
  18  0.917  0.667  0.500-   4 2.75  17 2.75  15 2.75  16 2.75  21 2.75  40 2.75  46 2.75  13 2.75
                            32 2.75   2 2.75  43 2.75  19 2.75
  19  0.083  0.583  0.408-  13 2.75   2 2.75  20 2.75  27 2.75  33 2.75   4 2.75  45 2.75  46 2.75
                            18 2.75
  20  0.083  0.333  0.408-  46 2.75  19 2.75  44 2.75   4 2.75  48 2.75  33 2.75   5 2.75  22 2.75
                            21 2.75
  21  0.917  0.417  0.500-   5 2.75  29 2.75   3 2.75  22 2.75  23 2.75  18 2.75  32 2.75  26 2.75
                            46 2.75   4 2.75  17 2.75  20 2.75
  22  0.167  0.167  0.500-  48 2.75  24 2.75  29 2.75  21 2.75  41 2.75  46 2.75   8 2.75  38 2.75
                            23 2.75  20 2.75  14 2.75  44 2.75
  23  0.917  0.167  0.500-   7 2.75  30 2.75  25 2.75  16 2.75  26 2.75  21 2.75  41 2.75   6 2.75
                            22 2.75   5 2.75  29 2.75  48 2.75
  24  0.250  0.000  0.592-  22 2.75   8 2.75  14 2.75   1 2.75  29 2.75  31 2.75  30 2.75  37 2.75
                            41 2.75
  25  0.750  0.250  0.592-  26 2.75  23 2.75   3 2.75  10 2.75  28 2.75  30 2.75  29 2.75  34 2.75
                             6 2.75
  26  0.667  0.417  0.500-  36 2.75  25 2.75  10 2.75  23 2.75   6 2.75  32 2.75  11 2.75  35 2.75
                            21 2.75  47 2.75   3 2.75   5 2.75
  27  0.083  0.833  0.408-  41 2.75  19 2.75   7 2.75  45 2.75  48 2.75   2 2.75  42 2.75  13 2.75
                            16 2.75
  28  0.750  0.000  0.592-   6 2.75  16 2.75  15 2.75  25 2.75  34 2.75  43 2.75  37 2.75  30 2.75
                            40 2.75
  29  0.000  0.250  0.592-  21 2.75  22 2.75   3 2.75  17 2.75  24 2.75  30 2.75  25 2.75  14 2.75
                            23 2.75
  30  0.000  0.000  0.592-  23 2.75  41 2.75  25 2.75  29 2.75   1 2.75  43 2.75  28 2.75  24 2.75
                            16 2.75
  31  0.500  0.750  0.592-   8 2.75  32 2.75  10 2.75  24 2.75   3 2.75  37 2.75  15 2.75   1 2.75
                            11 2.75
  32  0.667  0.667  0.500-  47 2.75   3 2.75  31 2.75  26 2.75   8 2.75  40 2.75  21 2.75  18 2.75
                            11 2.75   9 2.75   4 2.75  15 2.75
  33  0.333  0.333  0.408-  35 2.75  19 2.75  39 2.75  44 2.75  45 2.75  36 2.75  20 2.75  38 2.75
                            46 2.75
  34  0.500  0.250  0.592-  35 2.75   6 2.75  12 2.75  28 2.75  10 2.75  37 2.75  25 2.75  14 2.75
                            38 2.75
  35  0.417  0.417  0.500-  33 2.75  34 2.75  12 2.75  13 2.75  11 2.75   6 2.75  38 2.75  26 2.75
                            46 2.75  45 2.75  36 2.75  10 2.75
  36  0.583  0.333  0.408-  26 2.75   7 2.75  39 2.75  45 2.75  47 2.75  33 2.75   5 2.75   6 2.75
                            35 2.75
  37  0.500  0.000  0.592-  38 2.75  40 2.75  31 2.75  34 2.75  14 2.75  15 2.75  24 2.75  28 2.75
                             8 2.75
  38  0.417  0.167  0.500-  44 2.75  37 2.75  14 2.75   8 2.75  40 2.75  35 2.75  46 2.75  22 2.75
                             6 2.75  33 2.75  39 2.75  34 2.75
  39  0.583  0.083  0.408-   6 2.75   2 2.75   9 2.75  33 2.75  36 2.75   7 2.75  44 2.75  40 2.75
                            38 2.75
  40  0.667  0.917  0.500-   9 2.75  15 2.75  37 2.75  18 2.75  32 2.75   6 2.75  38 2.75   8 2.75
                            16 2.75  39 2.75   2 2.75  28 2.75
  41  0.167  0.917  0.500-  27 2.75   1 2.75  30 2.75  22 2.75  23 2.75  11 2.75  13 2.75   8 2.75
                            16 2.75  48 2.75  42 2.75  24 2.75
  42  0.333  0.833  0.408-   8 2.75  44 2.75  45 2.75  47 2.75  48 2.75   9 2.75  27 2.75  11 2.75
                            41 2.75
  43  0.000  0.750  0.592-  16 2.75  13 2.75  12 2.75  17 2.75  28 2.75  30 2.75   1 2.75  15 2.75
                            18 2.75
  44  0.333  0.083  0.408-  38 2.75  20 2.75  33 2.75   9 2.75  42 2.75  39 2.75  48 2.75   8 2.75
                            22 2.75
  45  0.333  0.583  0.408-  11 2.75  27 2.75  33 2.75  36 2.75  42 2.75  19 2.75  47 2.75  35 2.75
                            13 2.75
  46  0.167  0.417  0.500-  20 2.75  14 2.75  17 2.75  18 2.75  13 2.75  22 2.75  38 2.75  35 2.75
                            21 2.75  19 2.75  12 2.75  33 2.75
  47  0.583  0.583  0.408-  32 2.75   9 2.75   5 2.75  36 2.75  42 2.75   4 2.75  45 2.75  26 2.75
                            11 2.75
  48  0.083  0.083  0.408-  22 2.75  20 2.75   5 2.75  27 2.75  42 2.75   7 2.75  44 2.75  41 2.75
                            23 2.75
 
  LATTYP: Found a hexagonal cell.
 ALAT       =    11.0025815153
 C/A-ratio  =     2.2260035120
  
  Lattice vectors:
  
 A1 = (   5.5012907576,  -9.5285150994,   0.0000000000)
 A2 = ( -11.0025815153,   0.0000000000,   0.0000000000)
 A3 = (   0.0000000000,   0.0000000000, -24.4917850943)


Analysis of symmetry for initial positions (statically):
=====================================================================
 Subroutine PRICEL returns:
 Original cell was already a primitive cell.
 

 Routine SETGRP: Setting up the symmetry group for a 
 hexagonal supercell.


 Subroutine GETGRP returns: Found  1 space group operations
 (whereof  1 operations were pure point group operations)
 out of a pool of 24 trial point group operations.


The static configuration has the point symmetry C_1 .


Analysis of symmetry for dynamics (positions and initial velocities):
=====================================================================
 Subroutine PRICEL returns:
 Original cell was already a primitive cell.
 

 Routine SETGRP: Setting up the symmetry group for a 
 hexagonal supercell.


 Subroutine GETGRP returns: Found  1 space group operations
 (whereof  1 operations were pure point group operations)
 out of a pool of 24 trial point group operations.


The dynamic configuration has the point symmetry C_1 .
 
 
 KPOINTS: Automatic mesh                          

Automatic generation of k-mesh.
Space group operators:
 irot       det(A)        alpha          n_x          n_y          n_z        tau_x        tau_y        tau_z
    1     1.000000     0.000000     1.000000     0.000000     0.000000     0.000000     0.000000     0.000000
 
 Subroutine IBZKPT returns following result:
 ===========================================
 
 Found      6 irreducible k-points:
 
 Following reciprocal coordinates:
            Coordinates               Weight
  0.250000  0.250000  0.000000     16.000000
  0.000000  0.250000  0.000000     16.000000
 -0.250000  0.000000  0.000000     16.000000
 -0.250000  0.250000  0.000000     16.000000
  0.500000 -0.250000  0.000000     16.000000
 -0.250000  0.500000  0.000000     16.000000
 
 Following cartesian coordinates:
            Coordinates               Weight
  0.022722  0.013119  0.000000     16.000000
  0.000000  0.026237  0.000000     16.000000
 -0.022722  0.013119  0.000000     16.000000
 -0.022722  0.039356  0.000000     16.000000
  0.045444 -0.052474  0.000000     16.000000
 -0.022722  0.065593  0.000000     16.000000
 


--------------------------------------------------------------------------------------------------------




 Dimension of arrays:
   k-points           NKPTS =      6   k-points in BZ     NKDIM =      6   number of bands    NBANDS=    306
   number of dos      NEDOS =    301   number of ions     NIONS =     48
   non local maximal  LDIM  =      6   non local SUM 2l+1 LMDIM =     18
   total plane-waves  NPLWV = 349920
   max r-space proj   IRMAX =   2009   max aug-charges    IRDMAX=   8532
   dimension x,y,z NGX =    54 NGY =   54 NGZ =  120
   dimension x,y,z NGXF=   108 NGYF=  108 NGZF=  240
   support grid    NGXF=   108 NGYF=  108 NGZF=  240
   ions per type =              24  24
 NGX,Y,Z   is equivalent  to a cutoff of   8.16,  8.16,  8.15 a.u.
 NGXF,Y,Z  is equivalent  to a cutoff of  16.32, 16.32, 16.29 a.u.


 I would recommend the setting:
   dimension x,y,z NGX =    54 NGY =   54 NGZ =  120
 SYSTEM =  unknown system                          
 POSCAR =  Au Pd                                   

 Startparameter for this run:
   NWRITE =      1    write-flag & timer
   PREC   = normal    normal or accurate (medium, high low for compatibility)
   ISTART =      0    job   : 0-new  1-cont  2-samecut
   ICHARG =      2    charge: 1-file 2-atom 10-const
   ISPIN  =      1    spin polarized calculation?
   LNONCOLLINEAR =      F non collinear calculations
   LSORBIT =      F    spin-orbit coupling
   INIWAV =      1    electr: 0-lowe 1-rand  2-diag
   LASPH  =      F    aspherical Exc in radial PAW
   METAGGA=      F    non-selfconsistent MetaGGA calc.

 Electronic Relaxation 1
   ENCUT  =  400.0 eV  29.40 Ry    5.42 a.u.  17.94 17.94 39.94*2*pi/ulx,y,z
   ENINI  =  400.0     initial cutoff
   ENAUG  =  416.2 eV  augmentation charge cutoff
   NELM   =    500;   NELMIN=  2; NELMDL= -5     # of ELM steps 
   EDIFF  = 0.1E-05   stopping-criterion for ELM
   LREAL  =      T    real-space projection
   NLSPLINE    = F    spline interpolate recip. space projectors
   LCOMPAT=      F    compatible to vasp.4.4
   GGA_COMPAT  = T    GGA compatible to vasp.4.4-vasp.4.6
   LMAXPAW     = -100 max onsite density
   LMAXMIX     =    2 max onsite mixed and CHGCAR
   VOSKOWN=      1    Vosko Wilk Nusair interpolation
   ROPT   =   -0.00050  -0.00050
 Ionic relaxation
   EDIFFG = -.2E-01   stopping-criterion for IOM
   NSW    =    500    number of steps for IOM
   NBLOCK =      1;   KBLOCK =    500    inner block; outer block 
   IBRION =      2    ionic relax: 0-MD 1-quasi-New 2-CG
   NFREE  =      2    steps in history (QN), initial steepest desc. (CG)
   ISIF   =      0    stress and relaxation
   IWAVPR =     11    prediction:  0-non 1-charg 2-wave 3-comb
   ISYM   =      2    0-nonsym 1-usesym 2-fastsym
   LCORR  =      T    Harris-Foulkes like correction to forces

   POTIM  = 0.3500    time-step for ionic-motion
   TEIN   =    0.0    initial temperature
   TEBEG  =    0.0;   TEEND  =   0.0 temperature during run
   SMASS  =  -3.00    Nose mass-parameter (am)
   estimated Nose-frequenzy (Omega)   =  0.10E-29 period in steps =****** mass=  -0.277E-26a.u.
   SCALEE = 1.0000    scale energy and forces
   NPACO  =    256;   APACO  = 16.0  distance and # of slots for P.C.
   PSTRESS=    0.0 pullay stress

  Mass of Ions in am
   POMASS = 196.97106.42
  Ionic Valenz
   ZVAL   =  11.00 10.00
  Atomic Wigner-Seitz radii
   RWIGS  =  -1.00 -1.00
  virtual crystal weights 
   VCA    =   1.00  1.00
   NELECT =     504.0000    total number of electrons
   NUPDOWN=      -1.0000    fix difference up-down

 DOS related values:
   EMIN   =  10.00;   EMAX   =-10.00  energy-range for DOS
   EFERMI =   0.00
   ISMEAR =     0;   SIGMA  =   0.10  broadening in eV -4-tet -1-fermi 0-gaus

 Electronic relaxation 2 (details)
   IALGO  =     68    algorithm
   LDIAG  =      T    sub-space diagonalisation (order eigenvalues)
   LSUBROT=      F    optimize rotation matrix (better conditioning)
   TURBO    =      0    0=normal 1=particle mesh
   IRESTART =      0    0=no restart 2=restart with 2 vectors
   NREBOOT  =      0    no. of reboots
   NMIN     =      0    reboot dimension
   EREF     =   0.00    reference energy to select bands
   IMIX   =      4    mixing-type and parameters
     AMIX     =   0.40;   BMIX     =  1.00
     AMIX_MAG =   1.60;   BMIX_MAG =  1.00
     AMIN     =   0.10
     WC   =   100.;   INIMIX=   1;  MIXPRE=   1;  MAXMIX= -45

 Intra band minimization:
   WEIMIN = 0.0010     energy-eigenvalue tresh-hold
   EBREAK =  0.82E-09  absolut break condition
   DEPER  =   0.30     relativ break condition  

   TIME   =   0.40     timestep for ELM

  volume/ion in A,a.u.               =      53.49       360.99
  Fermi-wavevector in a.u.,A,eV,Ry     =   0.951418  1.797920 12.315955  0.905197
  Thomas-Fermi vector in A             =   2.079887
 
 Write flags
   LWAVE  =      F    write WAVECAR
   LCHARG =      F    write CHGCAR
   LVTOT  =      F    write LOCPOT, total local potential
   LVHAR  =      F    write LOCPOT, Hartree potential only
   LELF   =      F    write electronic localiz. function (ELF)
   LORBIT =      0    0 simple, 1 ext, 2 COOP (PROOUT)


 Dipole corrections
   LMONO  =      F    monopole corrections only (constant potential shift)
   LDIPOL =      T    correct potential (dipole corrections)
   IDIPOL =      3    1-x, 2-y, 3-z, 4-all directions 
   EPSILON=  1.0000000 bulk dielectric constant

 Exchange correlation treatment:
   GGA     =    PE    GGA type
   LEXCH   =     8    internal setting for exchange type
   VOSKOWN=      1    Vosko Wilk Nusair interpolation
   LHFCALC =     F    Hartree Fock is set to
   LHFONE  =     F    Hartree Fock one center treatment
   AEXX    =    0.0000 exact exchange contribution

 Linear response parameters
   LEPSILON=     F    determine dielectric tensor
   LRPA    =     F    only Hartree local field effects (RPA)
   LNABLA  =     F    use nabla operator in PAW spheres
   LVEL    =     F    velocity operator in full k-point grid
   LINTERFAST=   F  fast interpolation
   KINTER  =     0    interpolate to denser k-point grid
   CSHIFT  =0.1000    complex shift for real part using Kramers Kronig
   OMEGAMAX=  -1.0    maximum frequency
   DEG_THRESHOLD= 0.2000000E-02 threshold for treating states as degnerate
   RTIME   =    0.100 relaxation time in fs

 Orbital magnetization related:
   ORBITALMAG=     F  switch on orbital magnetization
   LCHIMAG   =     F  perturbation theory with respect to B field
   DQ        =  0.001000  dq finite difference perturbation B field



--------------------------------------------------------------------------------------------------------


 conjugate gradient relaxation of ions
 charge density and potential will be updated during run
 non-spin polarized calculation
 RMM-DIIS sequential band-by-band and
  variant of blocked Davidson during initial phase
 perform sub-space diagonalisation
    before iterative eigenvector-optimisation
 modified Broyden-mixing scheme, WC =      100.0
 initial mixing is a Kerker type mixing with AMIX =  0.4000 and BMIX =      1.0000
 Hartree-type preconditioning will be used
 using additional bands           54
 real space projection scheme for non local part
 use partial core corrections
 calculate Harris-corrections to forces 
   (improved forces if not selfconsistent)
 use gradient corrections 
 use of overlap-Matrix (Vanderbilt PP)
 Gauss-broadening in eV      SIGMA  =   0.10


--------------------------------------------------------------------------------------------------------


  energy-cutoff  :      400.00
  volume of cell :     2567.68
      direct lattice vectors                 reciprocal lattice vectors
    11.002581515  0.000000000  0.000000000     0.090887761 -0.052474073  0.000000000
     5.501290758  9.528515099  0.000000000     0.000000000  0.104948147  0.000000000
     0.000000000  0.000000000 24.491785094     0.000000000  0.000000000  0.040830017

  length of vectors
    11.002581515 11.002581515 24.491785094     0.104948147  0.104948147  0.040830017


 
 k-points in units of 2pi/SCALE and weight: Automatic mesh                          
   0.02272194  0.01311852  0.00000000       0.167
   0.00000000  0.02623704  0.00000000       0.167
  -0.02272194  0.01311852  0.00000000       0.167
  -0.02272194  0.03935555  0.00000000       0.167
   0.04544388 -0.05247407  0.00000000       0.167
  -0.02272194  0.06559259  0.00000000       0.167
 
 k-points in reciprocal lattice and weights: Automatic mesh                          
   0.25000000  0.25000000  0.00000000       0.167
   0.00000000  0.25000000  0.00000000       0.167
  -0.25000000  0.00000000  0.00000000       0.167
  -0.25000000  0.25000000  0.00000000       0.167
   0.50000000 -0.25000000  0.00000000       0.167
  -0.25000000  0.50000000  0.00000000       0.167
 
 position of ions in fractional coordinates (direct lattice) 
   0.25000000  0.75000000  0.59169983
   0.83333333  0.83333333  0.40830017
   0.75000000  0.50000000  0.59169983
   0.83333333  0.58333333  0.40830017
   0.83333333  0.33333333  0.40830017
   0.66666667  0.16666667  0.50000000
   0.83333333  0.08333333  0.40830017
   0.41666667  0.91666667  0.50000000
   0.58333333  0.83333333  0.40830017
   0.50000000  0.50000000  0.59169983
   0.41666667  0.66666667  0.50000000
   0.25000000  0.50000000  0.59169983
   0.16666667  0.66666667  0.50000000
   0.25000000  0.25000000  0.59169983
   0.75000000  0.75000000  0.59169983
   0.91666667  0.91666667  0.50000000
   0.00000000  0.50000000  0.59169983
   0.91666667  0.66666667  0.50000000
   0.08333333  0.58333333  0.40830017
   0.08333333  0.33333333  0.40830017
   0.91666667  0.41666667  0.50000000
   0.16666667  0.16666667  0.50000000
   0.91666667  0.16666667  0.50000000
   0.25000000  0.00000000  0.59169983
   0.75000000  0.25000000  0.59169983
   0.66666667  0.41666667  0.50000000
   0.08333333  0.83333333  0.40830017
   0.75000000  0.00000000  0.59169983
   0.00000000  0.25000000  0.59169983
   0.00000000  0.00000000  0.59169983
   0.50000000  0.75000000  0.59169983
   0.66666667  0.66666667  0.50000000
   0.33333333  0.33333333  0.40830017
   0.50000000  0.25000000  0.59169983
   0.41666667  0.41666667  0.50000000
   0.58333333  0.33333333  0.40830017
   0.50000000  0.00000000  0.59169983
   0.41666667  0.16666667  0.50000000
   0.58333333  0.08333333  0.40830017
   0.66666667  0.91666667  0.50000000
   0.16666667  0.91666667  0.50000000
   0.33333333  0.83333333  0.40830017
   0.00000000  0.75000000  0.59169983
   0.33333333  0.08333333  0.40830017
   0.33333333  0.58333333  0.40830017
   0.16666667  0.41666667  0.50000000
   0.58333333  0.58333333  0.40830017
   0.08333333  0.08333333  0.40830017
 
 position of ions in cartesian coordinates  (Angst):
   6.87661345  7.14638632 14.49178509
  13.75322689  7.94042925 10.00000000
  11.00258152  4.76425755 14.49178509
  12.37790420  5.55830047 10.00000000
  11.00258152  3.17617170 10.00000000
   8.25193614  1.58808585 12.24589255
   9.62725883  0.79404292 10.00000000
   9.62725883  8.73447217 12.24589255
  11.00258152  7.94042925 10.00000000
   8.25193614  4.76425755 14.49178509
   8.25193614  6.35234340 12.24589255
   5.50129076  4.76425755 14.49178509
   5.50129076  6.35234340 12.24589255
   4.12596807  2.38212877 14.49178509
  12.37790420  7.14638632 14.49178509
  15.12854958  8.73447217 12.24589255
   2.75064538  4.76425755 14.49178509
  13.75322689  6.35234340 12.24589255
   4.12596807  5.55830047 10.00000000
   2.75064538  3.17617170 10.00000000
  12.37790420  3.97021462 12.24589255
   2.75064538  1.58808585 12.24589255
  11.00258152  1.58808585 12.24589255
   2.75064538  0.00000000 14.49178509
   9.62725883  2.38212877 14.49178509
   9.62725883  3.97021462 12.24589255
   5.50129076  7.94042925 10.00000000
   8.25193614  0.00000000 14.49178509
   1.37532269  2.38212877 14.49178509
   0.00000000  0.00000000 14.49178509
   9.62725883  7.14638632 14.49178509
  11.00258152  6.35234340 12.24589255
   5.50129076  3.17617170 10.00000000
   6.87661345  2.38212877 14.49178509
   6.87661345  3.97021462 12.24589255
   8.25193614  3.17617170 10.00000000
   5.50129076  0.00000000 14.49178509
   5.50129076  1.58808585 12.24589255
   6.87661345  0.79404292 10.00000000
  12.37790420  8.73447217 12.24589255
   6.87661345  8.73447217 12.24589255
   8.25193614  7.94042925 10.00000000
   4.12596807  7.14638632 14.49178509
   4.12596807  0.79404292 10.00000000
   6.87661345  5.55830047 10.00000000
   4.12596807  3.97021462 12.24589255
   9.62725883  5.55830047 10.00000000
   1.37532269  0.79404292 10.00000000
 


--------------------------------------------------------------------------------------------------------


 k-point  1 :   0.2500 0.2500 0.0000  plane waves:   46635
 k-point  2 :   0.0000 0.2500 0.0000  plane waves:   46635
 k-point  3 :  -0.2500 0.0000 0.0000  plane waves:   46635
 k-point  4 :  -0.2500 0.2500 0.0000  plane waves:   46644
 k-point  5 :   0.5000-0.2500 0.0000  plane waves:   46644
 k-point  6 :  -0.2500 0.5000 0.0000  plane waves:   46644

 maximum and minimum number of plane-waves per node :      7818     7732

 maximum number of plane-waves:     46644
 maximum index in each direction: 
   IXMAX=   18   IYMAX=   18   IZMAX=   39
   IXMIN=  -18   IYMIN=  -18   IZMIN=  -39

 WARNING: aliasing errors must be expected set NGX to  74 to avoid them
 WARNING: aliasing errors must be expected set NGY to  74 to avoid them
 WARNING: aliasing errors must be expected set NGZ to 158 to avoid them
 aliasing errors are usually negligible using standard VASP settings
 and one can safely disregard these warnings

 real space projection operators:
  total allocation   :      12803.06 KBytes
  max/ min on nodes  :       2145.66       2127.94


 parallel 3D FFT for wavefunctions:
    minimum data exchange during FFTs selected (reduces bandwidth)
 parallel 3D FFT for charge:
    minimum data exchange during FFTs selected (reduces bandwidth)


 total amount of memory used by VASP on root node    84353. kBytes
========================================================================

   base      :      30000. kBytes
   nonlr-proj:       4285. kBytes
   fftplans  :       4447. kBytes
   grid      :       6721. kBytes
   one-center:        124. kBytes
   wavefun   :      38776. kBytes
 
     INWAV:  cpu time    0.0000: real time    0.0000
 Broyden mixing: mesh for mixing (old mesh)
   NGX = 35   NGY = 35   NGZ = 79
  (NGX  =108   NGY  =108   NGZ  =240)
  gives a total of  96775 points

 initial charge density was supplied:
 charge density of overlapping atoms calculated
 number of electron     504.0000000 magnetization 
 keeping initial charge density in first step


--------------------------------------------------------------------------------------------------------


 Maximum index for non-local projection operator          355
 Maximum index for augmentation-charges          437 (set IRDMAX)


--------------------------------------------------------------------------------------------------------


 First call to EWALD:  gamma=   0.129
 Maximum number of real-space cells 4x 4x 2
 Maximum number of reciprocal cells 2x 2x 5

 FEWALD executed in parallel
    FEWALD:  cpu time    0.0030: real time    0.0031


----------------------------------------- Iteration    1(   1)  ---------------------------------------


    POTLOK:  cpu time    0.0480: real time    0.0483
    SETDIJ:  cpu time    0.0064: real time    0.0064
     EDDAV:  cpu time    7.0692: real time    7.1739
       DOS:  cpu time    0.0015: real time    0.0015
    --------------------------------------------
      LOOP:  cpu time    7.1287: real time    7.2381

 eigenvalue-minimisations  :  3672
 total energy-change (2. order) : 0.3201313E+04  (-0.1898053E+05)
 number of electron     504.0000000 magnetization 
 augmentation part      504.0000000 magnetization 

 DIPCOR: dipole corrections for dipol
 direction  3 min pos     1,
 dipolmoment           0.000000      0.000000     -0.000001 electrons x Angstroem
 Tr[quadrupol]    -10251.261273

 energy correction for charged system         0.000000 eV
 dipol+quadrupol energy correction           -0.000000 eV
 added-field ion interaction          0.000000 eV  (added to PSCEN)


 Free energy of the ion-electron system (eV)
  ---------------------------------------------------
  alpha Z        PSCENC =       805.86936440
  Ewald energy   TEWEN  =    200404.36494138
  -Hartree energ DENC   =   -242819.84893746
  -exchange      EXHF   =         0.00000000
  -V(xc)+E(xc)   XCENC  =      -327.56253674
  PAW double counting   =     40340.05962942   -38292.62782345
  entropy T*S    EENTRO =        -0.13610631
  eigenvalues    EBANDS =      1431.40833097
  atomic energy  EATOM  =     41659.78587232
  Solvation  Ediel_sol  =         0.00000000
  ---------------------------------------------------
  free energy    TOTEN  =      3201.31273455 eV

  energy without entropy =     3201.44884086  energy(sigma->0) =     3201.38078770


--------------------------------------------------------------------------------------------------------




----------------------------------------- Iteration    1(   2)  ---------------------------------------


     EDDAV:  cpu time    8.2210: real time    8.2698
       DOS:  cpu time    0.0016: real time    0.0016
    --------------------------------------------
      LOOP:  cpu time    8.2233: real time    8.2739

 eigenvalue-minimisations  :  4356
 total energy-change (2. order) :-0.3185243E+04  (-0.2927526E+04)
 number of electron     504.0000000 magnetization 
 augmentation part      504.0000000 magnetization 

 DIPCOR: dipole corrections for dipol
 direction  3 min pos     1,
 dipolmoment           0.000000      0.000000     -0.000001 electrons x Angstroem
 Tr[quadrupol]    -10251.261273

 energy correction for charged system         0.000000 eV
 dipol+quadrupol energy correction           -0.000000 eV
 added-field ion interaction          0.000000 eV  (added to PSCEN)


 Free energy of the ion-electron system (eV)
  ---------------------------------------------------
  alpha Z        PSCENC =       805.86936440
  Ewald energy   TEWEN  =    200404.36494138
  -Hartree energ DENC   =   -242819.84893746
  -exchange      EXHF   =         0.00000000
  -V(xc)+E(xc)   XCENC  =      -327.56253674
  PAW double counting   =     40340.05962942   -38292.62782345
  entropy T*S    EENTRO =        -0.12937181
  eigenvalues    EBANDS =     -1753.84174009
  atomic energy  EATOM  =     41659.78587232
  Solvation  Ediel_sol  =         0.00000000
  ---------------------------------------------------
  free energy    TOTEN  =        16.06939798 eV

  energy without entropy =       16.19876979  energy(sigma->0) =       16.13408389


--------------------------------------------------------------------------------------------------------




----------------------------------------- Iteration    1(   3)  ---------------------------------------


     EDDAV:  cpu time    8.0005: real time    8.0273
       DOS:  cpu time    0.0016: real time    0.0016
    --------------------------------------------
      LOOP:  cpu time    8.0028: real time    8.0326

 eigenvalue-minimisations  :  4176
 total energy-change (2. order) :-0.2162816E+03  (-0.2010813E+03)
 number of electron     504.0000000 magnetization 
 augmentation part      504.0000000 magnetization 

 DIPCOR: dipole corrections for dipol
 direction  3 min pos     1,
 dipolmoment           0.000000      0.000000     -0.000001 electrons x Angstroem
 Tr[quadrupol]    -10251.261273

 energy correction for charged system         0.000000 eV
 dipol+quadrupol energy correction           -0.000000 eV
 added-field ion interaction          0.000000 eV  (added to PSCEN)


 Free energy of the ion-electron system (eV)
  ---------------------------------------------------
  alpha Z        PSCENC =       805.86936440
  Ewald energy   TEWEN  =    200404.36494138
  -Hartree energ DENC   =   -242819.84893746
  -exchange      EXHF   =         0.00000000
  -V(xc)+E(xc)   XCENC  =      -327.56253674
  PAW double counting   =     40340.05962942   -38292.62782345
  entropy T*S    EENTRO =        -0.20371606
  eigenvalues    EBANDS =     -1970.04895876
  atomic energy  EATOM  =     41659.78587232
  Solvation  Ediel_sol  =         0.00000000
  ---------------------------------------------------
  free energy    TOTEN  =      -200.21216493 eV

  energy without entropy =     -200.00844887  energy(sigma->0) =     -200.11030690


--------------------------------------------------------------------------------------------------------




----------------------------------------- Iteration    1(   4)  ---------------------------------------


     EDDAV:  cpu time    8.1537: real time    8.1812
       DOS:  cpu time    0.0016: real time    0.0016
    --------------------------------------------
      LOOP:  cpu time    8.1563: real time    8.1868

 eigenvalue-minimisations  :  4260
 total energy-change (2. order) :-0.5860788E+01  (-0.5784894E+01)
 number of electron     504.0000000 magnetization 
 augmentation part      504.0000000 magnetization 

 DIPCOR: dipole corrections for dipol
 direction  3 min pos     1,
 dipolmoment           0.000000      0.000000     -0.000001 electrons x Angstroem
 Tr[quadrupol]    -10251.261273

 energy correction for charged system         0.000000 eV
 dipol+quadrupol energy correction           -0.000000 eV
 added-field ion interaction          0.000000 eV  (added to PSCEN)


 Free energy of the ion-electron system (eV)
  ---------------------------------------------------
  alpha Z        PSCENC =       805.86936440
  Ewald energy   TEWEN  =    200404.36494138
  -Hartree energ DENC   =   -242819.84893746
  -exchange      EXHF   =         0.00000000
  -V(xc)+E(xc)   XCENC  =      -327.56253674
  PAW double counting   =     40340.05962942   -38292.62782345
  entropy T*S    EENTRO =        -0.21989075
  eigenvalues    EBANDS =     -1975.89357251
  atomic energy  EATOM  =     41659.78587232
  Solvation  Ediel_sol  =         0.00000000
  ---------------------------------------------------
  free energy    TOTEN  =      -206.07295338 eV

  energy without entropy =     -205.85306263  energy(sigma->0) =     -205.96300800


--------------------------------------------------------------------------------------------------------




----------------------------------------- Iteration    1(   5)  ---------------------------------------


     EDDAV:  cpu time    8.3598: real time    8.3847
       DOS:  cpu time    0.0016: real time    0.0017
    CHARGE:  cpu time    0.2474: real time    0.2481
    MIXING:  cpu time    0.0024: real time    0.0026
    --------------------------------------------
      LOOP:  cpu time    8.6119: real time    8.6411

 eigenvalue-minimisations  :  4416
 total energy-change (2. order) :-0.1770777E+00  (-0.1765383E+00)
 number of electron     503.9998405 magnetization 
 augmentation part      191.3425481 magnetization 

 DIPCOR: dipole corrections for dipol
 direction  3 min pos     1,
 dipolmoment           0.000000      0.000000     -0.000001 electrons x Angstroem
 Tr[quadrupol]    -10251.261273

 energy correction for charged system         0.000000 eV
 dipol+quadrupol energy correction           -0.000000 eV
 added-field ion interaction          0.000000 eV  (added to PSCEN)


 Broyden mixing:
  rms(total) = 0.62586E+01    rms(broyden)= 0.62585E+01
  rms(prec ) = 0.63875E+01
  weight for this iteration     100.00

 Free energy of the ion-electron system (eV)
  ---------------------------------------------------
  alpha Z        PSCENC =       805.86936440
  Ewald energy   TEWEN  =    200404.36494138
  -Hartree energ DENC   =   -242819.84893746
  -exchange      EXHF   =         0.00000000
  -V(xc)+E(xc)   XCENC  =      -327.56253674
  PAW double counting   =     40340.05962942   -38292.62782345
  entropy T*S    EENTRO =        -0.21950456
  eigenvalues    EBANDS =     -1976.07103644
  atomic energy  EATOM  =     41659.78587232
  Solvation  Ediel_sol  =         0.00000000
  ---------------------------------------------------
  free energy    TOTEN  =      -206.25003111 eV

  energy without entropy =     -206.03052655  energy(sigma->0) =     -206.14027883


--------------------------------------------------------------------------------------------------------




----------------------------------------- Iteration    1(   6)  ---------------------------------------


    POTLOK:  cpu time    0.0431: real time    0.0442
    SETDIJ:  cpu time    0.0064: real time    0.0064
    EDDIAG:  cpu time    1.2736: real time    1.2773
  RMM-DIIS:  cpu time    3.5314: real time    3.5418
    ORTHCH:  cpu time    0.3217: real time    0.3225
       DOS:  cpu time    0.0017: real time    0.0017
    CHARGE:  cpu time    0.2553: real time    0.2781
    MIXING:  cpu time    0.0020: real time    0.0021
    --------------------------------------------
      LOOP:  cpu time    5.4359: real time    5.4780

 eigenvalue-minimisations  :  3678
 total energy-change (2. order) : 0.6222073E+01  (-0.9442995E+01)
 number of electron     503.9998424 magnetization 
 augmentation part      191.8022034 magnetization 

 DIPCOR: dipole corrections for dipol
 direction  3 min pos     1,
 dipolmoment           0.000000      0.000000     -0.342428 electrons x Angstroem
 Tr[quadrupol]    -10251.957349

 energy correction for charged system         0.000000 eV
 dipol+quadrupol energy correction           -0.004132 eV
 added-field ion interaction          0.054199 eV  (added to PSCEN)


 Broyden mixing:
  rms(total) = 0.55534E+01    rms(broyden)= 0.55533E+01
  rms(prec ) = 0.57748E+01
  weight for this iteration     100.00

 eigenvalues of (default mixing * dielectric matrix)
  average eigenvalue GAMMA=   0.7305
  0.7305

 Free energy of the ion-electron system (eV)
  ---------------------------------------------------
  alpha Z        PSCENC =       805.91943141
  Ewald energy   TEWEN  =    200404.36494138
  -Hartree energ DENC   =   -242545.51225637
  -exchange      EXHF   =         0.00000000
  -V(xc)+E(xc)   XCENC  =      -339.99014523
  PAW double counting   =     43929.51263087   -41941.26013948
  entropy T*S    EENTRO =        -0.23458697
  eigenvalues    EBANDS =     -2172.61370615
  atomic energy  EATOM  =     41659.78587232
  Solvation  Ediel_sol  =         0.00000000
  ---------------------------------------------------
  free energy    TOTEN  =      -200.02795820 eV

  energy without entropy =     -199.79337124  energy(sigma->0) =     -199.91066472


--------------------------------------------------------------------------------------------------------




----------------------------------------- Iteration    1(   7)  ---------------------------------------


    POTLOK:  cpu time    0.0441: real time    0.0461
    SETDIJ:  cpu time    0.0050: real time    0.0055
    EDDIAG:  cpu time    1.2749: real time    1.3365
  RMM-DIIS:  cpu time    3.5718: real time    3.5815
    ORTHCH:  cpu time    0.3237: real time    0.3248
       DOS:  cpu time    0.0018: real time    0.0018
    CHARGE:  cpu time    0.2472: real time    0.2478
    MIXING:  cpu time    0.0021: real time    0.0021
    --------------------------------------------
      LOOP:  cpu time    5.4713: real time    5.5494

 eigenvalue-minimisations  :  3682
 total energy-change (2. order) :-0.6329307E+01  (-0.5227017E+01)
 number of electron     503.9998373 magnetization 
 augmentation part      195.7442457 magnetization 

 DIPCOR: dipole corrections for dipol
 direction  3 min pos     1,
 dipolmoment           0.000000      0.000000      1.007414 electrons x Angstroem
 Tr[quadrupol]    -10251.591863

 energy correction for charged system         0.000000 eV
 dipol+quadrupol energy correction           -0.035762 eV
 added-field ion interaction         -0.159452 eV  (added to PSCEN)


 Broyden mixing:
  rms(total) = 0.42591E+01    rms(broyden)= 0.42588E+01
  rms(prec ) = 0.48637E+01
  weight for this iteration     100.00

 eigenvalues of (default mixing * dielectric matrix)
  average eigenvalue GAMMA=   0.9427
  1.4995  0.3859

 Free energy of the ion-electron system (eV)
  ---------------------------------------------------
  alpha Z        PSCENC =       805.67415063
  Ewald energy   TEWEN  =    200404.36494138
  -Hartree energ DENC   =   -242432.23308496
  -exchange      EXHF   =         0.00000000
  -V(xc)+E(xc)   XCENC  =      -342.37992033
  PAW double counting   =     45374.18071468   -43411.35417123
  entropy T*S    EENTRO =        -0.23749377
  eigenvalues    EBANDS =     -2264.15827384
  atomic energy  EATOM  =     41659.78587232
  Solvation  Ediel_sol  =         0.00000000
  ---------------------------------------------------
  free energy    TOTEN  =      -206.35726512 eV

  energy without entropy =     -206.11977135  energy(sigma->0) =     -206.23851824


--------------------------------------------------------------------------------------------------------




----------------------------------------- Iteration    1(   8)  ---------------------------------------


    POTLOK:  cpu time    0.0446: real time    0.0448
    SETDIJ:  cpu time    0.0058: real time    0.0058
    EDDIAG:  cpu time    1.2887: real time    1.2921
  RMM-DIIS:  cpu time    3.4687: real time    3.4788
    ORTHCH:  cpu time    0.3207: real time    0.3215
       DOS:  cpu time    0.0016: real time    0.0016
    CHARGE:  cpu time    0.2479: real time    0.2485
    MIXING:  cpu time    0.0022: real time    0.0022
    --------------------------------------------
      LOOP:  cpu time    5.3810: real time    5.3990

 eigenvalue-minimisations  :  3674
 total energy-change (2. order) :-0.2182220E+02  (-0.9182486E+01)
 number of electron     503.9998366 magnetization 
 augmentation part      195.4260404 magnetization 

 DIPCOR: dipole corrections for dipol
 direction  3 min pos     1,
 dipolmoment           0.000000      0.000000     -2.134820 electrons x Angstroem
 Tr[quadrupol]    -10252.806881

 energy correction for charged system         0.000000 eV
 dipol+quadrupol energy correction           -0.160593 eV
 added-field ion interaction          0.337896 eV  (added to PSCEN)


 Broyden mixing:
  rms(total) = 0.46633E+01    rms(broyden)= 0.46630E+01
  rms(prec ) = 0.57865E+01
  weight for this iteration     100.00

 eigenvalues of (default mixing * dielectric matrix)
  average eigenvalue GAMMA=   0.9212
  2.0562  0.4536  0.2537

 Free energy of the ion-electron system (eV)
  ---------------------------------------------------
  alpha Z        PSCENC =       806.04666781
  Ewald energy   TEWEN  =    200404.36494138
  -Hartree energ DENC   =   -242402.88988577
  -exchange      EXHF   =         0.00000000
  -V(xc)+E(xc)   XCENC  =      -344.47056818
  PAW double counting   =     47190.45779400   -45254.79881437
  entropy T*S    EENTRO =        -0.30089867
  eigenvalues    EBANDS =     -2286.37457166
  atomic energy  EATOM  =     41659.78587232
  Solvation  Ediel_sol  =         0.00000000
  ---------------------------------------------------
  free energy    TOTEN  =      -228.17946315 eV

  energy without entropy =     -227.87856448  energy(sigma->0) =     -228.02901381


--------------------------------------------------------------------------------------------------------




----------------------------------------- Iteration    1(   9)  ---------------------------------------


    POTLOK:  cpu time    0.0429: real time    0.0430
    SETDIJ:  cpu time    0.0056: real time    0.0056
    EDDIAG:  cpu time    1.2859: real time    1.2902
  RMM-DIIS:  cpu time    3.5332: real time    3.5448
    ORTHCH:  cpu time    0.3200: real time    0.3209
       DOS:  cpu time    0.0018: real time    0.0018
    CHARGE:  cpu time    0.2487: real time    0.2493
    MIXING:  cpu time    0.0022: real time    0.0022
    --------------------------------------------
      LOOP:  cpu time    5.4409: real time    5.4607

 eigenvalue-minimisations  :  3681
 total energy-change (2. order) : 0.1382365E+02  (-0.5297974E+01)
 number of electron     503.9998337 magnetization 
 augmentation part      197.8557449 magnetization 

 DIPCOR: dipole corrections for dipol
 direction  3 min pos     1,
 dipolmoment           0.000000      0.000000      0.504281 electrons x Angstroem
 Tr[quadrupol]    -10253.749365

 energy correction for charged system         0.000000 eV
 dipol+quadrupol energy correction           -0.008961 eV
 added-field ion interaction         -0.079817 eV  (added to PSCEN)


 Broyden mixing:
  rms(total) = 0.40490E+01    rms(broyden)= 0.40487E+01
  rms(prec ) = 0.45992E+01
  weight for this iteration     100.00

 eigenvalues of (default mixing * dielectric matrix)
  average eigenvalue GAMMA=   0.8164
  2.2565  0.4659  0.2717  0.2717

 Free energy of the ion-electron system (eV)
  ---------------------------------------------------
  alpha Z        PSCENC =       805.78058656
  Ewald energy   TEWEN  =    200404.36494138
  -Hartree energ DENC   =   -242390.19172694
  -exchange      EXHF   =         0.00000000
  -V(xc)+E(xc)   XCENC  =      -346.22808489
  PAW double counting   =     48540.98799369   -46626.76125472
  entropy T*S    EENTRO =        -0.21690364
  eigenvalues    EBANDS =     -2261.87723762
  atomic energy  EATOM  =     41659.78587232
  Solvation  Ediel_sol  =         0.00000000
  ---------------------------------------------------
  free energy    TOTEN  =      -214.35581386 eV

  energy without entropy =     -214.13891022  energy(sigma->0) =     -214.24736204


--------------------------------------------------------------------------------------------------------




----------------------------------------- Iteration    1(  10)  ---------------------------------------


    POTLOK:  cpu time    0.0424: real time    0.0428
    SETDIJ:  cpu time    0.0054: real time    0.0058
    EDDIAG:  cpu time    1.2791: real time    1.2846
  RMM-DIIS:  cpu time    3.5804: real time    3.5930
    ORTHCH:  cpu time    0.3194: real time    0.3205
       DOS:  cpu time    0.0017: real time    0.0018
    CHARGE:  cpu time    0.2403: real time    0.2410
    MIXING:  cpu time    0.0023: real time    0.0023
    --------------------------------------------
      LOOP:  cpu time    5.4716: real time    5.4955

 eigenvalue-minimisations  :  3683
 total energy-change (2. order) : 0.1460784E+02  (-0.2341850E+01)
 number of electron     503.9998337 magnetization 
 augmentation part      199.3244277 magnetization 

 DIPCOR: dipole corrections for dipol
 direction  3 min pos     1,
 dipolmoment           0.000000      0.000000     -0.370860 electrons x Angstroem
 Tr[quadrupol]    -10252.707226

 energy correction for charged system         0.000000 eV
 dipol+quadrupol energy correction           -0.004846 eV
 added-field ion interaction          0.058699 eV  (added to PSCEN)


 Broyden mixing:
  rms(total) = 0.23404E+01    rms(broyden)= 0.23401E+01
  rms(prec ) = 0.26636E+01
  weight for this iteration     100.00

 eigenvalues of (default mixing * dielectric matrix)
  average eigenvalue GAMMA=   0.7426
  2.2927  0.4282  0.4282  0.3422  0.2216

 Free energy of the ion-electron system (eV)
  ---------------------------------------------------
  alpha Z        PSCENC =       805.92321706
  Ewald energy   TEWEN  =    200404.36494138
  -Hartree energ DENC   =   -242358.51697413
  -exchange      EXHF   =         0.00000000
  -V(xc)+E(xc)   XCENC  =      -346.21197765
  PAW double counting   =     49116.63188269   -47209.34813712
  entropy T*S    EENTRO =        -0.17704760
  eigenvalues    EBANDS =     -2272.19975461
  atomic energy  EATOM  =     41659.78587232
  Solvation  Ediel_sol  =         0.00000000
  ---------------------------------------------------
  free energy    TOTEN  =      -199.74797766 eV

  energy without entropy =     -199.57093006  energy(sigma->0) =     -199.65945386


--------------------------------------------------------------------------------------------------------




----------------------------------------- Iteration    1(  11)  ---------------------------------------


    POTLOK:  cpu time    0.0424: real time    0.0426
    SETDIJ:  cpu time    0.0055: real time    0.0055
    EDDIAG:  cpu time    1.2826: real time    1.2971
  RMM-DIIS:  cpu time    3.4792: real time    3.5164
    ORTHCH:  cpu time    0.3180: real time    0.3216
       DOS:  cpu time    0.0017: real time    0.0018
    CHARGE:  cpu time    0.2394: real time    0.2415
    MIXING:  cpu time    0.0024: real time    0.0024
    --------------------------------------------
      LOOP:  cpu time    5.3720: real time    5.4320

 eigenvalue-minimisations  :  3679
 total energy-change (2. order) : 0.8547946E+01  (-0.1279629E+01)
 number of electron     503.9998335 magnetization 
 augmentation part      199.3801177 magnetization 

 DIPCOR: dipole corrections for dipol
 direction  3 min pos     1,
 dipolmoment           0.000000      0.000000     -0.080964 electrons x Angstroem
 Tr[quadrupol]    -10253.216665

 energy correction for charged system         0.000000 eV
 dipol+quadrupol energy correction           -0.000231 eV
 added-field ion interaction          0.012815 eV  (added to PSCEN)


 Broyden mixing:
  rms(total) = 0.11372E+01    rms(broyden)= 0.11370E+01
  rms(prec ) = 0.12838E+01
  weight for this iteration     100.00

 eigenvalues of (default mixing * dielectric matrix)
  average eigenvalue GAMMA=   0.7144
  2.2254  0.5934  0.5934  0.3230  0.3230  0.2282

 Free energy of the ion-electron system (eV)
  ---------------------------------------------------
  alpha Z        PSCENC =       805.88194822
  Ewald energy   TEWEN  =    200404.36494138
  -Hartree energ DENC   =   -242400.54232308
  -exchange      EXHF   =         0.00000000
  -V(xc)+E(xc)   XCENC  =      -345.66334869
  PAW double counting   =     49269.55256717   -47360.66570972
  entropy T*S    EENTRO =        -0.21893132
  eigenvalues    EBANDS =     -2223.69504841
  atomic energy  EATOM  =     41659.78587232
  Solvation  Ediel_sol  =         0.00000000
  ---------------------------------------------------
  free energy    TOTEN  =      -191.20003214 eV

  energy without entropy =     -190.98110082  energy(sigma->0) =     -191.09056648


--------------------------------------------------------------------------------------------------------




----------------------------------------- Iteration    1(  12)  ---------------------------------------


    POTLOK:  cpu time    0.0424: real time    0.0428
    SETDIJ:  cpu time    0.0055: real time    0.0055
    EDDIAG:  cpu time    1.2822: real time    1.2910
  RMM-DIIS:  cpu time    3.5329: real time    3.5460
    ORTHCH:  cpu time    0.3206: real time    0.3215
       DOS:  cpu time    0.0016: real time    0.0016
    CHARGE:  cpu time    0.2442: real time    0.2451
    MIXING:  cpu time    0.0025: real time    0.0025
    --------------------------------------------
      LOOP:  cpu time    5.4327: real time    5.4591

 eigenvalue-minimisations  :  3678
 total energy-change (2. order) : 0.2292106E+01  (-0.6949875E+00)
 number of electron     503.9998357 magnetization 
 augmentation part      197.8047999 magnetization 

 DIPCOR: dipole corrections for dipol
 direction  3 min pos     1,
 dipolmoment           0.000000      0.000000     -0.103059 electrons x Angstroem
 Tr[quadrupol]    -10253.601495

 energy correction for charged system         0.000000 eV
 dipol+quadrupol energy correction           -0.000374 eV
 added-field ion interaction          0.016312 eV  (added to PSCEN)


 Broyden mixing:
  rms(total) = 0.96304E+00    rms(broyden)= 0.96286E+00
  rms(prec ) = 0.10580E+01
  weight for this iteration     100.00

 eigenvalues of (default mixing * dielectric matrix)
  average eigenvalue GAMMA=   0.6749
  2.2570  0.5367  0.5367  0.5659  0.3049  0.3049  0.2185

 Free energy of the ion-electron system (eV)
  ---------------------------------------------------
  alpha Z        PSCENC =       805.88530202
  Ewald energy   TEWEN  =    200404.36494138
  -Hartree energ DENC   =   -242454.94024802
  -exchange      EXHF   =         0.00000000
  -V(xc)+E(xc)   XCENC  =      -344.55791602
  PAW double counting   =     49294.09684149   -47379.62961194
  entropy T*S    EENTRO =        -0.20296097
  eigenvalues    EBANDS =     -2173.71014602
  atomic energy  EATOM  =     41659.78587232
  Solvation  Ediel_sol  =         0.00000000
  ---------------------------------------------------
  free energy    TOTEN  =      -188.90792575 eV

  energy without entropy =     -188.70496478  energy(sigma->0) =     -188.80644527


--------------------------------------------------------------------------------------------------------




----------------------------------------- Iteration    1(  13)  ---------------------------------------


    POTLOK:  cpu time    0.0421: real time    0.0423
    SETDIJ:  cpu time    0.0056: real time    0.0056
    EDDIAG:  cpu time    1.2835: real time    1.2878
  RMM-DIIS:  cpu time    3.5128: real time    3.5244
    ORTHCH:  cpu time    0.3196: real time    0.3204
       DOS:  cpu time    0.0018: real time    0.0018
    CHARGE:  cpu time    0.2461: real time    0.2466
    MIXING:  cpu time    0.0028: real time    0.0028
    --------------------------------------------
      LOOP:  cpu time    5.4148: real time    5.4348

 eigenvalue-minimisations  :  3680
 total energy-change (2. order) : 0.3301052E+00  (-0.1761974E+00)
 number of electron     503.9998359 magnetization 
 augmentation part      197.4818353 magnetization 

 DIPCOR: dipole corrections for dipol
 direction  3 min pos     1,
 dipolmoment           0.000000      0.000000     -0.038651 electrons x Angstroem
 Tr[quadrupol]    -10254.055125

 energy correction for charged system         0.000000 eV
 dipol+quadrupol energy correction           -0.000053 eV
 added-field ion interaction          0.006118 eV  (added to PSCEN)


 Broyden mixing:
  rms(total) = 0.69241E+00    rms(broyden)= 0.69219E+00
  rms(prec ) = 0.75721E+00
  weight for this iteration     100.00

 eigenvalues of (default mixing * dielectric matrix)
  average eigenvalue GAMMA=   0.7012
  2.2966  0.7181  0.7181  0.7673  0.3069  0.3069  0.2788  0.2174

 Free energy of the ion-electron system (eV)
  ---------------------------------------------------
  alpha Z        PSCENC =       805.87542921
  Ewald energy   TEWEN  =    200404.36494138
  -Hartree energ DENC   =   -242478.96263210
  -exchange      EXHF   =         0.00000000
  -V(xc)+E(xc)   XCENC  =      -344.30630496
  PAW double counting   =     49351.12929347   -47435.55796862
  entropy T*S    EENTRO =        -0.24412165
  eigenvalues    EBANDS =     -2150.66232963
  atomic energy  EATOM  =     41659.78587232
  Solvation  Ediel_sol  =         0.00000000
  ---------------------------------------------------
  free energy    TOTEN  =      -188.57782059 eV

  energy without entropy =     -188.33369894  energy(sigma->0) =     -188.45575976


--------------------------------------------------------------------------------------------------------




----------------------------------------- Iteration    1(  14)  ---------------------------------------


    POTLOK:  cpu time    0.0442: real time    0.0443
    SETDIJ:  cpu time    0.0055: real time    0.0055
    EDDIAG:  cpu time    1.2792: real time    1.2833
  RMM-DIIS:  cpu time    3.4375: real time    3.5424
    ORTHCH:  cpu time    0.3199: real time    0.3208
       DOS:  cpu time    0.0017: real time    0.0017
    CHARGE:  cpu time    0.2421: real time    0.2426
    MIXING:  cpu time    0.0030: real time    0.0030
    --------------------------------------------
      LOOP:  cpu time    5.3339: real time    5.4472

 eigenvalue-minimisations  :  3679
 total energy-change (2. order) :-0.1361690E+00  (-0.8923330E-01)
 number of electron     503.9998356 magnetization 
 augmentation part      197.6885703 magnetization 

 DIPCOR: dipole corrections for dipol
 direction  3 min pos     1,
 dipolmoment           0.000000      0.000000     -0.013942 electrons x Angstroem
 Tr[quadrupol]    -10254.245092

 energy correction for charged system         0.000000 eV
 dipol+quadrupol energy correction           -0.000007 eV
 added-field ion interaction          0.002207 eV  (added to PSCEN)


 Broyden mixing:
  rms(total) = 0.62789E+00    rms(broyden)= 0.62777E+00
  rms(prec ) = 0.70563E+00
  weight for this iteration     100.00

 eigenvalues of (default mixing * dielectric matrix)
  average eigenvalue GAMMA=   0.6892
  2.2770  0.8431  0.8431  0.8355  0.3250  0.3250  0.2889  0.2545  0.2110

 Free energy of the ion-electron system (eV)
  ---------------------------------------------------
  alpha Z        PSCENC =       805.87156417
  Ewald energy   TEWEN  =    200404.36494138
  -Hartree energ DENC   =   -242484.66470471
  -exchange      EXHF   =         0.00000000
  -V(xc)+E(xc)   XCENC  =      -344.25410050
  PAW double counting   =     49392.12500363   -47476.37156855
  entropy T*S    EENTRO =        -0.21710333
  eigenvalues    EBANDS =     -2145.35389404
  atomic energy  EATOM  =     41659.78587232
  Solvation  Ediel_sol  =         0.00000000
  ---------------------------------------------------
  free energy    TOTEN  =      -188.71398963 eV

  energy without entropy =     -188.49688630  energy(sigma->0) =     -188.60543797


--------------------------------------------------------------------------------------------------------




----------------------------------------- Iteration    1(  15)  ---------------------------------------


    POTLOK:  cpu time    0.0435: real time    0.0437
    SETDIJ:  cpu time    0.0056: real time    0.0056
    EDDIAG:  cpu time    1.2835: real time    1.2878
  RMM-DIIS:  cpu time    3.5148: real time    3.5264
    ORTHCH:  cpu time    0.3157: real time    0.3175
       DOS:  cpu time    0.0017: real time    0.0017
    CHARGE:  cpu time    0.2442: real time    0.2450
    MIXING:  cpu time    0.0031: real time    0.0032
    --------------------------------------------
      LOOP:  cpu time    5.4129: real time    5.4329

 eigenvalue-minimisations  :  3681
 total energy-change (2. order) : 0.1964100E+00  (-0.3595279E-01)
 number of electron     503.9998357 magnetization 
 augmentation part      197.6524213 magnetization 

 DIPCOR: dipole corrections for dipol
 direction  3 min pos     1,
 dipolmoment           0.000000      0.000000     -0.023725 electrons x Angstroem
 Tr[quadrupol]    -10254.369811

 energy correction for charged system         0.000000 eV
 dipol+quadrupol energy correction           -0.000020 eV
 added-field ion interaction          0.003755 eV  (added to PSCEN)


 Broyden mixing:
  rms(total) = 0.53927E+00    rms(broyden)= 0.53919E+00
  rms(prec ) = 0.60958E+00
  weight for this iteration     100.00

 eigenvalues of (default mixing * dielectric matrix)
  average eigenvalue GAMMA=   0.6927
  2.2429  1.0842  1.0842  0.6450  0.4365  0.4365  0.2799  0.2799  0.2192  0.2192

 Free energy of the ion-electron system (eV)
  ---------------------------------------------------
  alpha Z        PSCENC =       805.87309965
  Ewald energy   TEWEN  =    200404.36494138
  -Hartree energ DENC   =   -242493.28751677
  -exchange      EXHF   =         0.00000000
  -V(xc)+E(xc)   XCENC  =      -344.06473200
  PAW double counting   =     49392.21695629   -47475.25168609
  entropy T*S    EENTRO =        -0.24231536
  eigenvalues    EBANDS =     -2137.91219903
  atomic energy  EATOM  =     41659.78587232
  Solvation  Ediel_sol  =         0.00000000
  ---------------------------------------------------
  free energy    TOTEN  =      -188.51757960 eV

  energy without entropy =     -188.27526424  energy(sigma->0) =     -188.39642192


--------------------------------------------------------------------------------------------------------




----------------------------------------- Iteration    1(  16)  ---------------------------------------


    POTLOK:  cpu time    0.0439: real time    0.0445
    SETDIJ:  cpu time    0.0057: real time    0.0057
    EDDIAG:  cpu time    1.2860: real time    1.2901
  RMM-DIIS:  cpu time    3.5514: real time    3.5604
    ORTHCH:  cpu time    0.3153: real time    0.3161
       DOS:  cpu time    0.0018: real time    0.0018
    CHARGE:  cpu time    0.2446: real time    0.2451
    MIXING:  cpu time    0.0031: real time    0.0031
    --------------------------------------------
      LOOP:  cpu time    5.4524: real time    5.4690

 eigenvalue-minimisations  :  3679
 total energy-change (2. order) : 0.1789825E+00  (-0.2119473E-01)
 number of electron     503.9998358 magnetization 
 augmentation part      197.5301436 magnetization 

 DIPCOR: dipole corrections for dipol
 direction  3 min pos     1,
 dipolmoment           0.000000      0.000000     -0.017108 electrons x Angstroem
 Tr[quadrupol]    -10254.730397

 energy correction for charged system         0.000000 eV
 dipol+quadrupol energy correction           -0.000010 eV
 added-field ion interaction          0.002708 eV  (added to PSCEN)


 Broyden mixing:
  rms(total) = 0.39018E+00    rms(broyden)= 0.39014E+00
  rms(prec ) = 0.44426E+00
  weight for this iteration     100.00

 eigenvalues of (default mixing * dielectric matrix)
  average eigenvalue GAMMA=   0.7097
  2.1445  1.3884  1.3884  0.5481  0.5481  0.4809  0.3001  0.3001  0.2807  0.2137
  0.2137

 Free energy of the ion-electron system (eV)
  ---------------------------------------------------
  alpha Z        PSCENC =       805.87206178
  Ewald energy   TEWEN  =    200404.36494138
  -Hartree energ DENC   =   -242511.59274215
  -exchange      EXHF   =         0.00000000
  -V(xc)+E(xc)   XCENC  =      -343.85634919
  PAW double counting   =     49390.22314711   -47471.58722969
  entropy T*S    EENTRO =        -0.24264572
  eigenvalues    EBANDS =     -2121.30565291
  atomic energy  EATOM  =     41659.78587232
  Solvation  Ediel_sol  =         0.00000000
  ---------------------------------------------------
  free energy    TOTEN  =      -188.33859707 eV

  energy without entropy =     -188.09595135  energy(sigma->0) =     -188.21727421


--------------------------------------------------------------------------------------------------------




----------------------------------------- Iteration    1(  17)  ---------------------------------------


    POTLOK:  cpu time    0.0423: real time    0.0427
    SETDIJ:  cpu time    0.0056: real time    0.0064
    EDDIAG:  cpu time    1.2817: real time    1.2849
  RMM-DIIS:  cpu time    3.5346: real time    3.5444
    ORTHCH:  cpu time    0.3161: real time    0.3169
       DOS:  cpu time    0.0018: real time    0.0018
    CHARGE:  cpu time    0.2472: real time    0.2478
    MIXING:  cpu time    0.0033: real time    0.0033
    --------------------------------------------
      LOOP:  cpu time    5.4333: real time    5.4516

 eigenvalue-minimisations  :  3680
 total energy-change (2. order) : 0.1422226E+00  (-0.1645513E-01)
 number of electron     503.9998360 magnetization 
 augmentation part      197.3637342 magnetization 

 DIPCOR: dipole corrections for dipol
 direction  3 min pos     1,
 dipolmoment           0.000000      0.000000     -0.019162 electrons x Angstroem
 Tr[quadrupol]    -10255.057849

 energy correction for charged system         0.000000 eV
 dipol+quadrupol energy correction           -0.000013 eV
 added-field ion interaction          0.003033 eV  (added to PSCEN)


 Broyden mixing:
  rms(total) = 0.25121E+00    rms(broyden)= 0.25118E+00
  rms(prec ) = 0.28670E+00
  weight for this iteration     100.00

 eigenvalues of (default mixing * dielectric matrix)
  average eigenvalue GAMMA=   0.7223
  1.9039  1.9039  1.4754  0.5879  0.5879  0.5650  0.3148  0.3148  0.2941  0.2941
  0.2130  0.2130

 Free energy of the ion-electron system (eV)
  ---------------------------------------------------
  alpha Z        PSCENC =       805.87238432
  Ewald energy   TEWEN  =    200404.36494138
  -Hartree energ DENC   =   -242530.26750420
  -exchange      EXHF   =         0.00000000
  -V(xc)+E(xc)   XCENC  =      -343.61404200
  PAW double counting   =     49389.49976013   -47469.09483879
  entropy T*S    EENTRO =        -0.24708296
  eigenvalues    EBANDS =     -2104.49586466
  atomic energy  EATOM  =     41659.78587232
  Solvation  Ediel_sol  =         0.00000000
  ---------------------------------------------------
  free energy    TOTEN  =      -188.19637445 eV

  energy without entropy =     -187.94929149  energy(sigma->0) =     -188.07283297


--------------------------------------------------------------------------------------------------------




----------------------------------------- Iteration    1(  18)  ---------------------------------------


    POTLOK:  cpu time    0.0432: real time    0.0434
    SETDIJ:  cpu time    0.0054: real time    0.0054
    EDDIAG:  cpu time    1.2720: real time    1.2753
  RMM-DIIS:  cpu time    3.5310: real time    3.5414
    ORTHCH:  cpu time    0.3159: real time    0.3168
       DOS:  cpu time    0.0018: real time    0.0018
    CHARGE:  cpu time    0.2438: real time    0.2443
    MIXING:  cpu time    0.0034: real time    0.0034
    --------------------------------------------
      LOOP:  cpu time    5.4171: real time    5.4340

 eigenvalue-minimisations  :  3680
 total energy-change (2. order) : 0.6173047E-01  (-0.9191405E-02)
 number of electron     503.9998362 magnetization 
 augmentation part      197.2383853 magnetization 

 DIPCOR: dipole corrections for dipol
 direction  3 min pos     1,
 dipolmoment           0.000000      0.000000     -0.020907 electrons x Angstroem
 Tr[quadrupol]    -10255.319073

 energy correction for charged system         0.000000 eV
 dipol+quadrupol energy correction           -0.000015 eV
 added-field ion interaction          0.003309 eV  (added to PSCEN)


 Broyden mixing:
  rms(total) = 0.13689E+00    rms(broyden)= 0.13683E+00
  rms(prec ) = 0.15418E+00
  weight for this iteration     100.00

 eigenvalues of (default mixing * dielectric matrix)
  average eigenvalue GAMMA=   0.7101
  2.0213  2.0213  1.4135  0.6132  0.6132  0.5800  0.3569  0.3569  0.2993  0.2993
  0.2309  0.2130  0.2130

 Free energy of the ion-electron system (eV)
  ---------------------------------------------------
  alpha Z        PSCENC =       805.87265800
  Ewald energy   TEWEN  =    200404.36494138
  -Hartree energ DENC   =   -242543.90487042
  -exchange      EXHF   =         0.00000000
  -V(xc)+E(xc)   XCENC  =      -343.44949863
  PAW double counting   =     49401.99201372   -47480.53439540
  entropy T*S    EENTRO =        -0.25190729
  eigenvalues    EBANDS =     -2092.00945767
  atomic energy  EATOM  =     41659.78587232
  Solvation  Ediel_sol  =         0.00000000
  ---------------------------------------------------
  free energy    TOTEN  =      -188.13464399 eV

  energy without entropy =     -187.88273669  energy(sigma->0) =     -188.00869034


--------------------------------------------------------------------------------------------------------




----------------------------------------- Iteration    1(  19)  ---------------------------------------


    POTLOK:  cpu time    0.0425: real time    0.0426
    SETDIJ:  cpu time    0.0053: real time    0.0055
    EDDIAG:  cpu time    1.2820: real time    1.2853
  RMM-DIIS:  cpu time    3.5067: real time    3.5162
    ORTHCH:  cpu time    0.3154: real time    0.3162
       DOS:  cpu time    0.0018: real time    0.0018
    CHARGE:  cpu time    0.2441: real time    0.2447
    MIXING:  cpu time    0.0036: real time    0.0036
    --------------------------------------------
      LOOP:  cpu time    5.4020: real time    5.4191

 eigenvalue-minimisations  :  3683
 total energy-change (2. order) : 0.2007953E-01  (-0.2170508E-02)
 number of electron     503.9998363 magnetization 
 augmentation part      197.1976585 magnetization 

 DIPCOR: dipole corrections for dipol
 direction  3 min pos     1,
 dipolmoment           0.000000      0.000000     -0.023946 electrons x Angstroem
 Tr[quadrupol]    -10255.454291

 energy correction for charged system         0.000000 eV
 dipol+quadrupol energy correction           -0.000020 eV
 added-field ion interaction          0.003790 eV  (added to PSCEN)


 Broyden mixing:
  rms(total) = 0.71311E-01    rms(broyden)= 0.71285E-01
  rms(prec ) = 0.79771E-01
  weight for this iteration     100.00

 eigenvalues of (default mixing * dielectric matrix)
  average eigenvalue GAMMA=   0.7033
  2.0579  2.0579  1.4169  0.6448  0.6448  0.5226  0.5226  0.4137  0.3056  0.3056
  0.2844  0.2444  0.2123  0.2123

 Free energy of the ion-electron system (eV)
  ---------------------------------------------------
  alpha Z        PSCENC =       805.87313421
  Ewald energy   TEWEN  =    200404.36494138
  -Hartree energ DENC   =   -242550.00256736
  -exchange      EXHF   =         0.00000000
  -V(xc)+E(xc)   XCENC  =      -343.39504717
  PAW double counting   =     49412.38768960   -47490.63559436
  entropy T*S    EENTRO =        -0.25243658
  eigenvalues    EBANDS =     -2086.24055649
  atomic energy  EATOM  =     41659.78587232
  Solvation  Ediel_sol  =         0.00000000
  ---------------------------------------------------
  free energy    TOTEN  =      -188.11456446 eV

  energy without entropy =     -187.86212787  energy(sigma->0) =     -187.98834617


--------------------------------------------------------------------------------------------------------




----------------------------------------- Iteration    1(  20)  ---------------------------------------


    POTLOK:  cpu time    0.0430: real time    0.0432
    SETDIJ:  cpu time    0.0056: real time    0.0056
    EDDIAG:  cpu time    1.2848: real time    1.2881
  RMM-DIIS:  cpu time    3.5399: real time    3.5492
    ORTHCH:  cpu time    0.3154: real time    0.3162
       DOS:  cpu time    0.0017: real time    0.0017
    CHARGE:  cpu time    0.2451: real time    0.2457
    MIXING:  cpu time    0.0038: real time    0.0038
    --------------------------------------------
      LOOP:  cpu time    5.4400: real time    5.4568

 eigenvalue-minimisations  :  3683
 total energy-change (2. order) : 0.3578025E-02  (-0.5244859E-03)
 number of electron     503.9998363 magnetization 
 augmentation part      197.1694533 magnetization 

 DIPCOR: dipole corrections for dipol
 direction  3 min pos     1,
 dipolmoment           0.000000      0.000000     -0.019904 electrons x Angstroem
 Tr[quadrupol]    -10255.550119

 energy correction for charged system         0.000000 eV
 dipol+quadrupol energy correction           -0.000014 eV
 added-field ion interaction          0.003150 eV  (added to PSCEN)


 Broyden mixing:
  rms(total) = 0.51386E-01    rms(broyden)= 0.51380E-01
  rms(prec ) = 0.56371E-01
  weight for this iteration     100.00

 eigenvalues of (default mixing * dielectric matrix)
  average eigenvalue GAMMA=   0.7318
  2.1420  2.1420  1.4028  0.8594  0.8594  0.6205  0.6205  0.4464  0.3078  0.3078
  0.3262  0.2878  0.2316  0.2113  0.2113

 Free energy of the ion-electron system (eV)
  ---------------------------------------------------
  alpha Z        PSCENC =       805.87250077
  Ewald energy   TEWEN  =    200404.36494138
  -Hartree energ DENC   =   -242554.07953530
  -exchange      EXHF   =         0.00000000
  -V(xc)+E(xc)   XCENC  =      -343.36646441
  PAW double counting   =     49417.26340144   -47495.36491102
  entropy T*S    EENTRO =        -0.25429971
  eigenvalues    EBANDS =     -2082.33249191
  atomic energy  EATOM  =     41659.78587232
  Solvation  Ediel_sol  =         0.00000000
  ---------------------------------------------------
  free energy    TOTEN  =      -188.11098643 eV

  energy without entropy =     -187.85668672  energy(sigma->0) =     -187.98383658


--------------------------------------------------------------------------------------------------------




----------------------------------------- Iteration    1(  21)  ---------------------------------------


    POTLOK:  cpu time    0.0436: real time    0.0437
    SETDIJ:  cpu time    0.0053: real time    0.0053
    EDDIAG:  cpu time    1.2783: real time    1.2813
  RMM-DIIS:  cpu time    3.5458: real time    3.5550
    ORTHCH:  cpu time    0.3154: real time    0.3164
       DOS:  cpu time    0.0018: real time    0.0018
    CHARGE:  cpu time    0.2465: real time    0.2471
    MIXING:  cpu time    0.0039: real time    0.0039
    --------------------------------------------
      LOOP:  cpu time    5.4414: real time    5.4576

 eigenvalue-minimisations  :  3679
 total energy-change (2. order) : 0.1728362E-02  (-0.5519458E-03)
 number of electron     503.9998363 magnetization 
 augmentation part      197.1266533 magnetization 

 DIPCOR: dipole corrections for dipol
 direction  3 min pos     1,
 dipolmoment           0.000000      0.000000     -0.014568 electrons x Angstroem
 Tr[quadrupol]    -10255.732365

 energy correction for charged system         0.000000 eV
 dipol+quadrupol energy correction           -0.000007 eV
 added-field ion interaction          0.002306 eV  (added to PSCEN)


 Broyden mixing:
  rms(total) = 0.41570E-01    rms(broyden)= 0.41564E-01
  rms(prec ) = 0.47141E-01
  weight for this iteration     100.00

 eigenvalues of (default mixing * dielectric matrix)
  average eigenvalue GAMMA=   0.7438
  2.3086  1.7901  1.7901  0.9612  0.9612  0.6174  0.6174  0.6177  0.3532  0.3532
  0.3042  0.3042  0.2661  0.2333  0.2116  0.2116

 Free energy of the ion-electron system (eV)
  ---------------------------------------------------
  alpha Z        PSCENC =       805.87166257
  Ewald energy   TEWEN  =    200404.36494138
  -Hartree energ DENC   =   -242561.74517240
  -exchange      EXHF   =         0.00000000
  -V(xc)+E(xc)   XCENC  =      -343.31762572
  PAW double counting   =     49423.63113013   -47501.48629908
  entropy T*S    EENTRO =        -0.25585432
  eigenvalues    EBANDS =     -2074.95791295
  atomic energy  EATOM  =     41659.78587232
  Solvation  Ediel_sol  =         0.00000000
  ---------------------------------------------------
  free energy    TOTEN  =      -188.10925807 eV

  energy without entropy =     -187.85340375  energy(sigma->0) =     -187.98133091


--------------------------------------------------------------------------------------------------------




----------------------------------------- Iteration    1(  22)  ---------------------------------------


    POTLOK:  cpu time    0.0426: real time    0.0427
    SETDIJ:  cpu time    0.0055: real time    0.0055
    EDDIAG:  cpu time    1.2603: real time    1.3562
  RMM-DIIS:  cpu time    3.4893: real time    3.5177
    ORTHCH:  cpu time    0.3164: real time    0.3172
       DOS:  cpu time    0.0018: real time    0.0018
    CHARGE:  cpu time    0.2405: real time    0.2411
    MIXING:  cpu time    0.0040: real time    0.0040
    --------------------------------------------
      LOOP:  cpu time    5.3610: real time    5.4893

 eigenvalue-minimisations  :  3679
 total energy-change (2. order) : 0.1166736E-02  (-0.1672897E-03)
 number of electron     503.9998363 magnetization 
 augmentation part      197.1199131 magnetization 

 DIPCOR: dipole corrections for dipol
 direction  3 min pos     1,
 dipolmoment           0.000000      0.000000     -0.013530 electrons x Angstroem
 Tr[quadrupol]    -10255.852243

 energy correction for charged system         0.000000 eV
 dipol+quadrupol energy correction           -0.000006 eV
 added-field ion interaction          0.002141 eV  (added to PSCEN)


 Broyden mixing:
  rms(total) = 0.26171E-01    rms(broyden)= 0.26168E-01
  rms(prec ) = 0.30179E-01
  weight for this iteration     100.00

 eigenvalues of (default mixing * dielectric matrix)
  average eigenvalue GAMMA=   0.7785
  2.4283  2.1013  2.1013  1.2020  0.7448  0.7448  0.6215  0.6215  0.4086  0.4086
  0.3052  0.3052  0.3097  0.2763  0.2115  0.2115  0.2325

 Free energy of the ion-electron system (eV)
  ---------------------------------------------------
  alpha Z        PSCENC =       805.87149929
  Ewald energy   TEWEN  =    200404.36494138
  -Hartree energ DENC   =   -242566.28064365
  -exchange      EXHF   =         0.00000000
  -V(xc)+E(xc)   XCENC  =      -343.29813146
  PAW double counting   =     49427.06076851   -47504.89074272
  entropy T*S    EENTRO =        -0.25496892
  eigenvalues    EBANDS =     -2070.46668609
  atomic energy  EATOM  =     41659.78587232
  Solvation  Ediel_sol  =         0.00000000
  ---------------------------------------------------
  free energy    TOTEN  =      -188.10809134 eV

  energy without entropy =     -187.85312242  energy(sigma->0) =     -187.98060688


--------------------------------------------------------------------------------------------------------




----------------------------------------- Iteration    1(  23)  ---------------------------------------


    POTLOK:  cpu time    0.0426: real time    0.0427
    SETDIJ:  cpu time    0.0056: real time    0.0056
    EDDIAG:  cpu time    1.2758: real time    1.2789
  RMM-DIIS:  cpu time    3.5148: real time    3.5252
    ORTHCH:  cpu time    0.3163: real time    0.3171
       DOS:  cpu time    0.0018: real time    0.0018
    CHARGE:  cpu time    0.2450: real time    0.2456
    MIXING:  cpu time    0.0043: real time    0.0043
    --------------------------------------------
      LOOP:  cpu time    5.4069: real time    5.4245

 eigenvalue-minimisations  :  3681
 total energy-change (2. order) : 0.5178603E-03  (-0.1371473E-03)
 number of electron     503.9998363 magnetization 
 augmentation part      197.1131938 magnetization 

 DIPCOR: dipole corrections for dipol
 direction  3 min pos     1,
 dipolmoment           0.000000      0.000000     -0.016735 electrons x Angstroem
 Tr[quadrupol]    -10256.008262

 energy correction for charged system         0.000000 eV
 dipol+quadrupol energy correction           -0.000010 eV
[...]
    275       1.7305      0.00000
    276       1.8372      0.00000
    277       2.0650      0.00000
    278       2.2213      0.00000
    279       2.3668      0.00000
    280       2.4047      0.00000
    281       2.4608      0.00000
    282       2.5546      0.00000
    283       2.7367      0.00000
    284       2.9642      0.00000
    285       3.1425      0.00000
    286       3.2971      0.00000
    287       3.4709      0.00000
    288       3.6320      0.00000
    289       3.7166      0.00000
    290       3.9097      0.00000
    291       4.1252      0.00000
    292       4.1914      0.00000
    293       4.4563      0.00000
    294       4.5176      0.00000
    295       4.6130      0.00000
    296       4.6301      0.00000
    297       4.6677      0.00000
    298       4.8022      0.00000
    299       4.8573      0.00000
    300       4.9247      0.00000
    301       4.9818      0.00000
    302       5.0308      0.00000
    303       5.0709      0.00000
    304       5.0987      0.00000
    305       5.1731      0.00000
    306       5.2365      0.00000


--------------------------------------------------------------------------------------------------------


 soft charge-density along one line, spin component           1
         0         1         2         3         4         5         6         7         8         9
 total charge-density along one line
 
 pseudopotential strength for first ion, spin component:           1
 -8.013  -0.003   0.006  -0.001   0.001  -8.160  -0.003   0.006
 -0.003  -7.933  -0.000  -0.003  -0.003  -0.003  -8.083  -0.000
  0.006  -0.000  -7.923   0.001  -0.005   0.006  -0.000  -8.073
 -0.001  -0.003   0.001  -7.926  -0.001  -0.001  -0.003   0.001
  0.001  -0.003  -0.005  -0.001  -8.012   0.001  -0.003  -0.005
 -8.160  -0.003   0.006  -0.001   0.001  -8.292  -0.003   0.005
 -0.003  -8.083  -0.000  -0.003  -0.003  -0.003  -8.216  -0.000
  0.006  -0.000  -8.073   0.001  -0.005   0.005  -0.000  -8.206
 -0.001  -0.003   0.001  -8.076  -0.001  -0.001  -0.003   0.001
  0.001  -0.003  -0.005  -0.001  -8.159   0.001  -0.003  -0.005
  0.003  -0.001  -0.027   0.001  -0.003   0.003  -0.001  -0.027
  0.004  -0.001  -0.039   0.002  -0.004   0.004  -0.001  -0.039
  0.001   0.004   0.003  -0.000   0.005   0.001   0.004   0.003
 -0.000  -0.005   0.006   0.001  -0.000  -0.000  -0.005   0.006
 -0.005  -0.000  -0.001   0.004   0.001  -0.005  -0.000  -0.001
  0.002   0.004   0.003  -0.000   0.005   0.002   0.003   0.003
 -0.000  -0.006   0.007   0.001  -0.000  -0.000  -0.006   0.006
 -0.006  -0.000  -0.001   0.004   0.001  -0.006  -0.000  -0.001
 total augmentation occupancy for first ion, spin component:           1
  4.373  -0.023  -0.099   0.050  -0.088  -2.565  -0.006   0.124  -0.063   0.104  -0.154   0.057  -0.047  -0.002   0.024   0.003
 -0.023   3.987   0.045   0.002   0.025  -0.006  -1.723  -0.045  -0.008  -0.056   0.011   0.024   0.142   0.004  -0.007  -0.004
 -0.099   0.045   4.303   0.028   0.203   0.124  -0.045  -2.183  -0.008  -0.206   1.055  -0.124  -0.008   0.198   0.009   0.002
  0.050   0.002   0.028   4.101   0.010  -0.062  -0.008  -0.008  -1.806  -0.011  -0.043   0.005  -0.010   0.002   0.181   0.000
 -0.088   0.025   0.203   0.010   4.058   0.104  -0.057  -0.206  -0.011  -2.254   0.185  -0.075   0.004   0.019   0.022   0.005
 -2.565  -0.006   0.124  -0.062   0.104   2.635   0.029  -0.143   0.072  -0.116   0.142  -0.056   0.038   0.005  -0.015  -0.002
 -0.006  -1.723  -0.045  -0.008  -0.057   0.029   1.434   0.044   0.013   0.080  -0.013  -0.019  -0.134   0.002   0.008   0.005
  0.124  -0.045  -2.183  -0.008  -0.206  -0.143   0.044   2.010  -0.007   0.207  -0.981   0.143   0.004  -0.200  -0.006  -0.000
 -0.063  -0.008  -0.008  -1.806  -0.011   0.072   0.013  -0.007   1.490   0.013   0.040  -0.006   0.011  -0.001  -0.170  -0.000
  0.104  -0.056  -0.206  -0.011  -2.254  -0.116   0.080   0.207   0.013   2.330  -0.164   0.072  -0.011  -0.018  -0.020  -0.000
 -0.154   0.011   1.055  -0.043   0.185   0.142  -0.013  -0.981   0.040  -0.164   2.372  -0.489   0.007  -0.112   0.004  -0.001
  0.057   0.024  -0.124   0.005  -0.075  -0.056  -0.019   0.143  -0.006   0.072  -0.489   0.144   0.012   0.052  -0.007  -0.000
 -0.047   0.142  -0.008  -0.010   0.004   0.038  -0.134   0.004   0.011  -0.011   0.007   0.012   0.193  -0.002   0.007  -0.006
 -0.002   0.004   0.198   0.002   0.019   0.005   0.002  -0.200  -0.001  -0.018  -0.112   0.052  -0.002   0.081   0.002   0.000
  0.024  -0.007   0.009   0.181   0.022  -0.015   0.008  -0.006  -0.170  -0.020   0.004  -0.007   0.007   0.002   0.179  -0.000
  0.003  -0.004   0.002   0.000   0.005  -0.002   0.005  -0.000  -0.000  -0.000  -0.001  -0.000  -0.006   0.000  -0.000   0.000
 -0.000  -0.006  -0.000   0.001  -0.000  -0.000   0.002   0.005  -0.000   0.000   0.007  -0.002  -0.000  -0.003  -0.000   0.000
 -0.006   0.000  -0.001  -0.004   0.000   0.001  -0.000   0.001   0.006   0.001  -0.000   0.000  -0.000  -0.000  -0.005   0.000


------------------------ aborting loop because EDIFF is reached ----------------------------------------


    CHARGE:  cpu time    0.2385: real time    0.2391
    FORLOC:  cpu time    0.0171: real time    0.0171
    FORNL :  cpu time    1.3577: real time    1.3608
    FORCOR:  cpu time    0.0584: real time    0.0585
    FORHAR:  cpu time    0.0254: real time    0.0254
    MIXING:  cpu time    0.0032: real time    0.0032
    OFIELD:  cpu time    0.0000: real time    0.0000

 VOLUME and BASIS-vectors are now :
 -----------------------------------------------------------------------------
  energy-cutoff  :      400.00
  volume of cell :     2567.68
      direct lattice vectors                 reciprocal lattice vectors
    11.002581515  0.000000000  0.000000000     0.090887761 -0.052474073  0.000000000
     5.501290758  9.528515099  0.000000000     0.000000000  0.104948147  0.000000000
     0.000000000  0.000000000 24.491785094     0.000000000  0.000000000  0.040830017

  length of vectors
    11.002581515 11.002581515 24.491785094     0.104948147  0.104948147  0.040830017


 FORCES acting on ions
    electron-ion (+dipol)            ewald-force                    non-local-force                 convergence-correction
 -----------------------------------------------------------------------------------------------
   0.136E+02 -.763E+01 -.232E+04   -.139E+02 0.858E+01 0.232E+04   0.273E+00 -.939E+00 0.299E-01   -.198E-03 0.107E-03 -.157E-02
   0.109E+01 -.273E+01 0.231E+04   -.821E+00 0.338E+01 -.231E+04   -.271E+00 -.648E+00 0.341E-03   0.116E-02 0.587E-03 -.275E-03
   -.616E+01 0.934E+01 -.223E+04   0.555E+01 -.972E+01 0.223E+04   0.612E+00 0.383E+00 0.933E-01   -.509E-03 -.375E-04 -.370E-03
   0.114E+02 -.196E+00 0.227E+04   -.122E+02 0.250E+00 -.227E+04   0.878E+00 -.533E-01 -.200E+00   0.168E-02 -.561E-03 -.122E-02
   0.114E+02 -.613E+01 0.230E+04   -.120E+02 0.621E+01 -.230E+04   0.688E+00 -.750E-01 0.970E-01   0.287E-02 -.334E-02 -.210E-03
   -.790E+01 0.299E+01 0.569E+02   0.694E+01 -.246E+01 -.565E+02   0.964E+00 -.531E+00 -.426E+00   0.553E-03 -.902E-03 -.164E-02
   -.266E+00 -.527E+01 0.235E+04   0.412E+00 0.516E+01 -.235E+04   -.149E+00 0.107E+00 0.786E-01   0.341E-02 -.190E-02 0.213E-03
   0.115E+01 0.157E+01 -.278E+02   -.626E+00 -.154E+01 0.279E+02   -.524E+00 -.316E-01 -.993E-01   -.171E-02 0.253E-02 -.354E-02
   0.335E+02 -.766E+01 0.226E+04   -.338E+02 0.802E+01 -.226E+04   0.279E+00 -.353E+00 -.223E+00   -.665E-03 0.199E-02 -.881E-03
   -.121E+02 0.211E+02 -.229E+04   0.123E+02 -.216E+02 0.229E+04   -.155E+00 0.530E+00 0.218E+00   -.757E-03 0.795E-03 -.113E-02
   0.415E+01 0.140E+01 -.689E+02   -.369E+01 -.174E+01 0.679E+02   -.465E+00 0.340E+00 0.101E+01   -.188E-02 0.138E-02 -.882E-03
   0.927E+01 0.368E+01 -.226E+04   -.916E+01 -.381E+01 0.226E+04   -.114E+00 0.116E+00 0.267E+00   0.426E-03 -.602E-04 -.178E-02
   0.354E+01 0.774E+01 -.102E+02   -.327E+01 -.796E+01 0.973E+01   -.271E+00 0.225E+00 0.517E+00   -.284E-04 0.873E-03 -.125E-02
   -.218E+01 0.152E+01 -.225E+04   0.265E+01 -.213E+01 0.225E+04   -.475E+00 0.608E+00 0.248E+00   -.332E-03 0.453E-03 -.227E-02
   -.113E+02 -.144E+02 -.221E+04   0.109E+02 0.155E+02 0.221E+04   0.427E+00 -.112E+01 0.286E+00   -.327E-03 -.428E-03 -.781E-03
   0.618E+01 0.494E-01 0.633E+02   -.594E+01 -.234E+00 -.623E+02   -.242E+00 0.175E+00 -.101E+01   0.241E-02 0.721E-03 -.325E-02
   0.878E+01 -.697E+01 -.225E+04   -.836E+01 0.671E+01 0.225E+04   -.409E+00 0.260E+00 -.653E-01   0.973E-03 -.971E-03 -.173E-02
   0.509E+01 0.895E+01 0.569E+02   -.554E+01 -.895E+01 -.563E+02   0.444E+00 0.278E-02 -.578E+00   0.204E-02 -.435E-03 -.220E-02
   -.312E+02 0.106E+02 0.228E+04   0.321E+02 -.108E+02 -.228E+04   -.863E+00 0.183E+00 0.126E+00   -.151E-02 0.607E-03 0.355E-03
   -.197E+02 0.172E+02 0.228E+04   0.205E+02 -.180E+02 -.228E+04   -.760E+00 0.759E+00 0.906E-01   -.133E-02 -.240E-02 0.648E-03
   -.550E+01 -.884E+01 0.445E+02   0.526E+01 0.921E+01 -.438E+02   0.235E+00 -.362E+00 -.644E+00   0.188E-02 -.243E-02 -.238E-02
   -.247E+01 -.690E+01 0.992E+00   0.275E+01 0.680E+01 -.164E+01   -.286E+00 0.987E-01 0.656E+00   -.129E-03 -.891E-03 -.400E-02
   0.353E+01 -.538E+01 0.643E+02   -.322E+01 0.525E+01 -.632E+02   -.301E+00 0.136E+00 -.107E+01   0.172E-02 -.243E-02 -.374E-02
   0.993E+00 -.103E+02 -.231E+04   -.139E+01 0.102E+02 0.231E+04   0.400E+00 0.149E+00 -.188E-01   -.110E-02 0.229E-03 -.186E-02
   -.476E+00 0.180E+02 -.197E+04   0.516E+00 -.182E+02 0.196E+04   -.398E-01 0.176E+00 0.171E+01   0.491E-03 -.318E-03 -.186E-02
   -.728E+01 -.233E+01 0.186E+01   0.701E+01 0.256E+01 -.227E+01   0.272E+00 -.232E+00 0.421E+00   0.245E-03 -.985E-03 -.550E-03
   -.358E+02 0.973E+01 0.198E+04   0.363E+02 -.948E+01 -.198E+04   -.493E+00 -.259E+00 -.139E+01   0.165E-02 0.429E-02 0.487E-03
   -.330E+01 -.135E+01 -.196E+04   0.327E+01 0.145E+01 0.196E+04   0.321E-01 -.104E+00 0.168E+01   0.122E-02 0.297E-03 -.233E-02
   0.166E+02 0.396E+00 -.197E+04   -.169E+02 -.623E+00 0.197E+04   0.266E+00 0.224E+00 0.123E+01   0.906E-03 -.144E-02 -.206E-02
   0.267E+02 -.134E+02 -.199E+04   -.267E+02 0.133E+02 0.199E+04   -.607E-01 0.145E-01 0.151E+01   0.142E-02 -.586E-03 -.274E-02
   -.184E+02 -.259E+01 -.201E+04   0.186E+02 0.276E+01 0.200E+04   -.237E+00 -.165E+00 0.157E+01   -.831E-03 -.338E-03 0.191E-03
   -.105E+02 0.186E+01 0.121E+02   0.102E+02 -.199E+01 -.121E+02   0.284E+00 0.125E+00 0.679E-01   -.550E-03 0.788E-03 -.153E-02
   -.144E+02 0.786E+00 0.194E+04   0.147E+02 -.103E+01 -.194E+04   -.251E+00 0.233E+00 -.186E+01   -.323E-02 -.561E-03 0.129E-02
   -.141E+02 0.210E+02 -.198E+04   0.140E+02 -.212E+02 0.198E+04   0.102E+00 0.185E+00 0.176E+01   -.586E-03 0.104E-02 -.141E-02
   0.273E+01 -.679E+01 -.442E+02   -.295E+01 0.626E+01 0.433E+02   0.212E+00 0.532E+00 0.857E+00   -.151E-02 0.322E-03 0.446E-03
   0.207E+02 -.219E+02 0.199E+04   -.211E+02 0.222E+02 -.198E+04   0.381E+00 -.299E+00 -.175E+01   0.103E-02 -.172E-02 -.265E-03
   -.254E+02 0.836E+00 -.198E+04   0.257E+02 -.786E+00 0.198E+04   -.237E+00 -.516E-01 0.176E+01   -.101E-02 0.294E-03 -.160E-02
   0.506E+01 -.233E+01 -.173E+02   -.472E+01 0.259E+01 0.169E+02   -.341E+00 -.259E+00 0.403E+00   -.218E-02 -.860E-04 -.152E-02
   0.211E+02 -.186E+02 0.200E+04   -.214E+02 0.190E+02 -.199E+04   0.307E+00 -.392E+00 -.173E+01   0.215E-03 -.193E-02 -.327E-03
   -.139E+01 0.125E+02 0.589E+02   0.111E+01 -.121E+02 -.584E+02   0.280E+00 -.369E+00 -.468E+00   -.158E-03 0.825E-03 -.184E-02
   -.361E+01 0.179E+01 -.535E+02   0.340E+01 -.169E+01 0.525E+02   0.218E+00 -.106E+00 0.964E+00   -.902E-03 0.159E-02 -.451E-02
   0.439E+01 0.638E+01 0.196E+04   -.497E+01 -.611E+01 -.196E+04   0.577E+00 -.269E+00 -.168E+01   -.174E-02 0.452E-02 0.485E-03
   0.159E+02 -.196E+02 -.197E+04   -.157E+02 0.198E+02 0.196E+04   -.196E+00 -.255E+00 0.124E+01   0.206E-02 -.276E-03 -.214E-02
   -.224E-01 0.554E+01 0.198E+04   0.131E+00 -.535E+01 -.198E+04   -.102E+00 -.192E+00 -.171E+01   -.347E-02 -.961E-03 0.755E-03
   -.121E+02 0.282E+00 0.197E+04   0.123E+02 -.510E+00 -.196E+04   -.193E+00 0.225E+00 -.184E+01   -.102E-02 0.268E-02 0.984E-03
   0.114E+02 -.732E+01 -.130E+02   -.107E+02 0.692E+01 0.125E+02   -.730E+00 0.399E+00 0.463E+00   -.762E-03 -.104E-02 -.202E-02
   0.273E+02 -.107E+02 0.195E+04   -.275E+02 0.103E+02 -.195E+04   0.194E+00 0.382E+00 -.168E+01   0.574E-03 0.108E-02 -.636E-03
   -.200E+02 0.239E+02 0.199E+04   0.201E+02 -.244E+02 -.198E+04   -.891E-01 0.576E+00 -.143E+01   -.692E-04 -.149E-02 0.525E-03
 -----------------------------------------------------------------------------------------------
   -.651E-01 -.825E-01 0.618E+00   0.355E-12 0.437E-12 0.546E-11   0.705E-01 0.784E-01 -.515E+00   0.425E-03 -.516E-03 -.579E-01
 
 
 POSITION                                       TOTAL-FORCE (eV/Angst)
 -----------------------------------------------------------------------------------
      6.85893      7.17067     14.87836         0.006067      0.006013     -0.005117
     13.75423      7.96388      9.60547         0.000154     -0.001875      0.007157
     10.98971      4.75383     14.73787        -0.004218     -0.000021      0.005807
     12.35465      5.56436      9.66207         0.003984     -0.000020     -0.003350
     10.97097      3.18079      9.63233        -0.003436     -0.000093      0.003280
      8.22639      1.60161     12.19665         0.002302      0.000400     -0.001212
      9.62170      0.80358      9.56663        -0.000289      0.003500      0.001598
      9.65327      8.72923     12.28542        -0.001787     -0.002873     -0.001404
     10.96920      7.95770      9.72821        -0.004600      0.006473     -0.003744
      8.25547      4.73553     14.82666         0.005237      0.001753     -0.004008
      8.27240      6.33352     12.32339        -0.002759      0.008340     -0.001914
      5.50934      4.75605     14.79926        -0.001411     -0.008138     -0.007772
      5.51800      6.34129     12.26212        -0.005734      0.002193      0.003916
      4.14306      2.35762     14.77387         0.000792      0.006254      0.002798
     12.36926      7.18059     14.68798         0.002703      0.003794      0.001762
     15.13134      8.74054     12.19253        -0.001370     -0.008751      0.004129
      2.75137      4.76175     14.77063         0.008185      0.000933     -0.015452
     13.75023      6.35366     12.19679        -0.004135      0.001725     -0.007076
      4.17090      5.55187      9.67140        -0.002506      0.005727     -0.007508
      2.77340      3.15243      9.67678        -0.003988     -0.001191     -0.004289
     12.37520      3.97655     12.21090        -0.008831      0.002964     -0.007590
      2.77082      1.58382     12.24677        -0.003310      0.000812      0.006221
     11.00119      1.58406     12.19352         0.004554      0.004420      0.002445
      2.73971      0.00041     14.86037        -0.001119     -0.012244      0.004260
      9.62776      2.35862     14.58265        -0.000057      0.005422      0.003440
      9.62269      3.97516     12.25125        -0.000342     -0.000975      0.003485
      5.51909      7.94960      9.85653        -0.002210     -0.000680      0.002488
      8.25392      0.00769     14.55712         0.001296     -0.003759      0.007668
      1.35928      2.36785     14.61585        -0.002901     -0.004250     -0.003786
     -0.01553      0.01016     14.63325         0.004617     -0.004664     -0.000527
      9.62786      7.15381     14.69487        -0.003456      0.003549     -0.008518
     11.01000      6.34849     12.23905         0.005645     -0.002029      0.002317
      5.51014      3.17561      9.94122         0.007830     -0.008088      0.006712
      6.89343      2.34728     14.61927         0.001293      0.003751      0.001360
      6.88022      3.96001     12.30448        -0.001861     -0.004596      0.004844
      8.22501      3.19546      9.87239         0.002706      0.001850      0.005523
      5.51113     -0.00245     14.63298        -0.002861     -0.001118     -0.005890
      5.50778      1.59667     12.27338         0.000441      0.002173      0.001800
      6.85542      0.82317      9.84317        -0.002779      0.000083      0.007690
     12.36930      8.73705     12.18392         0.002555     -0.004103      0.008656
      6.88964      8.72756     12.31243         0.001091     -0.001068     -0.002000
      8.22104      7.94736      9.93405        -0.001933     -0.000269      0.004447
      4.12133      7.16627     14.61087         0.003838      0.001248     -0.002905
      4.13029      0.79976      9.88850         0.003104      0.000419     -0.003966
      6.89656      5.55572      9.93080         0.001157     -0.000140      0.000382
      4.15530      3.95976     12.27201         0.000520     -0.001591     -0.008525
      9.60171      5.55601      9.91459        -0.004595     -0.001825     -0.000146
      1.38106      0.77537      9.85224         0.002414      0.000568      0.002516
 -----------------------------------------------------------------------------------
    total drift:                                0.005856     -0.004649      0.045330


--------------------------------------------------------------------------------------------------------



  FREE ENERGIE OF THE ION-ELECTRON SYSTEM (eV)
  ---------------------------------------------------
  free  energy   TOTEN  =      -191.94276823 eV

  energy  without entropy=     -191.69334914  energy(sigma->0) =     -191.81805869
 
 d Force = 0.3348638E-03[ 0.864E-04, 0.583E-03]  d Energy = 0.3666796E-03-0.318E-04
 d Force =-0.1190646E+02[-0.119E+02,-0.119E+02]  d Ewald  =-0.1190646E+02 0.559E-06


--------------------------------------------------------------------------------------------------------


    POTLOK:  cpu time    0.0492: real time    0.0493


--------------------------------------------------------------------------------------------------------


 stress matrix after NEB project (eV)
      0.00000      0.00000      0.00000
      0.00000      0.00000      0.00000
      0.00000      0.00000      0.00000
  FORCES: max atom, RMS     0.017511    0.007659
  FORCE total and by dimension    0.053066    0.015452
  Stress total and by dimension    0.000000    0.000000
 Conjugate gradient step on ions:
 trial-energy change:   -0.000367  1 .order   -0.000335   -0.000583   -0.000086
  (g-gl).g = 0.178E-03      g.g   = 0.196E-03  gl.gl    = 0.315E-03
 g(Force)  = 0.196E-03   g(Stress)= 0.000E+00 ortho     = 0.162E-04
 gamma     =   0.56466
 trial     =   2.83856
 opt step  =   3.18366  (harmonic =   3.33236) maximal distance =0.00433636
 next E    =  -191.942774   (d E  =  -0.00037)


--------------------------------------------------------------------------------------------------------


  
 reached required accuracy - stopping structural energy minimisation
     LOOP+:  cpu time   64.2447: real time   64.6576
    4ORBIT:  cpu time    0.0000: real time    0.0000

 total amount of memory used by VASP on root node    84353. kBytes
========================================================================

   base      :      30000. kBytes
   nonlr-proj:       4285. kBytes
   fftplans  :       4447. kBytes
   grid      :       6721. kBytes
   one-center:        124. kBytes
   wavefun   :      38776. kBytes
 
  
  
 General timing and accounting informations for this job:
 ========================================================
  
                  Total CPU time used (sec):     2416.485
                            User time (sec):     2296.516
                          System time (sec):      119.969
                         Elapsed time (sec):     2432.397
  
                   Maximum memory used (kb):     1174148.
                   Average memory used (kb):           0.
  
                          Minor page faults:      1255139
                          Major page faults:            0
                 Voluntary context switches:        14528
