unknown system                          
           1
    11.002582    0.000000    0.000000
     5.501291    9.528515    0.000000
     0.000000    0.000000   24.491785
   Au   Pd
  24  24
Direct configuration=     1
   0.25000000  0.75000000  0.59169983
   0.83333333  0.83333333  0.40830017
   0.75000000  0.50000000  0.59169983
   0.83333333  0.58333333  0.40830017
   0.83333333  0.33333333  0.40830017
   0.66666667  0.16666667  0.50000000
   0.83333333  0.08333333  0.40830017
   0.41666667  0.91666667  0.50000000
   0.58333333  0.83333333  0.40830017
   0.50000000  0.50000000  0.59169983
   0.41666667  0.66666667  0.50000000
   0.25000000  0.50000000  0.59169983
   0.16666667  0.66666667  0.50000000
   0.25000000  0.25000000  0.59169983
   0.75000000  0.75000000  0.59169983
   0.91666667  0.91666667  0.50000000
   0.00000000  0.50000000  0.59169983
   0.91666667  0.66666667  0.50000000
   0.08333333  0.58333333  0.40830017
   0.08333333  0.33333333  0.40830017
   0.91666667  0.41666667  0.50000000
   0.16666667  0.16666667  0.50000000
   0.91666667  0.16666667  0.50000000
   0.25000000  0.00000000  0.59169983
   0.75000000  0.25000000  0.59169983
   0.66666667  0.41666667  0.50000000
   0.08333333  0.83333333  0.40830017
   0.75000000  0.00000000  0.59169983
   0.00000000  0.25000000  0.59169983
   0.00000000  0.00000000  0.59169983
   0.50000000  0.75000000  0.59169983
   0.66666667  0.66666667  0.50000000
   0.33333333  0.33333333  0.40830017
   0.50000000  0.25000000  0.59169983
   0.41666667  0.41666667  0.50000000
   0.58333333  0.33333333  0.40830017
   0.50000000  0.00000000  0.59169983
   0.41666667  0.16666667  0.50000000
   0.58333333  0.08333333  0.40830017
   0.66666667  0.91666667  0.50000000
   0.16666667  0.91666667  0.50000000
   0.33333333  0.83333333  0.40830017
   0.00000000  0.75000000  0.59169983
   0.33333333  0.08333333  0.40830017
   0.33333333  0.58333333  0.40830017
   0.16666667  0.41666667  0.50000000
   0.58333333  0.58333333  0.40830017
   0.08333333  0.08333333  0.40830017
Direct configuration=     2
   0.24892091  0.75139040  0.59395694
   0.83269717  0.83441633  0.40598308
   0.74940960  0.49958603  0.59362316
   0.83189123  0.58362088  0.40604160
   0.83193260  0.33368204  0.40602088
   0.66406274  0.16787533  0.50039778
   0.83331755  0.08335936  0.40574306
   0.41762615  0.91663515  0.49989286
   0.58242283  0.83394725  0.40646369
   0.50102743  0.49880193  0.59358401
   0.41791829  0.66609179  0.49916246
   0.25042446  0.49934691  0.59362796
   0.16731531  0.66664359  0.49957309
   0.25115679  0.24945442  0.59357654
   0.74865007  0.75177550  0.59355170
   0.91729509  0.91656552  0.50077281
   0.00044507  0.49977483  0.59393048
   0.91616052  0.66732682  0.50044761
   0.08539759  0.58265666  0.40606102
   0.08527683  0.33199752  0.40605608
   0.91607802  0.41654931  0.50040385
   0.16740450  0.16599856  0.49960801
   0.91734886  0.16610522  0.50075337
   0.24972156 -0.00029733  0.59390924
   0.75018333  0.24953423  0.59278935
   0.66552663  0.41711080  0.49980587
   0.08433545  0.83349210  0.40707614
   0.74976698  0.00031019  0.59275350
  -0.00056161  0.24952351  0.59310173
  -0.00041095  0.00023893  0.59287186
   0.50038910  0.75041090  0.59296857
   0.66563950  0.66681089  0.50000471
   0.33414826  0.33278166  0.40758292
   0.50059591  0.24914558  0.59245668
   0.41717821  0.41538529  0.49943771
   0.58222138  0.33411014  0.40738371
   0.50056716  0.00009225  0.59265437
   0.41733486  0.16704214  0.49974325
   0.58211977  0.08429566  0.40737585
   0.66535169  0.91786460  0.50033636
   0.16627889  0.91683983  0.49951763
   0.33234004  0.83356559  0.40718484
  -0.00057640  0.75100672  0.59308436
   0.33354643  0.08364776  0.40719861
   0.33408181  0.58288562  0.40728776
   0.16878760  0.41564219  0.49977624
   0.58281184  0.58283892  0.40740015
   0.08444294  0.08212048  0.40706653
Direct configuration=     3
   0.24568364  0.75556161  0.60072826
   0.83078868  0.83766533  0.39903182
   0.74763841  0.49834412  0.59939317
   0.82756494  0.58448353  0.39926589
   0.82773040  0.33472817  0.39918301
   0.65625098  0.17150131  0.50159110
   0.83327020  0.08343743  0.39807172
   0.42050461  0.91654058  0.49957143
   0.57969131  0.83578900  0.40095425
   0.50410974  0.49520772  0.59923655
   0.42167315  0.66436718  0.49664986
   0.25169782  0.49738765  0.59941236
   0.16926126  0.66657436  0.49829237
   0.25462715  0.24781770  0.59920668
   0.74460027  0.75710199  0.59910732
   0.91918038  0.91626207  0.50309123
   0.00178028  0.49909931  0.60062245
   0.91464210  0.66930726  0.50179044
   0.09159038  0.58062664  0.39934358
   0.09110731  0.32799008  0.39932383
   0.91431209  0.41619725  0.50161540
   0.16961800  0.16399423  0.49843203
   0.91939544  0.16442089  0.50301347
   0.24888624 -0.00118931  0.60053749
   0.75073331  0.24813694  0.59605791
   0.66210652  0.41844319  0.49922349
   0.08734180  0.83396839  0.40340404
   0.74906790  0.00124076  0.59591452
  -0.00224644  0.24809405  0.59730741
  -0.00164381  0.00095570  0.59638796
   0.50155639  0.75164360  0.59677477
   0.66255802  0.66724354  0.50001884
   0.33659302  0.33112663  0.40543115
   0.50238365  0.24658233  0.59472723
   0.41871285  0.41154117  0.49775085
   0.57888552  0.33644056  0.40463434
   0.50226863  0.00036901  0.59551798
   0.41933943  0.16816854  0.49897298
   0.57847908  0.08718265  0.40460289
   0.66140676  0.92145839  0.50134545
   0.16511554  0.91735931  0.49807052
   0.32936016  0.83426237  0.40383886
  -0.00230559  0.75402688  0.59723796
   0.33418571  0.08459105  0.40389394
   0.33632725  0.58154246  0.40425055
   0.17515039  0.41256877  0.49910494
   0.58124736  0.58135568  0.40470009
   0.08777176  0.07848192  0.40336561
Direct configuration=     4
   0.24723689  0.75332107  0.60192398
   0.83185284  0.83662200  0.39786321
   0.74849688  0.49911743  0.60085632
   0.82962645  0.58398356  0.39813669
   0.82967263  0.33323272  0.39784174
   0.66258980  0.16892825  0.50085072
   0.83301530  0.08399021  0.39682080
   0.41869272  0.91711484  0.49982016
   0.57928314  0.83580322  0.39943772
   0.50155960  0.49680286  0.60039023
   0.41871945  0.66550442  0.49791582
   0.25213916  0.49900913  0.60050579
   0.17025042  0.66521988  0.49884152
   0.25409377  0.24649057  0.60037526
   0.74602957  0.75531889  0.60057389
   0.91652827  0.91761199  0.50214263
   0.00087436  0.49943371  0.60204613
   0.91454277  0.66803812  0.50131642
   0.08948370  0.58138816  0.39778973
   0.08852154  0.32956338  0.39777891
   0.91495868  0.41713911  0.50119243
   0.16989972  0.16498131  0.49888070
   0.91672485  0.16579482  0.50198822
   0.24914310 -0.00009335  0.60190559
   0.75082504  0.24737828  0.59698727
   0.66413770  0.41667296  0.49947397
   0.08591863  0.83385378  0.40232834
   0.74922751  0.00192470  0.59704328
  -0.00111537  0.24831121  0.59851288
  -0.00192697  0.00129969  0.59800608
   0.50025240  0.75149104  0.59752007
   0.66552291  0.66667527  0.50009377
   0.33672422  0.33115210  0.40408797
   0.50228405  0.24676864  0.59603863
   0.41644836  0.41534606  0.49852253
   0.57974634  0.33508833  0.40347416
   0.50064517  0.00126880  0.59651679
   0.41634656  0.16754033  0.49932750
   0.57960770  0.08694210  0.40366854
   0.66395573  0.91967983  0.50080323
   0.16785044  0.91597198  0.49868779
   0.33009622  0.83430938  0.40266294
  -0.00181529  0.75292524  0.59844141
   0.33489667  0.08347545  0.40281194
   0.33638305  0.58174798  0.40290192
   0.17270615  0.41368062  0.49936559
   0.58105333  0.58207669  0.40321141
   0.08629383  0.08010322  0.40231737
Direct configuration=     5
   0.24782609  0.75247117  0.60237756
   0.83225651  0.83622623  0.39741992
   0.74882253  0.49941078  0.60141135
   0.83040845  0.58379390  0.39770834
   0.83040939  0.33266544  0.39733295
   0.66499433  0.16795220  0.50056987
   0.83291860  0.08419990  0.39634628
   0.41800541  0.91733268  0.49991451
   0.57912831  0.83580862  0.39886246
   0.50059224  0.49740796  0.60082786
   0.41759902  0.66593581  0.49839604
   0.25230658  0.49962421  0.60092057
   0.17062565  0.66470608  0.49904983
   0.25389144  0.24598715  0.60081854
   0.74657175  0.75464249  0.60113021
   0.91552224  0.91812406  0.50178279
   0.00053071  0.49956056  0.60258618
   0.91450509  0.66755670  0.50113661
   0.08868456  0.58167702  0.39720030
   0.08754068  0.33016019  0.39719287
   0.91520396  0.41749639  0.50103199
   0.17000659  0.16535575  0.49905089
   0.91571181  0.16631599  0.50159930
   0.24924053  0.00032239  0.60242455
   0.75085984  0.24709049  0.59733981
   0.66490820  0.41600145  0.49956899
   0.08537877  0.83381030  0.40192030
   0.74928806  0.00218414  0.59747146
  -0.00068631  0.24839359  0.59897015
  -0.00203439  0.00143018  0.59861988
   0.49975775  0.75143317  0.59780278
   0.66664760  0.66645970  0.50012219
   0.33677399  0.33116176  0.40357845
   0.50224626  0.24683931  0.59653608
   0.41558936  0.41678939  0.49881526
   0.58007288  0.33457539  0.40303406
   0.50002934  0.00161012  0.59689568
   0.41521127  0.16730203  0.49946197
   0.58003582  0.08685086  0.40331412
   0.66492263  0.91900516  0.50059755
   0.16888788  0.91544572  0.49892194
   0.33037544  0.83432722  0.40221687
  -0.00162930  0.75250735  0.59889792
   0.33516637  0.08305226  0.40240150
   0.33640422  0.58182594  0.40239034
   0.17177896  0.41410238  0.49946446
   0.58097972  0.58235020  0.40264670
   0.08573320  0.08071823  0.40191974
Direct configuration=     6
   0.24794258  0.75258142  0.60288084
   0.83266532  0.83548219  0.39704157
   0.74879282  0.49944141  0.60190792
   0.83129748  0.58359934  0.39735566
   0.83127732  0.33269519  0.39685334
   0.66400299  0.16820059  0.50005073
   0.83301884  0.08392420  0.39574182
   0.41871687  0.91623817  0.50005461
   0.57986530  0.83514029  0.39834167
   0.50094258  0.49786729  0.60121363
   0.41871660  0.66575862  0.49908279
   0.25141812  0.49944341  0.60132755
   0.16807199  0.66567805  0.49930477
   0.25273696  0.24740042  0.60131061
   0.74693081  0.75420498  0.60163979
   0.91685935  0.91661294  0.50118616
   0.00089020  0.49946395  0.60307320
   0.91580189  0.66701599  0.50081834
   0.08755321  0.58218707  0.39668861
   0.08647077  0.33072525  0.39665681
   0.91610359  0.41698097  0.50073843
   0.16766294  0.16655413  0.49923240
   0.91715074  0.16646892  0.50095073
   0.24903618 -0.00003220  0.60302771
   0.75063733  0.24776093  0.59772790
   0.66513005  0.41680270  0.49973779
   0.08468343  0.83375940  0.40179709
   0.74928883  0.00185372  0.59788397
  -0.00049115  0.24866769  0.59911927
  -0.00143787  0.00108874  0.59903478
   0.49932349  0.75127234  0.59788707
   0.66669378  0.66648262  0.50007051
   0.33617050  0.33151537  0.40315646
   0.50215565  0.24702530  0.59673288
   0.41649785  0.41600243  0.49934536
   0.58060296  0.33411464  0.40272698
   0.50031545  0.00094925  0.59719778
   0.41609258  0.16768092  0.49970906
   0.58093056  0.08625995  0.40313777
   0.66533276  0.91811806  0.50025442
   0.16817470  0.91596141  0.49950654
   0.33069625  0.83417593  0.40182279
  -0.00138086  0.75206327  0.59901393
   0.33457657  0.08317945  0.40197506
   0.33595696  0.58222888  0.40186952
   0.16975235  0.41526948  0.49963797
   0.58125565  0.58266136  0.40237955
   0.08511675  0.08147357  0.40179585
Direct configuration=     7
   0.24795748  0.75259553  0.60294524
   0.83271763  0.83538698  0.39699315
   0.74878902  0.49944533  0.60197147
   0.83141124  0.58357445  0.39731053
   0.83138838  0.33269900  0.39679197
   0.66387615  0.16823237  0.49998430
   0.83303166  0.08388892  0.39566448
   0.41880791  0.91609812  0.50007254
   0.57995960  0.83505477  0.39827503
   0.50098740  0.49792607  0.60126299
   0.41885960  0.66573595  0.49917067
   0.25130443  0.49942027  0.60137962
   0.16774523  0.66580242  0.49933739
   0.25258924  0.24758126  0.60137358
   0.74697676  0.75414900  0.60170500
   0.91703044  0.91641959  0.50110982
   0.00093620  0.49945159  0.60313552
   0.91596783  0.66694681  0.50077762
   0.08740845  0.58225233  0.39662313
   0.08633387  0.33079755  0.39658821
   0.91621870  0.41691502  0.50070087
   0.16736306  0.16670747  0.49925562
   0.91733486  0.16648849  0.50086774
   0.24901003 -0.00007757  0.60310489
   0.75060886  0.24784672  0.59777756
   0.66515843  0.41690522  0.49975939
   0.08459446  0.83375289  0.40178132
   0.74928893  0.00181144  0.59793676
  -0.00046617  0.24870277  0.59913835
  -0.00136155  0.00104505  0.59908786
   0.49926793  0.75125176  0.59789785
   0.66669969  0.66648555  0.50006390
   0.33609329  0.33156062  0.40310247
   0.50214405  0.24704910  0.59675807
   0.41661410  0.41590173  0.49941319
   0.58067078  0.33405568  0.40268769
   0.50035206  0.00086468  0.59723644
   0.41620534  0.16772940  0.49974067
   0.58104504  0.08618434  0.40311520
   0.66538524  0.91800455  0.50021051
   0.16808344  0.91602739  0.49958134
   0.33073730  0.83415657  0.40177236
  -0.00134907  0.75200645  0.59902877
   0.33450110  0.08319572  0.40192049
   0.33589973  0.58228044  0.40180288
   0.16949303  0.41541882  0.49966017
   0.58129096  0.58270117  0.40234536
   0.08503787  0.08157022  0.40178000
Direct configuration=     8
   0.24769769  0.75262980  0.60324347
   0.83258417  0.83530219  0.39675291
   0.74893959  0.49937160  0.60213929
   0.83137621  0.58357477  0.39713430
   0.83111045  0.33315054  0.39653467
   0.66362028  0.16824247  0.49987082
   0.83316594  0.08366118  0.39528494
   0.41873833  0.91652060  0.50001429
   0.58034195  0.83482409  0.39806962
   0.50125937  0.49787585  0.60147365
   0.41893428  0.66527291  0.49927618
   0.25111095  0.49922317  0.60156879
   0.16796894  0.66577887  0.49933205
   0.25243153  0.24794973  0.60156101
   0.74703655  0.75405902  0.60181883
   0.91719410  0.91675163  0.50094916
   0.00069848  0.49962025  0.60336883
   0.91590267  0.66677397  0.50068137
   0.08752900  0.58218188  0.39635272
   0.08659004  0.33073463  0.39630713
   0.91581021  0.41734859  0.50061136
   0.16784411  0.16645300  0.49927788
   0.91734532  0.16609376  0.50067886
   0.24899264 -0.00007350  0.60344546
   0.75076646  0.24805081  0.59770908
   0.66543426  0.41732775  0.49982796
   0.08468457  0.83379662  0.40187729
   0.74945358  0.00152930  0.59783336
  -0.00076180  0.24885197  0.59906289
  -0.00144972  0.00101599  0.59900561
   0.49944193  0.75122632  0.59794425
   0.66710596  0.66624024  0.50000911
   0.33550142  0.33189515  0.40315011
   0.50220042  0.24710561  0.59671874
   0.41666766  0.41572268  0.49960926
   0.58077181  0.33428231  0.40267687
   0.50051113  0.00045660  0.59726273
   0.41626226  0.16798454  0.49983874
   0.58114209  0.08577955  0.40309288
   0.66551283  0.91753994  0.50008785
   0.16778600  0.91612481  0.49990368
   0.33059759  0.83409739  0.40184966
  -0.00143748  0.75214469  0.59893926
   0.33398056  0.08353949  0.40196648
   0.33558520  0.58251096  0.40190921
   0.16937584  0.41548548  0.49965897
   0.58151501  0.58258059  0.40248044
   0.08512960  0.08139023  0.40183799
Direct configuration=     9
   0.24744199  0.75266353  0.60353698
   0.83245282  0.83521874  0.39651645
   0.74908778  0.49929902  0.60230446
   0.83134174  0.58357508  0.39696084
   0.83083691  0.33359496  0.39628143
   0.66336845  0.16825241  0.49975913
   0.83329810  0.08343703  0.39491140
   0.41866984  0.91693640  0.49995695
   0.58071825  0.83459704  0.39786745
   0.50152704  0.49782643  0.60168098
   0.41900779  0.66481717  0.49938002
   0.25092051  0.49902918  0.60175497
   0.16818912  0.66575569  0.49932679
   0.25227632  0.24831238  0.60174549
   0.74709540  0.75397047  0.60193087
   0.91735517  0.91707842  0.50079104
   0.00046451  0.49978626  0.60359846
   0.91583854  0.66660385  0.50058664
   0.08764765  0.58211254  0.39608658
   0.08684217  0.33067271  0.39603049
   0.91540817  0.41777531  0.50052326
   0.16831757  0.16620256  0.49929978
   0.91735561  0.16570526  0.50049296
   0.24897553 -0.00006949  0.60378067
   0.75092157  0.24825168  0.59764167
   0.66570573  0.41774360  0.49989546
   0.08477326  0.83383967  0.40197174
   0.74961563  0.00125162  0.59773159
  -0.00105276  0.24899882  0.59898861
  -0.00153651  0.00098738  0.59892465
   0.49961318  0.75120127  0.59798992
   0.66750582  0.66599881  0.49995518
   0.33491889  0.33222440  0.40319701
   0.50225590  0.24716123  0.59668003
   0.41672039  0.41554644  0.49980224
   0.58087125  0.33450537  0.40266623
   0.50066768  0.00005497  0.59728860
   0.41631828  0.16823565  0.49993527
   0.58123760  0.08538115  0.40307090
   0.66563841  0.91708266  0.49996712
   0.16749325  0.91622069  0.50022092
   0.33046009  0.83403913  0.40192574
  -0.00152448  0.75228075  0.59885117
   0.33346824  0.08387783  0.40201174
   0.33527565  0.58273785  0.40201386
   0.16926051  0.41555108  0.49965779
   0.58173552  0.58246191  0.40261338
   0.08521989  0.08121309  0.40189507
Direct configuration=    10
   0.24744753  0.75243370  0.60390631
   0.83257320  0.83514129  0.39620085
   0.74919129  0.49937349  0.60250790
   0.83150244  0.58346173  0.39669254
   0.83072664  0.33362021  0.39596041
   0.66349759  0.16823712  0.49965965
   0.83328078  0.08347471  0.39443331
   0.41870390  0.91687069  0.49985707
   0.58045688  0.83465991  0.39766033
   0.50147072  0.49779789  0.60193386
   0.41894927  0.66490742  0.49949803
   0.25095025  0.49911497  0.60195320
   0.16850086  0.66551530  0.49935369
   0.25232559  0.24812434  0.60193345
   0.74717841  0.75386743  0.60201178
   0.91702589  0.91713892  0.50059844
   0.00011763  0.50000817  0.60387445
   0.91595618  0.66682295  0.50049673
   0.08764397  0.58222239  0.39576166
   0.08680867  0.33063643  0.39570958
   0.91559345  0.41738570  0.50042264
   0.16846263  0.16630657  0.49939728
   0.91704376  0.16602967  0.50027499
   0.24898192  0.00011379  0.60417647
   0.75108752  0.24819201  0.59742379
   0.66601157  0.41760405  0.49997906
   0.08483933  0.83384950  0.40211225
   0.74967876  0.00115563  0.59745148
  -0.00115571  0.24899972  0.59876967
  -0.00176717  0.00113538  0.59880017
   0.49969520  0.75118666  0.59797685
   0.66734057  0.66620550  0.49991290
   0.33481719  0.33238482  0.40336107
   0.50247374  0.24704992  0.59663916
   0.41673023  0.41549318  0.49998085
   0.58074153  0.33468728  0.40275526
   0.50063638 -0.00004061  0.59726826
   0.41624520  0.16839718  0.50005000
   0.58094710  0.08537460  0.40306495
   0.66586073  0.91678837  0.49985390
   0.16790848  0.91602713  0.50061658
   0.33046565  0.83398494  0.40219086
  -0.00163002  0.75236859  0.59864469
   0.33339773  0.08390396  0.40211112
   0.33518330  0.58281532  0.40225971
   0.16926872  0.41551549  0.49965107
   0.58164707  0.58251669  0.40284429
   0.08518745  0.08113982  0.40200741
Direct configuration=    11
   0.24745727  0.75202955  0.60455575
   0.83278488  0.83500511  0.39564589
   0.74937332  0.49950443  0.60286566
   0.83178504  0.58326241  0.39622074
   0.83053273  0.33366463  0.39539591
   0.66372466  0.16821023  0.49948472
   0.83325033  0.08354098  0.39359261
   0.41876378  0.91675512  0.49968144
   0.57999727  0.83477046  0.39729613
   0.50137169  0.49774769  0.60237853
   0.41884638  0.66506613  0.49970556
   0.25100254  0.49926584  0.60230178
   0.16904905  0.66509260  0.49940099
   0.25241224  0.24779369  0.60226396
   0.74732439  0.75368625  0.60215405
   0.91644685  0.91724531  0.50025975
  -0.00049235  0.50039839  0.60435977
   0.91616306  0.66720822  0.50033862
   0.08763751  0.58241558  0.39519032
   0.08674975  0.33057263  0.39514527
   0.91591926  0.41670059  0.50024572
   0.16871771  0.16648948  0.49956872
   0.91649537  0.16660015  0.49989171
   0.24899316  0.00043610  0.60487247
   0.75137932  0.24808709  0.59704065
   0.66654938  0.41735865  0.50012606
   0.08495552  0.83386680  0.40235932
   0.74978976  0.00098684  0.59695892
  -0.00133675  0.24900131  0.59838466
  -0.00217280  0.00139562  0.59858127
   0.49983941  0.75116098  0.59795388
   0.66704998  0.66656897  0.49983855
   0.33463835  0.33266692  0.40364956
   0.50285681  0.24685419  0.59656729
   0.41674752  0.41539953  0.50029494
   0.58051342  0.33500716  0.40291180
   0.50058133 -0.00020868  0.59723251
   0.41611669  0.16868122  0.50025176
   0.58043625  0.08536308  0.40305449
   0.66625167  0.91627087  0.49965481
   0.16863865  0.91568676  0.50131232
   0.33047541  0.83388965  0.40265706
  -0.00181560  0.75252306  0.59828161
   0.33327374  0.08394992  0.40228587
   0.33502091  0.58295154  0.40269203
   0.16928316  0.41545292  0.49963926
   0.58149154  0.58261303  0.40325035
   0.08513041  0.08101099  0.40220495
Direct configuration=    12
   0.24751466  0.75222679  0.60497306
   0.83275774  0.83513790  0.39522616
   0.74916942  0.49956531  0.60303995
   0.83183963  0.58326267  0.39596449
   0.83055273  0.33342534  0.39498990
   0.66377949  0.16817646  0.49928460
   0.83295145  0.08373440  0.39305921
   0.41895514  0.91665414  0.49970664
   0.57977219  0.83481266  0.39708740
   0.50145716  0.49768748  0.60261951
   0.41911524  0.66501071  0.50000972
   0.25091127  0.49916873  0.60249345
   0.16888070  0.66508777  0.49952851
   0.25238421  0.24785671  0.60244486
   0.74723301  0.75383314  0.60216113
   0.91661788  0.91723015  0.49995777
  -0.00030005  0.50031132  0.60461740
   0.91642951  0.66677804  0.50019802
   0.08760582  0.58250165  0.39486254
   0.08661033  0.33051731  0.39483752
   0.91622453  0.41694139  0.50010392
   0.16858118  0.16650472  0.49968276
   0.91682233  0.16635087  0.49955541
   0.24894475  0.00023871  0.60527089
   0.75128824  0.24805086  0.59678543
   0.66624988  0.41740647  0.50023741
   0.08488229  0.83395405  0.40254717
   0.74962904  0.00105595  0.59661391
  -0.00114313  0.24895853  0.59811971
  -0.00206395  0.00138531  0.59842700
   0.49963045  0.75119207  0.59791523
   0.66717308  0.66656897  0.49980695
   0.33481621  0.33266703  0.40388633
   0.50297573  0.24667780  0.59656975
   0.41699458  0.41543660  0.50051031
   0.58032856  0.33495143  0.40307363
   0.50058208 -0.00015753  0.59713824
   0.41626506  0.16841210  0.50037944
   0.58022858  0.08561318  0.40308410
   0.66602876  0.91647805  0.49949479
   0.16862172  0.91582002  0.50176347
   0.33036837  0.83394410  0.40298674
  -0.00171729  0.75241607  0.59801614
   0.33331479  0.08392835  0.40240971
   0.33513237  0.58281839  0.40297153
   0.16911111  0.41561709  0.49968554
   0.58146665  0.58270882  0.40349747
   0.08502649  0.08108191  0.40240518
Direct configuration=    13
   0.24758119  0.75245546  0.60545685
   0.83272627  0.83529185  0.39473957
   0.74893304  0.49963589  0.60324201
   0.83190293  0.58326297  0.39566741
   0.83057591  0.33314792  0.39451922
   0.66384305  0.16813731  0.49905260
   0.83260496  0.08395864  0.39244084
   0.41917700  0.91653707  0.49973587
   0.57951125  0.83486159  0.39684541
   0.50155624  0.49761767  0.60289889
   0.41942694  0.66494646  0.50036234
   0.25080546  0.49905615  0.60271565
   0.16868553  0.66508217  0.49967634
   0.25235170  0.24792977  0.60265458
   0.74712708  0.75400344  0.60216933
   0.91681616  0.91721258  0.49960767
  -0.00007713  0.50021038  0.60491606
   0.91673840  0.66627933  0.50003502
   0.08756907  0.58260144  0.39448254
   0.08644870  0.33045317  0.39448075
   0.91657845  0.41722055  0.49993953
   0.16842289  0.16652238  0.49981498
   0.91720139  0.16606187  0.49916553
   0.24888863  0.00000987  0.60573277
   0.75118264  0.24800885  0.59648956
   0.66590267  0.41746190  0.50036650
   0.08479739  0.83405520  0.40276494
   0.74944270  0.00113607  0.59621394
  -0.00091866  0.24890893  0.59781255
  -0.00193776  0.00137335  0.59824814
   0.49938820  0.75122812  0.59787041
   0.66731580  0.66656897  0.49977031
   0.33502241  0.33266715  0.40416082
   0.50311360  0.24647332  0.59657260
   0.41728099  0.41547957  0.50075999
   0.58011424  0.33488683  0.40326125
   0.50058295 -0.00009822  0.59702896
   0.41643708  0.16810010  0.50052747
   0.57998782  0.08590312  0.40311842
   0.66577033  0.91671824  0.49930927
   0.16860210  0.91597451  0.50228650
   0.33024427  0.83400722  0.40336894
  -0.00160332  0.75229204  0.59770837
   0.33336238  0.08390335  0.40255327
   0.33526159  0.58266401  0.40329555
   0.16891166  0.41580742  0.49973919
   0.58143780  0.58281988  0.40378397
   0.08490602  0.08116413  0.40263731
Direct configuration=    14
   0.24755689  0.75245710  0.60580844
   0.83238889  0.83553382  0.39433598
   0.74896977  0.49956149  0.60324865
   0.83162001  0.58343235  0.39551954
   0.83047590  0.33321029  0.39420602
   0.66407885  0.16795489  0.49884636
   0.83229757  0.08401250  0.39202602
   0.41911493  0.91660501  0.49990754
   0.57976887  0.83481985  0.39672147
   0.50140076  0.49756784  0.60310476
   0.41924372  0.66503313  0.50076441
   0.25093840  0.49899945  0.60283457
   0.16869785  0.66522166  0.49984415
   0.25241216  0.24785189  0.60275666
   0.74707994  0.75404726  0.60200933
   0.91696372  0.91702057  0.49927295
   0.00007388  0.50002621  0.60507728
   0.91640053  0.66635766  0.49984251
   0.08772626  0.58248713  0.39430286
   0.08657981  0.33037392  0.39434418
   0.91615491  0.41761291  0.49978638
   0.16858934  0.16644578  0.49988070
   0.91718396  0.16618352  0.49886976
   0.24895157 -0.00002302  0.60603416
   0.75114917  0.24794656  0.59625834
   0.66613879  0.41735001  0.50044604
   0.08465083  0.83417984  0.40290547
   0.74946184  0.00115437  0.59590708
  -0.00083622  0.24900654  0.59760504
  -0.00192447  0.00131094  0.59815575
   0.49924311  0.75130426  0.59791008
   0.66796663  0.66624781  0.49976911
   0.33484148  0.33268184  0.40443541
   0.50292298  0.24654700  0.59662249
   0.41714597  0.41567426  0.50103205
   0.58018809  0.33480976  0.40334631
   0.50039037  0.00001073  0.59695017
   0.41629510  0.16799075  0.50064738
   0.58014906  0.08589975  0.40306612
   0.66595314  0.91675626  0.49908510
   0.16864328  0.91586128  0.50254890
   0.32990422  0.83412226  0.40368907
  -0.00146028  0.75219107  0.59749585
   0.33324723  0.08408530  0.40269755
   0.33528245  0.58261712  0.40356778
   0.16934441  0.41560311  0.49980872
   0.58172036  0.58266589  0.40394108
   0.08491395  0.08119010  0.40276442
Direct configuration=    15
   0.24754680  0.75245778  0.60595440
   0.83224883  0.83563428  0.39416844
   0.74898502  0.49953060  0.60325140
   0.83150257  0.58350266  0.39545815
   0.83043438  0.33323617  0.39407601
   0.66417674  0.16787916  0.49876075
   0.83216997  0.08403485  0.39185382
   0.41908916  0.91663321  0.49997880
   0.57987581  0.83480253  0.39667001
   0.50133621  0.49754716  0.60319022
   0.41916766  0.66506911  0.50093131
   0.25099358  0.49897591  0.60288394
   0.16870296  0.66527957  0.49991382
   0.25243726  0.24781956  0.60279904
   0.74706037  0.75406545  0.60194291
   0.91702498  0.91694086  0.49913400
   0.00013657  0.49994976  0.60514421
   0.91626027  0.66639017  0.49976259
   0.08779151  0.58243968  0.39422827
   0.08663424  0.33034101  0.39428749
   0.91597908  0.41777579  0.49972280
   0.16865844  0.16641398  0.49990798
   0.91717673  0.16623401  0.49874698
   0.24897770 -0.00003668  0.60615928
   0.75113528  0.24792069  0.59616236
   0.66623681  0.41730357  0.50047905
   0.08458998  0.83423158  0.40296381
   0.74946978  0.00116196  0.59577969
  -0.00080200  0.24904706  0.59751889
  -0.00191896  0.00128503  0.59811740
   0.49918289  0.75133587  0.59792655
   0.66823681  0.66611449  0.49976860
   0.33476637  0.33268794  0.40454939
   0.50284385  0.24657759  0.59664321
   0.41708992  0.41575507  0.50114499
   0.58021875  0.33477777  0.40338162
   0.50031043  0.00005596  0.59691747
   0.41623617  0.16794535  0.50069715
   0.58021599  0.08589835  0.40304440
   0.66602903  0.91677204  0.49899204
   0.16866037  0.91581427  0.50265783
   0.32976307  0.83417001  0.40382196
  -0.00140089  0.75214916  0.59740764
   0.33319943  0.08416083  0.40275745
   0.33529112  0.58259766  0.40368078
   0.16952406  0.41551829  0.49983759
   0.58183766  0.58260196  0.40400630
   0.08491724  0.08120087  0.40281719
Direct configuration=    16
   0.24742069  0.75237809  0.60617774
   0.83223417  0.83552737  0.39389639
   0.74909903  0.49944163  0.60313387
   0.83154592  0.58349456  0.39539110
   0.83045535  0.33336471  0.39391555
   0.66413407  0.16791735  0.49868570
   0.83222448  0.08402816  0.39164259
   0.41928060  0.91639167  0.50011313
   0.57981420  0.83491271  0.39669809
   0.50138619  0.49743590  0.60332577
   0.41927464  0.66503049  0.50116682
   0.25100547  0.49904148  0.60295914
   0.16865435  0.66528152  0.50002065
   0.25242851  0.24774339  0.60283247
   0.74710893  0.75398210  0.60169625
   0.91701949  0.91688612  0.49894140
   0.00010475  0.49994203  0.60515070
   0.91631567  0.66658608  0.49956869
   0.08774160  0.58245581  0.39426447
   0.08663114  0.33046904  0.39432820
   0.91599899  0.41753863  0.49960102
   0.16855361  0.16658137  0.49993247
   0.91705702  0.16643215  0.49861461
   0.24893197  0.00013570  0.60631124
   0.75116668  0.24787970  0.59604184
   0.66635469  0.41729432  0.50047569
   0.08440503  0.83425674  0.40295920
   0.74958472  0.00113165  0.59560578
  -0.00086407  0.24906045  0.59739458
  -0.00204741  0.00132472  0.59806801
   0.49931014  0.75128690  0.59806099
   0.66795500  0.66623165  0.49981994
   0.33457294  0.33270965  0.40476010
   0.50278530  0.24661586  0.59666315
   0.41712699  0.41569019  0.50132825
   0.58029441  0.33486836  0.40338868
   0.50028437  0.00002175  0.59691830
   0.41636309  0.16800196  0.50074182
   0.58024673  0.08583550  0.40292805
   0.66618006  0.91667822  0.49879595
   0.16860435  0.91582641  0.50271180
   0.32973528  0.83416292  0.40406467
  -0.00139954  0.75210624  0.59729297
   0.33329493  0.08411156  0.40285537
   0.33529248  0.58266129  0.40389649
   0.16964446  0.41547165  0.49992722
   0.58181826  0.58255172  0.40412667
   0.08487030  0.08122253  0.40280645
Direct configuration=    17
   0.24729687  0.75229985  0.60639702
   0.83221977  0.83542242  0.39362930
   0.74921095  0.49935427  0.60301848
   0.83158849  0.58348660  0.39532527