  48  48   0   0
  0.5349325E+02  0.1100258E-08  0.1100258E-08  0.2449179E-08  0.3500000E-15
  1.000000000000000E-004
  CAR 
 unknown system                          
      6.34903525     -9.86729505  301     -1.10405853      1.00000000
     -9.867  0.0000E+00  0.0000E+00
     -9.813  0.0000E+00  0.0000E+00
     -9.759  0.0000E+00  0.0000E+00
     -9.705  0.0000E+00  0.0000E+00
     -9.651  0.0000E+00  0.0000E+00
     -9.597  0.0000E+00  0.0000E+00
     -9.543  0.0000E+00  0.0000E+00
     -9.489  0.0000E+00  0.0000E+00
     -9.435  0.7531E-17  0.4071E-18
     -9.381  0.2919E-14  0.1582E-15
     -9.327  0.6513E-12  0.3536E-13
     -9.273  0.8249E-10  0.4494E-11
     -9.219  0.5947E-08  0.3259E-09
     -9.165  0.2447E-06  0.1355E-07
     -9.111  0.5765E-05  0.3252E-06
     -9.056  0.7801E-04  0.4542E-05
     -9.002  0.6079E-03  0.3740E-04
     -8.948  0.2738E-02  0.1854E-03
     -8.894  0.7172E-02  0.5731E-03
     -8.840  0.1118E-01  0.1177E-02
     -8.786  0.1148E-01  0.1798E-02
     -8.732  0.1055E-01  0.2368E-02
     -8.678  0.1102E-01  0.2964E-02
     -8.624  0.9999E-02  0.3505E-02
     -8.570  0.6139E-02  0.3836E-02
     -8.516  0.2380E-02  0.3965E-02
     -8.462  0.6402E-03  0.4000E-02
     -8.408  0.5522E-03  0.4030E-02
     -8.354  0.1735E-02  0.4123E-02
     -8.300  0.3923E-02  0.4335E-02
     -8.246  0.6070E-02  0.4664E-02
     -8.192  0.7454E-02  0.5067E-02
     -8.138  0.8392E-02  0.5520E-02
     -8.083  0.9178E-02  0.6016E-02
     -8.029  0.9743E-02  0.6543E-02
     -7.975  0.1008E-01  0.7088E-02
     -7.921  0.1016E-01  0.7637E-02
     -7.867  0.1016E-01  0.8186E-02
     -7.813  0.1064E-01  0.8761E-02
     -7.759  0.1136E-01  0.9375E-02
     -7.705  0.1186E-01  0.1002E-01
     -7.651  0.1307E-01  0.1072E-01
     -7.597  0.1516E-01  0.1154E-01
     -7.543  0.1688E-01  0.1246E-01
     -7.489  0.1961E-01  0.1352E-01
     -7.435  0.2571E-01  0.1491E-01
     -7.381  0.3188E-01  0.1663E-01
     -7.327  0.3302E-01  0.1841E-01
     -7.273  0.3080E-01  0.2008E-01
     -7.219  0.3033E-01  0.2172E-01
     -7.165  0.3526E-01  0.2362E-01
     -7.111  0.4409E-01  0.2601E-01
     -7.056  0.4924E-01  0.2867E-01
     -7.002  0.4955E-01  0.3135E-01
     -6.948  0.5258E-01  0.3419E-01
     -6.894  0.6021E-01  0.3744E-01
     -6.840  0.6548E-01  0.4098E-01
     -6.786  0.6471E-01  0.4448E-01
     -6.732  0.6378E-01  0.4793E-01
     -6.678  0.6886E-01  0.5165E-01
     -6.624  0.7967E-01  0.5596E-01
     -6.570  0.9384E-01  0.6103E-01
     -6.516  0.1074E+00  0.6684E-01
     -6.462  0.1150E+00  0.7305E-01
     -6.408  0.1185E+00  0.7946E-01
     -6.354  0.1260E+00  0.8627E-01
     -6.300  0.1371E+00  0.9368E-01
     -6.246  0.1454E+00  0.1015E+00
     -6.192  0.1497E+00  0.1096E+00
     -6.138  0.1524E+00  0.1179E+00
     -6.083  0.1523E+00  0.1261E+00
     -6.029  0.1493E+00  0.1342E+00
     -5.975  0.1470E+00  0.1421E+00
     -5.921  0.1480E+00  0.1501E+00
     -5.867  0.1516E+00  0.1583E+00
     -5.813  0.1549E+00  0.1667E+00
     -5.759  0.1549E+00  0.1751E+00
     -5.705  0.1511E+00  0.1832E+00
     -5.651  0.1455E+00  0.1911E+00
     -5.597  0.1400E+00  0.1987E+00
     -5.543  0.1356E+00  0.2060E+00
     -5.489  0.1332E+00  0.2132E+00
     -5.435  0.1349E+00  0.2205E+00
     -5.381  0.1424E+00  0.2282E+00
     -5.327  0.1532E+00  0.2365E+00
     -5.273  0.1625E+00  0.2452E+00
     -5.219  0.1678E+00  0.2543E+00
     -5.165  0.1718E+00  0.2636E+00
     -5.111  0.1786E+00  0.2732E+00
     -5.056  0.1846E+00  0.2832E+00
     -5.002  0.1822E+00  0.2931E+00
     -4.948  0.1733E+00  0.3024E+00
     -4.894  0.1671E+00  0.3115E+00
     -4.840  0.1671E+00  0.3205E+00
     -4.786  0.1683E+00  0.3296E+00
     -4.732  0.1658E+00  0.3386E+00
     -4.678  0.1612E+00  0.3473E+00
     -4.624  0.1594E+00  0.3559E+00
     -4.570  0.1639E+00  0.3648E+00
     -4.516  0.1724E+00  0.3741E+00
     -4.462  0.1779E+00  0.3837E+00
     -4.408  0.1777E+00  0.3933E+00
     -4.354  0.1746E+00  0.4027E+00
     -4.300  0.1707E+00  0.4120E+00
     -4.246  0.1693E+00  0.4211E+00
     -4.192  0.1733E+00  0.4305E+00
     -4.138  0.1785E+00  0.4401E+00
     -4.083  0.1800E+00  0.4499E+00
     -4.029  0.1793E+00  0.4596E+00
     -3.975  0.1791E+00  0.4692E+00
     -3.921  0.1808E+00  0.4790E+00
     -3.867  0.1837E+00  0.4889E+00
     -3.813  0.1871E+00  0.4991E+00
     -3.759  0.1917E+00  0.5094E+00
     -3.705  0.1971E+00  0.5201E+00
     -3.651  0.2028E+00  0.5310E+00
     -3.597  0.2081E+00  0.5423E+00
     -3.543  0.2107E+00  0.5537E+00
     -3.489  0.2081E+00  0.5649E+00
     -3.435  0.2034E+00  0.5759E+00
     -3.381  0.2026E+00  0.5869E+00
     -3.327  0.2035E+00  0.5979E+00
     -3.273  0.2008E+00  0.6087E+00
     -3.219  0.1940E+00  0.6192E+00
     -3.165  0.1852E+00  0.6292E+00
     -3.110  0.1780E+00  0.6388E+00
     -3.056  0.1748E+00  0.6483E+00
     -3.002  0.1751E+00  0.6578E+00
     -2.948  0.1800E+00  0.6675E+00
     -2.894  0.1888E+00  0.6777E+00
     -2.840  0.1946E+00  0.6882E+00
     -2.786  0.1952E+00  0.6988E+00
     -2.732  0.1972E+00  0.7094E+00
     -2.678  0.2028E+00  0.7204E+00
     -2.624  0.2064E+00  0.7315E+00
     -2.570  0.2032E+00  0.7425E+00
     -2.516  0.1965E+00  0.7531E+00
     -2.462  0.1911E+00  0.7635E+00
     -2.408  0.1867E+00  0.7736E+00
     -2.354  0.1812E+00  0.7834E+00
     -2.300  0.1761E+00  0.7929E+00
     -2.246  0.1732E+00  0.8022E+00
     -2.192  0.1726E+00  0.8116E+00
     -2.138  0.1747E+00  0.8210E+00
     -2.083  0.1802E+00  0.8308E+00
     -2.029  0.1870E+00  0.8409E+00
     -1.975  0.1934E+00  0.8513E+00
     -1.921  0.2004E+00  0.8622E+00
     -1.867  0.2068E+00  0.8733E+00
     -1.813  0.2062E+00  0.8845E+00
     -1.759  0.1958E+00  0.8951E+00
     -1.705  0.1829E+00  0.9050E+00
     -1.651  0.1771E+00  0.9145E+00
     -1.597  0.1786E+00  0.9242E+00
     -1.543  0.1817E+00  0.9340E+00
     -1.489  0.1839E+00  0.9439E+00
     -1.435  0.1867E+00  0.9540E+00
     -1.381  0.1902E+00  0.9643E+00
     -1.327  0.1902E+00  0.9746E+00
     -1.273  0.1823E+00  0.9845E+00
     -1.219  0.1659E+00  0.9934E+00
     -1.165  0.1423E+00  0.1001E+01
     -1.110  0.1154E+00  0.1007E+01
     -1.056  0.8914E-01  0.1012E+01
     -1.002  0.6320E-01  0.1016E+01
     -0.948  0.3985E-01  0.1018E+01
     -0.894  0.2508E-01  0.1019E+01
     -0.840  0.1948E-01  0.1020E+01
     -0.786  0.1955E-01  0.1021E+01
     -0.732  0.2178E-01  0.1022E+01
     -0.678  0.2530E-01  0.1024E+01
     -0.624  0.3178E-01  0.1025E+01
     -0.570  0.3980E-01  0.1028E+01
     -0.516  0.4483E-01  0.1030E+01
     -0.462  0.4399E-01  0.1032E+01
     -0.408  0.3774E-01  0.1034E+01
     -0.354  0.3060E-01  0.1036E+01
     -0.300  0.2969E-01  0.1038E+01
     -0.246  0.3579E-01  0.1040E+01
     -0.192  0.4036E-01  0.1042E+01
     -0.137  0.3691E-01  0.1044E+01
     -0.083  0.2834E-01  0.1045E+01
     -0.029  0.2049E-01  0.1046E+01
      0.025  0.1757E-01  0.1047E+01
      0.079  0.2131E-01  0.1049E+01
      0.133  0.2891E-01  0.1050E+01
      0.187  0.3486E-01  0.1052E+01
      0.241  0.3638E-01  0.1054E+01
      0.295  0.3477E-01  0.1056E+01
      0.349  0.3335E-01  0.1058E+01
      0.403  0.3511E-01  0.1060E+01
      0.457  0.3890E-01  0.1062E+01
      0.511  0.4171E-01  0.1064E+01
      0.565  0.4381E-01  0.1066E+01
      0.619  0.4740E-01  0.1069E+01
      0.673  0.5072E-01  0.1072E+01
      0.727  0.4837E-01  0.1074E+01
      0.781  0.3883E-01  0.1076E+01
      0.835  0.2746E-01  0.1078E+01
      0.890  0.2181E-01  0.1079E+01
      0.944  0.2296E-01  0.1080E+01
      0.998  0.2541E-01  0.1082E+01
      1.052  0.2513E-01  0.1083E+01
      1.106  0.2241E-01  0.1084E+01
      1.160  0.1884E-01  0.1085E+01
      1.214  0.1565E-01  0.1086E+01
      1.268  0.1301E-01  0.1087E+01
      1.322  0.1045E-01  0.1087E+01
      1.376  0.8931E-02  0.1088E+01
      1.430  0.1054E-01  0.1088E+01
      1.484  0.1767E-01  0.1089E+01
      1.538  0.2984E-01  0.1091E+01
      1.592  0.3957E-01  0.1093E+01
      1.646  0.3972E-01  0.1095E+01
      1.700  0.3537E-01  0.1097E+01
      1.754  0.3473E-01  0.1099E+01
      1.808  0.3550E-01  0.1101E+01
      1.863  0.3250E-01  0.1103E+01
      1.917  0.2648E-01  0.1104E+01
      1.971  0.2078E-01  0.1105E+01
      2.025  0.1863E-01  0.1106E+01
      2.079  0.2323E-01  0.1107E+01
      2.133  0.3260E-01  0.1109E+01
      2.187  0.3885E-01  0.1111E+01
      2.241  0.3984E-01  0.1113E+01
      2.295  0.4212E-01  0.1116E+01
      2.349  0.4743E-01  0.1118E+01
      2.403  0.4895E-01  0.1121E+01
      2.457  0.4258E-01  0.1123E+01
      2.511  0.3439E-01  0.1125E+01
      2.565  0.3313E-01  0.1127E+01
      2.619  0.3948E-01  0.1129E+01
      2.673  0.4609E-01  0.1132E+01
      2.727  0.4572E-01  0.1134E+01
      2.781  0.3703E-01  0.1136E+01
      2.835  0.2414E-01  0.1137E+01
      2.890  0.1439E-01  0.1138E+01
      2.944  0.1176E-01  0.1139E+01
      2.998  0.1150E-01  0.1139E+01
      3.052  0.9345E-02  0.1140E+01
      3.106  0.9403E-02  0.1140E+01
      3.160  0.1568E-01  0.1141E+01
      3.214  0.2415E-01  0.1143E+01
      3.268  0.2752E-01  0.1144E+01
      3.322  0.2377E-01  0.1145E+01
      3.376  0.1888E-01  0.1146E+01
      3.430  0.1930E-01  0.1147E+01
      3.484  0.2450E-01  0.1149E+01
      3.538  0.3150E-01  0.1150E+01
      3.592  0.3876E-01  0.1152E+01
      3.646  0.4244E-01  0.1155E+01
      3.700  0.3949E-01  0.1157E+01
      3.754  0.3216E-01  0.1159E+01
      3.808  0.2492E-01  0.1160E+01
      3.863  0.2148E-01  0.1161E+01
      3.917  0.2272E-01  0.1162E+01
      3.971  0.2715E-01  0.1164E+01
      4.025  0.3020E-01  0.1166E+01
      4.079  0.2774E-01  0.1167E+01
      4.133  0.2398E-01  0.1168E+01
      4.187  0.2365E-01  0.1170E+01
      4.241  0.2272E-01  0.1171E+01
      4.295  0.1861E-01  0.1172E+01
      4.349  0.1722E-01  0.1173E+01
      4.403  0.2144E-01  0.1174E+01
      4.457  0.2639E-01  0.1175E+01
      4.511  0.3146E-01  0.1177E+01
      4.565  0.4128E-01  0.1179E+01
      4.619  0.5249E-01  0.1182E+01
      4.673  0.5574E-01  0.1185E+01
      4.727  0.5093E-01  0.1188E+01
      4.781  0.4553E-01  0.1190E+01
      4.836  0.4521E-01  0.1193E+01
      4.890  0.5040E-01  0.1195E+01
      4.944  0.5673E-01  0.1199E+01
      4.998  0.6396E-01  0.1202E+01
      5.052  0.7247E-01  0.1206E+01
      5.106  0.7558E-01  0.1210E+01
      5.160  0.7012E-01  0.1214E+01
      5.214  0.6088E-01  0.1217E+01
      5.268  0.5041E-01  0.1220E+01
      5.322  0.3785E-01  0.1222E+01
      5.376  0.2373E-01  0.1223E+01
      5.430  0.1122E-01  0.1224E+01
      5.484  0.3616E-02  0.1224E+01
      5.538  0.7376E-03  0.1224E+01
      5.592  0.9095E-04  0.1224E+01
      5.646  0.6603E-05  0.1224E+01
      5.700  0.2780E-06  0.1224E+01
      5.754  0.6725E-08  0.1224E+01
      5.808  0.9295E-10  0.1224E+01
      5.863  0.7309E-12  0.1224E+01
      5.917  0.3262E-14  0.1224E+01
      5.971  0.6846E-17  0.1224E+01
      6.025  0.0000E+00  0.1224E+01
      6.079  0.0000E+00  0.1224E+01
      6.133  0.0000E+00  0.1224E+01
      6.187  0.0000E+00  0.1224E+01
      6.241  0.0000E+00  0.1224E+01
      6.295  0.0000E+00  0.1224E+01
      6.349  0.0000E+00  0.1224E+01
