<?xml version="1.0" encoding="ISO-8859-1"?>
<modeling>
 <generator>
  <i name="program" type="string">vasp </i>
  <i name="version" type="string">5.4.1  </i>
  <i name="subversion" type="string">24Jun15 (build Mar 14 2019 10:18:33) complex                          parallel </i>
  <i name="platform" type="string">INTEL-19.0.2+OPENMPI-3.1.3 </i>
  <i name="date" type="string">2022 07 15 </i>
  <i name="time" type="string">16:54:19 </i>
 </generator>
 <incar>
  <i type="int" name="ISTART">     0</i>
  <i type="string" name="PREC">normal</i>
  <i type="string" name="ALGO"> Fast</i>
  <i type="int" name="NELM">   500</i>
  <i type="int" name="IBRION">     2</i>
  <i type="int" name="NFREE">     2</i>
  <i name="EDIFF">      0.00000100</i>
  <i name="EDIFFG">     -0.02000000</i>
  <i type="int" name="NSW">   500</i>
  <i type="int" name="ISIF">     0</i>
  <i type="int" name="ISYM">     2</i>
  <i name="ENCUT">    400.00000000</i>
  <i name="POTIM">      0.35000000</i>
  <i type="string" name="LREAL"> Auto</i>
  <i type="logical" name="LPLANE"> T  </i>
  <i type="int" name="ISMEAR">     0</i>
  <i name="SIGMA">      0.10000000</i>
  <i type="int" name="NWRITE">     1</i>
  <i type="logical" name="LWAVE"> F  </i>
  <i type="logical" name="LCHARG"> F  </i>
  <i type="logical" name="LVTOT"> F  </i>
  <i type="logical" name="LORBIT"> F  </i>
  <i type="logical" name="LAECHG"> F  </i>
  <v type="int" name="KPOINT_BSE">    -1     0     0     0</v>
  <i type="int" name="NELM">   500</i>
  <i type="string" name="GGA"> PE          ! optPBE-vdW XC-functional</i>
  <i type="int" name="VOSKOWN">     1</i>
  <i type="logical" name="LDIPOL"> T  </i>
  <i type="logical" name="LMONO"> F  </i>
  <i type="int" name="IDIPOL">     3</i>
  <v name="DIPOL">      0.00000000      0.00000000      0.50000000</v>
 </incar>
 <kpoints>
  <generation param="Monkhorst-Pack">
   <v type="int" name="divisions">       2        2        1 </v>
   <v name="usershift">      0.00000000       0.00000000       0.00000000 </v>
   <v name="genvec1">      0.50000000      -0.00000000       0.00000000 </v>
   <v name="genvec2">      0.00000000       0.50000000       0.00000000 </v>
   <v name="genvec3">      0.00000000       0.00000000       1.00000000 </v>
   <v name="shift">      0.50000000       0.50000000       0.00000000 </v>
  </generation>
  <varray name="kpointlist" >
   <v>       0.25000000       0.25000000       0.00000000 </v>
   <v>       0.00000000       0.25000000       0.00000000 </v>
   <v>      -0.25000000       0.00000000       0.00000000 </v>
   <v>      -0.25000000       0.25000000       0.00000000 </v>
   <v>       0.50000000      -0.25000000       0.00000000 </v>
   <v>      -0.25000000       0.50000000       0.00000000 </v>
  </varray>
  <varray name="weights" >
   <v>       0.16666667 </v>
   <v>       0.16666667 </v>
   <v>       0.16666667 </v>
   <v>       0.16666667 </v>
   <v>       0.16666667 </v>
   <v>       0.16666667 </v>
  </varray>
 </kpoints>
 <parameters>
  <separator name="general" >
   <i type="string" name="SYSTEM">unknown system</i>
   <i type="logical" name="LCOMPAT"> F  </i>
  </separator>
  <separator name="electronic" >
   <i type="string" name="PREC">normal</i>
   <i name="ENMAX">    400.00000000</i>
   <i name="ENAUG">    416.23000000</i>
   <i name="EDIFF">      0.00000100</i>
   <i type="int" name="IALGO">    68</i>
   <i type="int" name="IWAVPR">    11</i>
   <i type="int" name="NBANDS">   306</i>
   <i name="NELECT">    504.00000000</i>
   <i type="int" name="TURBO">     0</i>
   <i type="int" name="IRESTART">     0</i>
   <i type="int" name="NREBOOT">     0</i>
   <i type="int" name="NMIN">     0</i>
   <i name="EREF">      0.00000000</i>
   <separator name="electronic smearing" >
    <i type="int" name="ISMEAR">     0</i>
    <i name="SIGMA">      0.10000000</i>
    <i name="KSPACING">      0.50000000</i>
    <i type="logical" name="KGAMMA"> T  </i>
   </separator>
   <separator name="electronic projectors" >
    <i type="logical" name="LREAL"> T  </i>
    <v name="ROPT">     -0.00050000     -0.00050000</v>
    <i type="int" name="LMAXPAW">  -100</i>
    <i type="int" name="LMAXMIX">     2</i>
    <i type="logical" name="NLSPLINE"> F  </i>
   </separator>
   <separator name="electronic startup" >
    <i type="int" name="ISTART">     0</i>
    <i type="int" name="ICHARG">     2</i>
    <i type="int" name="INIWAV">     1</i>
   </separator>
   <separator name="electronic spin" >
    <i type="int" name="ISPIN">     1</i>
    <i type="logical" name="LNONCOLLINEAR"> F  </i>
    <v name="MAGMOM">      1.00000000      1.00000000      1.00000000      1.00000000      1.00000000      1.00000000      1.00000000      1.00000000      1.00000000      1.00000000      1.00000000      1.00000000      1.00000000      1.00000000      1.00000000      1.00000000      1.00000000      1.00000000      1.00000000      1.00000000
      1.00000000      1.00000000      1.00000000      1.00000000      1.00000000      1.00000000      1.00000000      1.00000000      1.00000000      1.00000000      1.00000000      1.00000000      1.00000000      1.00000000      1.00000000      1.00000000      1.00000000      1.00000000      1.00000000      1.00000000
      1.00000000      1.00000000      1.00000000      1.00000000      1.00000000      1.00000000      1.00000000      1.00000000</v>
    <i name="NUPDOWN">     -1.00000000</i>
    <i type="logical" name="LSORBIT"> F  </i>
    <v name="SAXIS">      0.00000000      0.00000000      1.00000000</v>
    <i type="logical" name="LSPIRAL"> F  </i>
    <v name="QSPIRAL">      0.00000000      0.00000000      0.00000000</v>
    <i type="logical" name="LZEROZ"> F  </i>
   </separator>
   <separator name="electronic exchange-correlation" >
    <i type="logical" name="LASPH"> F  </i>
    <i type="logical" name="LMETAGGA"> F  </i>
   </separator>
   <separator name="electronic convergence" >
    <i type="int" name="NELM">   500</i>
    <i type="int" name="NELMDL">    -5</i>
    <i type="int" name="NELMIN">     2</i>
    <i name="ENINI">    400.00000000</i>
    <separator name="electronic convergence detail" >
     <i type="logical" name="LDIAG"> T  </i>
     <i type="logical" name="LSUBROT"> F  </i>
     <i name="WEIMIN">      0.00100000</i>
     <i name="EBREAK">      0.00000000</i>
     <i name="DEPER">      0.30000000</i>
     <i type="int" name="NRMM">     4</i>
     <i name="TIME">      0.40000000</i>
    </separator>
   </separator>
   <separator name="electronic mixer" >
    <i name="AMIX">      0.40000000</i>
    <i name="BMIX">      1.00000000</i>
    <i name="AMIN">      0.10000000</i>
    <i name="AMIX_MAG">      1.60000000</i>
    <i name="BMIX_MAG">      1.00000000</i>
    <separator name="electronic mixer details" >
     <i type="int" name="IMIX">     4</i>
     <i type="logical" name="MIXFIRST"> F  </i>
     <i type="int" name="MAXMIX">   -45</i>
     <i name="WC">    100.00000000</i>
     <i type="int" name="INIMIX">     1</i>
     <i type="int" name="MIXPRE">     1</i>
     <i type="int" name="MREMOVE">     5</i>
    </separator>
   </separator>
   <separator name="electronic dipolcorrection" >
    <i type="logical" name="LDIPOL"> T  </i>
    <i type="logical" name="LMONO"> F  </i>
    <i type="int" name="IDIPOL">     3</i>
    <i name="EPSILON">      1.00000000</i>
    <v name="DIPOL">      0.00000000      0.00000000      0.50000000</v>
    <i name="EFIELD">      0.00000000</i>
   </separator>
  </separator>
  <separator name="grids" >
   <i type="int" name="NGX">    54</i>
   <i type="int" name="NGY">    54</i>
   <i type="int" name="NGZ">   120</i>
   <i type="int" name="NGXF">   108</i>
   <i type="int" name="NGYF">   108</i>
   <i type="int" name="NGZF">   240</i>
   <i type="logical" name="ADDGRID"> F  </i>
  </separator>
  <separator name="ionic" >
   <i type="int" name="NSW">   500</i>
   <i type="int" name="IBRION">     2</i>
   <i type="int" name="ISIF">     0</i>
   <i name="PSTRESS">      0.00000000</i>
   <i name="EDIFFG">     -0.02000000</i>
   <i type="int" name="NFREE">     2</i>
   <i name="POTIM">      0.35000000</i>
   <i name="SMASS">     -3.00000000</i>
   <i name="SCALEE">      1.00000000</i>
  </separator>
  <separator name="ionic md" >
   <i name="TEBEG">      0.00010000</i>
   <i name="TEEND">      0.00010000</i>
   <i type="int" name="NBLOCK">     1</i>
   <i type="int" name="KBLOCK">   500</i>
   <i type="int" name="NPACO">   256</i>
   <i name="APACO">     16.00000000</i>
  </separator>
  <separator name="symmetry" >
   <i type="int" name="ISYM">     2</i>
   <i name="SYMPREC">      0.00001000</i>
  </separator>
  <separator name="dos" >
   <i type="logical" name="LORBIT"> F  </i>
   <v name="RWIGS">     -1.00000000     -1.00000000</v>
   <i type="int" name="NEDOS">   301</i>
   <i name="EMIN">     10.00000000</i>
   <i name="EMAX">    -10.00000000</i>
   <i name="EFERMI">      0.00000000</i>
  </separator>
  <separator name="writing" >
   <i type="int" name="NWRITE">     1</i>
   <i type="logical" name="LWAVE"> F  </i>
   <i type="logical" name="LCHARG"> F  </i>
   <i type="logical" name="LPARD"> F  </i>
   <i type="logical" name="LVTOT"> F  </i>
   <i type="logical" name="LVHAR"> F  </i>
   <i type="logical" name="LELF"> F  </i>
   <i type="logical" name="LOPTICS"> F  </i>
   <v name="STM">      0.00000000      0.00000000      0.00000000      0.00000000      0.00000000      0.00000000      0.00000000</v>
  </separator>
  <separator name="performance" >
   <i type="int" name="NPAR">     6</i>
   <i type="int" name="NSIM">     4</i>
   <i type="int" name="NBLK">    -1</i>
   <i type="logical" name="LPLANE"> T  </i>
   <i type="logical" name="LSCALAPACK"> T  </i>
   <i type="logical" name="LSCAAWARE"> F  </i>
   <i type="logical" name="LSCALU"> F  </i>
   <i type="logical" name="LASYNC"> F  </i>
   <i type="logical" name="LORBITALREAL"> F  </i>
  </separator>
  <separator name="miscellaneous" >
   <i type="int" name="IDIOT">     3</i>
   <i type="logical" name="LMUSIC"> F  </i>
   <v name="POMASS">    196.96600000    106.42000000</v>
   <v name="DARWINR">      0.00000000      0.00000000</v>
   <v name="DARWINV">      1.00000000      1.00000000</v>
   <i type="logical" name="LCORR"> T  </i>
  </separator>
  <i type="logical" name="GGA_COMPAT"> T  </i>
  <i type="logical" name="LBERRY"> F  </i>
  <i type="int" name="ICORELEVEL">     0</i>
  <i type="logical" name="LDAU"> F  </i>
  <i type="int" name="I_CONSTRAINED_M">     0</i>
  <separator name="electronic exchange-correlation" >
   <i type="string" name="GGA">PE</i>
   <i type="int" name="VOSKOWN">     1</i>
   <i type="logical" name="LHFCALC"> F  </i>
   <i type="string" name="PRECFOCK"></i>
   <i type="logical" name="LSYMGRAD"> F  </i>
   <i type="logical" name="LHFONE"> F  </i>
   <i type="logical" name="LRHFCALC"> F  </i>
   <i type="logical" name="LTHOMAS"> F  </i>
   <i type="logical" name="LMODELHF"> F  </i>
   <i name="ENCUT4O">     -1.00000000</i>
   <i type="int" name="EXXOEP">     0</i>
   <i type="int" name="FOURORBIT">     0</i>
   <i name="AEXX">      0.00000000</i>
   <i name="HFALPHA">      0.00000000</i>
   <i name="MCALPHA">      0.00000000</i>
   <i name="ALDAX">      1.00000000</i>
   <i name="AGGAX">      1.00000000</i>
   <i name="ALDAC">      1.00000000</i>
   <i name="AGGAC">      1.00000000</i>
   <i type="int" name="NKREDX">     1</i>
   <i type="int" name="NKREDY">     1</i>
   <i type="int" name="NKREDZ">     1</i>
   <i type="logical" name="SHIFTRED"> F  </i>
   <i type="logical" name="ODDONLY"> F  </i>
   <i type="logical" name="EVENONLY"> F  </i>
   <i type="int" name="LMAXFOCK">     0</i>
   <i type="int" name="NMAXFOCKAE">     0</i>
   <i type="logical" name="LFOCKAEDFT"> F  </i>
   <i name="HFSCREEN">      0.00000000</i>
   <i name="HFSCREENC">      0.00000000</i>
   <i type="int" name="NBANDSGWLOW">     0</i>
  </separator>
  <separator name="vdW DFT" >
   <i type="logical" name="LUSE_VDW"> F  </i>
   <i name="Zab_VDW">     -0.84910000</i>
   <i name="PARAM1">      0.12340000</i>
   <i name="PARAM2">      1.00000000</i>
   <i name="PARAM3">      0.00000000</i>
  </separator>
  <separator name="model GW" >
   <i type="int" name="MODEL_GW">     0</i>
   <i name="MODEL_EPS0">     32.09595293</i>
   <i name="MODEL_ALPHA">      1.00000000</i>
  </separator>
  <separator name="linear response parameters" >
   <i type="logical" name="LEPSILON"> F  </i>
   <i type="logical" name="LRPA"> F  </i>
   <i type="logical" name="LNABLA"> F  </i>
   <i type="logical" name="LVEL"> F  </i>
   <i type="int" name="KINTER">     0</i>
   <i name="CSHIFT">      0.10000000</i>
   <i name="OMEGAMAX">     -1.00000000</i>
   <i name="DEG_THRESHOLD">      0.00200000</i>
  </separator>
  <separator name="orbital magnetization" >
   <i type="logical" name="NUCIND"> F  </i>
   <v name="MAGPOS">      0.00000000      0.00000000      0.00000000</v>
   <i type="logical" name="LNICSALL"> T  </i>
   <i type="logical" name="ORBITALMAG"> F  </i>
   <i type="logical" name="LMAGBLOCH"> F  </i>
   <i type="logical" name="LCHIMAG"> F  </i>
   <i type="logical" name="LGAUGE"> T  </i>
   <i type="int" name="MAGATOM">     0</i>
   <v name="MAGDIPOL">      0.00000000      0.00000000      0.00000000</v>
   <v name="AVECCONST">      0.00000000      0.00000000      0.00000000</v>
  </separator>
  <separator name="response functions" >
   <i type="logical" name="LADDER"> F  </i>
   <i type="logical" name="LFXC"> F  </i>
   <i type="logical" name="LHARTREE"> T  </i>
   <i type="int" name="IBSE">     0</i>
   <v type="int" name="KPOINT">    -1     0     0     0</v>
   <i type="logical" name="LTCTE"> F  </i>
   <i type="logical" name="LTETE"> F  </i>
   <i type="logical" name="LTRIPLET"> F  </i>
   <i type="logical" name="LFXCEPS"> F  </i>
   <i type="logical" name="LFXHEG"> F  </i>
   <i type="int" name="NATURALO">     0</i>
   <i type="logical" name="L2ORDER"> F  </i>
   <i type="logical" name="LUSEW"> F  </i>
   <i name="ENCUTGW">     -2.00000000</i>
   <i name="ENCUTGWSOFT">     -2.00000000</i>
   <i name="ENCUTLF">     -1.00000000</i>
   <i type="int" name="LMAXMP2">    -1</i>
   <i name="SCISSOR">      0.00000000</i>
   <i type="int" name="NOMEGA">     0</i>
   <i type="int" name="NOMEGAR">     0</i>
   <i type="int" name="NBANDSGW">    -1</i>
   <i type="int" name="NBANDSO">    -1</i>
   <i type="int" name="NBANDSV">    -1</i>
   <i type="int" name="NELM">   500</i>
   <i type="int" name="NELMHF">     1</i>
   <i type="int" name="DIM">     3</i>
   <i type="int" name="ANTIRES">     0</i>
   <i name="OMEGAMAX">    -30.00000000</i>
   <i name="OMEGAMIN">    -30.00000000</i>
   <i name="OMEGATL">   -200.00000000</i>
   <i type="int" name="OMEGAGRID">     0</i>
   <i name="CSHIFT">     -0.10000000</i>
   <i type="logical" name="SELFENERGY"> F  </i>
   <i type="logical" name="LSPECTRAL"> F  </i>
   <i type="logical" name="LSPECTRALGW"> F  </i>
   <i type="logical" name="LSINGLES"> F  </i>
   <i type="logical" name="LFERMIGW"> F  </i>
   <i type="logical" name="ODDONLYGW"> F  </i>
   <i type="logical" name="EVENONLYGW"> F  </i>
   <i type="int" name="NKREDLFX">     1</i>
   <i type="int" name="NKREDLFY">     1</i>
   <i type="int" name="NKREDLFZ">     1</i>
   <i type="int" name="MAXMEM">  1800</i>
   <i type="int" name="TELESCOPE">     0</i>
   <i type="int" name="TAUPAR">     1</i>
   <i type="int" name="OMEGAPAR">    -1</i>
   <i name="LAMBDA">      1.00000000</i>
  </separator>
  <separator name="External order field" >
   <i name="OFIELD_KAPPA">      0.00000000</i>
   <v name="OFIELD_K">      0.00000000      0.00000000      0.00000000</v>
   <i name="OFIELD_Q6_NEAR">      0.00000000</i>
   <i name="OFIELD_Q6_FAR">      0.00000000</i>
   <i name="OFIELD_A">      0.00000000</i>
  </separator>
 </parameters>
 <atominfo>
  <atoms>      48 </atoms>
  <types>       2 </types>
  <array name="atoms" >
   <dimension dim="1">ion</dimension>
   <field type="string">element</field>
   <field type="int">atomtype</field>
   <set>
    <rc><c>Au</c><c>   1</c></rc>
    <rc><c>Au</c><c>   1</c></rc>
    <rc><c>Au</c><c>   1</c></rc>
    <rc><c>Au</c><c>   1</c></rc>
    <rc><c>Au</c><c>   1</c></rc>
    <rc><c>Au</c><c>   1</c></rc>
    <rc><c>Au</c><c>   1</c></rc>
    <rc><c>Au</c><c>   1</c></rc>
    <rc><c>Au</c><c>   1</c></rc>
    <rc><c>Au</c><c>   1</c></rc>
    <rc><c>Au</c><c>   1</c></rc>
    <rc><c>Au</c><c>   1</c></rc>
    <rc><c>Au</c><c>   1</c></rc>
    <rc><c>Au</c><c>   1</c></rc>
    <rc><c>Au</c><c>   1</c></rc>
    <rc><c>Au</c><c>   1</c></rc>
    <rc><c>Au</c><c>   1</c></rc>
    <rc><c>Au</c><c>   1</c></rc>
    <rc><c>Au</c><c>   1</c></rc>
    <rc><c>Au</c><c>   1</c></rc>
    <rc><c>Au</c><c>   1</c></rc>
    <rc><c>Au</c><c>   1</c></rc>
    <rc><c>Au</c><c>   1</c></rc>
    <rc><c>Au</c><c>   1</c></rc>
    <rc><c>Pd</c><c>   2</c></rc>
    <rc><c>Pd</c><c>   2</c></rc>
    <rc><c>Pd</c><c>   2</c></rc>
    <rc><c>Pd</c><c>   2</c></rc>
    <rc><c>Pd</c><c>   2</c></rc>
    <rc><c>Pd</c><c>   2</c></rc>
    <rc><c>Pd</c><c>   2</c></rc>
    <rc><c>Pd</c><c>   2</c></rc>
    <rc><c>Pd</c><c>   2</c></rc>
    <rc><c>Pd</c><c>   2</c></rc>
    <rc><c>Pd</c><c>   2</c></rc>
    <rc><c>Pd</c><c>   2</c></rc>
    <rc><c>Pd</c><c>   2</c></rc>
    <rc><c>Pd</c><c>   2</c></rc>
    <rc><c>Pd</c><c>   2</c></rc>
    <rc><c>Pd</c><c>   2</c></rc>
    <rc><c>Pd</c><c>   2</c></rc>
    <rc><c>Pd</c><c>   2</c></rc>
    <rc><c>Pd</c><c>   2</c></rc>
    <rc><c>Pd</c><c>   2</c></rc>
    <rc><c>Pd</c><c>   2</c></rc>
    <rc><c>Pd</c><c>   2</c></rc>
    <rc><c>Pd</c><c>   2</c></rc>
    <rc><c>Pd</c><c>   2</c></rc>
   </set>
  </array>
  <array name="atomtypes" >
   <dimension dim="1">type</dimension>
   <field type="int">atomspertype</field>
   <field type="string">element</field>
   <field>mass</field>
   <field>valence</field>
   <field type="string">pseudopotential</field>
   <set>
    <rc><c>  24</c><c>Au</c><c>    196.96600000</c><c>     11.00000000</c><c>  PAW_PBE Au 04Oct2007                  </c></rc>
    <rc><c>  24</c><c>Pd</c><c>    106.42000000</c><c>     10.00000000</c><c>  PAW_PBE Pd 04Jan2005                  </c></rc>
   </set>
  </array>
 </atominfo>
 <structure name="initialpos" >
  <crystal>
   <varray name="basis" >
    <v>      11.00258152       0.00000000       0.00000000 </v>
    <v>       5.50129076       9.52851510       0.00000000 </v>
    <v>       0.00000000       0.00000000      24.49178509 </v>
   </varray>
   <i name="volume">   2567.67623402 </i>
   <varray name="rec_basis" >
    <v>       0.09088776      -0.05247407       0.00000000 </v>
    <v>       0.00000000       0.10494815       0.00000000 </v>
    <v>       0.00000000       0.00000000       0.04083002 </v>
   </varray>
  </crystal>
  <varray name="positions" >
   <v>       0.08333333       0.08333333       0.40830017 </v>
   <v>       0.83333333       0.58333333       0.40830017 </v>
   <v>       0.75000000       0.25000000       0.59169983 </v>
   <v>       0.66666667       0.41666667       0.50000000 </v>
   <v>       0.66666667       0.16666667       0.50000000 </v>
   <v>       0.50000000       0.75000000       0.59169983 </v>
   <v>       0.41666667       0.91666667       0.50000000 </v>
   <v>       0.58333333       0.83333333       0.40830017 </v>
   <v>       0.50000000       0.50000000       0.59169983 </v>
   <v>       0.41666667       0.66666667       0.50000000 </v>
   <v>       0.58333333       0.58333333       0.40830017 </v>
   <v>       0.50000000       0.25000000       0.59169983 </v>
   <v>       0.41666667       0.41666667       0.50000000 </v>
   <v>       0.41666667       0.16666667       0.50000000 </v>
   <v>       0.25000000       0.25000000       0.59169983 </v>
   <v>       0.16666667       0.41666667       0.50000000 </v>
   <v>       0.25000000       0.75000000       0.59169983 </v>
   <v>       0.00000000       0.50000000       0.59169983 </v>
   <v>       0.08333333       0.83333333       0.40830017 </v>
   <v>       0.91666667       0.91666667       0.50000000 </v>
   <v>       0.33333333       0.08333333       0.40830017 </v>
   <v>       0.33333333       0.33333333       0.40830017 </v>
   <v>       0.08333333       0.33333333       0.40830017 </v>
   <v>       0.16666667       0.16666667       0.50000000 </v>
   <v>       0.83333333       0.33333333       0.40830017 </v>
   <v>       0.91666667       0.16666667       0.50000000 </v>
   <v>       0.75000000       0.00000000       0.59169983 </v>
   <v>       0.91666667       0.41666667       0.50000000 </v>
   <v>       0.66666667       0.66666667       0.50000000 </v>
   <v>       0.83333333       0.08333333       0.40830017 </v>
   <v>       0.75000000       0.50000000       0.59169983 </v>
   <v>       0.83333333       0.83333333       0.40830017 </v>
   <v>       0.00000000       0.00000000       0.59169983 </v>
   <v>       0.00000000       0.25000000       0.59169983 </v>
   <v>       0.25000000       0.00000000       0.59169983 </v>
   <v>       0.91666667       0.66666667       0.50000000 </v>
   <v>       0.00000000       0.75000000       0.59169983 </v>
   <v>       0.58333333       0.33333333       0.40830017 </v>
   <v>       0.50000000       0.00000000       0.59169983 </v>
   <v>       0.58333333       0.08333333       0.40830017 </v>
   <v>       0.66666667       0.91666667       0.50000000 </v>
   <v>       0.16666667       0.91666667       0.50000000 </v>
   <v>       0.33333333       0.83333333       0.40830017 </v>
   <v>       0.25000000       0.50000000       0.59169983 </v>
   <v>       0.16666667       0.66666667       0.50000000 </v>
   <v>       0.33333333       0.58333333       0.40830017 </v>
   <v>       0.08333333       0.58333333       0.40830017 </v>
   <v>       0.75000000       0.75000000       0.59169983 </v>
  </varray>
 </structure>
 <calculation>
  <scstep>
   <time name="dav">    9.41    9.42</time>
   <time name="total">    9.48    9.49</time>
   <dipole>
    <v name="dipole">      0.00000000       0.00000000       0.00000074 </v>
    <i name="Tr[quadrupol]"> -10351.30126776 </i>
    <i name="Echarged">      0.00000000 </i>
    <i name="Edipol_quadrupol">      0.00000000 </i>
    <i name="Eion">      0.00000000 </i>
   </dipole>
   <energy>
    <i name="alphaZ">    805.86936440 </i>
    <i name="ewald"> 200404.94645206 </i>
    <i name="hartreedc">-242820.50431285 </i>
    <i name="XCdc">   -327.56111918 </i>
    <i name="pawpsdc">  40340.05962942 </i>
    <i name="pawaedc"> -38292.62782345 </i>
    <i name="eentropy">     -0.12922846 </i>
    <i name="bandstr">   1430.90356980 </i>
    <i name="atom">  41659.78587232 </i>
    <i name="e_fr_energy">   3200.74240406 </i>
    <i name="e_wo_entrp">   3200.87163252 </i>
    <i name="e_0_energy">   3200.80701829 </i>
   </energy>
  </scstep>
  <scstep>
   <time name="dav">   11.17   11.18</time>
   <time name="total">   11.17   11.18</time>
   <dipole>
    <v name="dipole">      0.00000000       0.00000000       0.00000074 </v>
    <i name="Tr[quadrupol]"> -10351.30126776 </i>
    <i name="Echarged">      0.00000000 </i>
    <i name="Edipol_quadrupol">      0.00000000 </i>
    <i name="Eion">      0.00000000 </i>
   </dipole>
   <energy>
    <i name="e_fr_energy">     14.84163475 </i>
    <i name="e_wo_entrp">     14.96288438 </i>
    <i name="e_0_energy">     14.90225956 </i>
   </energy>
  </scstep>
  <scstep>
   <time name="dav">   11.42   11.46</time>
   <time name="total">   11.43   11.47</time>
   <dipole>
    <v name="dipole">      0.00000000       0.00000000       0.00000074 </v>
    <i name="Tr[quadrupol]"> -10351.30126776 </i>
    <i name="Echarged">      0.00000000 </i>
    <i name="Edipol_quadrupol">      0.00000000 </i>
    <i name="Eion">      0.00000000 </i>
   </dipole>
   <energy>
    <i name="e_fr_energy">   -200.30073193 </i>
    <i name="e_wo_entrp">   -200.09007166 </i>
    <i name="e_0_energy">   -200.19540179 </i>
   </energy>
  </scstep>
  <scstep>
   <time name="dav">   10.93   11.01</time>
   <time name="total">   10.93   11.01</time>
   <dipole>
    <v name="dipole">      0.00000000       0.00000000       0.00000074 </v>
    <i name="Tr[quadrupol]"> -10351.30126776 </i>
    <i name="Echarged">      0.00000000 </i>
    <i name="Edipol_quadrupol">      0.00000000 </i>
    <i name="Eion">      0.00000000 </i>
   </dipole>
   <energy>
    <i name="e_fr_energy">   -206.09965453 </i>
    <i name="e_wo_entrp">   -205.87823376 </i>
    <i name="e_0_energy">   -205.98894414 </i>
   </energy>
  </scstep>
  <scstep>
   <time name="dav">   11.44   11.45</time>
   <time name="total">   11.75   11.76</time>
   <dipole>
    <v name="dipole">      0.00000000       0.00000000       0.00000074 </v>
    <i name="Tr[quadrupol]"> -10351.30126776 </i>
    <i name="Echarged">      0.00000000 </i>
    <i name="Edipol_quadrupol">      0.00000000 </i>
    <i name="Eion">      0.00000000 </i>
   </dipole>
   <energy>
    <i name="e_fr_energy">   -206.30411218 </i>
    <i name="e_wo_entrp">   -206.08291562 </i>
    <i name="e_0_energy">   -206.19351390 </i>
   </energy>
  </scstep>
  <scstep>
   <time name="diag">    1.67    1.67</time>
   <time name="diis">    4.50    4.51</time>
   <time name="orth">    0.42    0.42</time>
   <time name="total">    6.96    6.97</time>
   <dipole>
    <v name="dipole">      0.00000000       0.00000000       0.33955863 </v>
    <i name="Tr[quadrupol]"> -10351.98145732 </i>
    <i name="Echarged">      0.00000000 </i>
    <i name="Edipol_quadrupol">      0.00000000 </i>
    <i name="Eion">      0.00000000 </i>
   </dipole>
   <energy>
    <i name="e_fr_energy">   -199.70469992 </i>
    <i name="e_wo_entrp">   -199.44842284 </i>
    <i name="e_0_energy">   -199.57656138 </i>
   </energy>
  </scstep>
  <scstep>
   <time name="diag">    1.68    1.68</time>
   <time name="diis">    4.38    4.39</time>
   <time name="orth">    0.42    0.42</time>
   <time name="total">    6.85    6.86</time>
   <dipole>
    <v name="dipole">      0.00000000       0.00000000      -0.89048415 </v>
    <i name="Tr[quadrupol]"> -10351.05711184 </i>
    <i name="Echarged">      0.00000000 </i>
    <i name="Edipol_quadrupol">      0.00000000 </i>
    <i name="Eion">      0.00000000 </i>
   </dipole>
   <energy>
    <i name="e_fr_energy">   -205.31886561 </i>
    <i name="e_wo_entrp">   -205.10678618 </i>
    <i name="e_0_energy">   -205.21282590 </i>
   </energy>
  </scstep>
  <scstep>
   <time name="diag">    1.67    1.67</time>
   <time name="diis">    4.44    4.44</time>
   <time name="orth">    0.42    0.42</time>
   <time name="total">    6.90    6.91</time>
   <dipole>
    <v name="dipole">      0.00000000       0.00000000       2.12930825 </v>
    <i name="Tr[quadrupol]"> -10353.00617220 </i>
    <i name="Echarged">      0.00000000 </i>
    <i name="Edipol_quadrupol">      0.00000000 </i>
    <i name="Eion">      0.00000000 </i>
   </dipole>
   <energy>
    <i name="e_fr_energy">   -229.51922370 </i>
    <i name="e_wo_entrp">   -229.24985178 </i>
    <i name="e_0_energy">   -229.38453774 </i>
   </energy>
  </scstep>
  <scstep>
   <time name="diag">    1.67    1.70</time>
   <time name="diis">    4.35    4.40</time>
   <time name="orth">    0.43    0.43</time>
   <time name="total">    6.82    6.90</time>
   <dipole>
    <v name="dipole">      0.00000000       0.00000000      -0.61677826 </v>
    <i name="Tr[quadrupol]"> -10354.04753263 </i>
    <i name="Echarged">      0.00000000 </i>
    <i name="Edipol_quadrupol">      0.00000000 </i>
    <i name="Eion">      0.00000000 </i>
   </dipole>
   <energy>
    <i name="e_fr_energy">   -211.18926894 </i>
    <i name="e_wo_entrp">   -210.96378141 </i>
    <i name="e_0_energy">   -211.07652518 </i>
   </energy>
  </scstep>
  <scstep>
   <time name="diag">    2.00    2.01</time>
   <time name="diis">    4.51    4.52</time>
   <time name="orth">    0.41    0.41</time>
   <time name="total">    7.32    7.35</time>
   <dipole>
    <v name="dipole">      0.00000000       0.00000000       0.32340593 </v>
    <i name="Tr[quadrupol]"> -10352.64413501 </i>
    <i name="Echarged">      0.00000000 </i>
    <i name="Edipol_quadrupol">      0.00000000 </i>
    <i name="Eion">      0.00000000 </i>
   </dipole>
   <energy>
    <i name="e_fr_energy">   -196.43608986 </i>
    <i name="e_wo_entrp">   -196.24974516 </i>
    <i name="e_0_energy">   -196.34291751 </i>
   </energy>
  </scstep>
  <scstep>
   <time name="diag">    1.67    1.67</time>
   <time name="diis">    4.53    4.54</time>
   <time name="orth">    0.41    0.41</time>
   <time name="total">    6.98    6.98</time>
   <dipole>
    <v name="dipole">      0.00000000       0.00000000       0.03905584 </v>
    <i name="Tr[quadrupol]"> -10353.41324026 </i>
    <i name="Echarged">      0.00000000 </i>
    <i name="Edipol_quadrupol">      0.00000000 </i>
    <i name="Eion">      0.00000000 </i>
   </dipole>
   <energy>
    <i name="e_fr_energy">   -190.80573444 </i>
    <i name="e_wo_entrp">   -190.57967017 </i>
    <i name="e_0_energy">   -190.69270230 </i>
   </energy>
  </scstep>
  <scstep>
   <time name="diag">    1.66    1.66</time>
   <time name="diis">    4.50    4.50</time>
   <time name="orth">    0.41    0.41</time>
   <time name="total">    6.93    6.94</time>
   <dipole>
    <v name="dipole">      0.00000000       0.00000000       0.03794489 </v>
    <i name="Tr[quadrupol]"> -10353.64093095 </i>
    <i name="Echarged">      0.00000000 </i>
    <i name="Edipol_quadrupol">      0.00000000 </i>
    <i name="Eion">      0.00000000 </i>
   </dipole>
   <energy>
    <i name="e_fr_energy">   -188.66211001 </i>
    <i name="e_wo_entrp">   -188.41790548 </i>
    <i name="e_0_energy">   -188.54000775 </i>
   </energy>
  </scstep>
  <scstep>
   <time name="diag">    1.67    1.67</time>
   <time name="diis">    4.54    4.55</time>
   <time name="orth">    0.41    0.41</time>
   <time name="total">    6.98    6.99</time>
   <dipole>
    <v name="dipole">      0.00000000       0.00000000       0.00461654 </v>
    <i name="Tr[quadrupol]"> -10354.06925098 </i>
    <i name="Echarged">      0.00000000 </i>
    <i name="Edipol_quadrupol">      0.00000000 </i>
    <i name="Eion">      0.00000000 </i>
   </dipole>
   <energy>
    <i name="e_fr_energy">   -188.43439526 </i>
    <i name="e_wo_entrp">   -188.18385581 </i>
    <i name="e_0_energy">   -188.30912554 </i>
   </energy>
  </scstep>
  <scstep>
   <time name="diag">    1.66    1.66</time>
   <time name="diis">    4.46    4.46</time>
   <time name="orth">    0.40    0.42</time>
   <time name="total">    6.88    6.93</time>
   <dipole>
    <v name="dipole">      0.00000000       0.00000000       0.02608568 </v>
    <i name="Tr[quadrupol]"> -10354.20507698 </i>
    <i name="Echarged">      0.00000000 </i>
    <i name="Edipol_quadrupol">      0.00000000 </i>
    <i name="Eion">      0.00000000 </i>
   </dipole>
   <energy>
    <i name="e_fr_energy">   -188.66109943 </i>
    <i name="e_wo_entrp">   -188.42411693 </i>
    <i name="e_0_energy">   -188.54260818 </i>
   </energy>
  </scstep>
  <scstep>
   <time name="diag">    1.66    1.68</time>
   <time name="diis">    4.47    4.47</time>
   <time name="orth">    0.41    0.41</time>
   <time name="total">    6.90    6.93</time>
   <dipole>
    <v name="dipole">      0.00000000       0.00000000       0.03002404 </v>
    <i name="Tr[quadrupol]"> -10354.40032013 </i>
    <i name="Echarged">      0.00000000 </i>
    <i name="Edipol_quadrupol">      0.00000000 </i>
    <i name="Eion">      0.00000000 </i>
   </dipole>
   <energy>
    <i name="e_fr_energy">   -188.48799356 </i>
    <i name="e_wo_entrp">   -188.25153411 </i>
    <i name="e_0_energy">   -188.36976383 </i>
   </energy>
  </scstep>
  <scstep>
   <time name="diag">    1.65    1.66</time>
   <time name="diis">    4.52    4.52</time>
   <time name="orth">    0.41    0.41</time>
   <time name="total">    6.95    6.95</time>
   <dipole>
    <v name="dipole">      0.00000000       0.00000000       0.04496806 </v>
    <i name="Tr[quadrupol]"> -10354.65880428 </i>
    <i name="Echarged">      0.00000000 </i>
    <i name="Edipol_quadrupol">      0.00000000 </i>
    <i name="Eion">      0.00000000 </i>
   </dipole>
   <energy>
    <i name="e_fr_energy">   -188.29798996 </i>
    <i name="e_wo_entrp">   -188.05051989 </i>
    <i name="e_0_energy">   -188.17425492 </i>
   </energy>
  </scstep>
  <scstep>
   <time name="diag">    1.66    1.67</time>
   <time name="diis">    4.43    4.43</time>
   <time name="orth">    0.41    0.41</time>
   <time name="total">    6.88    6.88</time>
   <dipole>
    <v name="dipole">      0.00000000       0.00000000       0.04779761 </v>
    <i name="Tr[quadrupol]"> -10355.02842271 </i>
    <i name="Echarged">      0.00000000 </i>
    <i name="Edipol_quadrupol">      0.00000000 </i>
    <i name="Eion">      0.00000000 </i>
   </dipole>
   <energy>
    <i name="e_fr_energy">   -188.18068746 </i>
    <i name="e_wo_entrp">   -187.92738926 </i>
    <i name="e_0_energy">   -188.05403836 </i>
   </energy>
  </scstep>
  <scstep>
   <time name="diag">    1.65    1.65</time>
   <time name="diis">    4.82    4.86</time>
   <time name="orth">    0.48    0.49</time>
   <time name="total">    7.44    7.48</time>
   <dipole>
    <v name="dipole">      0.00000000       0.00000000       0.03260123 </v>
    <i name="Tr[quadrupol]"> -10355.18935828 </i>
    <i name="Echarged">      0.00000000 </i>
    <i name="Edipol_quadrupol">      0.00000000 </i>
    <i name="Eion">      0.00000000 </i>
   </dipole>
   <energy>
    <i name="e_fr_energy">   -188.08967998 </i>
    <i name="e_wo_entrp">   -187.82826670 </i>
    <i name="e_0_energy">   -187.95897334 </i>
   </energy>
  </scstep>
  <scstep>
   <time name="diag">    1.66    1.66</time>
   <time name="diis">    4.51    4.51</time>
   <time name="orth">    0.40    0.40</time>
   <time name="total">    6.92    6.93</time>
   <dipole>
    <v name="dipole">      0.00000000       0.00000000       0.02244612 </v>
    <i name="Tr[quadrupol]"> -10355.36458315 </i>
    <i name="Echarged">      0.00000000 </i>
    <i name="Edipol_quadrupol">      0.00000000 </i>
    <i name="Eion">      0.00000000 </i>
   </dipole>
   <energy>
    <i name="e_fr_energy">   -188.06428419 </i>
    <i name="e_wo_entrp">   -187.80050904 </i>
    <i name="e_0_energy">   -187.93239661 </i>
   </energy>
  </scstep>
  <scstep>
   <time name="diag">    1.64    1.64</time>
   <time name="diis">    4.50    4.51</time>
   <time name="orth">    0.40    0.40</time>
   <time name="total">    6.91    6.92</time>
   <dipole>
    <v name="dipole">      0.00000000       0.00000000       0.01440999 </v>
    <i name="Tr[quadrupol]"> -10355.46595843 </i>
    <i name="Echarged">      0.00000000 </i>
    <i name="Edipol_quadrupol">      0.00000000 </i>
    <i name="Eion">      0.00000000 </i>
   </dipole>
   <energy>
    <i name="e_fr_energy">   -188.05986999 </i>
    <i name="e_wo_entrp">   -187.79462452 </i>
    <i name="e_0_energy">   -187.92724726 </i>
   </energy>
  </scstep>
  <scstep>
   <time name="diag">    1.61    1.67</time>
   <time name="diis">    4.46    4.46</time>
   <time name="orth">    0.40    0.40</time>
   <time name="total">    6.84    6.91</time>
   <dipole>
    <v name="dipole">      0.00000000       0.00000000       0.01196868 </v>
    <i name="Tr[quadrupol]"> -10355.58633536 </i>
    <i name="Echarged">      0.00000000 </i>
    <i name="Edipol_quadrupol">      0.00000000 </i>
    <i name="Eion">      0.00000000 </i>
   </dipole>
   <energy>
    <i name="e_fr_energy">   -188.05755458 </i>
    <i name="e_wo_entrp">   -187.79190953 </i>
    <i name="e_0_energy">   -187.92473206 </i>
   </energy>
  </scstep>
  <scstep>
   <time name="diag">    1.64    1.64</time>
   <time name="diis">    4.51    4.51</time>
   <time name="orth">    0.40    0.40</time>
   <time name="total">    6.92    6.92</time>
   <dipole>
    <v name="dipole">      0.00000000       0.00000000       0.01399897 </v>
    <i name="Tr[quadrupol]"> -10355.68898580 </i>
    <i name="Echarged">      0.00000000 </i>
    <i name="Edipol_quadrupol">      0.00000000 </i>
    <i name="Eion">      0.00000000 </i>
   </dipole>
   <energy>
    <i name="e_fr_energy">   -188.05663351 </i>
    <i name="e_wo_entrp">   -187.79148528 </i>
    <i name="e_0_energy">   -187.92405939 </i>
   </energy>
  </scstep>
  <scstep>
   <time name="diag">    1.66    1.66</time>
   <time name="diis">    4.51    4.51</time>
   <time name="orth">    0.40    0.40</time>
   <time name="total">    6.93    6.93</time>
   <dipole>
    <v name="dipole">      0.00000000       0.00000000       0.01568851 </v>
    <i name="Tr[quadrupol]"> -10355.85404629 </i>
    <i name="Echarged">      0.00000000 </i>
    <i name="Edipol_quadrupol">      0.00000000 </i>
    <i name="Eion">      0.00000000 </i>
   </dipole>
   <energy>
    <i name="e_fr_energy">   -188.05558872 </i>
    <i name="e_wo_entrp">   -187.79012571 </i>
    <i name="e_0_energy">   -187.92285721 </i>
   </energy>
  </scstep>
  <scstep>
   <time name="diag">    1.64    1.64</time>
   <time name="diis">    4.53    4.53</time>
   <time name="orth">    0.40    0.40</time>
   <time name="total">    6.93    6.94</time>
   <dipole>
    <v name="dipole">      0.00000000       0.00000000       0.01312857 </v>
    <i name="Tr[quadrupol]"> -10355.95277568 </i>
    <i name="Echarged">      0.00000000 </i>
    <i name="Edipol_quadrupol">      0.00000000 </i>
    <i name="Eion">      0.00000000 </i>
   </dipole>
   <energy>
    <i name="e_fr_energy">   -188.05526417 </i>
    <i name="e_wo_entrp">   -187.78930090 </i>
    <i name="e_0_energy">   -187.92228253 </i>
   </energy>
  </scstep>
  <scstep>
   <time name="diag">    1.65    1.65</time>
   <time name="diis">    4.45    4.45</time>
   <time name="orth">    0.40    0.40</time>
   <time name="total">    6.86    6.87</time>
   <dipole>
    <v name="dipole">      0.00000000       0.00000000       0.01137211 </v>
    <i name="Tr[quadrupol]"> -10356.02986218 </i>
    <i name="Echarged">      0.00000000 </i>
    <i name="Edipol_quadrupol">      0.00000000 </i>
    <i name="Eion">      0.00000000 </i>
   </dipole>
   <energy>
    <i name="e_fr_energy">   -188.05535454 </i>
    <i name="e_wo_entrp">   -187.78908734 </i>
    <i name="e_0_energy">   -187.92222094 </i>
   </energy>
  </scstep>
  <scstep>
   <time name="diag">    1.64    1.64</time>
   <time name="diis">    4.44    4.50</time>
   <time name="orth">    0.40    0.41</time>
   <time name="total">    6.84    6.92</time>
   <dipole>
    <v name="dipole">      0.00000000       0.00000000       0.01105903 </v>
    <i name="Tr[quadrupol]"> -10356.11721601 </i>
    <i name="Echarged">      0.00000000 </i>
    <i name="Edipol_quadrupol">      0.00000000 </i>
    <i name="Eion">      0.00000000 </i>
   </dipole>
   <energy>
    <i name="e_fr_energy">   -188.05573285 </i>
    <i name="e_wo_entrp">   -187.78940143 </i>
    <i name="e_0_energy">   -187.92256714 </i>
   </energy>
  </scstep>
  <scstep>
   <time name="diag">    1.65    1.65</time>
   <time name="diis">    4.84    4.87</time>
   <time name="orth">    0.39    0.39</time>
   <time name="total">    7.24    7.28</time>
   <dipole>
    <v name="dipole">      0.00000000       0.00000000       0.01055051 </v>
    <i name="Tr[quadrupol]"> -10356.19290594 </i>
    <i name="Echarged">      0.00000000 </i>
    <i name="Edipol_quadrupol">      0.00000000 </i>
    <i name="Eion">      0.00000000 </i>
   </dipole>
   <energy>
    <i name="e_fr_energy">   -188.05613327 </i>
    <i name="e_wo_entrp">   -187.78991078 </i>
    <i name="e_0_energy">   -187.92302202 </i>
   </energy>
  </scstep>
  <scstep>
   <time name="diag">    1.63    1.63</time>
   <time name="diis">    4.47    4.47</time>
   <time name="orth">    0.39    0.40</time>
   <time name="total">    6.86    6.87</time>
   <dipole>
    <v name="dipole">      0.00000000       0.00000000       0.01050337 </v>
    <i name="Tr[quadrupol]"> -10356.27244193 </i>
    <i name="Echarged">      0.00000000 </i>
    <i name="Edipol_quadrupol">      0.00000000 </i>
    <i name="Eion">      0.00000000 </i>
   </dipole>
   <energy>
    <i name="e_fr_energy">   -188.05672082 </i>
    <i name="e_wo_entrp">   -187.79044674 </i>
    <i name="e_0_energy">   -187.92358378 </i>
   </energy>
  </scstep>
  <scstep>
   <time name="diag">    1.65    1.65</time>
   <time name="diis">    4.54    4.54</time>
   <time name="orth">    0.39    0.39</time>
   <time name="total">    6.94    6.95</time>
   <dipole>
    <v name="dipole">      0.00000000       0.00000000       0.00977779 </v>
    <i name="Tr[quadrupol]"> -10356.33421703 </i>
    <i name="Echarged">      0.00000000 </i>
    <i name="Edipol_quadrupol">      0.00000000 </i>
    <i name="Eion">      0.00000000 </i>
   </dipole>
   <energy>
    <i name="e_fr_energy">   -188.05726477 </i>
    <i name="e_wo_entrp">   -187.79098329 </i>
    <i name="e_0_energy">   -187.92412403 </i>
   </energy>
  </scstep>
  <scstep>
   <time name="diag">    1.64    1.64</time>
   <time name="diis">    4.28    4.28</time>
   <time name="orth">    0.39    0.39</time>
   <time name="total">    6.68    6.69</time>
   <dipole>
    <v name="dipole">      0.00000000       0.00000000       0.00930605 </v>
    <i name="Tr[quadrupol]"> -10356.38988775 </i>
    <i name="Echarged">      0.00000000 </i>
    <i name="Edipol_quadrupol">      0.00000000 </i>
    <i name="Eion">      0.00000000 </i>
   </dipole>
   <energy>
    <i name="e_fr_energy">   -188.05779410 </i>
    <i name="e_wo_entrp">   -187.79154697 </i>
    <i name="e_0_energy">   -187.92467053 </i>
   </energy>
  </scstep>
  <scstep>
   <time name="diag">    1.65    1.65</time>
   <time name="diis">    4.22    4.23</time>
   <time name="orth">    0.39    0.39</time>
   <time name="total">    6.63    6.64</time>
   <dipole>
    <v name="dipole">      0.00000000       0.00000000       0.00848626 </v>
    <i name="Tr[quadrupol]"> -10356.44534843 </i>
    <i name="Echarged">      0.00000000 </i>
    <i name="Edipol_quadrupol">      0.00000000 </i>
    <i name="Eion">      0.00000000 </i>
   </dipole>
   <energy>
    <i name="e_fr_energy">   -188.05830648 </i>
    <i name="e_wo_entrp">   -187.79205414 </i>
    <i name="e_0_energy">   -187.92518031 </i>
   </energy>
  </scstep>
  <scstep>
   <time name="diag">    1.64    1.64</time>
   <time name="diis">    3.76    3.83</time>
   <time name="orth">    0.39    0.39</time>
   <time name="total">    6.16    6.24</time>
   <dipole>
    <v name="dipole">      0.00000000       0.00000000       0.00802553 </v>
    <i name="Tr[quadrupol]"> -10356.48547650 </i>
    <i name="Echarged">      0.00000000 </i>
    <i name="Edipol_quadrupol">      0.00000000 </i>
    <i name="Eion">      0.00000000 </i>
   </dipole>
   <energy>
    <i name="e_fr_energy">   -188.05861729 </i>
    <i name="e_wo_entrp">   -187.79233091 </i>
    <i name="e_0_energy">   -187.92547410 </i>
   </energy>
  </scstep>
  <scstep>
   <time name="diag">    1.65    1.65</time>
   <time name="diis">    3.41    3.42</time>
   <time name="orth">    0.40    0.40</time>
   <time name="total">    5.83    5.84</time>
   <dipole>
    <v name="dipole">      0.00000000       0.00000000       0.00779426 </v>
    <i name="Tr[quadrupol]"> -10356.50442055 </i>
    <i name="Echarged">      0.00000000 </i>
    <i name="Edipol_quadrupol">      0.00000000 </i>
    <i name="Eion">      0.00000000 </i>
   </dipole>
   <energy>
    <i name="e_fr_energy">   -188.05876605 </i>
    <i name="e_wo_entrp">   -187.79250502 </i>
    <i name="e_0_energy">   -187.92563554 </i>
   </energy>
  </scstep>
  <scstep>
   <time name="diag">    1.64    1.64</time>
   <time name="diis">    2.92    2.92</time>
   <time name="orth">    0.39    0.39</time>
   <time name="total">    5.32    5.32</time>
   <dipole>
    <v name="dipole">      0.00000000       0.00000000       0.00766286 </v>
    <i name="Tr[quadrupol]"> -10356.51278024 </i>
    <i name="Echarged">      0.00000000 </i>
    <i name="Edipol_quadrupol">      0.00000000 </i>
    <i name="Eion">      0.00000000 </i>
   </dipole>
   <energy>
    <i name="e_fr_energy">   -188.05882764 </i>
    <i name="e_wo_entrp">   -187.79256824 </i>
    <i name="e_0_energy">   -187.92569794 </i>
   </energy>
  </scstep>
  <scstep>
   <time name="diag">    1.65    1.65</time>
   <time name="diis">    2.77    2.77</time>
   <time name="orth">    0.39    0.39</time>
   <time name="total">    5.18    5.19</time>
   <dipole>
    <v name="dipole">      0.00000000       0.00000000       0.00748772 </v>
    <i name="Tr[quadrupol]"> -10356.52281613 </i>
    <i name="Echarged">      0.00000000 </i>
    <i name="Edipol_quadrupol">      0.00000000 </i>
    <i name="Eion">      0.00000000 </i>
   </dipole>
   <energy>
    <i name="e_fr_energy">   -188.05889807 </i>
    <i name="e_wo_entrp">   -187.79263774 </i>
    <i name="e_0_energy">   -187.92576791 </i>
   </energy>
  </scstep>
  <scstep>
   <time name="diag">    1.65    1.66</time>
   <time name="diis">    2.73    2.74</time>
   <time name="orth">    0.39    0.39</time>
   <time name="total">    5.15    5.16</time>
   <dipole>
    <v name="dipole">      0.00000000       0.00000000       0.00736027 </v>
    <i name="Tr[quadrupol]"> -10356.52841308 </i>
    <i name="Echarged">      0.00000000 </i>
    <i name="Edipol_quadrupol">      0.00000000 </i>
    <i name="Eion">      0.00000000 </i>
   </dipole>
   <energy>
    <i name="e_fr_energy">   -188.05893185 </i>
    <i name="e_wo_entrp">   -187.79266657 </i>
    <i name="e_0_energy">   -187.92579921 </i>
   </energy>
  </scstep>
  <scstep>
   <time name="diag">    1.99    2.00</time>
   <time name="diis">    2.91    2.92</time>
   <time name="orth">    0.39    0.39</time>
   <time name="total">    5.68    5.70</time>
   <dipole>
    <v name="dipole">      0.00000000       0.00000000       0.00722140 </v>
    <i name="Tr[quadrupol]"> -10356.53509399 </i>
    <i name="Echarged">      0.00000000 </i>
    <i name="Edipol_quadrupol">      0.00000000 </i>
    <i name="Eion">      0.00000000 </i>
   </dipole>
   <energy>
    <i name="e_fr_energy">   -188.05896181 </i>
    <i name="e_wo_entrp">   -187.79269760 </i>
    <i name="e_0_energy">   -187.92582971 </i>
   </energy>
  </scstep>
  <scstep>
   <time name="diag">    1.64    1.65</time>
   <time name="diis">    2.41    2.42</time>
   <time name="orth">    0.39    0.39</time>
   <time name="total">    4.82    4.83</time>
   <dipole>
    <v name="dipole">      0.00000000       0.00000000       0.00715927 </v>
    <i name="Tr[quadrupol]"> -10356.53883111 </i>
    <i name="Echarged">      0.00000000 </i>
    <i name="Edipol_quadrupol">      0.00000000 </i>
    <i name="Eion">      0.00000000 </i>
   </dipole>
   <energy>
    <i name="e_fr_energy">   -188.05897068 </i>
    <i name="e_wo_entrp">   -187.79270733 </i>
    <i name="e_0_energy">   -187.92583900 </i>
   </energy>
  </scstep>
  <scstep>
   <time name="diag">    1.65    1.65</time>
   <time name="diis">    2.45    2.45</time>
   <time name="orth">    0.39    0.39</time>
   <time name="total">    4.86    4.86</time>
   <dipole>
    <v name="dipole">      0.00000000       0.00000000       0.00709763 </v>
    <i name="Tr[quadrupol]"> -10356.54275833 </i>
    <i name="Echarged">      0.00000000 </i>
    <i name="Edipol_quadrupol">      0.00000000 </i>
    <i name="Eion">      0.00000000 </i>
   </dipole>
   <energy>
    <i name="e_fr_energy">   -188.05897487 </i>
    <i name="e_wo_entrp">   -187.79271106 </i>
    <i name="e_0_energy">   -187.92584297 </i>
   </energy>
  </scstep>
  <scstep>
   <time name="diag">    1.65    1.66</time>
   <time name="diis">    2.15    2.15</time>
   <time name="orth">    0.39    0.39</time>
   <time name="total">    4.56    4.59</time>
   <dipole>
    <v name="dipole">      0.00000000       0.00000000       0.00706124 </v>
    <i name="Tr[quadrupol]"> -10356.54524614 </i>
    <i name="Echarged">      0.00000000 </i>
    <i name="Edipol_quadrupol">      0.00000000 </i>
    <i name="Eion">      0.00000000 </i>
   </dipole>
   <energy>
    <i name="e_fr_energy">   -188.05897597 </i>
    <i name="e_wo_entrp">   -187.79271192 </i>
    <i name="e_0_energy">   -187.92584395 </i>
   </energy>
  </scstep>
  <scstep>
   <time name="diag">    1.63    1.66</time>
   <time name="diis">    1.98    1.98</time>
   <time name="orth">    0.39    0.39</time>
   <time name="total">    4.06    4.10</time>
   <dipole>
    <v name="dipole">      0.00000000       0.00000000       0.00704115 </v>
    <i name="Tr[quadrupol]"> -10356.54693206 </i>
    <i name="Echarged">      0.00000000 </i>
    <i name="Edipol_quadrupol">      0.00000000 </i>
    <i name="Eion">      0.00000000 </i>
   </dipole>
   <energy>
    <i name="alphaZ">    805.87047700 </i>
    <i name="ewald"> 200404.94645206 </i>
    <i name="hartreedc">-242586.80051240 </i>
    <i name="XCdc">   -343.24604409 </i>
    <i name="pawpsdc">  49426.72819345 </i>
    <i name="pawaedc"> -47504.83597011 </i>
    <i name="eentropy">     -0.26626339 </i>
    <i name="bandstr">  -2050.24118138 </i>
    <i name="atom">  41659.78587232 </i>
    <i name="e_fr_energy">   -188.05897654 </i>
    <i name="e_wo_entrp">   -187.79271315 </i>
    <i name="e_0_energy">   -187.92584485 </i>
   </energy>
  </scstep>
  <structure>
   <crystal>
    <varray name="basis" >
     <v>      11.00258152       0.00000000       0.00000000 </v>
     <v>       5.50129076       9.52851510       0.00000000 </v>
     <v>       0.00000000       0.00000000      24.49178509 </v>
    </varray>
    <i name="volume">   2567.67623402 </i>
    <varray name="rec_basis" >
     <v>       0.09088776      -0.05247407       0.00000000 </v>
     <v>       0.00000000       0.10494815       0.00000000 </v>
     <v>       0.00000000       0.00000000       0.04083002 </v>
    </varray>
   </crystal>
   <varray name="positions" >
    <v>       0.08333333       0.08333333       0.40830017 </v>
    <v>       0.83333333       0.58333333       0.40830017 </v>
    <v>       0.75000000       0.25000000       0.59169983 </v>
    <v>       0.66666667       0.41666667       0.50000000 </v>
    <v>       0.66666667       0.16666667       0.50000000 </v>
    <v>       0.50000000       0.75000000       0.59169983 </v>
    <v>       0.41666667       0.91666667       0.50000000 </v>
    <v>       0.58333333       0.83333333       0.40830017 </v>
    <v>       0.50000000       0.50000000       0.59169983 </v>
    <v>       0.41666667       0.66666667       0.50000000 </v>
    <v>       0.58333333       0.58333333       0.40830017 </v>
    <v>       0.50000000       0.25000000       0.59169983 </v>
    <v>       0.41666667       0.41666667       0.50000000 </v>
    <v>       0.41666667       0.16666667       0.50000000 </v>
    <v>       0.25000000       0.25000000       0.59169983 </v>
    <v>       0.16666667       0.41666667       0.50000000 </v>
    <v>       0.25000000       0.75000000       0.59169983 </v>
    <v>       0.00000000       0.50000000       0.59169983 </v>
    <v>       0.08333333       0.83333333       0.40830017 </v>
    <v>       0.91666667       0.91666667       0.50000000 </v>
    <v>       0.33333333       0.08333333       0.40830017 </v>
    <v>       0.33333333       0.33333333       0.40830017 </v>
    <v>       0.08333333       0.33333333       0.40830017 </v>
    <v>       0.16666667       0.16666667       0.50000000 </v>
    <v>       0.83333333       0.33333333       0.40830017 </v>
    <v>       0.91666667       0.16666667       0.50000000 </v>
    <v>       0.75000000       0.00000000       0.59169983 </v>
    <v>       0.91666667       0.41666667       0.50000000 </v>
    <v>       0.66666667       0.66666667       0.50000000 </v>
    <v>       0.83333333       0.08333333       0.40830017 </v>
    <v>       0.75000000       0.50000000       0.59169983 </v>
    <v>       0.83333333       0.83333333       0.40830017 </v>
    <v>       0.00000000       0.00000000       0.59169983 </v>
    <v>       0.00000000       0.25000000       0.59169983 </v>
    <v>       0.25000000       0.00000000       0.59169983 </v>
    <v>       0.91666667       0.66666667       0.50000000 </v>
    <v>       0.00000000       0.75000000       0.59169983 </v>
    <v>       0.58333333       0.33333333       0.40830017 </v>
    <v>       0.50000000       0.00000000       0.59169983 </v>
    <v>       0.58333333       0.08333333       0.40830017 </v>
    <v>       0.66666667       0.91666667       0.50000000 </v>
    <v>       0.16666667       0.91666667       0.50000000 </v>
    <v>       0.33333333       0.83333333       0.40830017 </v>
    <v>       0.25000000       0.50000000       0.59169983 </v>
    <v>       0.16666667       0.66666667       0.50000000 </v>
    <v>       0.33333333       0.58333333       0.40830017 </v>
    <v>       0.08333333       0.58333333       0.40830017 </v>
    <v>       0.75000000       0.75000000       0.59169983 </v>
   </varray>
  </structure>
  <varray name="forces" >
   <v>      -0.39298132      -0.04769338      -1.39585768 </v>
   <v>       0.25674282       0.03727737      -1.10635071 </v>
   <v>       0.50440084      -0.27086431       1.60536075 </v>
   <v>       0.83697093      -0.13125549      -0.34097529 </v>
   <v>       0.20776531      -0.59212081      -0.56366379 </v>
   <v>       0.50928476       0.14489735       1.57387116 </v>
   <v>      -0.01441224      -0.16069077       0.29923173 </v>
   <v>       0.30238932       0.11155514      -1.36246071 </v>
   <v>       0.01793617       0.02921336       1.90446709 </v>
   <v>      -0.33903070       0.37078865      -0.54293783 </v>
   <v>      -0.22754246      -0.15353237      -1.55361443 </v>
   <v>      -0.09616023      -0.25899616       1.90988937 </v>
   <v>      -0.16598508       0.49786126      -0.36176770 </v>
   <v>       0.40301840      -0.63951390       0.05356588 </v>
   <v>      -0.14954448      -0.20180169       1.81566717 </v>
   <v>      -0.13062869       0.94492639       0.03233385 </v>
   <v>      -0.47991385       0.28647515       1.37996223 </v>
   <v>      -0.27536872       0.32552229       1.27661989 </v>
   <v>      -0.01198149      -0.25729434      -1.25970291 </v>
   <v>      -0.06304781      -0.17474440       0.27225968 </v>
   <v>       0.14815233      -0.24100003      -1.90652935 </v>
   <v>       0.39335988       0.22915178      -1.85082154 </v>
   <v>      -0.29154279       0.32881988      -1.60920349 </v>
   <v>      -0.87077079      -0.16021461       0.60585571 </v>
   <v>      -0.15009827      -0.23265552      -0.72744525 </v>
   <v>       0.17822646       0.00367313       0.03129305 </v>
   <v>      -0.06118080      -0.34754683       0.81094035 </v>
   <v>      -0.30234767       0.06301508       0.18769966 </v>
   <v>       0.58040467      -0.02656039       0.30704593 </v>
   <v>      -0.11729808       0.17834993      -0.78540914 </v>
   <v>       0.27562141       0.04988229       0.72007803 </v>
   <v>      -0.01024005       0.09877169      -0.58130975 </v>
   <v>       0.06760355      -0.01846888       0.66389006 </v>
   <v>      -0.18910323      -0.15032385       0.70888104 </v>
   <v>      -0.18917740       0.14365618       0.85089916 </v>
   <v>      -0.11015390       0.19166020       0.04684131 </v>
   <v>       0.00067013       0.12268359       0.55881920 </v>
   <v>       0.08063826      -0.14583625      -0.97424843 </v>
   <v>       0.18594625      -0.19337645       0.86719794 </v>
   <v>       0.25117428      -0.07860441      -0.87054600 </v>
   <v>       0.16947276      -0.30449482       0.15503499 </v>
   <v>      -0.18693325       0.06244695       0.23726511 </v>
   <v>      -0.17183891      -0.10007954      -0.90927125 </v>
   <v>      -0.10072008       0.21574297       0.92803162 </v>
   <v>      -0.26243637       0.05868225       0.01491929 </v>
   <v>      -0.09940744       0.08115611      -0.85750589 </v>
   <v>       0.03008583       0.19185962      -0.72572158 </v>
   <v>       0.05998171       0.11960059       0.46742147 </v>
  </varray>
  <energy>
   <i name="e_fr_energy">   -188.05897654 </i>
   <i name="e_wo_entrp">   -187.92584485 </i>
   <i name="e_0_energy">     -0.26626339 </i>
  </energy>
  <time name="totalsc">  289.72  290.64</time>
 </calculation>
 <calculation>
  <scstep>
   <time name="dav">    9.51    9.52</time>
   <time name="total">    9.87    9.88</time>
   <dipole>
    <v name="dipole">      0.00000000       0.00000000       0.00701575 </v>
    <i name="Tr[quadrupol]"> -10334.26103646 </i>
    <i name="Echarged">      0.00000000 </i>
    <i name="Edipol_quadrupol">      0.00000000 </i>
    <i name="Eion">      0.00000000 </i>
   </dipole>
   <energy>
    <i name="alphaZ">    805.87049177 </i>
    <i name="ewald"> 197643.84504627 </i>
    <i name="hartreedc">-239842.91354515 </i>
    <i name="XCdc">   -345.54403812 </i>
    <i name="pawpsdc">  49426.72315749 </i>
    <i name="pawaedc"> -47504.83085652 </i>
    <i name="eentropy">     -0.26076596 </i>
    <i name="bandstr">  -2031.92306545 </i>
    <i name="atom">  41659.78587232 </i>
    <i name="e_fr_energy">   -189.24770335 </i>
    <i name="e_wo_entrp">   -188.98693738 </i>
    <i name="e_0_energy">   -189.11732036 </i>
   </energy>
  </scstep>
  <scstep>
   <time name="diag">    1.64    1.64</time>
   <time name="diis">    4.46    4.46</time>
   <time name="orth">    0.40    0.40</time>
   <time name="total">    6.86    6.87</time>
   <dipole>
    <v name="dipole">      0.00000000       0.00000000       0.00544181 </v>
    <i name="Tr[quadrupol]"> -10334.01293797 </i>
    <i name="Echarged">      0.00000000 </i>
    <i name="Edipol_quadrupol">      0.00000000 </i>
    <i name="Eion">      0.00000000 </i>
   </dipole>
   <energy>
    <i name="e_fr_energy">   -189.67378944 </i>
    <i name="e_wo_entrp">   -189.41421500 </i>
    <i name="e_0_energy">   -189.54400222 </i>
   </energy>
  </scstep>
  <scstep>
   <time name="diag">    1.64    1.64</time>
   <time name="diis">    4.50    4.50</time>
   <time name="orth">    0.39    0.39</time>
   <time name="total">    6.90    6.90</time>
   <dipole>
    <v name="dipole">      0.00000000       0.00000000       0.03188968 </v>
    <i name="Tr[quadrupol]"> -10334.50714118 </i>
    <i name="Echarged">      0.00000000 </i>
    <i name="Edipol_quadrupol">      0.00000000 </i>
    <i name="Eion">      0.00000000 </i>
   </dipole>
   <energy>
    <i name="e_fr_energy">   -189.76548403 </i>
    <i name="e_wo_entrp">   -189.50106164 </i>
    <i name="e_0_energy">   -189.63327283 </i>
   </energy>
  </scstep>
  <scstep>
   <time name="diag">    1.63    1.63</time>
   <time name="diis">    4.50    4.51</time>
   <time name="orth">    0.40    0.40</time>
   <time name="total">    6.90    6.91</time>
   <dipole>
    <v name="dipole">      0.00000000       0.00000000      -0.01910662 </v>
    <i name="Tr[quadrupol]"> -10334.35762233 </i>
    <i name="Echarged">      0.00000000 </i>
    <i name="Edipol_quadrupol">      0.00000000 </i>
    <i name="Eion">      0.00000000 </i>
   </dipole>
   <energy>
    <i name="e_fr_energy">   -189.67531521 </i>
    <i name="e_wo_entrp">   -189.41473771 </i>
    <i name="e_0_energy">   -189.54502646 </i>
   </energy>
  </scstep>
  <scstep>
   <time name="diag">    1.66    1.66</time>
   <time name="diis">    4.97    5.07</time>
   <time name="orth">    0.40    0.40</time>
   <time name="total">    7.39    7.50</time>
   <dipole>
    <v name="dipole">      0.00000000       0.00000000       0.09159831 </v>
    <i name="Tr[quadrupol]"> -10334.33409396 </i>
    <i name="Echarged">      0.00000000 </i>
    <i name="Edipol_quadrupol">      0.00000000 </i>
    <i name="Eion">      0.00000000 </i>
   </dipole>
   <energy>
    <i name="e_fr_energy">   -189.77245154 </i>
    <i name="e_wo_entrp">   -189.53807365 </i>
    <i name="e_0_energy">   -189.65526259 </i>
   </energy>
  </scstep>
  <scstep>
   <time name="diag">    1.65    1.65</time>
   <time name="diis">    4.51    4.52</time>
   <time name="orth">    0.40    0.40</time>
   <time name="total">    6.92    6.93</time>
   <dipole>
    <v name="dipole">      0.00000000       0.00000000      -0.01031552 </v>
    <i name="Tr[quadrupol]"> -10334.35256662 </i>
    <i name="Echarged">      0.00000000 </i>
    <i name="Edipol_quadrupol">      0.00000000 </i>
    <i name="Eion">      0.00000000 </i>
   </dipole>
   <energy>
    <i name="e_fr_energy">   -189.65569247 </i>
    <i name="e_wo_entrp">   -189.39060401 </i>
    <i name="e_0_energy">   -189.52314824 </i>
   </energy>
  </scstep>
  <scstep>
   <time name="diag">    1.65    1.65</time>
   <time name="diis">    4.45    4.46</time>
   <time name="orth">    0.42    0.46</time>
   <time name="total">    6.88    6.94</time>
   <dipole>
    <v name="dipole">      0.00000000       0.00000000       0.01369782 </v>
    <i name="Tr[quadrupol]"> -10334.32502172 </i>
    <i name="Echarged">      0.00000000 </i>
    <i name="Edipol_quadrupol">      0.00000000 </i>
    <i name="Eion">      0.00000000 </i>
   </dipole>
   <energy>
    <i name="e_fr_energy">   -189.64719879 </i>
    <i name="e_wo_entrp">   -189.38542372 </i>
    <i name="e_0_energy">   -189.51631126 </i>
   </energy>
  </scstep>
  <scstep>
   <time name="diag">    1.64    1.64</time>
   <time name="diis">    4.43    4.48</time>
   <time name="orth">    0.40    0.40</time>
   <time name="total">    6.82    6.88</time>
   <dipole>
    <v name="dipole">      0.00000000       0.00000000       0.00808560 </v>
    <i name="Tr[quadrupol]"> -10334.29887346 </i>
    <i name="Echarged">      0.00000000 </i>
    <i name="Edipol_quadrupol">      0.00000000 </i>
    <i name="Eion">      0.00000000 </i>
   </dipole>
   <energy>
    <i name="e_fr_energy">   -189.64437042 </i>
    <i name="e_wo_entrp">   -189.38183844 </i>
    <i name="e_0_energy">   -189.51310443 </i>
   </energy>
  </scstep>
  <scstep>
   <time name="diag">    1.67    1.67</time>
   <time name="diis">    4.54    4.55</time>
   <time name="orth">    0.40    0.40</time>
   <time name="total">    6.98    6.98</time>
   <dipole>
    <v name="dipole">      0.00000000       0.00000000       0.00883359 </v>
    <i name="Tr[quadrupol]"> -10334.29408507 </i>
    <i name="Echarged">      0.00000000 </i>
    <i name="Edipol_quadrupol">      0.00000000 </i>
    <i name="Eion">      0.00000000 </i>
   </dipole>
   <energy>
    <i name="e_fr_energy">   -189.64294710 </i>
    <i name="e_wo_entrp">   -189.38032651 </i>
    <i name="e_0_energy">   -189.51163681 </i>
   </energy>
  </scstep>
  <scstep>
   <time name="diag">    1.65    1.65</time>
   <time name="diis">    4.51    4.51</time>
   <time name="orth">    0.40    0.40</time>
   <time name="total">    6.92    6.94</time>
   <dipole>
    <v name="dipole">      0.00000000       0.00000000       0.00783941 </v>
    <i name="Tr[quadrupol]"> -10334.29022944 </i>
    <i name="Echarged">      0.00000000 </i>
    <i name="Edipol_quadrupol">      0.00000000 </i>
    <i name="Eion">      0.00000000 </i>
   </dipole>
   <energy>
    <i name="e_fr_energy">   -189.64279707 </i>
    <i name="e_wo_entrp">   -189.37928773 </i>
    <i name="e_0_energy">   -189.51104240 </i>
   </energy>
  </scstep>
  <scstep>
   <time name="diag">    1.63    1.67</time>
   <time name="diis">    4.55    4.56</time>
   <time name="orth">    0.40    0.40</time>
   <time name="total">    6.94    6.99</time>
   <dipole>
    <v name="dipole">      0.00000000       0.00000000       0.00742680 </v>
    <i name="Tr[quadrupol]"> -10334.28922262 </i>
    <i name="Echarged">      0.00000000 </i>
    <i name="Edipol_quadrupol">      0.00000000 </i>
    <i name="Eion">      0.00000000 </i>
   </dipole>
   <energy>
    <i name="e_fr_energy">   -189.64265681 </i>
    <i name="e_wo_entrp">   -189.37956000 </i>
    <i name="e_0_energy">   -189.51110841 </i>
   </energy>
  </scstep>
  <scstep>
   <time name="diag">    1.64    1.64</time>
   <time name="diis">    4.52    4.52</time>
   <time name="orth">    0.40    0.40</time>
   <time name="total">    6.92    6.93</time>
   <dipole>
    <v name="dipole">      0.00000000       0.00000000       0.00779329 </v>
    <i name="Tr[quadrupol]"> -10334.29310596 </i>
    <i name="Echarged">      0.00000000 </i>
    <i name="Edipol_quadrupol">      0.00000000 </i>
    <i name="Eion">      0.00000000 </i>
   </dipole>
   <energy>
    <i name="e_fr_energy">   -189.64264893 </i>
    <i name="e_wo_entrp">   -189.37951859 </i>
    <i name="e_0_energy">   -189.51108376 </i>
   </energy>
  </scstep>
  <scstep>
   <time name="diag">    1.66    1.66</time>
   <time name="diis">    4.53    4.54</time>
   <time name="orth">    0.40    0.40</time>
   <time name="total">    6.96    6.96</time>
   <dipole>
    <v name="dipole">      0.00000000       0.00000000       0.00777949 </v>
    <i name="Tr[quadrupol]"> -10334.29680537 </i>
    <i name="Echarged">      0.00000000 </i>
    <i name="Edipol_quadrupol">      0.00000000 </i>
    <i name="Eion">      0.00000000 </i>
   </dipole>
   <energy>
    <i name="e_fr_energy">   -189.64262941 </i>
    <i name="e_wo_entrp">   -189.37946101 </i>
    <i name="e_0_energy">   -189.51104521 </i>
   </energy>
  </scstep>
  <scstep>
   <time name="diag">    1.97    1.99</time>
   <time name="diis">    4.59    4.60</time>
   <time name="orth">    0.40    0.40</time>
   <time name="total">    7.32    7.35</time>
   <dipole>
    <v name="dipole">      0.00000000       0.00000000       0.00792885 </v>
    <i name="Tr[quadrupol]"> -10334.30038110 </i>
    <i name="Echarged">      0.00000000 </i>
    <i name="Edipol_quadrupol">      0.00000000 </i>
    <i name="Eion">      0.00000000 </i>
   </dipole>
   <energy>
    <i name="e_fr_energy">   -189.64262647 </i>
    <i name="e_wo_entrp">   -189.37955575 </i>
    <i name="e_0_energy">   -189.51109111 </i>
   </energy>
  </scstep>
  <scstep>
   <time name="diag">    1.65    1.65</time>
   <time name="diis">    3.77    3.88</time>
   <time name="orth">    0.40    0.40</time>
   <time name="total">    6.18    6.29</time>
   <dipole>
    <v name="dipole">      0.00000000       0.00000000       0.00797221 </v>
    <i name="Tr[quadrupol]"> -10334.30306295 </i>
    <i name="Echarged">      0.00000000 </i>
    <i name="Edipol_quadrupol">      0.00000000 </i>
    <i name="Eion">      0.00000000 </i>
   </dipole>
   <energy>
    <i name="e_fr_energy">   -189.64262340 </i>
    <i name="e_wo_entrp">   -189.37958174 </i>
    <i name="e_0_energy">   -189.51110257 </i>
   </energy>
  </scstep>
  <scstep>
   <time name="diag">    1.64    1.64</time>
   <time name="diis">    2.70    2.70</time>
   <time name="orth">    0.40    0.40</time>
   <time name="total">    5.10    5.10</time>
   <dipole>
    <v name="dipole">      0.00000000       0.00000000       0.00791065 </v>
    <i name="Tr[quadrupol]"> -10334.30539408 </i>
    <i name="Echarged">      0.00000000 </i>
    <i name="Edipol_quadrupol">      0.00000000 </i>
    <i name="Eion">      0.00000000 </i>
   </dipole>
   <energy>
    <i name="e_fr_energy">   -189.64262450 </i>
    <i name="e_wo_entrp">   -189.37956938 </i>
    <i name="e_0_energy">   -189.51109694 </i>
   </energy>
  </scstep>
  <scstep>
   <time name="diag">    1.62    1.69</time>
   <time name="diis">    2.62    2.62</time>
   <time name="orth">    0.40    0.40</time>
   <time name="total">    4.70    4.77</time>
   <dipole>
    <v name="dipole">      0.00000000       0.00000000       0.00795388 </v>
    <i name="Tr[quadrupol]"> -10334.30736922 </i>
    <i name="Echarged">      0.00000000 </i>
    <i name="Edipol_quadrupol">      0.00000000 </i>
    <i name="Eion">      0.00000000 </i>
   </dipole>
   <energy>
    <i name="alphaZ">    805.87064228 </i>
    <i name="ewald"> 197643.84504627 </i>
    <i name="hartreedc">-239845.04761725 </i>
    <i name="XCdc">   -345.48151516 </i>
    <i name="pawpsdc">  48951.29622562 </i>
    <i name="pawaedc"> -47026.27589742 </i>
    <i name="eentropy">     -0.26304509 </i>
    <i name="bandstr">  -2033.37233654 </i>
    <i name="atom">  41659.78587232 </i>
    <i name="e_fr_energy">   -189.64262498 </i>
    <i name="e_wo_entrp">   -189.37957989 </i>
    <i name="e_0_energy">   -189.51110243 </i>
   </energy>
  </scstep>
  <structure>
   <crystal>
    <varray name="basis" >
     <v>      11.00258152       0.00000000       0.00000000 </v>
     <v>       5.50129076       9.52851510       0.00000000 </v>
     <v>       0.00000000       0.00000000      24.49178509 </v>
    </varray>
    <i name="volume">   2567.67623402 </i>
    <varray name="rec_basis" >
     <v>       0.09088776      -0.05247407       0.00000000 </v>
     <v>       0.00000000       0.10494815       0.00000000 </v>
     <v>       0.00000000       0.00000000       0.04083002 </v>
    </varray>
   </crystal>
   <varray name="positions" >
    <v>       0.08221168       0.08316430       0.40637553 </v>
    <v>       0.83405529       0.58346545       0.40677471 </v>
    <v>       0.75202812       0.24904003       0.59391334 </v>
    <v>       0.66946814       0.41620149       0.49952986 </v>
    <v>       0.66835362       0.16456814       0.49922281 </v>
    <v>       0.50130637       0.75051353       0.59386992 </v>
    <v>       0.41690718       0.91609717       0.50041259 </v>
    <v>       0.58406377       0.83372869       0.40642158 </v>
    <v>       0.50000328       0.50010353       0.59432576 </v>
    <v>       0.41496904       0.66798077       0.49925138 </v>
    <v>       0.58290701       0.58278920       0.40615801 </v>
    <v>       0.50016381       0.24908210       0.59433323 </v>
    <v>       0.41527498       0.41843113       0.49950119 </v>
    <v>       0.41903688       0.16440018       0.50007386 </v>
    <v>       0.24989861       0.24928480       0.59420332 </v>
    <v>       0.16459128       0.42001557       0.50004458 </v>
    <v>       0.24801937       0.75101529       0.59360256 </v>
    <v>      -0.00142202       0.50115368       0.59346006 </v>
    <v>       0.08375250       0.83242146       0.40656326 </v>
    <v>       0.91678281       0.91604736       0.50037540 </v>
    <v>       0.33421511       0.08247921       0.40567140 </v>
    <v>       0.33413459       0.33414547       0.40574821 </v>
    <v>       0.08185583       0.33449870       0.40608136 </v>
    <v>       0.16427795       0.16609885       0.50083537 </v>
    <v>       0.83328492       0.33250878       0.40729715 </v>
    <v>       0.91720718       0.16667968       0.50004315 </v>
    <v>       0.75042809      -0.00123174       0.59281797 </v>
    <v>       0.91562702       0.41689000       0.50025880 </v>
    <v>       0.66849515       0.66657253       0.50042336 </v>
    <v>       0.83265727       0.08396542       0.40721723 </v>
    <v>       0.75075756       0.50017679       0.59269269 </v>
    <v>       0.83312688       0.83368339       0.40749865 </v>
    <v>       0.00024022      -0.00006546       0.59261522 </v>
    <v>      -0.00031403       0.24946724       0.59267725 </v>
    <v>       0.24916480       0.00050913       0.59287307 </v>
    <v>       0.91598895       0.66734593       0.50006459 </v>
    <v>      -0.00021534       0.75043480       0.59247034 </v>
    <v>       0.58383926       0.33281648       0.40695685 </v>
    <v>       0.50091339      -0.00068534       0.59289554 </v>
    <v>       0.58424354       0.08305475       0.40709984 </v>
    <v>       0.66772640       0.91558751       0.50021377 </v>
    <v>       0.16598226       0.91688798       0.50032715 </v>
    <v>       0.33298326       0.83297864       0.40704644 </v>
    <v>       0.24930856       0.50076461       0.59297942 </v>
    <v>       0.16575719       0.66687464       0.50002057 </v>
    <v>       0.33288441       0.58362096       0.40711782 </v>
    <v>       0.08308569       0.58401330       0.40729953 </v>
    <v>       0.74997216       0.75042387       0.59234432 </v>
   </varray>
  </structure>
  <varray name="forces" >
   <v>      -0.17256819      -0.03787184      -1.02815915 </v>
   <v>       0.08902424       0.04603870      -0.83520075 </v>
   <v>       0.16947560      -0.15147958       1.08981837 </v>
   <v>       0.23031293      -0.01286759      -0.03805114 </v>
   <v>       0.12962579      -0.11637560      -0.08732562 </v>
   <v>       0.18072506       0.02483976       1.12202740 </v>
   <v>      -0.01064626      -0.09129559       0.07824311 </v>
   <v>       0.14517748       0.01419471      -0.95877338 </v>
   <v>       0.05285244       0.02058740       1.16909723 </v>
   <v>      -0.06499455       0.12570754      -0.08393378 </v>
   <v>      -0.08289558      -0.06197060      -1.12901374 </v>
   <v>       0.04262524      -0.11330563       1.23446255 </v>
   <v>       0.04885565       0.09617445      -0.03340758 </v>
   <v>       0.02389863      -0.12351908      -0.00375437 </v>
   <v>      -0.08122117      -0.06164777       1.18369695 </v>
   <v>      -0.13597021       0.19734205      -0.00014217 </v>
   <v>      -0.16385506       0.12723878       1.00679881 </v>
   <v>      -0.14251741       0.16135962       0.98049286 </v>
   <v>      -0.05028708      -0.11278262      -0.92774650 </v>
   <v>       0.06876464      -0.12523292       0.08101575 </v>
   <v>       0.00670275      -0.03307370      -1.23742551 </v>
   <v>       0.13503930       0.06277973      -1.25044803 </v>
   <v>      -0.07123706       0.06767989      -1.04282756 </v>
   <v>      -0.20687273       0.06262786       0.11186130 </v>
   <v>      -0.08367744      -0.13280935      -0.63123068 </v>
   <v>       0.01769745      -0.05779835       0.00825309 </v>
   <v>      -0.01919846      -0.17802055       0.65127126 </v>
   <v>       0.00583953       0.05215112       0.05389208 </v>
   <v>       0.23680100       0.02001111       0.05179505 </v>
   <v>      -0.04637490       0.03742682      -0.65478540 </v>
   <v>       0.10714006       0.01436234       0.60871017 </v>
   <v>       0.05470283       0.10467023      -0.47377583 </v>
   <v>       0.00651071      -0.00811855       0.57103102 </v>
   <v>      -0.09525137      -0.04739991       0.66821703 </v>
   <v>      -0.09233758       0.02655046       0.73836168 </v>
   <v>      -0.11822360       0.09304485       0.01183634 </v>
   <v>      -0.03556130       0.08098161       0.50093564 </v>
   <v>       0.05490241      -0.07718363      -0.71658329 </v>
   <v>       0.10951054      -0.10370025       0.70315956 </v>
   <v>       0.13145656      -0.04040104      -0.73510426 </v>
   <v>       0.04968222      -0.26193314       0.03984978 </v>
   <v>      -0.18506682      -0.00274785       0.07118528 </v>
   <v>      -0.06106754       0.00465482      -0.69975119 </v>
   <v>      -0.06025544       0.06572214       0.70473539 </v>
   <v>      -0.15144244       0.18139720       0.02729096 </v>
   <v>      -0.06782329       0.04977250      -0.75216066 </v>
   <v>       0.02154400       0.11752411      -0.61503287 </v>
   <v>       0.08047841       0.09669531       0.46659481 </v>
  </varray>
  <energy>
   <i name="e_fr_energy">   -189.64262498 </i>
   <i name="e_wo_entrp">   -189.51110243 </i>
   <i name="e_0_energy">     -0.26304509 </i>
  </energy>
  <time name="totalsc">  119.62  120.22</time>
 </calculation>
 <calculation>
  <scstep>
   <time name="dav">    9.56    9.57</time>
   <time name="total">    9.93    9.95</time>
   <dipole>
    <v name="dipole">      0.00000000       0.00000000       0.00793842 </v>
    <i name="Tr[quadrupol]"> -10269.09565980 </i>
    <i name="Echarged">      0.00000000 </i>
    <i name="Edipol_quadrupol">      0.00000000 </i>
    <i name="Eion">      0.00000000 </i>
   </dipole>
   <energy>
    <i name="alphaZ">    805.87070355 </i>
    <i name="ewald"> 189511.12301532 </i>
    <i name="hartreedc">-231755.83430179 </i>
    <i name="XCdc">   -351.04226156 </i>
    <i name="pawpsdc">  48951.26279902 </i>
    <i name="pawaedc"> -47026.24247035 </i>
    <i name="eentropy">     -0.24194870 </i>
    <i name="bandstr">  -1982.31651822 </i>
    <i name="atom">  41659.78587232 </i>
    <i name="e_fr_energy">   -187.63511041 </i>
    <i name="e_wo_entrp">   -187.39316172 </i>
    <i name="e_0_energy">   -187.51413606 </i>
   </energy>
  </scstep>
  <scstep>
   <time name="diag">    1.65    1.65</time>
   <time name="diis">    4.43    4.44</time>
   <time name="orth">    0.40    0.40</time>
   <time name="total">    6.85    6.85</time>
   <dipole>
    <v name="dipole">      0.00000000       0.00000000       0.01655445 </v>
    <i name="Tr[quadrupol]"> -10268.28010755 </i>
    <i name="Echarged">      0.00000000 </i>
    <i name="Edipol_quadrupol">      0.00000000 </i>
    <i name="Eion">      0.00000000 </i>
   </dipole>
   <energy>
    <i name="e_fr_energy">   -191.46968190 </i>
    <i name="e_wo_entrp">   -191.23996802 </i>
    <i name="e_0_energy">   -191.35482496 </i>
   </energy>
  </scstep>
  <scstep>
   <time name="diag">    1.66    1.66</time>
   <time name="diis">    4.46    4.47</time>
   <time name="orth">    0.40    0.40</time>
   <time name="total">    6.88    6.90</time>
   <dipole>
    <v name="dipole">      0.00000000       0.00000000      -0.03134877 </v>
    <i name="Tr[quadrupol]"> -10269.43088672 </i>
    <i name="Echarged">      0.00000000 </i>
    <i name="Edipol_quadrupol">      0.00000000 </i>
    <i name="Eion">      0.00000000 </i>
   </dipole>
   <energy>
    <i name="e_fr_energy">   -191.92610786 </i>
    <i name="e_wo_entrp">   -191.69183726 </i>
    <i name="e_0_energy">   -191.80897256 </i>
   </energy>
  </scstep>
  <scstep>
   <time name="diag">    1.64    1.65</time>
   <time name="diis">    4.52    4.53</time>
   <time name="orth">    0.41    0.41</time>
   <time name="total">    6.93    6.94</time>
   <dipole>
    <v name="dipole">      0.00000000       0.00000000       0.03419693 </v>
    <i name="Tr[quadrupol]"> -10269.12709290 </i>
    <i name="Echarged">      0.00000000 </i>
    <i name="Edipol_quadrupol">      0.00000000 </i>
    <i name="Eion">      0.00000000 </i>
   </dipole>
   <energy>
    <i name="e_fr_energy">   -191.30281285 </i>
    <i name="e_wo_entrp">   -191.07563999 </i>
    <i name="e_0_energy">   -191.18922642 </i>
   </energy>
  </scstep>
  <scstep>
   <time name="diag">    1.66    1.68</time>
   <time name="diis">    4.79    4.88</time>
   <time name="orth">    0.48    0.49</time>
   <time name="total">    7.30    7.41</time>
   <dipole>
    <v name="dipole">      0.00000000       0.00000000      -0.10085407 </v>
    <i name="Tr[quadrupol]"> -10269.30005350 </i>
    <i name="Echarged">      0.00000000 </i>
    <i name="Edipol_quadrupol">      0.00000000 </i>
    <i name="Eion">      0.00000000 </i>
   </dipole>
   <energy>
    <i name="e_fr_energy">   -191.58784960 </i>
    <i name="e_wo_entrp">   -191.35930498 </i>
    <i name="e_0_energy">   -191.47357729 </i>
   </energy>
  </scstep>
  <scstep>
   <time name="diag">    1.67    1.67</time>
   <time name="diis">    4.49    4.49</time>
   <time name="orth">    0.40    0.40</time>
   <time name="total">    6.92    6.93</time>
   <dipole>
    <v name="dipole">      0.00000000       0.00000000       0.13297767 </v>
    <i name="Tr[quadrupol]"> -10269.32170043 </i>
    <i name="Echarged">      0.00000000 </i>
    <i name="Edipol_quadrupol">      0.00000000 </i>
    <i name="Eion">      0.00000000 </i>
   </dipole>
   <energy>
    <i name="e_fr_energy">   -191.45664105 </i>
    <i name="e_wo_entrp">   -191.23969180 </i>
    <i name="e_0_energy">   -191.34816642 </i>
   </energy>
  </scstep>
  <scstep>
   <time name="diag">    1.65    1.65</time>
   <time name="diis">    4.48    4.48</time>
   <time name="orth">    0.40    0.40</time>
   <time name="total">    6.89    6.90</time>
   <dipole>
    <v name="dipole">      0.00000000       0.00000000      -0.02675197 </v>
    <i name="Tr[quadrupol]"> -10269.22075035 </i>
    <i name="Echarged">      0.00000000 </i>
    <i name="Edipol_quadrupol">      0.00000000 </i>
    <i name="Eion">      0.00000000 </i>
[...]
       <r>    2.3110    0.0000 </r>
       <r>    2.3704    0.0000 </r>
       <r>    2.3793    0.0000 </r>
       <r>    2.5611    0.0000 </r>
       <r>    2.6831    0.0000 </r>
       <r>    2.9643    0.0000 </r>
       <r>    3.1753    0.0000 </r>
       <r>    3.2205    0.0000 </r>
       <r>    3.4965    0.0000 </r>
       <r>    3.5987    0.0000 </r>
       <r>    3.6622    0.0000 </r>
       <r>    3.9269    0.0000 </r>
       <r>    4.0961    0.0000 </r>
       <r>    4.1662    0.0000 </r>
       <r>    4.3572    0.0000 </r>
       <r>    4.5176    0.0000 </r>
       <r>    4.5993    0.0000 </r>
       <r>    4.6262    0.0000 </r>
       <r>    4.7095    0.0000 </r>
       <r>    4.8295    0.0000 </r>
       <r>    4.8562    0.0000 </r>
       <r>    4.8966    0.0000 </r>
       <r>    4.9619    0.0000 </r>
       <r>    5.0345    0.0000 </r>
       <r>    5.0699    0.0000 </r>
       <r>    5.0930    0.0000 </r>
       <r>    5.1725    0.0000 </r>
       <r>    5.2207    0.0000 </r>
      </set>
     </set>
    </set>
   </array>
  </eigenvalues>
  <separator name="orbital magnetization" >
   <v name="MAGDIPOLOUT">      0.00000000      0.00000000      0.00000000</v>
  </separator>
  <dos>
   <i name="efermi">     -1.10405853 </i>
   <total>
    <array>
     <dimension dim="1">gridpoints</dimension>
     <dimension dim="2">spin</dimension>
     <field>energy</field>
     <field>total</field>
     <field>integrated</field>
     <set>
      <set comment="spin 1">
       <r>    -9.8673     0.0000     0.0000 </r>
       <r>    -9.8132     0.0000     0.0000 </r>
       <r>    -9.7592     0.0000     0.0000 </r>
       <r>    -9.7051     0.0000     0.0000 </r>
       <r>    -9.6511     0.0000     0.0000 </r>
       <r>    -9.5970     0.0000     0.0000 </r>
       <r>    -9.5430     0.0000     0.0000 </r>
       <r>    -9.4889     0.0000     0.0000 </r>
       <r>    -9.4349     0.0000     0.0000 </r>
       <r>    -9.3808     0.0000     0.0000 </r>
       <r>    -9.3268     0.0000     0.0000 </r>
       <r>    -9.2727     0.0000     0.0000 </r>
       <r>    -9.2186     0.0000     0.0000 </r>
       <r>    -9.1646     0.0001     0.0000 </r>
       <r>    -9.1105     0.0029     0.0002 </r>
       <r>    -9.0565     0.0390     0.0023 </r>
       <r>    -9.0024     0.3040     0.0187 </r>
       <r>    -8.9484     1.3691     0.0927 </r>
       <r>    -8.8943     3.5861     0.2866 </r>
       <r>    -8.8403     5.5896     0.5887 </r>
       <r>    -8.7862     5.7393     0.8989 </r>
       <r>    -8.7322     5.2765     1.1841 </r>
       <r>    -8.6781     5.5119     1.4821 </r>
       <r>    -8.6240     4.9994     1.7523 </r>
       <r>    -8.5700     3.0693     1.9182 </r>
       <r>    -8.5159     1.1900     1.9826 </r>
       <r>    -8.4619     0.3201     1.9999 </r>
       <r>    -8.4078     0.2761     2.0148 </r>
       <r>    -8.3538     0.8675     2.0617 </r>
       <r>    -8.2997     1.9616     2.1677 </r>
       <r>    -8.2457     3.0352     2.3318 </r>
       <r>    -8.1916     3.7272     2.5333 </r>
       <r>    -8.1376     4.1962     2.7601 </r>
       <r>    -8.0835     4.5891     3.0081 </r>
       <r>    -8.0294     4.8717     3.2715 </r>
       <r>    -7.9754     5.0381     3.5438 </r>
       <r>    -7.9213     5.0776     3.8183 </r>
       <r>    -7.8673     5.0823     4.0930 </r>
       <r>    -7.8132     5.3222     4.3807 </r>
       <r>    -7.7592     5.6783     4.6876 </r>
       <r>    -7.7051     5.9311     5.0082 </r>
       <r>    -7.6511     6.5364     5.3615 </r>
       <r>    -7.5970     7.5824     5.7714 </r>
       <r>    -7.5430     8.4386     6.2275 </r>
       <r>    -7.4889     9.8064     6.7576 </r>
       <r>    -7.4348    12.8570     7.4526 </r>
       <r>    -7.3808    15.9414     8.3143 </r>
       <r>    -7.3267    16.5114     9.2068 </r>
       <r>    -7.2727    15.4007    10.0393 </r>
       <r>    -7.2186    15.1667    10.8591 </r>
       <r>    -7.1646    17.6303    11.8121 </r>
       <r>    -7.1105    22.0433    13.0037 </r>
       <r>    -7.0565    24.6219    14.3346 </r>
       <r>    -7.0024    24.7742    15.6737 </r>
       <r>    -6.9484    26.2885    17.0948 </r>
       <r>    -6.8943    30.1052    18.7221 </r>
       <r>    -6.8402    32.7397    20.4918 </r>
       <r>    -6.7862    32.3568    22.2408 </r>
       <r>    -6.7321    31.8891    23.9646 </r>
       <r>    -6.6781    34.4298    25.8257 </r>
       <r>    -6.6240    39.8329    27.9788 </r>
       <r>    -6.5700    46.9184    30.5150 </r>
       <r>    -6.5159    53.7235    33.4189 </r>
       <r>    -6.4619    57.4754    36.5257 </r>
       <r>    -6.4078    59.2693    39.7295 </r>
       <r>    -6.3538    63.0055    43.1352 </r>
       <r>    -6.2997    68.5484    46.8406 </r>
       <r>    -6.2456    72.6864    50.7696 </r>
       <r>    -6.1916    74.8639    54.8163 </r>
       <r>    -6.1375    76.1760    58.9340 </r>
       <r>    -6.0835    76.1269    63.0490 </r>
       <r>    -6.0294    74.6430    67.0838 </r>
       <r>    -5.9754    73.5001    71.0568 </r>
       <r>    -5.9213    73.9929    75.0564 </r>
       <r>    -5.8673    75.7965    79.1535 </r>
       <r>    -5.8132    77.4709    83.3412 </r>
       <r>    -5.7592    77.4497    87.5277 </r>
       <r>    -5.7051    75.5333    91.6106 </r>
       <r>    -5.6510    72.7305    95.5420 </r>
       <r>    -5.5970    70.0026    99.3260 </r>
       <r>    -5.5429    67.8066   102.9912 </r>
       <r>    -5.4889    66.5828   106.5903 </r>
       <r>    -5.4348    67.4593   110.2368 </r>
       <r>    -5.3808    71.2111   114.0860 </r>
       <r>    -5.3267    76.6141   118.2274 </r>
       <r>    -5.2727    81.2467   122.6191 </r>
       <r>    -5.2186    83.8893   127.1537 </r>
       <r>    -5.1646    85.9106   131.7976 </r>
       <r>    -5.1105    89.2929   136.6242 </r>
       <r>    -5.0565    92.2919   141.6130 </r>
       <r>    -5.0024    91.1008   146.5374 </r>
       <r>    -4.9483    86.6504   151.2213 </r>
       <r>    -4.8943    83.5737   155.7388 </r>
       <r>    -4.8402    83.5543   160.2553 </r>
       <r>    -4.7862    84.1509   164.8040 </r>
       <r>    -4.7321    82.9100   169.2857 </r>
       <r>    -4.6781    80.5892   173.6419 </r>
       <r>    -4.6240    79.6985   177.9499 </r>
       <r>    -4.5700    81.9275   182.3785 </r>
       <r>    -4.5159    86.2108   187.0385 </r>
       <r>    -4.4619    88.9527   191.8468 </r>
       <r>    -4.4078    88.8282   196.6484 </r>
       <r>    -4.3537    87.3204   201.3684 </r>
       <r>    -4.2997    85.3671   205.9829 </r>
       <r>    -4.2456    84.6536   210.5588 </r>
       <r>    -4.1916    86.6563   215.2430 </r>
       <r>    -4.1375    89.2269   220.0661 </r>
       <r>    -4.0835    90.0143   224.9318 </r>
       <r>    -4.0294    89.6712   229.7789 </r>
       <r>    -3.9754    89.5618   234.6201 </r>
       <r>    -3.9213    90.4240   239.5079 </r>
       <r>    -3.8673    91.8706   244.4739 </r>
       <r>    -3.8132    93.5669   249.5316 </r>
       <r>    -3.7591    95.8482   254.7126 </r>
       <r>    -3.7051    98.5522   260.0398 </r>
       <r>    -3.6510   101.4012   265.5210 </r>
       <r>    -3.5970   104.0457   271.1451 </r>
       <r>    -3.5429   105.3727   276.8410 </r>
       <r>    -3.4889   104.0495   282.4653 </r>
       <r>    -3.4348   101.6936   287.9623 </r>
       <r>    -3.3808   101.3084   293.4385 </r>
       <r>    -3.3267   101.7537   298.9387 </r>
       <r>    -3.2727   100.3980   304.3657 </r>
       <r>    -3.2186    97.0010   309.6090 </r>
       <r>    -3.1645    92.5971   314.6143 </r>
       <r>    -3.1105    88.9756   319.4238 </r>
       <r>    -3.0564    87.3768   324.1469 </r>
       <r>    -3.0024    87.5372   328.8787 </r>
       <r>    -2.9483    90.0012   333.7437 </r>
       <r>    -2.8943    94.4033   338.8466 </r>
       <r>    -2.8402    97.2787   344.1049 </r>
       <r>    -2.7862    97.6194   349.3817 </r>
       <r>    -2.7321    98.6023   354.7116 </r>
       <r>    -2.6781   101.3872   360.1920 </r>
       <r>    -2.6240   103.1775   365.7692 </r>
       <r>    -2.5699   101.6121   371.2618 </r>
       <r>    -2.5159    98.2467   376.5725 </r>
       <r>    -2.4618    95.5638   381.7381 </r>
       <r>    -2.4078    93.3478   386.7840 </r>
       <r>    -2.3537    90.6107   391.6819 </r>
       <r>    -2.2997    88.0288   396.4402 </r>
       <r>    -2.2456    86.5868   401.1206 </r>
       <r>    -2.1916    86.3060   405.7859 </r>
       <r>    -2.1375    87.3683   410.5085 </r>
       <r>    -2.0835    90.1159   415.3797 </r>
       <r>    -2.0294    93.5244   420.4351 </r>
       <r>    -1.9753    96.7053   425.6624 </r>
       <r>    -1.9213   100.2212   431.0798 </r>
       <r>    -1.8672   103.4182   436.6701 </r>
       <r>    -1.8132   103.1172   442.2440 </r>
       <r>    -1.7591    97.8826   447.5350 </r>
       <r>    -1.7051    91.4746   452.4796 </r>
       <r>    -1.6510    88.5525   457.2662 </r>
       <r>    -1.5970    89.2798   462.0922 </r>
       <r>    -1.5429    90.8404   467.0025 </r>
       <r>    -1.4889    91.9555   471.9731 </r>
       <r>    -1.4348    93.3461   477.0189 </r>
       <r>    -1.3807    95.0905   482.1590 </r>
       <r>    -1.3267    95.0984   487.2995 </r>
       <r>    -1.2726    91.1749   492.2279 </r>
       <r>    -1.2186    82.9381   496.7110 </r>
       <r>    -1.1645    71.1593   500.5575 </r>
       <r>    -1.1105    57.7160   503.6773 </r>
       <r>    -1.0564    44.5717   506.0866 </r>
       <r>    -1.0024    31.6024   507.7949 </r>
       <r>    -0.9483    19.9252   508.8719 </r>
       <r>    -0.8943    12.5387   509.5497 </r>
       <r>    -0.8402     9.7387   510.0761 </r>
       <r>    -0.7862     9.7774   510.6046 </r>
       <r>    -0.7321    10.8924   511.1934 </r>
       <r>    -0.6780    12.6495   511.8772 </r>
       <r>    -0.6240    15.8913   512.7362 </r>
       <r>    -0.5699    19.8990   513.8118 </r>
       <r>    -0.5159    22.4142   515.0234 </r>
       <r>    -0.4618    21.9965   516.2124 </r>
       <r>    -0.4078    18.8682   517.2323 </r>
       <r>    -0.3537    15.2983   518.0592 </r>
       <r>    -0.2997    14.8458   518.8617 </r>
       <r>    -0.2456    17.8942   519.8290 </r>
       <r>    -0.1916    20.1806   520.9198 </r>
       <r>    -0.1375    18.4544   521.9174 </r>
       <r>    -0.0834    14.1677   522.6832 </r>
       <r>    -0.0294    10.2459   523.2370 </r>
       <r>     0.0247     8.7863   523.7120 </r>
       <r>     0.0787    10.6549   524.2879 </r>
       <r>     0.1328    14.4566   525.0694 </r>
       <r>     0.1868    17.4311   526.0116 </r>
       <r>     0.2409    18.1914   526.9949 </r>
       <r>     0.2949    17.3825   527.9345 </r>
       <r>     0.3490    16.6751   528.8359 </r>
       <r>     0.4030    17.5573   529.7849 </r>
       <r>     0.4571    19.4522   530.8364 </r>
       <r>     0.5112    20.8545   531.9637 </r>
       <r>     0.5652    21.9047   533.1477 </r>
       <r>     0.6193    23.7005   534.4289 </r>
       <r>     0.6733    25.3589   535.7996 </r>
       <r>     0.7274    24.1856   537.1070 </r>
       <r>     0.7814    19.4153   538.1564 </r>
       <r>     0.8355    13.7283   538.8985 </r>
       <r>     0.8895    10.9074   539.4881 </r>
       <r>     0.9436    11.4803   540.1087 </r>
       <r>     0.9976    12.7045   540.7954 </r>
       <r>     1.0517    12.5646   541.4746 </r>
       <r>     1.1058    11.2057   542.0803 </r>
       <r>     1.1598     9.4199   542.5895 </r>
       <r>     1.2139     7.8226   543.0123 </r>
       <r>     1.2679     6.5036   543.3639 </r>
       <r>     1.3220     5.2262   543.6464 </r>
       <r>     1.3760     4.4657   543.8878 </r>
       <r>     1.4301     5.2688   544.1726 </r>
       <r>     1.4841     8.8361   544.6502 </r>
       <r>     1.5382    14.9200   545.4567 </r>
       <r>     1.5922    19.7837   546.5261 </r>
       <r>     1.6463    19.8592   547.5996 </r>
       <r>     1.7004    17.6833   548.5554 </r>
       <r>     1.7544    17.3641   549.4940 </r>
       <r>     1.8085    17.7491   550.4534 </r>
       <r>     1.8625    16.2511   551.3319 </r>
       <r>     1.9166    13.2391   552.0475 </r>
       <r>     1.9706    10.3912   552.6092 </r>
       <r>     2.0247     9.3171   553.1128 </r>
       <r>     2.0787    11.6130   553.7406 </r>
       <r>     2.1328    16.3011   554.6217 </r>
       <r>     2.1868    19.4256   555.6718 </r>
       <r>     2.2409    19.9220   556.7486 </r>
       <r>     2.2950    21.0583   557.8869 </r>
       <r>     2.3490    23.7154   559.1689 </r>
       <r>     2.4031    24.4768   560.4919 </r>
       <r>     2.4571    21.2899   561.6428 </r>
       <r>     2.5112    17.1933   562.5721 </r>
       <r>     2.5652    16.5660   563.4676 </r>
       <r>     2.6193    19.7418   564.5347 </r>
       <r>     2.6733    23.0443   565.7804 </r>
       <r>     2.7274    22.8595   567.0160 </r>
       <r>     2.7814    18.5173   568.0170 </r>
       <r>     2.8355    12.0680   568.6693 </r>
       <r>     2.8896     7.1957   569.0583 </r>
       <r>     2.9436     5.8817   569.3762 </r>
       <r>     2.9977     5.7500   569.6870 </r>
       <r>     3.0517     4.6724   569.9396 </r>
       <r>     3.1058     4.7017   570.1937 </r>
       <r>     3.1598     7.8402   570.6175 </r>
       <r>     3.2139    12.0752   571.2702 </r>
       <r>     3.2679    13.7575   572.0139 </r>
       <r>     3.3220    11.8849   572.6563 </r>
       <r>     3.3760     9.4417   573.1667 </r>
       <r>     3.4301     9.6521   573.6884 </r>
       <r>     3.4842    12.2481   574.3505 </r>
       <r>     3.5382    15.7508   575.2019 </r>
       <r>     3.5923    19.3813   576.2495 </r>
       <r>     3.6463    21.2213   577.3966 </r>
       <r>     3.7004    19.7440   578.4639 </r>
       <r>     3.7544    16.0821   579.3332 </r>
       <r>     3.8085    12.4615   580.0068 </r>
       <r>     3.8625    10.7412   580.5874 </r>
       <r>     3.9166    11.3608   581.2015 </r>
       <r>     3.9706    13.5768   581.9354 </r>
       <r>     4.0247    15.1007   582.7517 </r>
       <r>     4.0787    13.8691   583.5013 </r>
       <r>     4.1328    11.9923   584.1496 </r>
       <r>     4.1869    11.8245   584.7887 </r>
       <r>     4.2409    11.3589   585.4027 </r>
       <r>     4.2950     9.3032   585.9056 </r>
       <r>     4.3490     8.6119   586.3711 </r>
       <r>     4.4031    10.7183   586.9505 </r>
       <r>     4.4571    13.1943   587.6637 </r>
       <r>     4.5112    15.7309   588.5140 </r>
       <r>     4.5652    20.6406   589.6298 </r>
       <r>     4.6193    26.2441   591.0484 </r>
       <r>     4.6733    27.8693   592.5548 </r>
       <r>     4.7274    25.4661   593.9314 </r>
       <r>     4.7815    22.7650   595.1619 </r>
       <r>     4.8355    22.6029   596.3837 </r>
       <r>     4.8896    25.1984   597.7458 </r>
       <r>     4.9436    28.3670   599.2792 </r>
       <r>     4.9977    31.9805   601.0079 </r>
       <r>     5.0517    36.2365   602.9666 </r>
       <r>     5.1058    37.7890   605.0093 </r>
       <r>     5.1598    35.0607   606.9045 </r>
       <r>     5.2139    30.4376   608.5497 </r>
       <r>     5.2679    25.2054   609.9122 </r>
       <r>     5.3220    18.9249   610.9352 </r>
       <r>     5.3761    11.8645   611.5765 </r>
       <r>     5.4301     5.6087   611.8797 </r>
       <r>     5.4842     1.8079   611.9774 </r>
       <r>     5.5382     0.3688   611.9974 </r>
       <r>     5.5923     0.0455   611.9998 </r>
       <r>     5.6463     0.0033   612.0000 </r>
       <r>     5.7004     0.0001   612.0000 </r>
       <r>     5.7544     0.0000   612.0000 </r>
       <r>     5.8085     0.0000   612.0000 </r>
       <r>     5.8625     0.0000   612.0000 </r>
       <r>     5.9166     0.0000   612.0000 </r>
       <r>     5.9707     0.0000   612.0000 </r>
       <r>     6.0247     0.0000   612.0000 </r>
       <r>     6.0788     0.0000   612.0000 </r>
       <r>     6.1328     0.0000   612.0000 </r>
       <r>     6.1869     0.0000   612.0000 </r>
       <r>     6.2409     0.0000   612.0000 </r>
       <r>     6.2950     0.0000   612.0000 </r>
       <r>     6.3490     0.0000   612.0000 </r>
      </set>
     </set>
    </array>
   </total>
  </dos>
 </calculation>
 <structure name="finalpos" >
  <crystal>
   <varray name="basis" >
    <v>      11.00258152       0.00000000       0.00000000 </v>
    <v>       5.50129076       9.52851510       0.00000000 </v>
    <v>       0.00000000       0.00000000      24.49178509 </v>
   </varray>
   <i name="volume">   2567.67623402 </i>
   <varray name="rec_basis" >
    <v>       0.09088776      -0.05247407       0.00000000 </v>
    <v>       0.00000000       0.10494815       0.00000000 </v>
    <v>       0.00000000       0.00000000       0.04083002 </v>
   </varray>
  </crystal>
  <varray name="positions" >
   <v>       0.08141389       0.08315968       0.39632926 </v>
   <v>       0.83479432       0.58415643       0.39827989 </v>
   <v>       0.75424297       0.24687516       0.60606928 </v>
   <v>       0.66997446       0.41697833       0.50128214 </v>
   <v>       0.66813198       0.16431565       0.50229495 </v>
   <v>       0.50193860       0.75111845       0.60355462 </v>
   <v>       0.41648234       0.91609505       0.49935281 </v>
   <v>       0.58473384       0.83509707       0.39646098 </v>
   <v>       0.50090015       0.49941717       0.60842399 </v>
   <v>       0.41496347       0.66848300       0.50072229 </v>
   <v>       0.58255412       0.58212946       0.39660381 </v>
   <v>       0.50161682       0.24678837       0.60901200 </v>
   <v>       0.41537004       0.41832117       0.50163531 </v>
   <v>       0.41718511       0.16549288       0.49932306 </v>
   <v>       0.24976753       0.24828526       0.60451998 </v>
   <v>       0.16377084       0.42022529       0.49973925 </v>
   <v>       0.24693653       0.75115070       0.60292390 </v>
   <v>      -0.00285054       0.50193828       0.60138581 </v>
   <v>       0.08428009       0.83166387       0.39845439 </v>
   <v>       0.91731462       0.91466586       0.50066411 </v>
   <v>       0.33500126       0.08308949       0.39086205 </v>
   <v>       0.33572462       0.33598675       0.39292485 </v>
   <v>       0.08266504       0.33458994       0.39539857 </v>
   <v>       0.16320178       0.16693475       0.49927725 </v>
   <v>       0.83324084       0.33187916       0.40331122 </v>
   <v>       0.91694089       0.16661308       0.50054602 </v>
   <v>       0.75136644      -0.00378991       0.59857254 </v>
   <v>       0.91662655       0.41763116       0.49918370 </v>
   <v>       0.66816257       0.66700390       0.49823807 </v>
   <v>       0.83180674       0.08455699       0.40387190 </v>
   <v>       0.75071364       0.50031239       0.59650759 </v>
   <v>       0.83369838       0.83557611       0.40329314 </v>
   <v>       0.00016685      -0.00111496       0.59723210 </v>
   <v>      -0.00053750       0.24904341       0.59662567 </v>
   <v>       0.24807445       0.00074836       0.59663196 </v>
   <v>       0.91446617       0.66614525       0.49922962 </v>
   <v>      -0.00106060       0.75024116       0.59633809 </v>
   <v>       0.58476777       0.33250749       0.40482135 </v>
   <v>       0.50141792      -0.00088104       0.59684362 </v>
   <v>       0.58453285       0.08473850       0.40233311 </v>
   <v>       0.66716526       0.91397002       0.49885216 </v>
   <v>       0.16408220       0.91686956       0.49975685 </v>
   <v>       0.33339583       0.83371324       0.40186355 </v>
   <v>       0.24977084       0.49942859       0.59863131 </v>
   <v>       0.16459365       0.66849512       0.50075048 </v>
   <v>       0.33322242       0.58412745       0.40354884 </v>
   <v>       0.08406441       0.58413180       0.40285354 </v>
   <v>       0.74920756       0.75109511       0.59466903 </v>
  </varray>
 </structure>
</modeling>
