unknown system                          
           1
    11.002582    0.000000    0.000000
     5.501291    9.528515    0.000000
     0.000000    0.000000   24.491785
   Au   Pd
  24  24
Direct configuration=     1
   0.08333333  0.08333333  0.40830017
   0.83333333  0.58333333  0.40830017
   0.75000000  0.25000000  0.59169983
   0.66666667  0.41666667  0.50000000
   0.66666667  0.16666667  0.50000000
   0.50000000  0.75000000  0.59169983
   0.41666667  0.91666667  0.50000000
   0.58333333  0.83333333  0.40830017
   0.50000000  0.50000000  0.59169983
   0.41666667  0.66666667  0.50000000
   0.58333333  0.58333333  0.40830017
   0.50000000  0.25000000  0.59169983
   0.41666667  0.41666667  0.50000000
   0.41666667  0.16666667  0.50000000
   0.25000000  0.25000000  0.59169983
   0.16666667  0.41666667  0.50000000
   0.25000000  0.75000000  0.59169983
   0.00000000  0.50000000  0.59169983
   0.08333333  0.83333333  0.40830017
   0.91666667  0.91666667  0.50000000
   0.33333333  0.08333333  0.40830017
   0.33333333  0.33333333  0.40830017
   0.08333333  0.33333333  0.40830017
   0.16666667  0.16666667  0.50000000
   0.83333333  0.33333333  0.40830017
   0.91666667  0.16666667  0.50000000
   0.75000000  0.00000000  0.59169983
   0.91666667  0.41666667  0.50000000
   0.66666667  0.66666667  0.50000000
   0.83333333  0.08333333  0.40830017
   0.75000000  0.50000000  0.59169983
   0.83333333  0.83333333  0.40830017
   0.00000000  0.00000000  0.59169983
   0.00000000  0.25000000  0.59169983
   0.25000000  0.00000000  0.59169983
   0.91666667  0.66666667  0.50000000
   0.00000000  0.75000000  0.59169983
   0.58333333  0.33333333  0.40830017
   0.50000000  0.00000000  0.59169983
   0.58333333  0.08333333  0.40830017
   0.66666667  0.91666667  0.50000000
   0.16666667  0.91666667  0.50000000
   0.33333333  0.83333333  0.40830017
   0.25000000  0.50000000  0.59169983
   0.16666667  0.66666667  0.50000000
   0.33333333  0.58333333  0.40830017
   0.08333333  0.58333333  0.40830017
   0.75000000  0.75000000  0.59169983
Direct configuration=     2
   0.08221168  0.08316430  0.40637553
   0.83405529  0.58346545  0.40677471
   0.75202812  0.24904003  0.59391334
   0.66946814  0.41620149  0.49952986
   0.66835362  0.16456814  0.49922281
   0.50130637  0.75051353  0.59386992
   0.41690718  0.91609717  0.50041259
   0.58406377  0.83372869  0.40642158
   0.50000328  0.50010353  0.59432576
   0.41496904  0.66798077  0.49925138
   0.58290701  0.58278920  0.40615801
   0.50016381  0.24908210  0.59433323
   0.41527498  0.41843113  0.49950119
   0.41903688  0.16440018  0.50007386
   0.24989861  0.24928480  0.59420332
   0.16459128  0.42001557  0.50004458
   0.24801937  0.75101529  0.59360256
  -0.00142202  0.50115368  0.59346006
   0.08375250  0.83242146  0.40656326
   0.91678281  0.91604736  0.50037540
   0.33421511  0.08247921  0.40567140
   0.33413459  0.33414547  0.40574821
   0.08185583  0.33449870  0.40608136
   0.16427795  0.16609885  0.50083537
   0.83328492  0.33250878  0.40729715
   0.91720718  0.16667968  0.50004315
   0.75042809 -0.00123174  0.59281797
   0.91562702  0.41689000  0.50025880
   0.66849515  0.66657253  0.50042336
   0.83265727  0.08396542  0.40721723
   0.75075756  0.50017679  0.59269269
   0.83312688  0.83368339  0.40749865
   0.00024022 -0.00006546  0.59261522
  -0.00031403  0.24946724  0.59267725
   0.24916480  0.00050913  0.59287307
   0.91598895  0.66734593  0.50006459
  -0.00021534  0.75043480  0.59247034
   0.58383926  0.33281648  0.40695685
   0.50091339 -0.00068534  0.59289554
   0.58424354  0.08305475  0.40709984
   0.66772640  0.91558751  0.50021377
   0.16598226  0.91688798  0.50032715
   0.33298326  0.83297864  0.40704644
   0.24930856  0.50076461  0.59297942
   0.16575719  0.66687464  0.50002057
   0.33288441  0.58362096  0.40711782
   0.08308569  0.58401330  0.40729953
   0.74997216  0.75042387  0.59234432
Direct configuration=     3
   0.07884673  0.08265722  0.40060160
   0.83622115  0.58386179  0.40219832
   0.75811249  0.24616014  0.60055387
   0.67787258  0.41480594  0.49811942
   0.67341447  0.15827256  0.49689123
   0.50522547  0.75205411  0.60038020
   0.41762873  0.91438866  0.50165035
   0.58625507  0.83491478  0.40078580
   0.50001313  0.50041414  0.60220353
   0.40987615  0.67192309  0.49700554
   0.58162804  0.58115681  0.39973153
   0.50065524  0.24632838  0.60223343
   0.41109993  0.42372452  0.49800474
   0.42614753  0.15760070  0.50029543
   0.24959444  0.24713919  0.60171377
   0.15836513  0.43006226  0.50017833
   0.24207748  0.75406117  0.59931073
  -0.00568808  0.50461471  0.59874077
   0.08500998  0.82968584  0.40135254
   0.91713124  0.91418943  0.50150159
   0.33686046  0.07991684  0.39778510
   0.33653837  0.33658187  0.39809234
   0.07742331  0.33799479  0.39942494
   0.15711178  0.16439541  0.50334147
   0.83313967  0.33003513  0.40428809
   0.91882873  0.16671874  0.50017259
   0.75171235 -0.00492694  0.59617241
   0.91250806  0.41755999  0.50103522
   0.67398060  0.66629014  0.50169345
   0.83062908  0.08586168  0.40396841
   0.75303025  0.50070715  0.59567127
   0.83250751  0.83473355  0.40509407
   0.00096088 -0.00026182  0.59536138
  -0.00125611  0.24786896  0.59560952
   0.24665920  0.00203652  0.59639279
   0.91395578  0.66938371  0.50025834
  -0.00086137  0.75173920  0.59478188
   0.58535705  0.33126591  0.40292690
   0.50365356 -0.00274137  0.59648268
   0.58697418  0.08221901  0.40349885
   0.67090561  0.91235005  0.50085506
   0.16392904  0.91755194  0.50130859
   0.33193304  0.83191457  0.40328527
   0.24723423  0.50305844  0.59681820
   0.16302877  0.66749857  0.50008228
   0.33153765  0.58448383  0.40357077
   0.08234277  0.58605320  0.40429760
   0.74988865  0.75169550  0.59427780
Direct configuration=     4
   0.08003357  0.08234501  0.39879564
   0.83447688  0.58468126  0.40074143
   0.75578437  0.24647177  0.60234548
   0.67256121  0.41607938  0.49863101
   0.67191066  0.16194012  0.49778170
   0.50388623  0.75114283  0.60236889
   0.41758374  0.91420630  0.50139806
   0.58618297  0.83377519  0.39926064
   0.50042734  0.50051414  0.60384028
   0.41237547  0.67064856  0.49774753
   0.58216566  0.58154064  0.39774025
   0.50160150  0.24682334  0.60412871
   0.41459537  0.42049276  0.49855974
   0.42218877  0.16097425  0.50024067
   0.24909055  0.24815326  0.60348212
   0.15958269  0.42459461  0.50023622
   0.24446768  0.75322106  0.60110993
  -0.00455684  0.50386311  0.60062682
   0.08380706  0.83065065  0.39976228
   0.91911008  0.91383149  0.50113003
   0.33506017  0.08166386  0.39584631
   0.33577974  0.33549129  0.39595229
   0.08013029  0.33568948  0.39789796
   0.16065895  0.16678327  0.50250945
   0.83307633  0.33030670  0.40277842
   0.91707836  0.16532482  0.50004721
   0.75170399 -0.00405720  0.59748148
   0.91661051  0.41771457  0.50078422
   0.67184168  0.66702258  0.50107734
   0.83181424  0.08437342  0.40247138
   0.75183997  0.50037405  0.59697394
   0.83328974  0.83551493  0.40426489
   0.00016963 -0.00011872  0.59658427
  -0.00114616  0.24902257  0.59745497
   0.24783310  0.00069585  0.59807809
   0.91325970  0.66917185  0.50009307
  -0.00163364  0.75173815  0.59602641
   0.58527254  0.33153770  0.40186946
   0.50329849 -0.00214279  0.59786445
   0.58621777  0.08264086  0.40190685
   0.67078677  0.91092318  0.50054835
   0.16321989  0.91653315  0.50100083
   0.33203125  0.83308025  0.40191340
   0.24778103  0.50185617  0.59798889
   0.16201791  0.67075940  0.50017683
   0.33159242  0.58438183  0.40181683
   0.08259961  0.58573631  0.40299772
   0.75054077  0.75203274  0.59566724
Direct configuration=     5
   0.08052549  0.08221560  0.39804711
   0.83375391  0.58502091  0.40013758
   0.75481941  0.24660094  0.60308807
   0.67035976  0.41660719  0.49884305
   0.67128736  0.16346025  0.49815078
   0.50333115  0.75076512  0.60319316
   0.41756510  0.91413072  0.50129349
   0.58615309  0.83330286  0.39862850
   0.50059901  0.50055559  0.60451868
   0.41341138  0.67012029  0.49805508
   0.58238849  0.58169973  0.39691491
   0.50199371  0.24702849  0.60491426
   0.41604415  0.41915326  0.49878978
   0.42054795  0.16237251  0.50021797
   0.24888171  0.24857357  0.60421506
   0.16008734  0.42232838  0.50026022
   0.24545837  0.75287286  0.60185566
  -0.00408796  0.50355158  0.60140855
   0.08330847  0.83105054  0.39910316
   0.91993027  0.91368313  0.50097603
   0.33431399  0.08238797  0.39504272
   0.33546531  0.33503927  0.39506529
   0.08125227  0.33473398  0.39726507
   0.16212917  0.16777299  0.50216459
   0.83305007  0.33041926  0.40215269
   0.91635287  0.16474708  0.49999525
   0.75170052 -0.00369671  0.59802407
   0.91831089  0.41777864  0.50068019
   0.67095515  0.66732616  0.50082198
   0.83230547  0.08375656  0.40185090
   0.75134662  0.50023599  0.59751387
   0.83361397  0.83583879  0.40392121
  -0.00015833 -0.00005941  0.59709113
  -0.00110059  0.24950072  0.59821987
   0.24831965  0.00014018  0.59877661
   0.91297119  0.66908404  0.50002456
  -0.00195373  0.75173772  0.59654224
   0.58523751  0.33165036  0.40143117
   0.50315132 -0.00189469  0.59843717
   0.58590425  0.08281571  0.40124699
   0.67073752  0.91033178  0.50042122
   0.16292597  0.91611089  0.50087328
   0.33207195  0.83356340  0.40134479
   0.24800766  0.50135785  0.59847412
   0.16159893  0.67211094  0.50021602
   0.33161512  0.58433955  0.40108986
   0.08270607  0.58560497  0.40245895
   0.75081106  0.75217252  0.59624313
Direct configuration=     6
   0.08128351  0.08241765  0.39773877
   0.83407122  0.58413701  0.39984733
   0.75357087  0.24727558  0.60341071
   0.67005974  0.41763465  0.49923605
   0.66966289  0.16358257  0.49879227
   0.50267540  0.75059571  0.60359185
   0.41671628  0.91522301  0.50110975
   0.58487912  0.83396146  0.39836379
   0.50041308  0.50042886  0.60481959
   0.41463473  0.66881819  0.49847765
   0.58236099  0.58194951  0.39647419
   0.50177098  0.24760303  0.60525780
   0.41507587  0.41869955  0.49913008
   0.41927744  0.16387083  0.50013404
   0.24930561  0.24886306  0.60458560
   0.16313864  0.42112927  0.50019785
   0.24690214  0.75183060  0.60222334
  -0.00335589  0.50298334  0.60191604
   0.08340888  0.83157597  0.39859652
   0.91771329  0.91521095  0.50072406
   0.33419590  0.08263465  0.39467287
   0.33508853  0.33485652  0.39462658
   0.08187590  0.33427637  0.39700070
   0.16354634  0.16676074  0.50175693
   0.83313045  0.33112600  0.40210002
   0.91699146  0.16589820  0.50001064
   0.75148689 -0.00283108  0.59813283
   0.91697014  0.41757261  0.50043641
   0.66961845  0.66635791  0.50047540
   0.83242318  0.08332270  0.40154682
   0.75093868  0.49996845  0.59751248
   0.83363065  0.83598501  0.40374079
  -0.00025190  0.00005510  0.59749656
  -0.00093717  0.24963391  0.59842584
   0.24871990  0.00014357  0.59890958
   0.91428078  0.66748764  0.49993838
  -0.00155811  0.75134768  0.59691630
   0.58478673  0.33199907  0.40134260
   0.50226433 -0.00118472  0.59850921
   0.58509544  0.08311356  0.40117895
   0.66907099  0.91272329  0.50014310
   0.16418395  0.91711531  0.50065914
   0.33254649  0.83376467  0.40124489
   0.24877770  0.50060726  0.59830266
   0.16389324  0.66918253  0.50024107
   0.33211879  0.58400048  0.40095865
   0.08310264  0.58449627  0.40239315
   0.75044487  0.75179551  0.59670019
Direct configuration=     7
   0.08143237  0.08245733  0.39767822
   0.83413354  0.58396342  0.39979033
   0.75332567  0.24740807  0.60347407
   0.67000082  0.41783643  0.49931323
   0.66934385  0.16360659  0.49891826
   0.50254662  0.75056244  0.60367015
   0.41654958  0.91543753  0.50107367
   0.58462892  0.83409080  0.39831180
   0.50037656  0.50040397  0.60487869
   0.41487498  0.66856247  0.49856064
   0.58235558  0.58199856  0.39638764
   0.50172724  0.24771587  0.60532527
   0.41488571  0.41861044  0.49919692
   0.41902792  0.16416508  0.50011755
   0.24938886  0.24891991  0.60465837
   0.16373789  0.42089377  0.50018560
   0.24718569  0.75162591  0.60229554
  -0.00321212  0.50287174  0.60201571
   0.08342860  0.83167916  0.39849702
   0.91727789  0.91551100  0.50067458
   0.33417271  0.08268309  0.39460023
   0.33501453  0.33482063  0.39454042
   0.08199837  0.33418650  0.39694877
   0.16382466  0.16656194  0.50167687
   0.83314624  0.33126479  0.40208967
   0.91711687  0.16612428  0.50001366
   0.75144493 -0.00266108  0.59815418
   0.91670682  0.41753215  0.50038853
   0.66935593  0.66616776  0.50040734
   0.83244630  0.08323750  0.40148710
   0.75085856  0.49991591  0.59751221
   0.83363392  0.83601373  0.40370536
  -0.00027027  0.00007759  0.59757618
  -0.00090507  0.24966007  0.59846629
   0.24879851  0.00014423  0.59893570
   0.91453797  0.66717412  0.49992145
  -0.00148041  0.75127108  0.59698976
   0.58469821  0.33206755  0.40132520
   0.50209013 -0.00104529  0.59852336
   0.58493659  0.08317206  0.40116559
   0.66874370  0.91319297  0.50008848
   0.16443101  0.91731257  0.50061709
   0.33263969  0.83380420  0.40122527
   0.24892892  0.50045985  0.59826899
   0.16434382  0.66860742  0.50024598
   0.33221771  0.58393389  0.40093288
   0.08318053  0.58427853  0.40238022
   0.75037296  0.75172147  0.59678995
Direct configuration=     8
   0.08140717  0.08267537  0.39758626
   0.83430047  0.58385483  0.39973294
   0.75331125  0.24764762  0.60356052
   0.67012202  0.41718813  0.49944894
   0.66870259  0.16439313  0.49918888
   0.50249495  0.75080398  0.60377039
   0.41687381  0.91548806  0.50100660
   0.58444451  0.83433752  0.39829905
   0.50027171  0.50021560  0.60509640
   0.41475077  0.66840827  0.49874401
   0.58223147  0.58207669  0.39619726
   0.50143610  0.24782721  0.60554081
   0.41529461  0.41849340  0.49926866
   0.41863327  0.16438312  0.50006214
   0.24958273  0.24885762  0.60480448
   0.16386542  0.42047746  0.50013853
   0.24717625  0.75148313  0.60230226
  -0.00308225  0.50264137  0.60208037
   0.08390477  0.83146333  0.39842966
   0.91763567  0.91527807  0.50063424
   0.33438777  0.08267258  0.39436095
   0.33505361  0.33492661  0.39427083
   0.08197949  0.33422739  0.39691104
   0.16359067  0.16678323  0.50155036
   0.83310220  0.33137631  0.40226038
   0.91726320  0.16685642  0.50004653
   0.75135887 -0.00264342  0.59812576
   0.91686557  0.41715425  0.50030085
   0.66884858  0.66670561  0.50021761
   0.83211532  0.08364923  0.40158153
   0.75096229  0.49989694  0.59738183
   0.83345290  0.83562282  0.40368613
   0.00005481 -0.00012123  0.59758457
  -0.00076328  0.24949102  0.59830127
   0.24870389  0.00047609  0.59883850
   0.91490619  0.66646868  0.49998043
  -0.00111029  0.75119577  0.59691348
   0.58463482  0.33212062  0.40159060
   0.50177255 -0.00089035  0.59836268
   0.58459782  0.08343813  0.40129526
   0.66778250  0.91360455  0.49996803
   0.16462691  0.91716232  0.50052742
   0.33287754  0.83352402  0.40137143
   0.24920821  0.50028405  0.59814199
   0.16464239  0.66857617  0.50023127
   0.33243527  0.58389182  0.40110857
   0.08333934  0.58398549  0.40250250
   0.74995357  0.75157097  0.59669582
Direct configuration=     9
   0.08139041  0.08282037  0.39752510
   0.83441148  0.58378260  0.39969478
   0.75330166  0.24780694  0.60361801
   0.67020262  0.41675699  0.49953919
   0.66827612  0.16491621  0.49936886
   0.50246058  0.75096462  0.60383705
   0.41708943  0.91552167  0.50096200
   0.58432187  0.83450159  0.39829057
   0.50020199  0.50009032  0.60524118
   0.41466817  0.66830572  0.49886596
   0.58214894  0.58212865  0.39607065
   0.50124249  0.24790126  0.60568415
   0.41556655  0.41841557  0.49931637
   0.41837080  0.16452812  0.50002529
   0.24971166  0.24881619  0.60490165
   0.16395023  0.42020060  0.50010723
   0.24716997  0.75138817  0.60230673
  -0.00299587  0.50248816  0.60212338
   0.08422144  0.83131979  0.39838486
   0.91787361  0.91512317  0.50060741
   0.33453080  0.08266558  0.39420182
   0.33507960  0.33499709  0.39409154
   0.08196693  0.33425459  0.39688594
   0.16343506  0.16693040  0.50146623
   0.83307291  0.33145048  0.40237391
   0.91736051  0.16734332  0.50006840
   0.75130164 -0.00263168  0.59810686
   0.91697113  0.41690294  0.50024253
   0.66851118  0.66706330  0.50009144
   0.83189520  0.08392305  0.40164433
   0.75103128  0.49988433  0.59729513
   0.83333251  0.83536285  0.40367334
   0.00027100 -0.00025345  0.59759015
  -0.00066899  0.24937860  0.59819152
   0.24864097  0.00069680  0.59877386
   0.91515107  0.66599954  0.50001965
  -0.00086414  0.75114568  0.59686275
   0.58459267  0.33215591  0.40176709
   0.50156135 -0.00078731  0.59825582
   0.58437253  0.08361508  0.40138149
   0.66714326  0.91387827  0.49988792
   0.16475720  0.91706240  0.50046778
   0.33303572  0.83333769  0.40146863
   0.24939395  0.50016714  0.59805752
   0.16484095  0.66855539  0.50022149
   0.33257996  0.58386383  0.40122541
   0.08344496  0.58379061  0.40258381
   0.74967467  0.75147088  0.59663322
Direct configuration=    10
   0.08133071  0.08284271  0.39742108
   0.83429053  0.58385382  0.39965358
   0.75356143  0.24768742  0.60375096
   0.67025245  0.41682099  0.49970881
   0.66861938  0.16460987  0.49970604
   0.50226435  0.75108233  0.60392959
   0.41681786  0.91556298  0.50088095
   0.58440324  0.83446449  0.39822165
   0.50020569  0.50009149  0.60559381
   0.41482667  0.66828260  0.49912302
   0.58222559  0.58209343  0.39589780
   0.50119766  0.24773494  0.60601164
   0.41556601  0.41848235  0.49940883
   0.41785328  0.16485141  0.49995016
   0.24967007  0.24881062  0.60507202
   0.16394604  0.42002459  0.50007093
   0.24722271  0.75143020  0.60230530
  -0.00289047  0.50238257  0.60214293
   0.08432141  0.83120142  0.39836508
   0.91773058  0.91520209  0.50051942
   0.33453833  0.08271798  0.39383872
   0.33512949  0.33519013  0.39372480
   0.08205942  0.33422309  0.39680038
   0.16353249  0.16681246  0.50130088
   0.83290793  0.33162593  0.40257448
   0.91741839  0.16727147  0.50012066
   0.75127914 -0.00278979  0.59798064
   0.91687153  0.41713141  0.50015526
   0.66842291  0.66709398  0.49983305
   0.83166814  0.08409508  0.40194127
   0.75099900  0.50002564  0.59706659
   0.83333058  0.83509698  0.40374769
   0.00037920 -0.00030714  0.59749964
  -0.00048814  0.24920058  0.59800144
   0.24851311  0.00090015  0.59856886
   0.91502869  0.66584657  0.50013794
  -0.00080777  0.75104979  0.59668698
   0.58456977  0.33223036  0.40209238
   0.50142748 -0.00066033  0.59808015
   0.58430808  0.08387888  0.40159040
   0.66722684  0.91400715  0.49977568
   0.16478605  0.91705340  0.50038147
   0.33321104  0.83324783  0.40167609
   0.24944250  0.50005389  0.59789652
   0.16483682  0.66859380  0.50018505
   0.33279912  0.58374194  0.40148009
   0.08364072  0.58377103  0.40277176
   0.74955395  0.75138544  0.59635750
Direct configuration=    11
   0.08122357  0.08288280  0.39723440
   0.83407345  0.58398164  0.39957964
   0.75402765  0.24747291  0.60398958
   0.67034187  0.41693587  0.50001323
   0.66923545  0.16406005  0.50031122
   0.50191215  0.75129360  0.60409567
   0.41633045  0.91563712  0.50073550
   0.58454930  0.83439789  0.39809795
   0.50021235  0.50009358  0.60622671
   0.41511115  0.66824111  0.49958438
   0.58236316  0.58203022  0.39558758
   0.50111721  0.24743643  0.60659943
   0.41556504  0.41860222  0.49957478
   0.41692444  0.16543165  0.49981532
   0.24959544  0.24880062  0.60537780
   0.16393853  0.41970870  0.50000578
   0.24731736  0.75150564  0.60230273
  -0.00270130  0.50219304  0.60217801
   0.08450083  0.83098898  0.39832958
   0.91747387  0.91534374  0.50036149
   0.33455184  0.08281202  0.39318705
   0.33521903  0.33553660  0.39306658
   0.08222544  0.33416656  0.39664681
   0.16370736  0.16660078  0.50100410
   0.83261183  0.33194082  0.40293446
   0.91752227  0.16714252  0.50021445
   0.75123876 -0.00307358  0.59775411
   0.91669275  0.41754146  0.49999864
   0.66826450  0.66714904  0.49936929
   0.83126061  0.08440384  0.40247421
   0.75094108  0.50027926  0.59665642
   0.83332712  0.83461979  0.40388113
   0.00057339 -0.00040349  0.59733720
  -0.00016355  0.24888106  0.59766030
   0.24828363  0.00126511  0.59820093
   0.91480904  0.66557201  0.50035026
  -0.00070660  0.75087769  0.59637150
   0.58452867  0.33236397  0.40267621
   0.50118722 -0.00043244  0.59776487
   0.58419240  0.08435234  0.40196534
   0.66737686  0.91423845  0.49957423
   0.16483784  0.91703724  0.50022657
   0.33352571  0.83308656  0.40204844
   0.24952963  0.49985063  0.59760756
   0.16482940  0.66866275  0.50011967
   0.33319246  0.58352317  0.40193720
   0.08399205  0.58373588  0.40310908
   0.74933728  0.75123211  0.59586263
Direct configuration=    12
   0.08109572  0.08273492  0.39709886
   0.83450466  0.58372260  0.39946514
   0.75391860  0.24735452  0.60423897
   0.67002603  0.41727662  0.50021965
   0.66859661  0.16435107  0.50077333
   0.50188668  0.75130698  0.60417167
   0.41660876  0.91573902  0.50061272
   0.58437007  0.83472394  0.39793249
   0.50051883  0.49979910  0.60672224
   0.41547505  0.66805117  0.49990613
   0.58232672  0.58197131  0.39550943
   0.50152377  0.24736619  0.60704471
   0.41564084  0.41821250  0.49980578
   0.41750216  0.16537303  0.49969443
   0.24938384  0.24887786  0.60555124
   0.16373096  0.42008980  0.49996999
   0.24725150  0.75158722  0.60232166
  -0.00273754  0.50218148  0.60217211
   0.08413982  0.83125789  0.39833282
   0.91797481  0.91479562  0.50025711
   0.33457666  0.08286170  0.39268092
   0.33525932  0.33555566  0.39266524
   0.08223737  0.33426957  0.39648036
   0.16342778  0.16673863  0.50068590
   0.83278689  0.33185379  0.40308650
   0.91766296  0.16666609  0.50026850
   0.75132725 -0.00329661  0.59770700
   0.91685213  0.41760715  0.49988189
   0.66809371  0.66722505  0.49903898
   0.83154174  0.08410155  0.40283088
   0.75079427  0.50044295  0.59644801
   0.83364131  0.83479300  0.40395686
   0.00049191 -0.00064590  0.59718896
  -0.00022605  0.24912705  0.59747256
   0.24831164  0.00109502  0.59798602
   0.91471009  0.66595553  0.50038355
  -0.00084444  0.75084558  0.59615772
   0.58455553  0.33237627  0.40311091
   0.50126448 -0.00061276  0.59753206
   0.58418764  0.08443054  0.40221999
   0.66728275  0.91414777  0.49944654
   0.16429719  0.91704620  0.50012116
   0.33339865  0.83330350  0.40219714
   0.24962027  0.49977087  0.59749121
   0.16448160  0.66879143  0.50013772
   0.33333156  0.58365458  0.40221259
   0.08392664  0.58377224  0.40328049
   0.74927126  0.75135072  0.59552985
Direct configuration=    13
   0.08107043  0.08270567  0.39707205
   0.83458996  0.58367136  0.39944249
   0.75389703  0.24733110  0.60428830
   0.66996355  0.41734402  0.50026049
   0.66847025  0.16440863  0.50086474
   0.50188165  0.75130963  0.60418670
   0.41666381  0.91575918  0.50058843
   0.58433462  0.83478844  0.39789976
   0.50057946  0.49974085  0.60682026
   0.41554703  0.66801360  0.49996977
   0.58231951  0.58195966  0.39549397
   0.50160418  0.24735229  0.60713278
   0.41565583  0.41813541  0.49985147
   0.41761644  0.16536143  0.49967052
   0.24934198  0.24889313  0.60558554
   0.16368990  0.42016518  0.49996291
   0.24723848  0.75160335  0.60232540
  -0.00274470  0.50217920  0.60217094
   0.08406841  0.83131108  0.39833346
   0.91807389  0.91468720  0.50023646
   0.33458157  0.08287153  0.39258081
   0.33526729  0.33555943  0.39258586
   0.08223973  0.33428995  0.39644744
   0.16337248  0.16676590  0.50062296
   0.83282151  0.33183657  0.40311658
   0.91769079  0.16657185  0.50027919
   0.75134475 -0.00334073  0.59769768
   0.91688366  0.41762015  0.49985880
   0.66805992  0.66724008  0.49897365
   0.83159734  0.08404176  0.40290143
   0.75076523  0.50047533  0.59640679
   0.83370345  0.83482726  0.40397185
   0.00047580 -0.00069385  0.59715964
  -0.00023841  0.24917570  0.59743543
   0.24831718  0.00106138  0.59794351
   0.91469052  0.66603139  0.50039013
  -0.00087171  0.75083923  0.59611543
   0.58456084  0.33237871  0.40319690
   0.50127976 -0.00064843  0.59748602
   0.58418670  0.08444601  0.40227036
   0.66726414  0.91412983  0.49942129
   0.16419025  0.91704797  0.50010031
   0.33337351  0.83334641  0.40222655
   0.24963820  0.49975510  0.59746820
   0.16441281  0.66881688  0.50014129
   0.33335908  0.58368057  0.40226707
   0.08391370  0.58377943  0.40331439
   0.74925820  0.75137418  0.59546403
Direct configuration=    14
   0.08112914  0.08272846  0.39691942
   0.83471635  0.58377148  0.39929336
   0.75396880  0.24722200  0.60456765
   0.67004718  0.41720839  0.50039627
   0.66849127  0.16452137  0.50125401
   0.50201701  0.75116052  0.60420898
   0.41657077  0.91607358  0.50043829
   0.58441252  0.83489451  0.39766491
   0.50065514  0.49972670  0.60726555
   0.41525929  0.66813577  0.50021656
   0.58232996  0.58203391  0.39556280
   0.50170560  0.24723868  0.60755035
   0.41530873  0.41823300  0.50011818
   0.41764156  0.16528342  0.49961308
   0.24953126  0.24875351  0.60561511
   0.16377408  0.42023112  0.49996452
   0.24724233  0.75142200  0.60236602
  -0.00292710  0.50232095  0.60213640
   0.08402339  0.83135752  0.39827130
   0.91778234  0.91475738  0.50023741
   0.33444745  0.08303412  0.39214134
   0.33526675  0.33556418  0.39233336
   0.08247731  0.33411756  0.39623949
   0.16360770  0.16686466  0.50032617
   0.83309290  0.33153904  0.40319747
   0.91720555  0.16653155  0.50033846
   0.75145978 -0.00349456  0.59775367
   0.91690158  0.41756741  0.49975844
   0.66808939  0.66720142  0.49865440
   0.83173207  0.08393425  0.40321341
   0.75064276  0.50053483  0.59633725
   0.83377022  0.83512966  0.40395493
   0.00022854 -0.00079421  0.59707151
  -0.00054705  0.24947817  0.59728302
   0.24835221  0.00089785  0.59772861
   0.91446731  0.66636595  0.50026233
  -0.00097890  0.75075988  0.59608042
   0.58471674  0.33223718  0.40357427
   0.50129346 -0.00061757  0.59734227
   0.58428100  0.08440424  0.40237555
   0.66738656  0.91388468  0.49928334
   0.16437157  0.91680088  0.50003012
   0.33311826  0.83356072  0.40228318
   0.24984538  0.49966124  0.59749564
   0.16475966  0.66856447  0.50019649
   0.33319814  0.58398426  0.40251998
   0.08392029  0.58380454  0.40332335
   0.74921372  0.75140931  0.59524137
Direct configuration=    15
   0.08114141  0.08273322  0.39688752
   0.83474277  0.58379241  0.39926219
   0.75398381  0.24719920  0.60462604
   0.67006466  0.41718004  0.50042465
   0.66849567  0.16454494  0.50133538
   0.50204531  0.75112935  0.60421363
   0.41655132  0.91613930  0.50040690
   0.58442880  0.83491668  0.39761582
   0.50067095  0.49972374  0.60735863
   0.41519914  0.66816130  0.50026814
   0.58233214  0.58204942  0.39557718
   0.50172680  0.24721494  0.60763763
   0.41523618  0.41825340  0.50017393
   0.41764681  0.16526712  0.49960108
   0.24957082  0.24872433  0.60562129
   0.16379168  0.42024490  0.49996485
   0.24724314  0.75138409  0.60237451
  -0.00296522  0.50235058  0.60212918
   0.08401398  0.83136722  0.39825831
   0.91772140  0.91477205  0.50023761
   0.33441942  0.08306810  0.39204948
   0.33526664  0.33556517  0.39228058
   0.08252697  0.33408153  0.39619602
   0.16365687  0.16688530  0.50026414
   0.83314963  0.33147686  0.40321437
   0.91710413  0.16652313  0.50035085
   0.75148382 -0.00352671  0.59776538
   0.91690533  0.41755639  0.49973746
   0.66809554  0.66719334  0.49858767
   0.83176023  0.08391178  0.40327862
   0.75061716  0.50054727  0.59632271
   0.83378417  0.83519286  0.40395140
   0.00017686 -0.00081519  0.59705309
  -0.00061156  0.24954138  0.59725117
   0.24835954  0.00086367  0.59768369
   0.91442065  0.66643588  0.50023562
  -0.00100130  0.75074330  0.59607311
   0.58474933  0.33220760  0.40365314
   0.50129632 -0.00061112  0.59731222
   0.58430071  0.08439551  0.40239754
   0.66741215  0.91383344  0.49925451
   0.16440947  0.91674924  0.50001545
   0.33306491  0.83360552  0.40229501
   0.24988869  0.49964163  0.59750138
   0.16483216  0.66851172  0.50020802
   0.33316451  0.58404773  0.40257284
   0.08392167  0.58380979  0.40332522
   0.74920442  0.75141665  0.59519484
Direct configuration=    16
   0.08126774  0.08282098  0.39676722
   0.83469332  0.58396815  0.39910336
   0.75403649  0.24725825  0.60491417
   0.66994943  0.41720278  0.50050182
   0.66834759  0.16455533  0.50157241
   0.50214282  0.75108897  0.60415429
   0.41652181  0.91597325  0.50025723
   0.58452012  0.83492646  0.39736306
   0.50069691  0.49975582  0.60763880
   0.41519296  0.66824313  0.50039343
   0.58238367  0.58210905  0.39577288
   0.50157751  0.24710866  0.60795839
   0.41530513  0.41832309  0.50036878
   0.41748990  0.16537554  0.49957488
   0.24968306  0.24857312  0.60550079
   0.16368643  0.42013009  0.49997668
   0.24718546  0.75125190  0.60246424
  -0.00295978  0.50236720  0.60204415
   0.08420724  0.83128081  0.39818374
   0.91754431  0.91488591  0.50034263
   0.33453065  0.08301873  0.39174820
   0.33545006  0.33567185  0.39222864
   0.08254794  0.33413914  0.39601848
   0.16353171  0.16692649  0.50010428
   0.83324660  0.33144551  0.40323332
   0.91716987  0.16663760  0.50044394
   0.75143370 -0.00355834  0.59792821
   0.91694325  0.41746139  0.49964013
   0.66803615  0.66706210  0.49840938
   0.83165978  0.08413368  0.40341658
   0.75056202  0.50055263  0.59635053
   0.83364756  0.83522814  0.40380972
   0.00017299 -0.00082855  0.59702793
  -0.00064638  0.24951880  0.59709396
   0.24818425  0.00091734  0.59748469
   0.91457016  0.66617617  0.50000102
  -0.00088772  0.75055031  0.59614710
   0.58470027  0.33223143  0.40391224
   0.50131419 -0.00054643  0.59725335
   0.58425245  0.08448787  0.40239061
   0.66732075  0.91392516  0.49916482
   0.16450751  0.91686428  0.49999612
   0.33317650  0.83361909  0.40226027
   0.24999483  0.49948519  0.59770324
   0.16490727  0.66851518  0.50028088
   0.33309202  0.58406618  0.40275807
   0.08402635  0.58376595  0.40322546
   0.74908315  0.75133463  0.59511584
Direct configuration=    17
   0.08137034  0.08289226  0.39666952
   0.83465317  0.58411087  0.39897438
   0.75407926  0.24730620  0.60514816
   0.66985584  0.41722125  0.50056449