  56  56   0   0
  0.4903395E+02  0.1100258E-08  0.1100258E-08  0.2619179E-08  0.3500000E-15
  1.000000000000000E-004
  CAR 
 unknown system                          
      6.40668462    -21.76644463  301     -1.26637484      1.00000000
    -21.766  0.0000E+00  0.0000E+00
    -21.673  0.0000E+00  0.0000E+00
    -21.579  0.0000E+00  0.0000E+00
    -21.485  0.0000E+00  0.0000E+00
    -21.391  0.0000E+00  0.0000E+00
    -21.297  0.0000E+00  0.0000E+00
    -21.203  0.0000E+00  0.0000E+00
    -21.109  0.0000E+00  0.0000E+00
    -21.015  0.6782E-15  0.6369E-16
    -20.921  0.7873E-11  0.7394E-12
    -20.827  0.1645E-07  0.1546E-08
    -20.733  0.6308E-05  0.5939E-06
    -20.640  0.4587E-03  0.4367E-04
    -20.546  0.6726E-02  0.6753E-03
    -20.452  0.2309E-01  0.2843E-02
    -20.358  0.3206E-01  0.5854E-02
    -20.264  0.4717E-01  0.1028E-01
    -20.170  0.6802E-01  0.1667E-01
    -20.076  0.8509E-01  0.2466E-01
    -19.982  0.6172E-01  0.3046E-01
    -19.888  0.1535E-01  0.3190E-01
    -19.794  0.1052E-02  0.3200E-01
    -19.700  0.1675E-04  0.3200E-01
    -19.607  0.5419E-07  0.3200E-01
    -19.513  0.3306E-10  0.3200E-01
    -19.419  0.3656E-14  0.3200E-01
    -19.325  0.0000E+00  0.3200E-01
    -19.231  0.0000E+00  0.3200E-01
    -19.137  0.0000E+00  0.3200E-01
    -19.043  0.0000E+00  0.3200E-01
    -18.949  0.0000E+00  0.3200E-01
    -18.855  0.0000E+00  0.3200E-01
    -18.761  0.0000E+00  0.3200E-01
    -18.667  0.0000E+00  0.3200E-01
    -18.573  0.0000E+00  0.3200E-01
    -18.480  0.0000E+00  0.3200E-01
    -18.386  0.0000E+00  0.3200E-01
    -18.292  0.0000E+00  0.3200E-01
    -18.198  0.0000E+00  0.3200E-01
    -18.104  0.0000E+00  0.3200E-01
    -18.010  0.0000E+00  0.3200E-01
    -17.916  0.0000E+00  0.3200E-01
    -17.822  0.0000E+00  0.3200E-01
    -17.728  0.0000E+00  0.3200E-01
    -17.634  0.0000E+00  0.3200E-01
    -17.540  0.0000E+00  0.3200E-01
    -17.447  0.0000E+00  0.3200E-01
    -17.353  0.0000E+00  0.3200E-01
    -17.259  0.0000E+00  0.3200E-01
    -17.165  0.0000E+00  0.3200E-01
    -17.071  0.0000E+00  0.3200E-01
    -16.977  0.0000E+00  0.3200E-01
    -16.883  0.0000E+00  0.3200E-01
    -16.789  0.0000E+00  0.3200E-01
    -16.695  0.0000E+00  0.3200E-01
    -16.601  0.0000E+00  0.3200E-01
    -16.507  0.0000E+00  0.3200E-01
    -16.414  0.0000E+00  0.3200E-01
    -16.320  0.0000E+00  0.3200E-01
    -16.226  0.0000E+00  0.3200E-01
    -16.132  0.0000E+00  0.3200E-01
    -16.038  0.0000E+00  0.3200E-01
    -15.944  0.0000E+00  0.3200E-01
    -15.850  0.0000E+00  0.3200E-01
    -15.756  0.0000E+00  0.3200E-01
    -15.662  0.0000E+00  0.3200E-01
    -15.568  0.0000E+00  0.3200E-01
    -15.474  0.0000E+00  0.3200E-01
    -15.381  0.0000E+00  0.3200E-01
    -15.287  0.0000E+00  0.3200E-01
    -15.193  0.0000E+00  0.3200E-01
    -15.099  0.0000E+00  0.3200E-01
    -15.005  0.0000E+00  0.3200E-01
    -14.911  0.0000E+00  0.3200E-01
    -14.817  0.0000E+00  0.3200E-01
    -14.723  0.0000E+00  0.3200E-01
    -14.629  0.0000E+00  0.3200E-01
    -14.535  0.0000E+00  0.3200E-01
    -14.441  0.0000E+00  0.3200E-01
    -14.348  0.0000E+00  0.3200E-01
    -14.254  0.0000E+00  0.3200E-01
    -14.160  0.0000E+00  0.3200E-01
    -14.066  0.0000E+00  0.3200E-01
    -13.972  0.0000E+00  0.3200E-01
    -13.878  0.0000E+00  0.3200E-01
    -13.784  0.0000E+00  0.3200E-01
    -13.690  0.0000E+00  0.3200E-01
    -13.596  0.0000E+00  0.3200E-01
    -13.502  0.0000E+00  0.3200E-01
    -13.408  0.0000E+00  0.3200E-01
    -13.315  0.0000E+00  0.3200E-01
    -13.221  0.0000E+00  0.3200E-01
    -13.127  0.0000E+00  0.3200E-01
    -13.033  0.0000E+00  0.3200E-01
    -12.939  0.0000E+00  0.3200E-01
    -12.845  0.0000E+00  0.3200E-01
    -12.751  0.0000E+00  0.3200E-01
    -12.657  0.0000E+00  0.3200E-01
    -12.563  0.0000E+00  0.3200E-01
    -12.469  0.0000E+00  0.3200E-01
    -12.375  0.0000E+00  0.3200E-01
    -12.281  0.0000E+00  0.3200E-01
    -12.188  0.0000E+00  0.3200E-01
    -12.094  0.0000E+00  0.3200E-01
    -12.000  0.0000E+00  0.3200E-01
    -11.906  0.0000E+00  0.3200E-01
    -11.812  0.0000E+00  0.3200E-01
    -11.718  0.0000E+00  0.3200E-01
    -11.624  0.0000E+00  0.3200E-01
    -11.530  0.0000E+00  0.3200E-01
    -11.436  0.0000E+00  0.3200E-01
    -11.342  0.0000E+00  0.3200E-01
    -11.248  0.0000E+00  0.3200E-01
    -11.155  0.0000E+00  0.3200E-01
    -11.061  0.0000E+00  0.3200E-01
    -10.967  0.0000E+00  0.3200E-01
    -10.873  0.0000E+00  0.3200E-01
    -10.779  0.0000E+00  0.3200E-01
    -10.685  0.0000E+00  0.3200E-01
    -10.591  0.0000E+00  0.3200E-01
    -10.497  0.0000E+00  0.3200E-01
    -10.403  0.0000E+00  0.3200E-01
    -10.309  0.0000E+00  0.3200E-01
    -10.215  0.0000E+00  0.3200E-01
    -10.122  0.2325E-16  0.3200E-01
    -10.028  0.4342E-12  0.3200E-01
     -9.934  0.1425E-08  0.3200E-01
     -9.840  0.8456E-06  0.3200E-01
     -9.746  0.9332E-04  0.3201E-01
     -9.652  0.2003E-02  0.3220E-01
     -9.558  0.8879E-02  0.3303E-01
     -9.464  0.9000E-02  0.3388E-01
     -9.370  0.6708E-02  0.3451E-01
     -9.276  0.1053E-01  0.3550E-01
     -9.182  0.4882E-02  0.3595E-01
     -9.089  0.7386E-03  0.3602E-01
     -8.995  0.2932E-02  0.3630E-01
     -8.901  0.9117E-02  0.3715E-01
     -8.807  0.1048E-01  0.3814E-01
     -8.713  0.1644E-01  0.3968E-01
     -8.619  0.2137E-01  0.4169E-01
     -8.525  0.1586E-01  0.4318E-01
     -8.431  0.8243E-02  0.4395E-01
     -8.337  0.7798E-02  0.4468E-01
     -8.243  0.1944E-01  0.4651E-01
     -8.149  0.3102E-01  0.4942E-01
     -8.056  0.4537E-01  0.5368E-01
     -7.962  0.6000E-01  0.5932E-01
     -7.868  0.7645E-01  0.6650E-01
     -7.774  0.9291E-01  0.7522E-01
     -7.680  0.9815E-01  0.8444E-01
     -7.586  0.1064E+00  0.9444E-01
     -7.492  0.1090E+00  0.1047E+00
     -7.398  0.1048E+00  0.1145E+00
     -7.304  0.1200E+00  0.1258E+00
     -7.210  0.1299E+00  0.1380E+00
     -7.116  0.1411E+00  0.1512E+00
     -7.023  0.1561E+00  0.1659E+00
     -6.929  0.1671E+00  0.1816E+00
     -6.835  0.1691E+00  0.1975E+00
     -6.741  0.1690E+00  0.2133E+00
     -6.647  0.1639E+00  0.2287E+00
     -6.553  0.1564E+00  0.2434E+00
     -6.459  0.1502E+00  0.2575E+00
     -6.365  0.1532E+00  0.2719E+00
     -6.271  0.1343E+00  0.2845E+00
     -6.177  0.1254E+00  0.2963E+00
     -6.083  0.1445E+00  0.3099E+00
     -5.989  0.1690E+00  0.3257E+00
     -5.896  0.1809E+00  0.3427E+00
     -5.802  0.1686E+00  0.3586E+00
     -5.708  0.1481E+00  0.3725E+00
     -5.614  0.1478E+00  0.3863E+00
     -5.520  0.1711E+00  0.4024E+00
     -5.426  0.1899E+00  0.4202E+00
     -5.332  0.1879E+00  0.4379E+00
     -5.238  0.1788E+00  0.4547E+00
     -5.144  0.1699E+00  0.4706E+00
     -5.050  0.1734E+00  0.4869E+00
     -4.956  0.1795E+00  0.5038E+00
     -4.863  0.1838E+00  0.5210E+00
     -4.769  0.1881E+00  0.5387E+00
     -4.675  0.1882E+00  0.5564E+00
     -4.581  0.1883E+00  0.5741E+00
     -4.487  0.1887E+00  0.5918E+00
     -4.393  0.2009E+00  0.6106E+00
     -4.299  0.2131E+00  0.6307E+00
     -4.205  0.2141E+00  0.6508E+00
     -4.111  0.2134E+00  0.6708E+00
     -4.017  0.2109E+00  0.6906E+00
     -3.923  0.2039E+00  0.7098E+00
     -3.830  0.1909E+00  0.7277E+00
     -3.736  0.1864E+00  0.7452E+00
     -3.642  0.1870E+00  0.7628E+00
     -3.548  0.1916E+00  0.7807E+00
     -3.454  0.1882E+00  0.7984E+00
     -3.360  0.1838E+00  0.8157E+00
     -3.266  0.1715E+00  0.8318E+00
     -3.172  0.1604E+00  0.8469E+00
     -3.078  0.1566E+00  0.8616E+00
     -2.984  0.1503E+00  0.8757E+00
     -2.890  0.1493E+00  0.8897E+00
     -2.797  0.1559E+00  0.9043E+00
     -2.703  0.1619E+00  0.9195E+00
     -2.609  0.1614E+00  0.9347E+00
     -2.515  0.1706E+00  0.9507E+00
     -2.421  0.1770E+00  0.9673E+00
     -2.327  0.1772E+00  0.9840E+00
     -2.233  0.1731E+00  0.1000E+01
     -2.139  0.1695E+00  0.1016E+01
     -2.045  0.1577E+00  0.1031E+01
     -1.951  0.1346E+00  0.1044E+01
     -1.857  0.1135E+00  0.1054E+01
     -1.764  0.9969E-01  0.1064E+01
     -1.670  0.9661E-01  0.1073E+01
     -1.576  0.9578E-01  0.1082E+01
     -1.482  0.8112E-01  0.1089E+01
     -1.388  0.7079E-01  0.1096E+01
     -1.294  0.6604E-01  0.1102E+01
     -1.200  0.6926E-01  0.1109E+01
     -1.106  0.7775E-01  0.1116E+01
     -1.012  0.8518E-01  0.1124E+01
     -0.918  0.8253E-01  0.1132E+01
     -0.824  0.6602E-01  0.1138E+01
     -0.731  0.5288E-01  0.1143E+01
     -0.637  0.4415E-01  0.1147E+01
     -0.543  0.4787E-01  0.1152E+01
     -0.449  0.5249E-01  0.1156E+01
     -0.355  0.4763E-01  0.1161E+01
     -0.261  0.3724E-01  0.1164E+01
     -0.167  0.3229E-01  0.1167E+01
     -0.073  0.2250E-01  0.1170E+01
      0.021  0.2168E-01  0.1172E+01
      0.115  0.3296E-01  0.1175E+01
      0.209  0.3165E-01  0.1178E+01
      0.303  0.4042E-01  0.1181E+01
      0.396  0.4490E-01  0.1186E+01
      0.490  0.3723E-01  0.1189E+01
      0.584  0.3265E-01  0.1192E+01
      0.678  0.2968E-01  0.1195E+01
      0.772  0.2777E-01  0.1198E+01
      0.866  0.2153E-01  0.1200E+01
      0.960  0.1367E-01  0.1201E+01
      1.054  0.9567E-02  0.1202E+01
      1.148  0.1348E-01  0.1203E+01
      1.242  0.2539E-01  0.1205E+01
      1.336  0.3183E-01  0.1208E+01
      1.429  0.2580E-01  0.1211E+01
      1.523  0.3177E-01  0.1214E+01
      1.617  0.4630E-01  0.1218E+01
      1.711  0.4534E-01  0.1222E+01
      1.805  0.3740E-01  0.1226E+01
      1.899  0.3256E-01  0.1229E+01
      1.993  0.3003E-01  0.1232E+01
      2.087  0.2826E-01  0.1235E+01
      2.181  0.2083E-01  0.1236E+01
      2.275  0.1714E-01  0.1238E+01
      2.369  0.1969E-01  0.1240E+01
      2.462  0.1603E-01  0.1241E+01
      2.556  0.7198E-02  0.1242E+01
      2.650  0.1231E-01  0.1243E+01
      2.744  0.2215E-01  0.1245E+01
      2.838  0.2298E-01  0.1248E+01
      2.932  0.3072E-01  0.1250E+01
      3.026  0.3522E-01  0.1254E+01
      3.120  0.2923E-01  0.1256E+01
      3.214  0.2583E-01  0.1259E+01
      3.308  0.2745E-01  0.1261E+01
      3.402  0.1944E-01  0.1263E+01
      3.495  0.1955E-01  0.1265E+01
      3.589  0.3239E-01  0.1268E+01
      3.683  0.4176E-01  0.1272E+01
      3.777  0.4929E-01  0.1277E+01
      3.871  0.4694E-01  0.1281E+01
      3.965  0.4277E-01  0.1285E+01
      4.059  0.4010E-01  0.1289E+01
      4.153  0.4384E-01  0.1293E+01
      4.247  0.4439E-01  0.1297E+01
      4.341  0.4025E-01  0.1301E+01
      4.435  0.3774E-01  0.1305E+01
      4.528  0.4267E-01  0.1309E+01
      4.622  0.4591E-01  0.1313E+01
      4.716  0.5440E-01  0.1318E+01
      4.810  0.5946E-01  0.1324E+01
      4.904  0.6083E-01  0.1329E+01
      4.998  0.6264E-01  0.1335E+01
      5.092  0.5650E-01  0.1340E+01
      5.186  0.3099E-01  0.1343E+01
      5.280  0.6545E-02  0.1344E+01
      5.374  0.3734E-03  0.1344E+01
      5.468  0.4709E-05  0.1344E+01
      5.561  0.1182E-07  0.1344E+01
      5.655  0.5595E-11  0.1344E+01
      5.749  0.4831E-15  0.1344E+01
      5.843  0.0000E+00  0.1344E+01
      5.937  0.0000E+00  0.1344E+01
      6.031  0.0000E+00  0.1344E+01
      6.125  0.0000E+00  0.1344E+01
      6.219  0.0000E+00  0.1344E+01
      6.313  0.0000E+00  0.1344E+01
      6.407  0.0000E+00  0.1344E+01
