unknown system                          
           1
    11.002582    0.000000    0.000000
     5.501291    9.528515    0.000000
     0.000000    0.000000   26.191785
   Au   O    Pd
  24   8  24
Direct configuration=     1
   0.08333333  0.08333333  0.38179910
   0.33333333  0.83333333  0.38179910
   0.66666667  0.16666667  0.46754708
   0.66666667  0.91666667  0.46754708
   0.83333333  0.83333333  0.38179910
   0.08333333  0.33333333  0.38179910
   0.91666667  0.41666667  0.46754708
   0.66666667  0.66666667  0.46754708
   0.83333333  0.58333333  0.38179910
   0.08333333  0.58333333  0.38179910
   0.66666667  0.41666667  0.46754708
   0.83333333  0.08333333  0.38179910
   0.83333333  0.33333333  0.38179910
   0.58333333  0.08333333  0.38179910
   0.41666667  0.91666667  0.46754708
   0.33333333  0.08333333  0.38179910
   0.58333333  0.58333333  0.38179910
   0.58333333  0.33333333  0.38179910
   0.33333333  0.33333333  0.38179910
   0.16666667  0.41666667  0.46754708
   0.25000000  0.25000000  0.55329505
   0.41666667  0.16666667  0.46754708
   0.33333333  0.58333333  0.38179910
   0.08333333  0.83333333  0.38179910
   0.08333333  0.08333333  0.61820090
   0.33333333  0.58333333  0.61820090
   0.08333333  0.58333333  0.61820090
   0.83333333  0.83333333  0.61820090
   0.33333333  0.83333333  0.61820090
   0.83333333  0.58333333  0.61820090
   0.58333333  0.33333333  0.61820090
   0.58333333  0.58333333  0.61820090
   0.16666667  0.16666667  0.46754708
   0.25000000  0.00000000  0.55329505
   0.50000000  0.25000000  0.55329505
   0.00000000  0.75000000  0.55329505
   0.50000000  0.00000000  0.55329505
   0.16666667  0.66666667  0.46754708
   0.75000000  0.75000000  0.55329505
   0.25000000  0.75000000  0.55329505
   0.16666667  0.91666667  0.46754708
   0.50000000  0.50000000  0.55329505
   0.25000000  0.50000000  0.55329505
   0.58333333  0.83333333  0.38179910
   0.50000000  0.75000000  0.55329505
   0.91666667  0.91666667  0.46754708
   0.75000000  0.00000000  0.55329505
   0.00000000  0.50000000  0.55329505
   0.91666667  0.66666667  0.46754708
   0.75000000  0.25000000  0.55329505
   0.00000000  0.25000000  0.55329505
   0.75000000  0.50000000  0.55329505
   0.00000000  0.00000000  0.55329505
   0.91666667  0.16666667  0.46754708
   0.41666667  0.66666667  0.46754708
   0.41666667  0.41666667  0.46754708
Direct configuration=     2
   0.08333333  0.08333333  0.38179910
   0.33333333  0.83333333  0.38179910
   0.66789419  0.16612181  0.46893672
   0.66824124  0.91522806  0.46850254
   0.83333333  0.83333333  0.38179910
   0.08333333  0.33333333  0.38179910
   0.91762119  0.41561776  0.46932697
   0.66606931  0.66780860  0.46854426
   0.83333333  0.58333333  0.38179910
   0.08333333  0.58333333  0.38179910
   0.66551011  0.41705488  0.46890816
   0.83333333  0.08333333  0.38179910
   0.83333333  0.33333333  0.38179910
   0.58333333  0.08333333  0.38179910
   0.41543109  0.91607496  0.46868994
   0.33333333  0.08333333  0.38179910
   0.58333333  0.58333333  0.38179910
   0.58333333  0.33333333  0.38179910
   0.33333333  0.33333333  0.38179910
   0.16610476  0.41883724  0.46872757
   0.25034137  0.24932038  0.55505699
   0.41684365  0.16708726  0.46872474
   0.33333333  0.58333333  0.38179910
   0.08333333  0.83333333  0.38179910
   0.08239825  0.08392020  0.61377811
   0.33206905  0.58365578  0.61419335
   0.08433639  0.58272271  0.61403641
   0.83221416  0.83540500  0.61381429
   0.33342762  0.83385224  0.61405252
   0.83313714  0.58228554  0.61408561
   0.58468986  0.33087822  0.61397127
   0.58425900  0.58388202  0.61422969
   0.16599759  0.16535752  0.46814766
   0.24883907 -0.00025404  0.55680366
   0.50129361  0.25048341  0.55568330
  -0.00050861  0.75013016  0.55651252
   0.50020122  0.00007753  0.55435321
   0.16645918  0.66787391  0.46865870
   0.75111078  0.75020069  0.55715437
   0.25041566  0.74989442  0.55647799
   0.16611768  0.91615298  0.46842039
   0.49971050  0.49973945  0.55743740
   0.24953400  0.50117603  0.55658456
   0.58333333  0.83333333  0.38179910
   0.49897470  0.75001332  0.55698209
   0.91841988  0.91582340  0.46888509
   0.75118053 -0.00167028  0.55559834
  -0.00068682  0.50121152  0.55692783
   0.91712143  0.66746665  0.46788705
   0.74875940  0.24998191  0.55562747
   0.00045582  0.24783899  0.55545953
   0.74989514  0.50053715  0.55700810
   0.00054512  0.00129163  0.55511344
   0.91749751  0.16537423  0.46857258
   0.41564722  0.66643410  0.46816862
   0.41580712  0.41832492  0.46855952
Direct configuration=     3
   0.08333333  0.08333333  0.38179910
   0.33333333  0.83333333  0.38179910
   0.67023449  0.16508303  0.47158612
   0.67124321  0.91248530  0.47032417
   0.83333333  0.83333333  0.38179910
   0.08333333  0.33333333  0.38179910
   0.91944102  0.41361799  0.47272040
   0.66493042  0.66998573  0.47044542
   0.83333333  0.58333333  0.38179910
   0.08333333  0.58333333  0.38179910
   0.66330508  0.41779503  0.47150313
   0.83333333  0.08333333  0.38179910
   0.83333333  0.33333333  0.38179910
   0.58333333  0.08333333  0.38179910
   0.41307543  0.91494686  0.47086885
   0.33333333  0.08333333  0.38179910
   0.58333333  0.58333333  0.38179910
   0.58333333  0.33333333  0.38179910
   0.33333333  0.33333333  0.38179910
   0.16503347  0.42297550  0.47097822
   0.25099219  0.24802465  0.55841619
   0.41718107  0.16788913  0.47096999
   0.33333333  0.58333333  0.38179910
   0.08333333  0.83333333  0.38179910
   0.08061548  0.08503909  0.60534590
   0.32965864  0.58427054  0.60655283
   0.08624875  0.58155854  0.60609666
   0.83008041  0.83935471  0.60545107
   0.33360737  0.83484156  0.60614348
   0.83276310  0.58028789  0.60623968
   0.58727612  0.32619745  0.60590734
   0.58602383  0.58492810  0.60665844
   0.16472196  0.16286159  0.46929269
   0.24662571 -0.00073838  0.56349295
   0.50375991  0.25140505  0.56023658
  -0.00147830  0.75037831  0.56264673
   0.50058485  0.00022534  0.55637063
   0.16606359  0.67017557  0.47077804
   0.75322853  0.75058332  0.56451229
   0.25120813  0.74969312  0.56254637
   0.16507103  0.91517362  0.47008541
   0.49915856  0.49924269  0.56533493
   0.24864555  0.50341819  0.56285613
   0.58333333  0.83333333  0.38179910
   0.49701993  0.75003871  0.56401154
   0.92176244  0.91421567  0.47143607
   0.75343125 -0.00485472  0.55998964
  -0.00199628  0.50352133  0.56385385
   0.91798846  0.66899184  0.46853522
   0.74639416  0.24994741  0.56007431
   0.00132486  0.24371894  0.55958619
   0.74969523  0.50156124  0.56408715
   0.00158441  0.00375418  0.55858026
   0.91908154  0.16291016  0.47052775
   0.41370361  0.66599071  0.46935361
   0.41416836  0.42148644  0.47048979
Direct configuration=     4
   0.08333333  0.08333333  0.38179910
   0.33333333  0.83333333  0.38179910
   0.66957211  0.16537704  0.47083625
   0.67039355  0.91326160  0.46980859
   0.83333333  0.83333333  0.38179910
   0.08333333  0.33333333  0.38179910
   0.91892595  0.41418399  0.47175995
   0.66525277  0.66936953  0.46990733
   0.83333333  0.58333333  0.38179910
   0.08333333  0.58333333  0.38179910
   0.66392918  0.41758554  0.47076867
   0.83333333  0.08333333  0.38179910
   0.83333333  0.33333333  0.38179910
   0.58333333  0.08333333  0.38179910
   0.41374216  0.91526615  0.47025214
   0.33333333  0.08333333  0.38179910
   0.58333333  0.58333333  0.38179910
   0.58333333  0.33333333  0.38179910
   0.33333333  0.33333333  0.38179910
   0.16533668  0.42180423  0.47034121
   0.25080799  0.24839138  0.55746543
   0.41708557  0.16766217  0.47033451
   0.33333333  0.58333333  0.38179910
   0.08333333  0.83333333  0.38179910
   0.08112007  0.08472241  0.60773249
   0.33034087  0.58409654  0.60871535
   0.08570749  0.58188804  0.60834387
   0.83068434  0.83823681  0.60781814
   0.33355649  0.83456155  0.60838200
   0.83286897  0.58085329  0.60846034
   0.58654412  0.32752227  0.60818970
   0.58552433  0.58463202  0.60880135
   0.16508300  0.16356802  0.46896861
   0.24725216 -0.00060130  0.56159966
   0.50306186  0.25114419  0.55894785
  -0.00120385  0.75030808  0.56091054
   0.50047627  0.00018350  0.55579964
   0.16617555  0.66952413  0.47017820
   0.75262913  0.75047503  0.56242975
   0.25098384  0.74975010  0.56082882
   0.16536726  0.91545081  0.46961415
   0.49931478  0.49938329  0.56309966
   0.24889701  0.50278358  0.56108106
   0.58333333  0.83333333  0.38179910
   0.49757319  0.75003152  0.56202197
   0.92081638  0.91467071  0.47071406
   0.75279422 -0.00395342  0.55874675
  -0.00162566  0.50286758  0.56189356
   0.91774306  0.66856016  0.46835177
   0.74706360  0.24995718  0.55881570
   0.00107889  0.24488505  0.55841821
   0.74975181  0.50127139  0.56208355
   0.00129026  0.00305719  0.55759903
   0.91863320  0.16360757  0.46997437
   0.41425372  0.66611620  0.46901821
   0.41463219  0.42059162  0.46994346
Direct configuration=     5
   0.08333333  0.08333333  0.38179910
   0.33333333  0.83333333  0.38179910
   0.66978123  0.16528422  0.47107299
   0.67066179  0.91301651  0.46997136
   0.83333333  0.83333333  0.38179910
   0.08333333  0.33333333  0.38179910
   0.91908856  0.41400530  0.47206317
   0.66515100  0.66956406  0.47007721
   0.83333333  0.58333333  0.38179910
   0.08333333  0.58333333  0.38179910
   0.66373215  0.41765168  0.47100054
   0.83333333  0.08333333  0.38179910
   0.83333333  0.33333333  0.38179910
   0.58333333  0.08333333  0.38179910
   0.41353167  0.91516535  0.47044684
   0.33333333  0.08333333  0.38179910
   0.58333333  0.58333333  0.38179910
   0.58333333  0.33333333  0.38179910
   0.33333333  0.33333333  0.38179910
   0.16524096  0.42217401  0.47054232
   0.25086614  0.24827560  0.55776559
   0.41711572  0.16773382  0.47053514
   0.33333333  0.58333333  0.38179910
   0.08333333  0.83333333  0.38179910
   0.08096077  0.08482239  0.60697903
   0.33012549  0.58415148  0.60803263
   0.08587837  0.58178401  0.60763441
   0.83049367  0.83858974  0.60707084
   0.33357256  0.83464995  0.60767528
   0.83283555  0.58067479  0.60775926
   0.58677522  0.32710401  0.60746914
   0.58568202  0.58472550  0.60812482
   0.16496902  0.16334499  0.46907093
   0.24705438 -0.00064458  0.56219739
   0.50328224  0.25122655  0.55935471
  -0.00129050  0.75033025  0.56145867
   0.50051055  0.00019671  0.55597991
   0.16614020  0.66972979  0.47036757
   0.75281837  0.75050922  0.56308723
   0.25105465  0.74973211  0.56137106
   0.16527374  0.91536330  0.46976293
   0.49926546  0.49933890  0.56380535
   0.24881763  0.50298393  0.56164146
   0.58333333  0.83333333  0.38179910
   0.49739852  0.75003379  0.56265009
   0.92111506  0.91452705  0.47094200
   0.75299533 -0.00423797  0.55913914
  -0.00174267  0.50307397  0.56251244
   0.91782054  0.66869645  0.46840969
   0.74685225  0.24995409  0.55921305
   0.00115655  0.24451690  0.55878695
   0.74973395  0.50136290  0.56271610
   0.00138313  0.00327724  0.55790881
   0.91877475  0.16338739  0.47014908
   0.41408005  0.66607658  0.46912410
   0.41448575  0.42087412  0.47011594
Direct configuration=     6
   0.08333333  0.08333333  0.38179910
   0.33333333  0.83333333  0.38179910
   0.67041181  0.16431896  0.47260035
   0.67104249  0.91304593  0.47134846
   0.83333333  0.83333333  0.38179910
   0.08333333  0.33333333  0.38179910
   0.91860760  0.41435799  0.47439560
   0.66525915  0.66887872  0.47216908
   0.83333333  0.58333333  0.38179910
   0.08333333  0.58333333  0.38179910
   0.66400831  0.41847842  0.47297929
   0.83333333  0.08333333  0.38179910
   0.83333333  0.33333333  0.38179910
   0.58333333  0.08333333  0.38179910
   0.41275843  0.91493700  0.47227285
   0.33333333  0.08333333  0.38179910
   0.58333333  0.58333333  0.38179910
   0.58333333  0.33333333  0.38179910
   0.33333333  0.33333333  0.38179910
   0.16511089  0.42287502  0.47256693
   0.25135270  0.24813501  0.55915827
   0.41706387  0.16828480  0.47188240
   0.33333333  0.58333333  0.38179910
   0.08333333  0.83333333  0.38179910
   0.07817188  0.08662430  0.60618578
   0.32880380  0.58435654  0.60692679
   0.08644835  0.58099253  0.60660634
   0.82939678  0.84239040  0.60671365
   0.33280895  0.83653847  0.60695031
   0.83388377  0.57931775  0.60726213
   0.58920647  0.32270469  0.60692997
   0.58677720  0.58435140  0.60726555
   0.16532914  0.16310932  0.47039031
   0.25038942  0.00079674  0.56315716
   0.50087589  0.24774824  0.56002376
   0.00173666  0.75419408  0.56216669
   0.50047119  0.00065193  0.55711355
   0.16605315  0.67030124  0.47204497
   0.74543469  0.75391547  0.56393658
   0.24470521  0.75292364  0.56207054
   0.16553771  0.91463081  0.47107452
   0.49969709  0.49949031  0.56487321
   0.25048480  0.49810490  0.56243130
   0.58333333  0.83333333  0.38179910
   0.50098987  0.75374628  0.56313550
   0.92196412  0.91411115  0.47256117
   0.75176302 -0.00052868  0.55966183
   0.00191816  0.49623972  0.56339081
   0.91827088  0.66843457  0.46978706
   0.75173528  0.24718876  0.56001418
  -0.00100661  0.24908257  0.55957228
   0.75227137  0.49595857  0.56310364
  -0.00204799  0.00091986  0.55837078
   0.91818317  0.16366842  0.47131673
   0.41356891  0.66631520  0.47065791
   0.41397079  0.42142115  0.47172555
Direct configuration=     7
   0.08333333  0.08333333  0.38179910
   0.33333333  0.83333333  0.38179910
   0.67094404  0.16350428  0.47388947
   0.67136381  0.91307076  0.47251076
   0.83333333  0.83333333  0.38179910
   0.08333333  0.33333333  0.38179910
   0.91820166  0.41465566  0.47636421
   0.66535043  0.66830027  0.47393466
   0.83333333  0.58333333  0.38179910
   0.08333333  0.58333333  0.38179910
   0.66424139  0.41917619  0.47464939
   0.83333333  0.08333333  0.38179910
   0.83333333  0.33333333  0.38179910
   0.58333333  0.08333333  0.38179910
   0.41210581  0.91474427  0.47381403
   0.33333333  0.08333333  0.38179910
   0.58333333  0.58333333  0.38179910
   0.58333333  0.33333333  0.38179910
   0.33333333  0.33333333  0.38179910
   0.16500112  0.42346668  0.47427572
   0.25176337  0.24801634  0.56033370
   0.41702010  0.16874983  0.47301951
   0.33333333  0.58333333  0.38179910
   0.08333333  0.83333333  0.38179910
   0.07581801  0.08814513  0.60551627
   0.32768827  0.58452961  0.60599345
   0.08692943  0.58032451  0.60573863
   0.82847099  0.84559821  0.60641217
   0.33216446  0.83813240  0.60633842
   0.83476849  0.57817240  0.60684255
   0.59125849  0.31899160  0.60647490
   0.58770154  0.58403566  0.60654031
   0.16563308  0.16291040  0.47150389
   0.25320424  0.00201323  0.56396723
   0.49884490  0.24481250  0.56058844
   0.00429162  0.75745520  0.56276427
   0.50043796  0.00103614  0.55807036
   0.16597968  0.67078356  0.47346071
   0.73920276  0.75679040  0.56465344
   0.23934620  0.75561734  0.56266090
   0.16576051  0.91401258  0.47218152
   0.50006139  0.49961811  0.56577449
   0.25189192  0.49398693  0.56309792
   0.58333333  0.83333333  0.38179910
   0.50402102  0.75687967  0.56354518
   0.92268074  0.91376012  0.47392776
   0.75072294  0.00260201  0.56010300
   0.00500795  0.49047152  0.56413217
   0.91865097  0.66821354  0.47094959
   0.75585663  0.24485477  0.56069034
  -0.00283235  0.25293606  0.56023512
   0.75441298  0.49139725  0.56343074
  -0.00494389 -0.00106980  0.55876069
   0.91768387  0.16390562  0.47230225
   0.41313750  0.66651660  0.47195246
   0.41353615  0.42188285  0.47308409
Direct configuration=     8
   0.08333333  0.08333333  0.38179910
   0.33333333  0.83333333  0.38179910
   0.67068074  0.16427459  0.47439077
   0.67111589  0.91298882  0.47312492
   0.83333333  0.83333333  0.38179910
   0.08333333  0.33333333  0.38179910
   0.91843242  0.41509106  0.47663919
   0.66556765  0.66832633  0.47500218
   0.83333333  0.58333333  0.38179910
   0.08333333  0.58333333  0.38179910
   0.66384732  0.41880691  0.47559888
   0.83333333  0.08333333  0.38179910
   0.83333333  0.33333333  0.38179910
   0.58333333  0.08333333  0.38179910
   0.41230820  0.91509200  0.47446276
   0.33333333  0.08333333  0.38179910
   0.58333333  0.58333333  0.38179910
   0.58333333  0.33333333  0.38179910
   0.33333333  0.33333333  0.38179910
   0.16503413  0.42301788  0.47501702
   0.25242854  0.24586864  0.56206078
   0.41659064  0.16866991  0.47327199
   0.33333333  0.58333333  0.38179910
   0.08333333  0.83333333  0.38179910
   0.07333100  0.08889009  0.60513966
   0.32605811  0.58581135  0.60671348
   0.08455334  0.58173863  0.60625366
   0.82799871  0.84680525  0.60680906
   0.33288259  0.83704254  0.60705594
   0.83556429  0.57814101  0.60709701
   0.59303103  0.31470260  0.60669983
   0.58876248  0.58530082  0.60719606
   0.16552947  0.16352299  0.47255065
   0.25072153  0.00721858  0.56421991
   0.49869564  0.24307842  0.56164195
   0.00267113  0.75687342  0.56349324
   0.50028573  0.00294619  0.55954409
   0.16610833  0.67024022  0.47437673
   0.73981990  0.75778540  0.56590846
   0.23832398  0.75838287  0.56303220
   0.16548078  0.91475805  0.47306137
   0.50067396  0.49745425  0.56517789
   0.25547447  0.48913115  0.56291574
   0.58333333  0.83333333  0.38179910
   0.50406401  0.75802765  0.56431282
   0.92233316  0.91345238  0.47421756
   0.74784500  0.00587200  0.56067580
   0.00581522  0.48960176  0.56500960
   0.91873926  0.66801829  0.47233176
   0.75804495  0.24310869  0.56160970
  -0.00148309  0.25169246  0.56135017
   0.75527962  0.48828793  0.56388965
  -0.00459876  0.00045640  0.55974767
   0.91789962  0.16431793  0.47281577
   0.41304220  0.66666164  0.47332132
   0.41434699  0.42157478  0.47421221
Direct configuration=     9
   0.08333333  0.08333333  0.38179910
   0.33333333  0.83333333  0.38179910
   0.67061444  0.16446856  0.47451700
   0.67105346  0.91296818  0.47327956
   0.83333333  0.83333333  0.38179910
   0.08333333  0.33333333  0.38179910
   0.91849052  0.41520069  0.47670843
   0.66562234  0.66833289  0.47527098
   0.83333333  0.58333333  0.38179910
   0.08333333  0.58333333  0.38179910
   0.66374810  0.41871392  0.47583796
   0.83333333  0.08333333  0.38179910
   0.83333333  0.33333333  0.38179910
   0.58333333  0.08333333  0.38179910
   0.41235917  0.91517956  0.47462611
   0.33333333  0.08333333  0.38179910
   0.58333333  0.58333333  0.38179910
   0.58333333  0.33333333  0.38179910
   0.33333333  0.33333333  0.38179910
   0.16504245  0.42290487  0.47520368
   0.25259603  0.24532785  0.56249566
   0.41648250  0.16864979  0.47333557
   0.33333333  0.58333333  0.38179910
   0.08333333  0.83333333  0.38179910
   0.07270477  0.08907768  0.60504483
   0.32564763  0.58613410  0.60689479
   0.08395504  0.58209471  0.60638334
   0.82787978  0.84710918  0.60690900
   0.33306342  0.83676811  0.60723662
   0.83576467  0.57813310  0.60716108
   0.59347736  0.31362263  0.60675647
   0.58902962  0.58561939  0.60736118
   0.16550338  0.16367724  0.47281422
   0.25009638  0.00852930  0.56428353
   0.49865806  0.24264178  0.56190723
   0.00226308  0.75672693  0.56367680
   0.50024740  0.00342715  0.55991518
   0.16614073  0.67010340  0.47460738
   0.73997530  0.75803594  0.56622448
   0.23806658  0.75907924  0.56312569
   0.16541034  0.91494576  0.47328291
   0.50082820  0.49690939  0.56502766
   0.25637656  0.48790845  0.56286987
   0.58333333  0.83333333  0.38179910
   0.50407484  0.75831672  0.56450611
   0.92224564  0.91337489  0.47429054
   0.74712033  0.00669538  0.56082003
   0.00601849  0.48938275  0.56523054
   0.91876150  0.66796913  0.47267979
   0.75859597  0.24266902  0.56184120
  -0.00114334  0.25137932  0.56163094
   0.75549784  0.48750500  0.56400520
  -0.00451185  0.00084070  0.55999620
   0.91795394  0.16442176  0.47294508
   0.41301820  0.66669817  0.47366601
   0.41455116  0.42149721  0.47449628
Direct configuration=    10
   0.08333333  0.08333333  0.38179910
   0.33333333  0.83333333  0.38179910
   0.67012375  0.16540890  0.47457308
   0.67053158  0.91313819  0.47370828
   0.83333333  0.83333333  0.38179910
   0.08333333  0.33333333  0.38179910
   0.91873623  0.41530626  0.47648893
   0.66586880  0.66834214  0.47600397
   0.83333333  0.58333333  0.38179910
   0.08333333  0.58333333  0.38179910
   0.66374222  0.41812370  0.47611992
   0.83333333  0.08333333  0.38179910
   0.83333333  0.33333333  0.38179910
   0.58333333  0.08333333  0.38179910
   0.41280027  0.91581885  0.47501580
   0.33333333  0.08333333  0.38179910
   0.58333333  0.58333333  0.38179910
   0.58333333  0.33333333  0.38179910
   0.33333333  0.33333333  0.38179910
   0.16557713  0.42172008  0.47543661
   0.25312071  0.24460210  0.56445568
   0.41600113  0.16845262  0.47341949
   0.33333333  0.58333333  0.38179910
   0.08333333  0.83333333  0.38179910
   0.07172833  0.08821955  0.60634637
   0.32532862  0.58635259  0.60691174
   0.08496903  0.58201822  0.60694327
   0.82725432  0.84873192  0.60796759
   0.33237096  0.83848344  0.60778618
   0.83580087  0.57780790  0.60764966
   0.59496802  0.30960488  0.60746705
   0.58883276  0.58585846  0.60771754
   0.16529787  0.16459425  0.47350232
   0.24971559  0.00779082  0.56532273
   0.49919785  0.24177208  0.56318867
   0.00034514  0.75601152  0.56401243
   0.50018545  0.00427676  0.56156404
   0.16620746  0.66962868  0.47533823
   0.74198420  0.75784409  0.56744541
   0.23899229  0.75948487  0.56377621
   0.16496159  0.91591523  0.47382308
   0.50056844  0.49704794  0.56560737
   0.25582518  0.48872949  0.56414701
   0.58333333  0.83333333  0.38179910
   0.50345656  0.75829591  0.56552587
   0.92160857  0.91346478  0.47446625
   0.74598678  0.00751486  0.56168959
   0.00587187  0.48944121  0.56591962
   0.91863734  0.66785198  0.47388081
   0.75936712  0.24174836  0.56289904
  -0.00121860  0.25280587  0.56210224
   0.75594402  0.48751640  0.56510319
  -0.00423853  0.00066414  0.56061429
   0.91840129  0.16474474  0.47318377
   0.41296157  0.66712151  0.47478630
   0.41532063  0.42070004  0.47507480
Direct configuration=    11
   0.08333333  0.08333333  0.38179910
   0.33333333  0.83333333  0.38179910
   0.66965226  0.16631246  0.47462696
   0.67003012  0.91330156  0.47412022
   0.83333333  0.83333333  0.38179910
   0.08333333  0.33333333  0.38179910
   0.91897232  0.41540769  0.47627802
   0.66610561  0.66835104  0.47670827
   0.83333333  0.58333333  0.38179910
   0.08333333  0.58333333  0.38179910
   0.66373658  0.41755657  0.47639084
   0.83333333  0.08333333  0.38179910
   0.83333333  0.33333333  0.38179910
   0.58333333  0.08333333  0.38179910
   0.41322411  0.91643313  0.47539024
   0.33333333  0.08333333  0.38179910
   0.58333333  0.58333333  0.38179910
   0.58333333  0.33333333  0.38179910
   0.33333333  0.33333333  0.38179910
   0.16609089  0.42058163  0.47566043
   0.25362486  0.24390475  0.56633902
   0.41553860  0.16826317  0.47350012
   0.33333333  0.58333333  0.38179910
   0.08333333  0.83333333  0.38179910
   0.07079010  0.08739499  0.60759699
   0.32502209  0.58656253  0.60692804
   0.08594335  0.58194473  0.60748129
   0.82665332  0.85029118  0.60898477
   0.33170559  0.84013166  0.60831423
   0.83583565  0.57749542  0.60811912
   0.59640036  0.30574433  0.60814984
   0.58864360  0.58608817  0.60805995
   0.16510040  0.16547539  0.47416350
   0.24934969  0.00708123  0.56632127
   0.49971653  0.24093641  0.56441998
  -0.00149777  0.75532409  0.56433492
   0.50012592  0.00509312  0.56314840
   0.16627157  0.66917253  0.47604049
   0.74391451  0.75765974  0.56861858
   0.23988179  0.75987463  0.56440128
   0.16453039  0.91684677  0.47434212
   0.50031884  0.49718106  0.56616439
   0.25529537  0.48951841  0.56537419
   0.58333333  0.83333333  0.38179910
   0.50286248  0.75827593  0.56650573
   0.92099641  0.91355114  0.47463508
   0.74489759  0.00830227  0.56252513
   0.00573099  0.48949738  0.56658174
   0.91851805  0.66773942  0.47503483
   0.76010811  0.24086372  0.56391550
  -0.00129091  0.25417661  0.56255509
   0.75637275  0.48752736  0.56615823
  -0.00397589  0.00049448  0.56120820
   0.91883113  0.16505509  0.47341313
   0.41290715  0.66752829  0.47586277
   0.41606000  0.41993405  0.47563070
Direct configuration=    12
   0.08333333  0.08333333  0.38179910
   0.33333333  0.83333333  0.38179910
   0.66947114  0.16627146  0.47489479
   0.66955244  0.91385921  0.47468286
   0.83333333  0.83333333  0.38179910
   0.08333333  0.33333333  0.38179910
   0.91854290  0.41572964  0.47620687
   0.66611826  0.66814390  0.47742411
   0.83333333  0.58333333  0.38179910
   0.08333333  0.58333333  0.38179910
   0.66429397  0.41764945  0.47673641
   0.83333333  0.08333333  0.38179910
   0.83333333  0.33333333  0.38179910
   0.58333333  0.08333333  0.38179910
   0.41340072  0.91691583  0.47596721
   0.33333333  0.08333333  0.38179910
   0.58333333  0.58333333  0.38179910
   0.58333333  0.33333333  0.38179910
   0.33333333  0.33333333  0.38179910
   0.16688858  0.41976971  0.47615986
   0.25386768  0.24438065  0.56812042
   0.41543853  0.16809809  0.47413014
   0.33333333  0.58333333  0.38179910
   0.08333333  0.83333333  0.38179910
   0.06957711  0.08792950  0.60892474
   0.32583439  0.58720389  0.60760304
   0.08619651  0.58194041  0.60865093
   0.82643929  0.85212455  0.61072413
   0.33114990  0.84135429  0.60978035
   0.83606299  0.57737256  0.60949448
   0.59766864  0.30318197  0.60956951
   0.58782043  0.58554297  0.60888473
   0.16528738  0.16594219  0.47484444
   0.24862900  0.00701671  0.56712021
   0.49858686  0.24109518  0.56521465
  -0.00197146  0.75587849  0.56436953
   0.50012841  0.00431542  0.56457213
   0.16638155  0.66895130  0.47666938
   0.74372745  0.75783551  0.56947857
   0.23933948  0.75983352  0.56482887
   0.16435910  0.91738026  0.47465535
   0.50140378  0.49600129  0.56705974
   0.25449723  0.48970557  0.56609658
   0.58333333  0.83333333  0.38179910
   0.50339413  0.75892751  0.56710216
   0.92039989  0.91400934  0.47496807
   0.74534296  0.00762075  0.56321303
   0.00693296  0.48904828  0.56700144
   0.91848895  0.66754004  0.47579265
   0.76087986  0.24086790  0.56469829
  -0.00064757  0.25323064  0.56336697
   0.75574911  0.48803486  0.56679608
  -0.00425926 -0.00050171  0.56161145
   0.91908184  0.16509776  0.47368907
   0.41283369  0.66800646  0.47655282
   0.41592613  0.41938548  0.47611008
Direct configuration=    13
   0.08333333  0.08333333  0.38179910
   0.33333333  0.83333333  0.38179910
   0.66927634  0.16622737  0.47518285
   0.66903865  0.91445902  0.47528803
   0.83333333  0.83333333  0.38179910
   0.08333333  0.33333333  0.38179910
   0.91808102  0.41607593  0.47613034
   0.66613187  0.66792111  0.47819406
   0.83333333  0.58333333  0.38179910
   0.08333333  0.58333333  0.38179910
   0.66489349  0.41774935  0.47710809
   0.83333333  0.08333333  0.38179910
   0.83333333  0.33333333  0.38179910
   0.58333333  0.08333333  0.38179910
   0.41359067  0.91743502  0.47658779
   0.33333333  0.08333333  0.38179910
   0.58333333  0.58333333  0.38179910
   0.58333333  0.33333333  0.38179910
   0.33333333  0.33333333  0.38179910
   0.16774656  0.41889641  0.47669704
   0.25412886  0.24489253  0.57003647
   0.41533090  0.16792052  0.47480779
   0.33333333  0.58333333  0.38179910
   0.08333333  0.83333333  0.38179910
   0.06827244  0.08850441  0.61035285
   0.32670808  0.58789372  0.60832905
   0.08646881  0.58193576  0.60990898
   0.82620908  0.85409651  0.61259495
   0.33055222  0.84266933  0.61135729
   0.83630752  0.57724041  0.61097380
   0.59903278  0.30042594  0.61109648
   0.58693505  0.58495655  0.60977185
   0.16548849  0.16644427  0.47557685
   0.24785382  0.00694732  0.56797954
   0.49737180  0.24126594  0.56606939
  -0.00248096  0.75647480  0.56440676
   0.50013109  0.00347892  0.56610349
   0.16649984  0.66871335  0.47734581
   0.74352626  0.75802457  0.57040357
   0.23875619  0.75978931  0.56528879
   0.16417487  0.91795408  0.47499226
   0.50257073  0.49473233  0.56802276
   0.25363876  0.48990688  0.56687357
   0.58333333  0.83333333  0.38179910
   0.50396597  0.75962835  0.56774367
   0.91975828  0.91450217  0.47532622
   0.74582200  0.00688771  0.56395292
   0.00822579  0.48856524  0.56745287
   0.91845765  0.66732559  0.47660774
   0.76170995  0.24087239  0.56554025
   0.00004440  0.25221317  0.56424022
   0.75507832  0.48858072  0.56748215
  -0.00456404 -0.00157319  0.56204518
   0.91935150  0.16514364  0.47398588
   0.41275469  0.66852078  0.47729504
   0.41578214  0.41879545  0.47662571
Direct configuration=    14
   0.08333333  0.08333333  0.38179910
   0.33333333  0.83333333  0.38179910
   0.66947081  0.16574355  0.47595913
   0.66896637  0.91463961  0.47599967
   0.83333333  0.83333333  0.38179910
   0.08333333  0.33333333  0.38179910
   0.91804447  0.41602759  0.47677310
   0.66576952  0.66828858  0.47871676
   0.83333333  0.58333333  0.38179910
   0.08333333  0.58333333  0.38179910
   0.66498998  0.41812994  0.47759618
   0.83333333  0.08333333  0.38179910
   0.83333333  0.33333333  0.38179910
   0.58333333  0.08333333  0.38179910
   0.41322513  0.91752509  0.47732666
   0.33333333  0.08333333  0.38179910
   0.58333333  0.58333333  0.38179910
   0.58333333  0.33333333  0.38179910
   0.33333333  0.33333333  0.38179910
   0.16778164  0.41906953  0.47739152
   0.25415436  0.24481306  0.57154091
   0.41573226  0.16769003  0.47609958
   0.33333333  0.58333333  0.38179910
   0.08333333  0.83333333  0.38179910
   0.06710073  0.08900007  0.61088485
   0.32743823  0.58812242  0.60902116
   0.08502759  0.58298242  0.61082195
   0.82659893  0.85471600  0.61373483
   0.33123206  0.84203115  0.61245384
   0.83755487  0.57647129  0.61180588
   0.60018008  0.29871166  0.61229636
   0.58629196  0.58492067  0.61063977
   0.16590368  0.16632817  0.47628096
   0.24622642  0.00796361  0.56895153
   0.49719659  0.24200709  0.56670667
  -0.00224432  0.75642830  0.56536693
   0.49973239  0.00250748  0.56712375
   0.16649126  0.66895184  0.47765247
   0.74397138  0.75810258  0.57192297
   0.23897254  0.75972590  0.56620260
   0.16451393  0.91775227  0.47511156
   0.50387377  0.49212402  0.56916250
   0.25431314  0.49049513  0.56765564
   0.58333333  0.83333333  0.38179910
   0.50288039  0.76002707  0.56906550