  48  48   0   0
  0.5349325E+02  0.1100258E-08  0.1100258E-08  0.2449179E-08  0.3500000E-15
  1.000000000000000E-004
  CAR 
 unknown system                          
      6.32968764     -9.83764182  301     -1.08334273      1.00000000
     -9.838  0.0000E+00  0.0000E+00
     -9.784  0.0000E+00  0.0000E+00
     -9.730  0.0000E+00  0.0000E+00
     -9.676  0.0000E+00  0.0000E+00
     -9.622  0.0000E+00  0.0000E+00
     -9.568  0.0000E+00  0.0000E+00
     -9.514  0.0000E+00  0.0000E+00
     -9.460  0.0000E+00  0.0000E+00
     -9.407  0.6180E-17  0.3331E-18
     -9.353  0.2342E-14  0.1266E-15
     -9.299  0.5202E-12  0.2816E-13
     -9.245  0.6587E-10  0.3578E-11
     -9.191  0.4771E-08  0.2607E-09
     -9.137  0.1983E-06  0.1095E-07
     -9.083  0.4749E-05  0.2669E-06
     -9.029  0.6570E-04  0.3807E-05
     -8.975  0.5269E-03  0.3220E-04
     -8.921  0.2457E-02  0.1646E-03
     -8.868  0.6692E-02  0.5252E-03
     -8.814  0.1080E-01  0.1107E-02
     -8.760  0.1112E-01  0.1707E-02
     -8.706  0.9635E-02  0.2226E-02
     -8.652  0.1000E-01  0.2765E-02
     -8.598  0.1017E-01  0.3313E-02
     -8.544  0.7537E-02  0.3719E-02
     -8.490  0.3767E-02  0.3922E-02
     -8.436  0.1409E-02  0.3998E-02
     -8.383  0.1174E-02  0.4061E-02
     -8.329  0.2533E-02  0.4197E-02
     -8.275  0.4228E-02  0.4425E-02
     -8.221  0.5504E-02  0.4722E-02
     -8.167  0.7417E-02  0.5122E-02
     -8.113  0.1039E-01  0.5681E-02
     -8.059  0.1323E-01  0.6394E-02
     -8.005  0.1461E-01  0.7182E-02
     -7.951  0.1379E-01  0.7925E-02
     -7.898  0.1224E-01  0.8584E-02
     -7.844  0.1203E-01  0.9232E-02
     -7.790  0.1352E-01  0.9961E-02
     -7.736  0.1461E-01  0.1075E-01
     -7.682  0.1294E-01  0.1145E-01
     -7.628  0.1125E-01  0.1205E-01
     -7.574  0.1433E-01  0.1282E-01
     -7.520  0.2026E-01  0.1392E-01
     -7.466  0.2188E-01  0.1509E-01
     -7.413  0.1883E-01  0.1611E-01
     -7.359  0.1758E-01  0.1706E-01
     -7.305  0.2099E-01  0.1819E-01
     -7.251  0.2602E-01  0.1959E-01
     -7.197  0.3079E-01  0.2125E-01
     -7.143  0.3870E-01  0.2334E-01
     -7.089  0.5122E-01  0.2610E-01
     -7.035  0.6472E-01  0.2958E-01
     -6.981  0.7677E-01  0.3372E-01
     -6.928  0.8462E-01  0.3828E-01
     -6.874  0.8557E-01  0.4289E-01
     -6.820  0.8249E-01  0.4734E-01
     -6.766  0.7834E-01  0.5156E-01
     -6.712  0.7343E-01  0.5552E-01
     -6.658  0.6798E-01  0.5918E-01
     -6.604  0.6200E-01  0.6252E-01
     -6.550  0.6004E-01  0.6576E-01
     -6.496  0.7123E-01  0.6960E-01
     -6.443  0.9490E-01  0.7471E-01
     -6.389  0.1178E+00  0.8106E-01
     -6.335  0.1308E+00  0.8811E-01
     -6.281  0.1367E+00  0.9548E-01
     -6.227  0.1396E+00  0.1030E+00
     -6.173  0.1411E+00  0.1106E+00
     -6.119  0.1438E+00  0.1184E+00
     -6.065  0.1478E+00  0.1263E+00
     -6.011  0.1514E+00  0.1345E+00
     -5.957  0.1557E+00  0.1429E+00
     -5.904  0.1598E+00  0.1515E+00
     -5.850  0.1585E+00  0.1600E+00
     -5.796  0.1528E+00  0.1683E+00
     -5.742  0.1490E+00  0.1763E+00
     -5.688  0.1478E+00  0.1843E+00
     -5.634  0.1455E+00  0.1921E+00
     -5.580  0.1417E+00  0.1997E+00
     -5.526  0.1394E+00  0.2072E+00
     -5.472  0.1414E+00  0.2149E+00
     -5.419  0.1483E+00  0.2229E+00
     -5.365  0.1568E+00  0.2313E+00
     -5.311  0.1609E+00  0.2400E+00
     -5.257  0.1592E+00  0.2486E+00
     -5.203  0.1565E+00  0.2570E+00
     -5.149  0.1575E+00  0.2655E+00
     -5.095  0.1617E+00  0.2742E+00
     -5.041  0.1650E+00  0.2831E+00
     -4.987  0.1676E+00  0.2921E+00
     -4.934  0.1712E+00  0.3014E+00
     -4.880  0.1736E+00  0.3107E+00
     -4.826  0.1735E+00  0.3201E+00
     -4.772  0.1740E+00  0.3294E+00
     -4.718  0.1782E+00  0.3390E+00
     -4.664  0.1830E+00  0.3489E+00
     -4.610  0.1828E+00  0.3587E+00
     -4.556  0.1776E+00  0.3683E+00
     -4.502  0.1715E+00  0.3776E+00
     -4.449  0.1678E+00  0.3866E+00
     -4.395  0.1700E+00  0.3958E+00
     -4.341  0.1779E+00  0.4054E+00
     -4.287  0.1834E+00  0.4152E+00
     -4.233  0.1799E+00  0.4249E+00
     -4.179  0.1705E+00  0.4341E+00
     -4.125  0.1648E+00  0.4430E+00
     -4.071  0.1691E+00  0.4521E+00
     -4.017  0.1781E+00  0.4617E+00
     -3.964  0.1849E+00  0.4717E+00
     -3.910  0.1909E+00  0.4820E+00
     -3.856  0.1971E+00  0.4926E+00
     -3.802  0.2015E+00  0.5034E+00
     -3.748  0.2054E+00  0.5145E+00
     -3.694  0.2099E+00  0.5258E+00
     -3.640  0.2132E+00  0.5373E+00
     -3.586  0.2148E+00  0.5489E+00
     -3.532  0.2142E+00  0.5604E+00
     -3.478  0.2097E+00  0.5717E+00
     -3.425  0.2036E+00  0.5827E+00
     -3.371  0.2010E+00  0.5935E+00
     -3.317  0.2003E+00  0.6043E+00
     -3.263  0.1957E+00  0.6149E+00
     -3.209  0.1877E+00  0.6250E+00
     -3.155  0.1814E+00  0.6348E+00
     -3.101  0.1791E+00  0.6444E+00
     -3.047  0.1786E+00  0.6540E+00
     -2.993  0.1780E+00  0.6636E+00
     -2.940  0.1792E+00  0.6733E+00
     -2.886  0.1824E+00  0.6831E+00
     -2.832  0.1850E+00  0.6931E+00
     -2.778  0.1852E+00  0.7031E+00
     -2.724  0.1850E+00  0.7130E+00
     -2.670  0.1874E+00  0.7231E+00
     -2.616  0.1910E+00  0.7334E+00
     -2.562  0.1910E+00  0.7437E+00
     -2.508  0.1869E+00  0.7538E+00
     -2.455  0.1821E+00  0.7636E+00
     -2.401  0.1800E+00  0.7733E+00
     -2.347  0.1799E+00  0.7830E+00
     -2.293  0.1782E+00  0.7926E+00
     -2.239  0.1761E+00  0.8021E+00
     -2.185  0.1776E+00  0.8117E+00
     -2.131  0.1796E+00  0.8213E+00
     -2.077  0.1761E+00  0.8308E+00
     -2.023  0.1708E+00  0.8400E+00
     -1.970  0.1721E+00  0.8493E+00
     -1.916  0.1812E+00  0.8591E+00
     -1.862  0.1940E+00  0.8695E+00
     -1.808  0.2039E+00  0.8805E+00
     -1.754  0.2049E+00  0.8916E+00
     -1.700  0.1999E+00  0.9023E+00
     -1.646  0.1964E+00  0.9129E+00
     -1.592  0.1941E+00  0.9234E+00
     -1.538  0.1897E+00  0.9336E+00
     -1.485  0.1857E+00  0.9436E+00
     -1.431  0.1874E+00  0.9537E+00
     -1.377  0.1919E+00  0.9640E+00
     -1.323  0.1895E+00  0.9743E+00
     -1.269  0.1768E+00  0.9838E+00
     -1.215  0.1570E+00  0.9923E+00
     -1.161  0.1346E+00  0.9995E+00
     -1.107  0.1137E+00  0.1006E+01
     -1.053  0.9291E-01  0.1011E+01
     -1.000  0.7008E-01  0.1014E+01
     -0.946  0.4903E-01  0.1017E+01
     -0.892  0.3356E-01  0.1019E+01
     -0.838  0.2478E-01  0.1020E+01
     -0.784  0.2259E-01  0.1021E+01
     -0.730  0.2475E-01  0.1023E+01
     -0.676  0.2789E-01  0.1024E+01
     -0.622  0.3082E-01  0.1026E+01
     -0.568  0.3552E-01  0.1028E+01
     -0.514  0.4118E-01  0.1030E+01
     -0.461  0.4191E-01  0.1032E+01
     -0.407  0.3662E-01  0.1034E+01
     -0.353  0.3271E-01  0.1036E+01
     -0.299  0.3502E-01  0.1038E+01
     -0.245  0.3951E-01  0.1040E+01
     -0.191  0.3924E-01  0.1042E+01
     -0.137  0.3223E-01  0.1044E+01
     -0.083  0.2323E-01  0.1045E+01
     -0.029  0.1926E-01  0.1046E+01
      0.024  0.2150E-01  0.1047E+01
      0.078  0.2536E-01  0.1049E+01
      0.132  0.2918E-01  0.1050E+01
      0.186  0.3388E-01  0.1052E+01
      0.240  0.3679E-01  0.1054E+01
      0.294  0.3515E-01  0.1056E+01
      0.348  0.3209E-01  0.1058E+01
      0.402  0.3337E-01  0.1060E+01
      0.456  0.3943E-01  0.1062E+01
      0.509  0.4487E-01  0.1064E+01
      0.563  0.4752E-01  0.1067E+01
      0.617  0.4808E-01  0.1069E+01
      0.671  0.4523E-01  0.1072E+01
      0.725  0.4035E-01  0.1074E+01
      0.779  0.3598E-01  0.1076E+01
      0.833  0.3048E-01  0.1077E+01
      0.887  0.2498E-01  0.1079E+01
      0.941  0.2322E-01  0.1080E+01
      0.994  0.2416E-01  0.1081E+01
      1.048  0.2407E-01  0.1083E+01
      1.102  0.2066E-01  0.1084E+01
      1.156  0.1593E-01  0.1085E+01
      1.210  0.1396E-01  0.1085E+01
      1.264  0.1456E-01  0.1086E+01
      1.318  0.1466E-01  0.1087E+01
      1.372  0.1438E-01  0.1088E+01
      1.426  0.1724E-01  0.1089E+01
      1.479  0.2515E-01  0.1090E+01
      1.533  0.3333E-01  0.1092E+01
      1.587  0.3411E-01  0.1094E+01
      1.641  0.2836E-01  0.1095E+01
      1.695  0.2554E-01  0.1097E+01
      1.749  0.3076E-01  0.1098E+01
      1.803  0.3749E-01  0.1100E+01
      1.857  0.3611E-01  0.1102E+01
      1.911  0.2785E-01  0.1104E+01
      1.965  0.2092E-01  0.1105E+01
      2.018  0.1831E-01  0.1106E+01
      2.072  0.2026E-01  0.1107E+01
      2.126  0.2793E-01  0.1108E+01
      2.180  0.3829E-01  0.1110E+01
      2.234  0.4502E-01  0.1113E+01
      2.288  0.4522E-01  0.1115E+01
      2.342  0.4232E-01  0.1118E+01
      2.396  0.3998E-01  0.1120E+01
      2.450  0.3754E-01  0.1122E+01
      2.503  0.3616E-01  0.1124E+01
      2.557  0.3910E-01  0.1126E+01
      2.611  0.4516E-01  0.1128E+01
      2.665  0.5006E-01  0.1131E+01
      2.719  0.4909E-01  0.1134E+01
      2.773  0.3985E-01  0.1136E+01
      2.827  0.2642E-01  0.1137E+01
      2.881  0.1616E-01  0.1138E+01
      2.935  0.1276E-01  0.1139E+01
      2.988  0.1206E-01  0.1139E+01
      3.042  0.9583E-02  0.1140E+01
      3.096  0.8898E-02  0.1140E+01
      3.150  0.1373E-01  0.1141E+01
      3.204  0.2045E-01  0.1142E+01
      3.258  0.2418E-01  0.1143E+01
      3.312  0.2464E-01  0.1145E+01
      3.366  0.2345E-01  0.1146E+01
      3.420  0.2174E-01  0.1147E+01
      3.473  0.2181E-01  0.1148E+01
      3.527  0.2671E-01  0.1150E+01
      3.581  0.3560E-01  0.1152E+01
      3.635  0.4263E-01  0.1154E+01
      3.689  0.4308E-01  0.1156E+01
      3.743  0.3755E-01  0.1158E+01
      3.797  0.2952E-01  0.1160E+01
      3.851  0.2284E-01  0.1161E+01
      3.905  0.1958E-01  0.1162E+01
      3.958  0.2143E-01  0.1163E+01
      4.012  0.2709E-01  0.1165E+01
      4.066  0.2933E-01  0.1166E+01
      4.120  0.2597E-01  0.1168E+01
      4.174  0.2318E-01  0.1169E+01
      4.228  0.2210E-01  0.1170E+01
      4.282  0.1873E-01  0.1171E+01
      4.336  0.1587E-01  0.1172E+01
      4.390  0.2037E-01  0.1173E+01
      4.443  0.2973E-01  0.1175E+01
      4.497  0.3673E-01  0.1177E+01
      4.551  0.4362E-01  0.1179E+01
      4.605  0.5372E-01  0.1182E+01
      4.659  0.6113E-01  0.1185E+01
      4.713  0.6032E-01  0.1189E+01
      4.767  0.5445E-01  0.1192E+01
      4.821  0.4836E-01  0.1194E+01
      4.875  0.4359E-01  0.1197E+01
      4.929  0.4289E-01  0.1199E+01
      4.982  0.4925E-01  0.1202E+01
      5.036  0.6200E-01  0.1205E+01
      5.090  0.7307E-01  0.1209E+01
      5.144  0.7326E-01  0.1213E+01
      5.198  0.6529E-01  0.1216E+01
      5.252  0.5518E-01  0.1219E+01
      5.306  0.4263E-01  0.1222E+01
      5.360  0.2734E-01  0.1223E+01
      5.414  0.1306E-01  0.1224E+01
      5.467  0.4214E-02  0.1224E+01
      5.521  0.8554E-03  0.1224E+01
      5.575  0.1048E-03  0.1224E+01
      5.629  0.7578E-05  0.1224E+01
      5.683  0.3185E-06  0.1224E+01
      5.737  0.7714E-08  0.1224E+01
      5.791  0.1070E-09  0.1224E+01
      5.845  0.8463E-12  0.1224E+01
      5.899  0.3804E-14  0.1224E+01
      5.952  0.9614E-17  0.1224E+01
      6.006  0.0000E+00  0.1224E+01
      6.060  0.0000E+00  0.1224E+01
      6.114  0.0000E+00  0.1224E+01
      6.168  0.0000E+00  0.1224E+01
      6.222  0.0000E+00  0.1224E+01
      6.276  0.0000E+00  0.1224E+01
      6.330  0.0000E+00  0.1224E+01
