  56  56   0   0
  0.4903395E+02  0.1100258E-08  0.1100258E-08  0.2619179E-08  0.3500000E-15
  1.000000000000000E-004
  CAR 
 unknown system                          
      6.42446954    -21.63999114  301     -1.36101455      1.00000000
    -21.640  0.0000E+00  0.0000E+00
    -21.546  0.0000E+00  0.0000E+00
    -21.453  0.0000E+00  0.0000E+00
    -21.359  0.0000E+00  0.0000E+00
    -21.266  0.0000E+00  0.0000E+00
    -21.172  0.0000E+00  0.0000E+00
    -21.079  0.0000E+00  0.0000E+00
    -20.985  0.0000E+00  0.0000E+00
    -20.892  0.1756E-14  0.1643E-15
    -20.798  0.1721E-10  0.1610E-11
    -20.705  0.3053E-07  0.2858E-08
    -20.611  0.9991E-05  0.9375E-06
    -20.517  0.6234E-03  0.5925E-04
    -20.424  0.7793E-02  0.7883E-03
    -20.330  0.2070E-01  0.2725E-02
    -20.237  0.1210E-01  0.3856E-02
    -20.143  0.2565E-02  0.4096E-02
    -20.050  0.1020E-01  0.5050E-02
    -19.956  0.2222E-01  0.7129E-02
    -19.863  0.2097E-01  0.9091E-02
    -19.769  0.2969E-01  0.1187E-01
    -19.675  0.2977E-01  0.1465E-01
    -19.582  0.1511E-01  0.1607E-01
    -19.488  0.1575E-01  0.1754E-01
    -19.395  0.2022E-01  0.1943E-01
    -19.301  0.1197E-01  0.2055E-01
    -19.208  0.2295E-01  0.2270E-01
    -19.114  0.3571E-01  0.2604E-01
    -19.021  0.4140E-01  0.2991E-01
    -18.927  0.1972E-01  0.3176E-01
    -18.834  0.2541E-02  0.3199E-01
    -18.740  0.7498E-04  0.3200E-01
    -18.646  0.4521E-06  0.3200E-01
    -18.553  0.5197E-09  0.3200E-01
    -18.459  0.1097E-12  0.3200E-01
    -18.366  0.4747E-17  0.3200E-01
    -18.272  0.0000E+00  0.3200E-01
    -18.179  0.0000E+00  0.3200E-01
    -18.085  0.0000E+00  0.3200E-01
    -17.992  0.0000E+00  0.3200E-01
    -17.898  0.0000E+00  0.3200E-01
    -17.805  0.0000E+00  0.3200E-01
    -17.711  0.0000E+00  0.3200E-01
    -17.617  0.0000E+00  0.3200E-01
    -17.524  0.0000E+00  0.3200E-01
    -17.430  0.0000E+00  0.3200E-01
    -17.337  0.0000E+00  0.3200E-01
    -17.243  0.0000E+00  0.3200E-01
    -17.150  0.0000E+00  0.3200E-01
    -17.056  0.0000E+00  0.3200E-01
    -16.963  0.0000E+00  0.3200E-01
    -16.869  0.0000E+00  0.3200E-01
    -16.775  0.0000E+00  0.3200E-01
    -16.682  0.0000E+00  0.3200E-01
    -16.588  0.0000E+00  0.3200E-01
    -16.495  0.0000E+00  0.3200E-01
    -16.401  0.0000E+00  0.3200E-01
    -16.308  0.0000E+00  0.3200E-01
    -16.214  0.0000E+00  0.3200E-01
    -16.121  0.0000E+00  0.3200E-01
    -16.027  0.0000E+00  0.3200E-01
    -15.934  0.0000E+00  0.3200E-01
    -15.840  0.0000E+00  0.3200E-01
    -15.746  0.0000E+00  0.3200E-01
    -15.653  0.0000E+00  0.3200E-01
    -15.559  0.0000E+00  0.3200E-01
    -15.466  0.0000E+00  0.3200E-01
    -15.372  0.0000E+00  0.3200E-01
    -15.279  0.0000E+00  0.3200E-01
    -15.185  0.0000E+00  0.3200E-01
    -15.092  0.0000E+00  0.3200E-01
    -14.998  0.0000E+00  0.3200E-01
    -14.905  0.0000E+00  0.3200E-01
    -14.811  0.0000E+00  0.3200E-01
    -14.717  0.0000E+00  0.3200E-01
    -14.624  0.0000E+00  0.3200E-01
    -14.530  0.0000E+00  0.3200E-01
    -14.437  0.0000E+00  0.3200E-01
    -14.343  0.0000E+00  0.3200E-01
    -14.250  0.0000E+00  0.3200E-01
    -14.156  0.0000E+00  0.3200E-01
    -14.063  0.0000E+00  0.3200E-01
    -13.969  0.0000E+00  0.3200E-01
    -13.875  0.0000E+00  0.3200E-01
    -13.782  0.0000E+00  0.3200E-01
    -13.688  0.0000E+00  0.3200E-01
    -13.595  0.0000E+00  0.3200E-01
    -13.501  0.0000E+00  0.3200E-01
    -13.408  0.0000E+00  0.3200E-01
    -13.314  0.0000E+00  0.3200E-01
    -13.221  0.0000E+00  0.3200E-01
    -13.127  0.0000E+00  0.3200E-01
    -13.034  0.0000E+00  0.3200E-01
    -12.940  0.0000E+00  0.3200E-01
    -12.846  0.0000E+00  0.3200E-01
    -12.753  0.0000E+00  0.3200E-01
    -12.659  0.0000E+00  0.3200E-01
    -12.566  0.0000E+00  0.3200E-01
    -12.472  0.0000E+00  0.3200E-01
    -12.379  0.0000E+00  0.3200E-01
    -12.285  0.0000E+00  0.3200E-01
    -12.192  0.0000E+00  0.3200E-01
    -12.098  0.0000E+00  0.3200E-01
    -12.005  0.0000E+00  0.3200E-01
    -11.911  0.0000E+00  0.3200E-01
    -11.817  0.0000E+00  0.3200E-01
    -11.724  0.0000E+00  0.3200E-01
    -11.630  0.0000E+00  0.3200E-01
    -11.537  0.0000E+00  0.3200E-01
    -11.443  0.0000E+00  0.3200E-01
    -11.350  0.0000E+00  0.3200E-01
    -11.256  0.0000E+00  0.3200E-01
    -11.163  0.0000E+00  0.3200E-01
    -11.069  0.0000E+00  0.3200E-01
    -10.975  0.0000E+00  0.3200E-01
    -10.882  0.0000E+00  0.3200E-01
    -10.788  0.0000E+00  0.3200E-01
    -10.695  0.0000E+00  0.3200E-01
    -10.601  0.0000E+00  0.3200E-01
    -10.508  0.0000E+00  0.3200E-01
    -10.414  0.0000E+00  0.3200E-01
    -10.321  0.0000E+00  0.3200E-01
    -10.227  0.0000E+00  0.3200E-01
    -10.134  0.0000E+00  0.3200E-01
    -10.040  0.0000E+00  0.3200E-01
     -9.946  0.0000E+00  0.3200E-01
     -9.853  0.0000E+00  0.3200E-01
     -9.759  0.0000E+00  0.3200E-01
     -9.666  0.2681E-14  0.3200E-01
     -9.572  0.2166E-10  0.3200E-01
     -9.479  0.3173E-07  0.3200E-01
     -9.385  0.8604E-05  0.3200E-01
     -9.292  0.4471E-03  0.3204E-01
     -9.198  0.4694E-02  0.3248E-01
     -9.105  0.1086E-01  0.3350E-01
     -9.011  0.9325E-02  0.3437E-01
     -8.917  0.1094E-01  0.3539E-01
     -8.824  0.5818E-02  0.3594E-01
     -8.730  0.1762E-02  0.3610E-01
     -8.637  0.6372E-02  0.3670E-01
     -8.543  0.1049E-01  0.3768E-01
     -8.450  0.1155E-01  0.3876E-01
     -8.356  0.2287E-01  0.4090E-01
     -8.263  0.2805E-01  0.4352E-01
     -8.169  0.2083E-01  0.4547E-01
     -8.076  0.2057E-01  0.4740E-01
     -7.982  0.2966E-01  0.5017E-01
     -7.888  0.3491E-01  0.5344E-01
     -7.795  0.4238E-01  0.5740E-01
     -7.701  0.5679E-01  0.6271E-01
     -7.608  0.5876E-01  0.6821E-01
     -7.514  0.5930E-01  0.7376E-01
     -7.421  0.6987E-01  0.8029E-01
     -7.327  0.8697E-01  0.8843E-01
     -7.234  0.9750E-01  0.9755E-01
     -7.140  0.1059E+00  0.1075E+00
     -7.046  0.1137E+00  0.1181E+00
     -6.953  0.1198E+00  0.1293E+00
     -6.859  0.1283E+00  0.1413E+00
     -6.766  0.1431E+00  0.1547E+00
     -6.672  0.1489E+00  0.1686E+00
     -6.579  0.1508E+00  0.1827E+00
     -6.485  0.1533E+00  0.1971E+00
     -6.392  0.1584E+00  0.2119E+00
     -6.298  0.1655E+00  0.2274E+00
     -6.205  0.1662E+00  0.2429E+00
     -6.111  0.1652E+00  0.2584E+00
     -6.017  0.1620E+00  0.2735E+00
     -5.924  0.1593E+00  0.2884E+00
     -5.830  0.1576E+00  0.3032E+00
     -5.737  0.1607E+00  0.3182E+00
     -5.643  0.1637E+00  0.3335E+00
     -5.550  0.1722E+00  0.3496E+00
     -5.456  0.1736E+00  0.3659E+00
     -5.363  0.1725E+00  0.3820E+00
     -5.269  0.1770E+00  0.3986E+00
     -5.176  0.1801E+00  0.4154E+00
     -5.082  0.1718E+00  0.4315E+00
     -4.988  0.1664E+00  0.4470E+00
     -4.895  0.1700E+00  0.4629E+00
     -4.801  0.1681E+00  0.4787E+00
     -4.708  0.1731E+00  0.4949E+00
     -4.614  0.1842E+00  0.5121E+00
     -4.521  0.1894E+00  0.5298E+00
     -4.427  0.1963E+00  0.5482E+00
     -4.334  0.2021E+00  0.5671E+00
     -4.240  0.1922E+00  0.5851E+00
     -4.146  0.1793E+00  0.6018E+00
     -4.053  0.1757E+00  0.6183E+00
     -3.959  0.1842E+00  0.6355E+00
     -3.866  0.1906E+00  0.6533E+00
     -3.772  0.1947E+00  0.6715E+00
     -3.679  0.1977E+00  0.6900E+00
     -3.585  0.1948E+00  0.7083E+00
     -3.492  0.1884E+00  0.7259E+00
     -3.398  0.1862E+00  0.7433E+00
     -3.305  0.1839E+00  0.7605E+00
     -3.211  0.1920E+00  0.7785E+00
     -3.117  0.1923E+00  0.7965E+00
     -3.024  0.1878E+00  0.8140E+00
     -2.930  0.1906E+00  0.8319E+00
     -2.837  0.1816E+00  0.8489E+00
     -2.743  0.1784E+00  0.8655E+00
     -2.650  0.1742E+00  0.8818E+00
     -2.556  0.1746E+00  0.8982E+00
     -2.463  0.1918E+00  0.9161E+00
     -2.369  0.2055E+00  0.9353E+00
     -2.276  0.2046E+00  0.9545E+00
     -2.182  0.2033E+00  0.9735E+00
     -2.088  0.2033E+00  0.9925E+00
     -1.995  0.1999E+00  0.1011E+01
     -1.901  0.1874E+00  0.1029E+01
     -1.808  0.1730E+00  0.1045E+01
     -1.714  0.1637E+00  0.1060E+01
     -1.621  0.1517E+00  0.1074E+01
     -1.527  0.1321E+00  0.1087E+01
     -1.434  0.1090E+00  0.1097E+01
     -1.340  0.9478E-01  0.1106E+01
     -1.246  0.7427E-01  0.1113E+01
     -1.153  0.5680E-01  0.1118E+01
     -1.059  0.4471E-01  0.1122E+01
     -0.966  0.3675E-01  0.1126E+01
     -0.872  0.4425E-01  0.1130E+01
     -0.779  0.5645E-01  0.1135E+01
     -0.685  0.5915E-01  0.1141E+01
     -0.592  0.5750E-01  0.1146E+01
     -0.498  0.5155E-01  0.1151E+01
     -0.405  0.4131E-01  0.1155E+01
     -0.311  0.4030E-01  0.1159E+01
     -0.217  0.3806E-01  0.1162E+01
     -0.124  0.2208E-01  0.1164E+01
     -0.030  0.1185E-01  0.1165E+01
      0.063  0.1278E-01  0.1166E+01
      0.157  0.2026E-01  0.1168E+01
      0.250  0.3121E-01  0.1171E+01
      0.344  0.3725E-01  0.1175E+01
      0.437  0.4239E-01  0.1179E+01
      0.531  0.4213E-01  0.1183E+01
      0.624  0.3878E-01  0.1186E+01
      0.718  0.3581E-01  0.1190E+01
      0.812  0.2736E-01  0.1192E+01
      0.905  0.2518E-01  0.1195E+01
      0.999  0.2131E-01  0.1197E+01
      1.092  0.1732E-01  0.1198E+01
      1.186  0.2388E-01  0.1200E+01
      1.279  0.3099E-01  0.1203E+01
      1.373  0.3374E-01  0.1206E+01
      1.466  0.3132E-01  0.1209E+01
      1.560  0.2314E-01  0.1212E+01
      1.654  0.2156E-01  0.1214E+01
      1.747  0.2954E-01  0.1216E+01
      1.841  0.3740E-01  0.1220E+01
      1.934  0.4222E-01  0.1224E+01
      2.028  0.4307E-01  0.1228E+01
      2.121  0.3670E-01  0.1231E+01
      2.215  0.3311E-01  0.1234E+01
      2.308  0.2987E-01  0.1237E+01
      2.402  0.2880E-01  0.1240E+01
      2.495  0.2534E-01  0.1242E+01
      2.589  0.2292E-01  0.1244E+01
      2.683  0.2175E-01  0.1246E+01
      2.776  0.2385E-01  0.1249E+01
      2.870  0.3052E-01  0.1251E+01
      2.963  0.3255E-01  0.1255E+01
      3.057  0.2978E-01  0.1257E+01
      3.150  0.3085E-01  0.1260E+01
      3.244  0.3018E-01  0.1263E+01
      3.337  0.2917E-01  0.1266E+01
      3.431  0.3205E-01  0.1269E+01
      3.524  0.3056E-01  0.1272E+01
      3.618  0.3392E-01  0.1275E+01
      3.712  0.3794E-01  0.1278E+01
      3.805  0.3615E-01  0.1282E+01
      3.899  0.3348E-01  0.1285E+01
      3.992  0.3563E-01  0.1288E+01
      4.086  0.3750E-01  0.1292E+01
      4.179  0.3877E-01  0.1295E+01
      4.273  0.4022E-01  0.1299E+01
      4.366  0.3902E-01  0.1303E+01
      4.460  0.3614E-01  0.1306E+01
      4.554  0.4456E-01  0.1310E+01
      4.647  0.5553E-01  0.1315E+01
      4.741  0.5715E-01  0.1321E+01
      4.834  0.5886E-01  0.1326E+01
      4.928  0.5741E-01  0.1332E+01
      5.021  0.5453E-01  0.1337E+01
      5.115  0.4861E-01  0.1341E+01
      5.208  0.2406E-01  0.1344E+01
      5.302  0.4304E-02  0.1344E+01
      5.395  0.2198E-03  0.1344E+01
      5.489  0.2691E-05  0.1344E+01
      5.583  0.7008E-08  0.1344E+01
      5.676  0.3601E-11  0.1344E+01
      5.770  0.3489E-15  0.1344E+01
      5.863  0.0000E+00  0.1344E+01
      5.957  0.0000E+00  0.1344E+01
      6.050  0.0000E+00  0.1344E+01
      6.144  0.0000E+00  0.1344E+01
      6.237  0.0000E+00  0.1344E+01
      6.331  0.0000E+00  0.1344E+01
      6.424  0.0000E+00  0.1344E+01
