<?xml version="1.0" encoding="ISO-8859-1"?>
<modeling>
 <generator>
  <i name="program" type="string">vasp </i>
  <i name="version" type="string">5.4.1  </i>
  <i name="subversion" type="string">24Jun15 (build Mar 14 2019 10:18:33) complex                          parallel </i>
  <i name="platform" type="string">INTEL-19.0.2+OPENMPI-3.1.3 </i>
  <i name="date" type="string">2023 01 23 </i>
  <i name="time" type="string">11:30:44 </i>
 </generator>
 <incar>
  <i type="int" name="ISTART">     0</i>
  <i type="string" name="PREC">normal</i>
  <i type="string" name="ALGO"> Fast</i>
  <i type="int" name="NELM">   500</i>
  <i type="int" name="IBRION">     2</i>
  <i type="int" name="NFREE">     2</i>
  <i name="EDIFF">      0.00000100</i>
  <i name="EDIFFG">     -0.02000000</i>
  <i type="int" name="NSW">   500</i>
  <i type="int" name="ISIF">     0</i>
  <i type="int" name="ISYM">     2</i>
  <i name="ENCUT">    400.00000000</i>
  <i name="POTIM">      0.35000000</i>
  <i type="string" name="LREAL"> Auto</i>
  <i type="logical" name="LPLANE"> T  </i>
  <i type="int" name="ISMEAR">     0</i>
  <i name="SIGMA">      0.10000000</i>
  <i type="int" name="NWRITE">     1</i>
  <i type="logical" name="LWAVE"> F  </i>
  <i type="logical" name="LCHARG"> F  </i>
  <i type="logical" name="LVTOT"> F  </i>
  <i type="logical" name="LORBIT"> F  </i>
  <i type="logical" name="LAECHG"> F  </i>
  <v type="int" name="KPOINT_BSE">    -1     0     0     0</v>
  <i type="int" name="NELM">   500</i>
  <i type="string" name="GGA"> PE          ! optPBE-vdW XC-functional</i>
  <i type="int" name="VOSKOWN">     1</i>
  <i type="logical" name="LDIPOL"> T  </i>
  <i type="logical" name="LMONO"> F  </i>
  <i type="int" name="IDIPOL">     3</i>
  <v name="DIPOL">      0.00000000      0.00000000      0.50000000</v>
 </incar>
 <kpoints>
  <generation param="Monkhorst-Pack">
   <v type="int" name="divisions">       2        2        1 </v>
   <v name="usershift">      0.00000000       0.00000000       0.00000000 </v>
   <v name="genvec1">      0.50000000       0.00000000       0.00000000 </v>
   <v name="genvec2">      0.00000000       0.50000000       0.00000000 </v>
   <v name="genvec3">      0.00000000       0.00000000       1.00000000 </v>
   <v name="shift">      0.50000000       0.50000000       0.00000000 </v>
  </generation>
  <varray name="kpointlist" >
   <v>       0.25000000       0.25000000       0.00000000 </v>
   <v>       0.00000000       0.25000000       0.00000000 </v>
   <v>      -0.25000000       0.00000000       0.00000000 </v>
   <v>      -0.25000000       0.25000000       0.00000000 </v>
   <v>       0.50000000      -0.25000000       0.00000000 </v>
   <v>      -0.25000000       0.50000000       0.00000000 </v>
  </varray>
  <varray name="weights" >
   <v>       0.16666667 </v>
   <v>       0.16666667 </v>
   <v>       0.16666667 </v>
   <v>       0.16666667 </v>
   <v>       0.16666667 </v>
   <v>       0.16666667 </v>
  </varray>
 </kpoints>
 <parameters>
  <separator name="general" >
   <i type="string" name="SYSTEM">unknown system</i>
   <i type="logical" name="LCOMPAT"> F  </i>
  </separator>
  <separator name="electronic" >
   <i type="string" name="PREC">normal</i>
   <i name="ENMAX">    400.00000000</i>
   <i name="ENAUG">    605.39200000</i>
   <i name="EDIFF">      0.00000100</i>
   <i type="int" name="IALGO">    68</i>
   <i type="int" name="IWAVPR">    11</i>
   <i type="int" name="NBANDS">   336</i>
   <i name="NELECT">    552.00000000</i>
   <i type="int" name="TURBO">     0</i>
   <i type="int" name="IRESTART">     0</i>
   <i type="int" name="NREBOOT">     0</i>
   <i type="int" name="NMIN">     0</i>
   <i name="EREF">      0.00000000</i>
   <separator name="electronic smearing" >
    <i type="int" name="ISMEAR">     0</i>
    <i name="SIGMA">      0.10000000</i>
    <i name="KSPACING">      0.50000000</i>
    <i type="logical" name="KGAMMA"> T  </i>
   </separator>
   <separator name="electronic projectors" >
    <i type="logical" name="LREAL"> T  </i>
    <v name="ROPT">     -0.00050000     -0.00050000     -0.00050000</v>
    <i type="int" name="LMAXPAW">  -100</i>
    <i type="int" name="LMAXMIX">     2</i>
    <i type="logical" name="NLSPLINE"> F  </i>
   </separator>
   <separator name="electronic startup" >
    <i type="int" name="ISTART">     0</i>
    <i type="int" name="ICHARG">     2</i>
    <i type="int" name="INIWAV">     1</i>
   </separator>
   <separator name="electronic spin" >
    <i type="int" name="ISPIN">     1</i>
    <i type="logical" name="LNONCOLLINEAR"> F  </i>
    <v name="MAGMOM">      1.00000000      1.00000000      1.00000000      1.00000000      1.00000000      1.00000000      1.00000000      1.00000000      1.00000000      1.00000000      1.00000000      1.00000000      1.00000000      1.00000000      1.00000000      1.00000000      1.00000000      1.00000000      1.00000000      1.00000000
      1.00000000      1.00000000      1.00000000      1.00000000      1.00000000      1.00000000      1.00000000      1.00000000      1.00000000      1.00000000      1.00000000      1.00000000      1.00000000      1.00000000      1.00000000      1.00000000      1.00000000      1.00000000      1.00000000      1.00000000
      1.00000000      1.00000000      1.00000000      1.00000000      1.00000000      1.00000000      1.00000000      1.00000000      1.00000000      1.00000000      1.00000000      1.00000000      1.00000000      1.00000000      1.00000000      1.00000000</v>
    <i name="NUPDOWN">     -1.00000000</i>
    <i type="logical" name="LSORBIT"> F  </i>
    <v name="SAXIS">      0.00000000      0.00000000      1.00000000</v>
    <i type="logical" name="LSPIRAL"> F  </i>
    <v name="QSPIRAL">      0.00000000      0.00000000      0.00000000</v>
    <i type="logical" name="LZEROZ"> F  </i>
   </separator>
   <separator name="electronic exchange-correlation" >
    <i type="logical" name="LASPH"> F  </i>
    <i type="logical" name="LMETAGGA"> F  </i>
   </separator>
   <separator name="electronic convergence" >
    <i type="int" name="NELM">   500</i>
    <i type="int" name="NELMDL">    -5</i>
    <i type="int" name="NELMIN">     2</i>
    <i name="ENINI">    400.00000000</i>
    <separator name="electronic convergence detail" >
     <i type="logical" name="LDIAG"> T  </i>
     <i type="logical" name="LSUBROT"> F  </i>
     <i name="WEIMIN">      0.00100000</i>
     <i name="EBREAK">      0.00000000</i>
     <i name="DEPER">      0.30000000</i>
     <i type="int" name="NRMM">     4</i>
     <i name="TIME">      0.40000000</i>
    </separator>
   </separator>
   <separator name="electronic mixer" >
    <i name="AMIX">      0.40000000</i>
    <i name="BMIX">      1.00000000</i>
    <i name="AMIN">      0.10000000</i>
    <i name="AMIX_MAG">      1.60000000</i>
    <i name="BMIX_MAG">      1.00000000</i>
    <separator name="electronic mixer details" >
     <i type="int" name="IMIX">     4</i>
     <i type="logical" name="MIXFIRST"> F  </i>
     <i type="int" name="MAXMIX">   -45</i>
     <i name="WC">    100.00000000</i>
     <i type="int" name="INIMIX">     1</i>
     <i type="int" name="MIXPRE">     1</i>
     <i type="int" name="MREMOVE">     5</i>
    </separator>
   </separator>
   <separator name="electronic dipolcorrection" >
    <i type="logical" name="LDIPOL"> T  </i>
    <i type="logical" name="LMONO"> F  </i>
    <i type="int" name="IDIPOL">     3</i>
    <i name="EPSILON">      1.00000000</i>
    <v name="DIPOL">      0.00000000      0.00000000      0.50000000</v>
    <i name="EFIELD">      0.00000000</i>
   </separator>
  </separator>
  <separator name="grids" >
   <i type="int" name="NGX">    54</i>
   <i type="int" name="NGY">    54</i>
   <i type="int" name="NGZ">   128</i>
   <i type="int" name="NGXF">   108</i>
   <i type="int" name="NGYF">   108</i>
   <i type="int" name="NGZF">   256</i>
   <i type="logical" name="ADDGRID"> F  </i>
  </separator>
  <separator name="ionic" >
   <i type="int" name="NSW">   500</i>
   <i type="int" name="IBRION">     2</i>
   <i type="int" name="ISIF">     0</i>
   <i name="PSTRESS">      0.00000000</i>
   <i name="EDIFFG">     -0.02000000</i>
   <i type="int" name="NFREE">     2</i>
   <i name="POTIM">      0.35000000</i>
   <i name="SMASS">     -3.00000000</i>
   <i name="SCALEE">      1.00000000</i>
  </separator>
  <separator name="ionic md" >
   <i name="TEBEG">      0.00010000</i>
   <i name="TEEND">      0.00010000</i>
   <i type="int" name="NBLOCK">     1</i>
   <i type="int" name="KBLOCK">   500</i>
   <i type="int" name="NPACO">   256</i>
   <i name="APACO">     16.00000000</i>
  </separator>
  <separator name="symmetry" >
   <i type="int" name="ISYM">     2</i>
   <i name="SYMPREC">      0.00001000</i>
  </separator>
  <separator name="dos" >
   <i type="logical" name="LORBIT"> F  </i>
   <v name="RWIGS">     -1.00000000     -1.00000000     -1.00000000</v>
   <i type="int" name="NEDOS">   301</i>
   <i name="EMIN">     10.00000000</i>
   <i name="EMAX">    -10.00000000</i>
   <i name="EFERMI">      0.00000000</i>
  </separator>
  <separator name="writing" >
   <i type="int" name="NWRITE">     1</i>
   <i type="logical" name="LWAVE"> F  </i>
   <i type="logical" name="LCHARG"> F  </i>
   <i type="logical" name="LPARD"> F  </i>
   <i type="logical" name="LVTOT"> F  </i>
   <i type="logical" name="LVHAR"> F  </i>
   <i type="logical" name="LELF"> F  </i>
   <i type="logical" name="LOPTICS"> F  </i>
   <v name="STM">      0.00000000      0.00000000      0.00000000      0.00000000      0.00000000      0.00000000      0.00000000</v>
  </separator>
  <separator name="performance" >
   <i type="int" name="NPAR">     6</i>
   <i type="int" name="NSIM">     4</i>
   <i type="int" name="NBLK">    -1</i>
   <i type="logical" name="LPLANE"> T  </i>
   <i type="logical" name="LSCALAPACK"> T  </i>
   <i type="logical" name="LSCAAWARE"> F  </i>
   <i type="logical" name="LSCALU"> F  </i>
   <i type="logical" name="LASYNC"> F  </i>
   <i type="logical" name="LORBITALREAL"> F  </i>
  </separator>
  <separator name="miscellaneous" >
   <i type="int" name="IDIOT">     3</i>
   <i type="logical" name="LMUSIC"> F  </i>
   <v name="POMASS">    196.96600000     16.00000000    106.42000000</v>
   <v name="DARWINR">      0.00000000      0.00000000      0.00000000</v>
   <v name="DARWINV">      1.00000000      1.00000000      1.00000000</v>
   <i type="logical" name="LCORR"> T  </i>
  </separator>
  <i type="logical" name="GGA_COMPAT"> T  </i>
  <i type="logical" name="LBERRY"> F  </i>
  <i type="int" name="ICORELEVEL">     0</i>
  <i type="logical" name="LDAU"> F  </i>
  <i type="int" name="I_CONSTRAINED_M">     0</i>
  <separator name="electronic exchange-correlation" >
   <i type="string" name="GGA">PE</i>
   <i type="int" name="VOSKOWN">     1</i>
   <i type="logical" name="LHFCALC"> F  </i>
   <i type="string" name="PRECFOCK"></i>
   <i type="logical" name="LSYMGRAD"> F  </i>
   <i type="logical" name="LHFONE"> F  </i>
   <i type="logical" name="LRHFCALC"> F  </i>
   <i type="logical" name="LTHOMAS"> F  </i>
   <i type="logical" name="LMODELHF"> F  </i>
   <i name="ENCUT4O">     -1.00000000</i>
   <i type="int" name="EXXOEP">     0</i>
   <i type="int" name="FOURORBIT">     0</i>
   <i name="AEXX">      0.00000000</i>
   <i name="HFALPHA">      0.00000000</i>
   <i name="MCALPHA">      0.00000000</i>
   <i name="ALDAX">      1.00000000</i>
   <i name="AGGAX">      1.00000000</i>
   <i name="ALDAC">      1.00000000</i>
   <i name="AGGAC">      1.00000000</i>
   <i type="int" name="NKREDX">     1</i>
   <i type="int" name="NKREDY">     1</i>
   <i type="int" name="NKREDZ">     1</i>
   <i type="logical" name="SHIFTRED"> F  </i>
   <i type="logical" name="ODDONLY"> F  </i>
   <i type="logical" name="EVENONLY"> F  </i>
   <i type="int" name="LMAXFOCK">     0</i>
   <i type="int" name="NMAXFOCKAE">     0</i>
   <i type="logical" name="LFOCKAEDFT"> F  </i>
   <i name="HFSCREEN">      0.00000000</i>
   <i name="HFSCREENC">      0.00000000</i>
   <i type="int" name="NBANDSGWLOW">     0</i>
  </separator>
  <separator name="vdW DFT" >
   <i type="logical" name="LUSE_VDW"> F  </i>
   <i name="Zab_VDW">     -0.84910000</i>
   <i name="PARAM1">      0.12340000</i>
   <i name="PARAM2">      1.00000000</i>
   <i name="PARAM3">      0.00000000</i>
  </separator>
  <separator name="model GW" >
   <i type="int" name="MODEL_GW">     0</i>
   <i name="MODEL_EPS0">     29.42037089</i>
   <i name="MODEL_ALPHA">      1.00000000</i>
  </separator>
  <separator name="linear response parameters" >
   <i type="logical" name="LEPSILON"> F  </i>
   <i type="logical" name="LRPA"> F  </i>
   <i type="logical" name="LNABLA"> F  </i>
   <i type="logical" name="LVEL"> F  </i>
   <i type="int" name="KINTER">     0</i>
   <i name="CSHIFT">      0.10000000</i>
   <i name="OMEGAMAX">     -1.00000000</i>
   <i name="DEG_THRESHOLD">      0.00200000</i>
  </separator>
  <separator name="orbital magnetization" >
   <i type="logical" name="NUCIND"> F  </i>
   <v name="MAGPOS">      0.00000000      0.00000000      0.00000000</v>
   <i type="logical" name="LNICSALL"> T  </i>
   <i type="logical" name="ORBITALMAG"> F  </i>
   <i type="logical" name="LMAGBLOCH"> F  </i>
   <i type="logical" name="LCHIMAG"> F  </i>
   <i type="logical" name="LGAUGE"> T  </i>
   <i type="int" name="MAGATOM">     0</i>
   <v name="MAGDIPOL">      0.00000000      0.00000000      0.00000000</v>
   <v name="AVECCONST">      0.00000000      0.00000000      0.00000000</v>
  </separator>
  <separator name="response functions" >
   <i type="logical" name="LADDER"> F  </i>
   <i type="logical" name="LFXC"> F  </i>
   <i type="logical" name="LHARTREE"> T  </i>
   <i type="int" name="IBSE">     0</i>
   <v type="int" name="KPOINT">    -1     0     0     0</v>
   <i type="logical" name="LTCTE"> F  </i>
   <i type="logical" name="LTETE"> F  </i>
   <i type="logical" name="LTRIPLET"> F  </i>
   <i type="logical" name="LFXCEPS"> F  </i>
   <i type="logical" name="LFXHEG"> F  </i>
   <i type="int" name="NATURALO">     0</i>
   <i type="logical" name="L2ORDER"> F  </i>
   <i type="logical" name="LUSEW"> F  </i>
   <i name="ENCUTGW">     -2.00000000</i>
   <i name="ENCUTGWSOFT">     -2.00000000</i>
   <i name="ENCUTLF">     -1.00000000</i>
   <i type="int" name="LMAXMP2">    -1</i>
   <i name="SCISSOR">      0.00000000</i>
   <i type="int" name="NOMEGA">     0</i>
   <i type="int" name="NOMEGAR">     0</i>
   <i type="int" name="NBANDSGW">    -1</i>
   <i type="int" name="NBANDSO">    -1</i>
   <i type="int" name="NBANDSV">    -1</i>
   <i type="int" name="NELM">   500</i>
   <i type="int" name="NELMHF">     1</i>
   <i type="int" name="DIM">     3</i>
   <i type="int" name="ANTIRES">     0</i>
   <i name="OMEGAMAX">    -30.00000000</i>
   <i name="OMEGAMIN">    -30.00000000</i>
   <i name="OMEGATL">   -200.00000000</i>
   <i type="int" name="OMEGAGRID">     0</i>
   <i name="CSHIFT">     -0.10000000</i>
   <i type="logical" name="SELFENERGY"> F  </i>
   <i type="logical" name="LSPECTRAL"> F  </i>
   <i type="logical" name="LSPECTRALGW"> F  </i>
   <i type="logical" name="LSINGLES"> F  </i>
   <i type="logical" name="LFERMIGW"> F  </i>
   <i type="logical" name="ODDONLYGW"> F  </i>
   <i type="logical" name="EVENONLYGW"> F  </i>
   <i type="int" name="NKREDLFX">     1</i>
   <i type="int" name="NKREDLFY">     1</i>
   <i type="int" name="NKREDLFZ">     1</i>
   <i type="int" name="MAXMEM">  1800</i>
   <i type="int" name="TELESCOPE">     0</i>
   <i type="int" name="TAUPAR">     1</i>
   <i type="int" name="OMEGAPAR">    -1</i>
   <i name="LAMBDA">      1.00000000</i>
  </separator>
  <separator name="External order field" >
   <i name="OFIELD_KAPPA">      0.00000000</i>
   <v name="OFIELD_K">      0.00000000      0.00000000      0.00000000</v>
   <i name="OFIELD_Q6_NEAR">      0.00000000</i>
   <i name="OFIELD_Q6_FAR">      0.00000000</i>
   <i name="OFIELD_A">      0.00000000</i>
  </separator>
 </parameters>
 <atominfo>
  <atoms>      56 </atoms>
  <types>       3 </types>
  <array name="atoms" >
   <dimension dim="1">ion</dimension>
   <field type="string">element</field>
   <field type="int">atomtype</field>
   <set>
    <rc><c>Au</c><c>   1</c></rc>
    <rc><c>Au</c><c>   1</c></rc>
    <rc><c>Au</c><c>   1</c></rc>
    <rc><c>Au</c><c>   1</c></rc>
    <rc><c>Au</c><c>   1</c></rc>
    <rc><c>Au</c><c>   1</c></rc>
    <rc><c>Au</c><c>   1</c></rc>
    <rc><c>Au</c><c>   1</c></rc>
    <rc><c>Au</c><c>   1</c></rc>
    <rc><c>Au</c><c>   1</c></rc>
    <rc><c>Au</c><c>   1</c></rc>
    <rc><c>Au</c><c>   1</c></rc>
    <rc><c>Au</c><c>   1</c></rc>
    <rc><c>Au</c><c>   1</c></rc>
    <rc><c>Au</c><c>   1</c></rc>
    <rc><c>Au</c><c>   1</c></rc>
    <rc><c>Au</c><c>   1</c></rc>
    <rc><c>Au</c><c>   1</c></rc>
    <rc><c>Au</c><c>   1</c></rc>
    <rc><c>Au</c><c>   1</c></rc>
    <rc><c>Au</c><c>   1</c></rc>
    <rc><c>Au</c><c>   1</c></rc>
    <rc><c>Au</c><c>   1</c></rc>
    <rc><c>Au</c><c>   1</c></rc>
    <rc><c>O </c><c>   2</c></rc>
    <rc><c>O </c><c>   2</c></rc>
    <rc><c>O </c><c>   2</c></rc>
    <rc><c>O </c><c>   2</c></rc>
    <rc><c>O </c><c>   2</c></rc>
    <rc><c>O </c><c>   2</c></rc>
    <rc><c>O </c><c>   2</c></rc>
    <rc><c>O </c><c>   2</c></rc>
    <rc><c>Pd</c><c>   3</c></rc>
    <rc><c>Pd</c><c>   3</c></rc>
    <rc><c>Pd</c><c>   3</c></rc>
    <rc><c>Pd</c><c>   3</c></rc>
    <rc><c>Pd</c><c>   3</c></rc>
    <rc><c>Pd</c><c>   3</c></rc>
    <rc><c>Pd</c><c>   3</c></rc>
    <rc><c>Pd</c><c>   3</c></rc>
    <rc><c>Pd</c><c>   3</c></rc>
    <rc><c>Pd</c><c>   3</c></rc>
    <rc><c>Pd</c><c>   3</c></rc>
    <rc><c>Pd</c><c>   3</c></rc>
    <rc><c>Pd</c><c>   3</c></rc>
    <rc><c>Pd</c><c>   3</c></rc>
    <rc><c>Pd</c><c>   3</c></rc>
    <rc><c>Pd</c><c>   3</c></rc>
    <rc><c>Pd</c><c>   3</c></rc>
    <rc><c>Pd</c><c>   3</c></rc>
    <rc><c>Pd</c><c>   3</c></rc>
    <rc><c>Pd</c><c>   3</c></rc>
    <rc><c>Pd</c><c>   3</c></rc>
    <rc><c>Pd</c><c>   3</c></rc>
    <rc><c>Pd</c><c>   3</c></rc>
    <rc><c>Pd</c><c>   3</c></rc>
   </set>
  </array>
  <array name="atomtypes" >
   <dimension dim="1">type</dimension>
   <field type="int">atomspertype</field>
   <field type="string">element</field>
   <field>mass</field>
   <field>valence</field>
   <field type="string">pseudopotential</field>
   <set>
    <rc><c>  24</c><c>Au</c><c>    196.96600000</c><c>     11.00000000</c><c>  PAW_PBE Au 04Oct2007                  </c></rc>
    <rc><c>   8</c><c>O </c><c>     16.00000000</c><c>      6.00000000</c><c>  PAW_PBE O 08Apr2002                   </c></rc>
    <rc><c>  24</c><c>Pd</c><c>    106.42000000</c><c>     10.00000000</c><c>  PAW_PBE Pd 04Jan2005                  </c></rc>
   </set>
  </array>
 </atominfo>
 <structure name="initialpos" >
  <crystal>
   <varray name="basis" >
    <v>      11.00258152       0.00000000       0.00000000 </v>
    <v>       5.50129076       9.52851510       0.00000000 </v>
    <v>       0.00000000       0.00000000      26.19178509 </v>
   </varray>
   <i name="volume">   2745.90128299 </i>
   <varray name="rec_basis" >
    <v>       0.09088776      -0.05247407       0.00000000 </v>
    <v>       0.00000000       0.10494815       0.00000000 </v>
    <v>       0.00000000       0.00000000       0.03817991 </v>
   </varray>
  </crystal>
  <varray name="positions" >
   <v>       0.08333333       0.08333333       0.38179910 </v>
   <v>       0.33333333       0.83333333       0.38179910 </v>
   <v>       0.49762504       0.50499809       0.56089880 </v>
   <v>       0.66675454       0.66593087       0.47864441 </v>
   <v>       0.83333333       0.58333333       0.38179910 </v>
   <v>       0.08333333       0.33333333       0.38179910 </v>
   <v>       0.75851171       0.24792563       0.56225766 </v>
   <v>       0.00928330       0.24800562       0.56125354 </v>
   <v>       0.71775590       0.02132362       0.56291210 </v>
   <v>       0.67034866       0.16500840       0.47273672 </v>
   <v>       0.41858961       0.90886364       0.50891848 </v>
   <v>       0.91604896       0.91229113       0.47327892 </v>
   <v>       0.00353278       0.73940454       0.57097994 </v>
   <v>       0.58333333       0.58333333       0.38179910 </v>
   <v>       0.18485557       0.15892445       0.47508784 </v>
   <v>       0.41978242       0.41505470       0.47533024 </v>
   <v>       0.58333333       0.33333333       0.38179910 </v>
   <v>       0.33333333       0.33333333       0.38179910 </v>
   <v>       0.46774743       0.02961130       0.66694907 </v>
   <v>       0.43097145       0.15802504       0.49396689 </v>
   <v>       0.58333333       0.08333333       0.38179910 </v>
   <v>       0.16678172       0.66469840       0.47440603 </v>
   <v>       0.64850302       0.81192837       0.57027116 </v>
   <v>       0.17216028       0.91597416       0.47486197 </v>
   <v>       0.33014664       0.79471681       0.62600037 </v>
   <v>       0.07515035       0.07627966       0.61171426 </v>
   <v>       0.81185919       0.83856792       0.60885645 </v>
   <v>       0.88288268       0.53345277       0.61573924 </v>
   <v>       0.34908975       0.22698436       0.64328620 </v>
   <v>       0.56761999       0.84543930       0.69871857 </v>
   <v>       0.63981342       0.29018480       0.62726811 </v>
   <v>       0.59192312       0.56491440       0.61984409 </v>
   <v>       0.41849818       0.66918425       0.47267367 </v>
   <v>       0.51857835       0.74873368       0.65018145 </v>
   <v>       0.48639277       0.26472178       0.60923008 </v>
   <v>       0.58333333       0.83333333       0.38179910 </v>
   <v>       0.17226373       0.41116372       0.47650648 </v>
   <v>       0.25738456       0.23691201       0.57530411 </v>
   <v>       0.33333333       0.58333333       0.38179910 </v>
   <v>       0.25730887       0.49121883       0.56421463 </v>
   <v>       0.28269287       0.98960517       0.60627098 </v>
   <v>       0.25224953       0.74778609       0.56519824 </v>
   <v>       0.00979451       0.49474544       0.56093540 </v>
   <v>       0.91779737       0.66264759       0.47393489 </v>
   <v>       0.83333333       0.08333333       0.38179910 </v>
   <v>       0.08333333       0.58333333       0.38179910 </v>
   <v>       0.83333333       0.33333333       0.38179910 </v>
   <v>       0.67250966       0.41643865       0.47308656 </v>
   <v>       0.91975449       0.41381160       0.47422660 </v>
   <v>       0.00480168       0.98792605       0.56339454 </v>
   <v>       0.75339000       0.51070561       0.57225691 </v>
   <v>       0.92102138       0.16538873       0.47217186 </v>
   <v>       0.83333333       0.83333333       0.38179910 </v>
   <v>       0.66312214       0.91184103       0.47021517 </v>
   <v>       0.08333333       0.83333333       0.38179910 </v>
   <v>       0.33333333       0.08333333       0.38179910 </v>
  </varray>
  <varray name="selective"  type="logical" >
   <v type="logical" >  F  F  F </v>
   <v type="logical" >  F  F  F </v>
   <v type="logical" >  T  T  T </v>
   <v type="logical" >  T  T  T </v>
   <v type="logical" >  F  F  F </v>
   <v type="logical" >  F  F  F </v>
   <v type="logical" >  T  T  T </v>
   <v type="logical" >  T  T  T </v>
   <v type="logical" >  T  T  T </v>
   <v type="logical" >  T  T  T </v>
   <v type="logical" >  T  T  T </v>
   <v type="logical" >  T  T  T </v>
   <v type="logical" >  T  T  T </v>
   <v type="logical" >  F  F  F </v>
   <v type="logical" >  T  T  T </v>
   <v type="logical" >  T  T  T </v>
   <v type="logical" >  F  F  F </v>
   <v type="logical" >  F  F  F </v>
   <v type="logical" >  T  T  T </v>
   <v type="logical" >  T  T  T </v>
   <v type="logical" >  F  F  F </v>
   <v type="logical" >  T  T  T </v>
   <v type="logical" >  T  T  T </v>
   <v type="logical" >  T  T  T </v>
   <v type="logical" >  T  T  T </v>
   <v type="logical" >  T  T  T </v>
   <v type="logical" >  T  T  T </v>
   <v type="logical" >  T  T  T </v>
   <v type="logical" >  T  T  T </v>
   <v type="logical" >  T  T  T </v>
   <v type="logical" >  T  T  T </v>
   <v type="logical" >  T  T  T </v>
   <v type="logical" >  T  T  T </v>
   <v type="logical" >  T  T  T </v>
   <v type="logical" >  T  T  T </v>
   <v type="logical" >  F  F  F </v>
   <v type="logical" >  T  T  T </v>
   <v type="logical" >  T  T  T </v>
   <v type="logical" >  F  F  F </v>
   <v type="logical" >  T  T  T </v>
   <v type="logical" >  T  T  T </v>
   <v type="logical" >  T  T  T </v>
   <v type="logical" >  T  T  T </v>
   <v type="logical" >  T  T  T </v>
   <v type="logical" >  F  F  F </v>
   <v type="logical" >  F  F  F </v>
   <v type="logical" >  F  F  F </v>
   <v type="logical" >  T  T  T </v>
   <v type="logical" >  T  T  T </v>
   <v type="logical" >  T  T  T </v>
   <v type="logical" >  T  T  T </v>
   <v type="logical" >  T  T  T </v>
   <v type="logical" >  F  F  F </v>
   <v type="logical" >  T  T  T </v>
   <v type="logical" >  F  F  F </v>
   <v type="logical" >  F  F  F </v>
  </varray>
  <nose>
   <v>      -3.00000000       0.00000000       0.00010000       0.00010000 </v>
  </nose>
 </structure>
 <calculation>
  <scstep>
   <time name="dav">    8.57    8.59</time>
   <time name="total">    8.62    8.65</time>
   <dipole>
    <v name="dipole">      0.00000000       0.00000000       0.00006350 </v>
    <i name="Tr[quadrupol]"> -11291.32637782 </i>
    <i name="Echarged">      0.00000000 </i>
    <i name="Edipol_quadrupol">      0.00000000 </i>
    <i name="Eion">      0.00000000 </i>
   </dipole>
   <energy>
    <i name="alphaZ">    862.57686943 </i>
    <i name="ewald"> 225964.86675576 </i>
    <i name="hartreedc">-271608.99552323 </i>
    <i name="XCdc">   -119.30287335 </i>
    <i name="pawpsdc">  43112.45544455 </i>
    <i name="pawaedc"> -41079.41300390 </i>
    <i name="eentropy">     -0.11997947 </i>
    <i name="bandstr">   1333.72047970 </i>
    <i name="atom">  45117.89144060 </i>
    <i name="e_fr_energy">   3583.67961009 </i>
    <i name="e_wo_entrp">   3583.79958956 </i>
    <i name="e_0_energy">   3583.73959982 </i>
   </energy>
  </scstep>
  <scstep>
   <time name="dav">   10.03   10.06</time>
   <time name="total">   10.03   10.06</time>
   <dipole>
    <v name="dipole">      0.00000000       0.00000000       0.00006350 </v>
    <i name="Tr[quadrupol]"> -11291.32637782 </i>
    <i name="Echarged">      0.00000000 </i>
    <i name="Edipol_quadrupol">      0.00000000 </i>
    <i name="Eion">      0.00000000 </i>
   </dipole>
   <energy>
    <i name="e_fr_energy">     49.62403094 </i>
    <i name="e_wo_entrp">     49.74411063 </i>
    <i name="e_0_energy">     49.68407079 </i>
   </energy>
  </scstep>
  <scstep>
   <time name="dav">    9.92    9.94</time>
   <time name="total">    9.92    9.95</time>
   <dipole>
    <v name="dipole">      0.00000000       0.00000000       0.00006350 </v>
    <i name="Tr[quadrupol]"> -11291.32637782 </i>
    <i name="Echarged">      0.00000000 </i>
    <i name="Edipol_quadrupol">      0.00000000 </i>
    <i name="Eion">      0.00000000 </i>
   </dipole>
   <energy>
    <i name="e_fr_energy">   -253.38556200 </i>
    <i name="e_wo_entrp">   -253.17950920 </i>
    <i name="e_0_energy">   -253.28253560 </i>
   </energy>
  </scstep>
  <scstep>
   <time name="dav">    9.80    9.90</time>
   <time name="total">    9.80    9.90</time>
   <dipole>
    <v name="dipole">      0.00000000       0.00000000       0.00006350 </v>
    <i name="Tr[quadrupol]"> -11291.32637782 </i>
    <i name="Echarged">      0.00000000 </i>
    <i name="Edipol_quadrupol">      0.00000000 </i>
    <i name="Eion">      0.00000000 </i>
   </dipole>
   <energy>
    <i name="e_fr_energy">   -264.05142588 </i>
    <i name="e_wo_entrp">   -263.83833791 </i>
    <i name="e_0_energy">   -263.94488189 </i>
   </energy>
  </scstep>
  <scstep>
   <time name="dav">    9.73    9.76</time>
   <time name="total">    9.99   10.02</time>
   <dipole>
    <v name="dipole">      0.00000000       0.00000000       0.00006350 </v>
    <i name="Tr[quadrupol]"> -11291.32637782 </i>
    <i name="Echarged">      0.00000000 </i>
    <i name="Edipol_quadrupol">      0.00000000 </i>
    <i name="Eion">      0.00000000 </i>
   </dipole>
   <energy>
    <i name="e_fr_energy">   -264.33090475 </i>
    <i name="e_wo_entrp">   -264.11673126 </i>
    <i name="e_0_energy">   -264.22381801 </i>
   </energy>
  </scstep>
  <scstep>
   <time name="diag">    1.58    1.58</time>
   <time name="diis">    4.05    4.06</time>
   <time name="orth">    0.43    0.44</time>
   <time name="total">    6.36    6.39</time>
   <dipole>
    <v name="dipole">      0.00000000       0.00000000       0.90815655 </v>
    <i name="Tr[quadrupol]"> -11288.15899946 </i>
    <i name="Echarged">      0.00000000 </i>
    <i name="Edipol_quadrupol">      0.00000000 </i>
    <i name="Eion">      0.00000000 </i>
   </dipole>
   <energy>
    <i name="e_fr_energy">   -249.45441045 </i>
    <i name="e_wo_entrp">   -249.30307146 </i>
    <i name="e_0_energy">   -249.37874095 </i>
   </energy>
  </scstep>
  <scstep>
   <time name="diag">    1.55    1.56</time>
   <time name="diis">    4.08    4.09</time>
   <time name="orth">    0.43    0.43</time>
   <time name="total">    6.37    6.39</time>
   <dipole>
    <v name="dipole">      0.00000000       0.00000000      -1.94203236 </v>
    <i name="Tr[quadrupol]"> -11291.37716414 </i>
    <i name="Echarged">      0.00000000 </i>
    <i name="Edipol_quadrupol">      0.00000000 </i>
    <i name="Eion">      0.00000000 </i>
   </dipole>
   <energy>
    <i name="e_fr_energy">   -283.29194941 </i>
    <i name="e_wo_entrp">   -282.95811404 </i>
    <i name="e_0_energy">   -283.12503172 </i>
   </energy>
  </scstep>
  <scstep>
   <time name="diag">    1.55    1.56</time>
   <time name="diis">    4.12    4.13</time>
   <time name="orth">    0.43    0.43</time>
   <time name="total">    6.42    6.44</time>
   <dipole>
    <v name="dipole">      0.00000000       0.00000000       0.25210764 </v>
    <i name="Tr[quadrupol]"> -11292.95545402 </i>
    <i name="Echarged">      0.00000000 </i>
    <i name="Edipol_quadrupol">      0.00000000 </i>
    <i name="Eion">      0.00000000 </i>
   </dipole>
   <energy>
    <i name="e_fr_energy">   -241.57185524 </i>
    <i name="e_wo_entrp">   -241.39127357 </i>
    <i name="e_0_energy">   -241.48156440 </i>
   </energy>
  </scstep>
  <scstep>
   <time name="diag">    1.55    1.55</time>
   <time name="diis">    4.03    4.13</time>
   <time name="orth">    0.43    0.43</time>
   <time name="total">    6.31    6.42</time>
   <dipole>
    <v name="dipole">      0.00000000       0.00000000       0.28313932 </v>
    <i name="Tr[quadrupol]"> -11288.98212587 </i>
    <i name="Echarged">      0.00000000 </i>
    <i name="Edipol_quadrupol">      0.00000000 </i>
    <i name="Eion">      0.00000000 </i>
   </dipole>
   <energy>
    <i name="e_fr_energy">   -244.97328656 </i>
    <i name="e_wo_entrp">   -244.81583076 </i>
    <i name="e_0_energy">   -244.89455866 </i>
   </energy>
  </scstep>
  <scstep>
   <time name="diag">    1.56    1.56</time>
   <time name="diis">    4.11    4.13</time>
   <time name="orth">    0.43    0.43</time>
   <time name="total">    6.40    6.43</time>
   <dipole>
    <v name="dipole">      0.00000000       0.00000000       0.46879093 </v>
    <i name="Tr[quadrupol]"> -11291.41675759 </i>
    <i name="Echarged">      0.00000000 </i>
    <i name="Edipol_quadrupol">      0.00000000 </i>
    <i name="Eion">      0.00000000 </i>
   </dipole>
   <energy>
    <i name="e_fr_energy">   -236.31681747 </i>
    <i name="e_wo_entrp">   -236.17737794 </i>
    <i name="e_0_energy">   -236.24709770 </i>
   </energy>
  </scstep>
  <scstep>
   <time name="diag">    1.56    1.56</time>
   <time name="diis">    4.11    4.12</time>
   <time name="orth">    0.43    0.43</time>
   <time name="total">    6.40    6.42</time>
   <dipole>
    <v name="dipole">      0.00000000       0.00000000       0.34800826 </v>
    <i name="Tr[quadrupol]"> -11292.11750501 </i>
    <i name="Echarged">      0.00000000 </i>
    <i name="Edipol_quadrupol">      0.00000000 </i>
    <i name="Eion">      0.00000000 </i>
   </dipole>
   <energy>
    <i name="e_fr_energy">   -232.68960508 </i>
    <i name="e_wo_entrp">   -232.47935815 </i>
    <i name="e_0_energy">   -232.58448162 </i>
   </energy>
  </scstep>
  <scstep>
   <time name="diag">    1.54    1.55</time>
   <time name="diis">    4.10    4.11</time>
   <time name="orth">    0.43    0.43</time>
   <time name="total">    6.38    6.40</time>
   <dipole>
    <v name="dipole">      0.00000000       0.00000000       0.46174831 </v>
    <i name="Tr[quadrupol]"> -11291.77445866 </i>
    <i name="Echarged">      0.00000000 </i>
    <i name="Edipol_quadrupol">      0.00000000 </i>
    <i name="Eion">      0.00000000 </i>
   </dipole>
   <energy>
    <i name="e_fr_energy">   -232.58613285 </i>
    <i name="e_wo_entrp">   -232.40557457 </i>
    <i name="e_0_energy">   -232.49585371 </i>
   </energy>
  </scstep>
  <scstep>
   <time name="diag">    1.54    1.54</time>
   <time name="diis">    4.11    4.12</time>
   <time name="orth">    0.43    0.43</time>
   <time name="total">    6.38    6.40</time>
   <dipole>
    <v name="dipole">      0.00000000       0.00000000       0.42068945 </v>
    <i name="Tr[quadrupol]"> -11292.15722130 </i>
    <i name="Echarged">      0.00000000 </i>
    <i name="Edipol_quadrupol">      0.00000000 </i>
    <i name="Eion">      0.00000000 </i>
   </dipole>
   <energy>
    <i name="e_fr_energy">   -232.21811055 </i>
    <i name="e_wo_entrp">   -232.00372172 </i>
    <i name="e_0_energy">   -232.11091614 </i>
   </energy>
  </scstep>
  <scstep>
   <time name="diag">    1.55    1.56</time>
   <time name="diis">    4.11    4.12</time>
   <time name="orth">    0.43    0.43</time>
   <time name="total">    6.39    6.41</time>
   <dipole>
    <v name="dipole">      0.00000000       0.00000000       0.46098875 </v>
    <i name="Tr[quadrupol]"> -11291.99262565 </i>
    <i name="Echarged">      0.00000000 </i>
    <i name="Edipol_quadrupol">      0.00000000 </i>
    <i name="Eion">      0.00000000 </i>
   </dipole>
   <energy>
    <i name="e_fr_energy">   -232.23268288 </i>
    <i name="e_wo_entrp">   -232.03991754 </i>
    <i name="e_0_energy">   -232.13630021 </i>
   </energy>
  </scstep>
  <scstep>
   <time name="diag">    1.55    1.56</time>
   <time name="diis">    4.01    4.10</time>
   <time name="orth">    0.43    0.43</time>
   <time name="total">    6.29    6.39</time>
   <dipole>
    <v name="dipole">      0.00000000       0.00000000       0.44378920 </v>
    <i name="Tr[quadrupol]"> -11292.21105302 </i>
    <i name="Echarged">      0.00000000 </i>
    <i name="Edipol_quadrupol">      0.00000000 </i>
    <i name="Eion">      0.00000000 </i>
   </dipole>
   <energy>
    <i name="e_fr_energy">   -232.14026987 </i>
    <i name="e_wo_entrp">   -231.93709619 </i>
    <i name="e_0_energy">   -232.03868303 </i>
   </energy>
  </scstep>
  <scstep>
   <time name="diag">    1.55    1.56</time>
   <time name="diis">    4.10    4.11</time>
   <time name="orth">    0.43    0.43</time>
   <time name="total">    6.39    6.41</time>
   <dipole>
    <v name="dipole">      0.00000000       0.00000000       0.46570543 </v>
    <i name="Tr[quadrupol]"> -11292.30322007 </i>
    <i name="Echarged">      0.00000000 </i>
    <i name="Edipol_quadrupol">      0.00000000 </i>
    <i name="Eion">      0.00000000 </i>
   </dipole>
   <energy>
    <i name="e_fr_energy">   -232.11236440 </i>
    <i name="e_wo_entrp">   -231.90691133 </i>
    <i name="e_0_energy">   -232.00963787 </i>
   </energy>
  </scstep>
  <scstep>
   <time name="diag">    1.54    1.54</time>
   <time name="diis">    4.07    4.08</time>
   <time name="orth">    0.43    0.43</time>
   <time name="total">    6.34    6.36</time>
   <dipole>
    <v name="dipole">      0.00000000       0.00000000       0.46389864 </v>
    <i name="Tr[quadrupol]"> -11292.50163831 </i>
    <i name="Echarged">      0.00000000 </i>
    <i name="Edipol_quadrupol">      0.00000000 </i>
    <i name="Eion">      0.00000000 </i>
   </dipole>
   <energy>
    <i name="e_fr_energy">   -232.09588216 </i>
    <i name="e_wo_entrp">   -231.88528402 </i>
    <i name="e_0_energy">   -231.99058309 </i>
   </energy>
  </scstep>
  <scstep>
   <time name="diag">    1.55    1.55</time>
   <time name="diis">    4.08    4.09</time>
   <time name="orth">    0.43    0.43</time>
   <time name="total">    6.36    6.38</time>
   <dipole>
    <v name="dipole">      0.00000000       0.00000000       0.46207015 </v>
    <i name="Tr[quadrupol]"> -11292.59011141 </i>
    <i name="Echarged">      0.00000000 </i>
    <i name="Edipol_quadrupol">      0.00000000 </i>
    <i name="Eion">      0.00000000 </i>
   </dipole>
   <energy>
    <i name="e_fr_energy">   -232.08961429 </i>
    <i name="e_wo_entrp">   -231.87487115 </i>
    <i name="e_0_energy">   -231.98224272 </i>
   </energy>
  </scstep>
  <scstep>
   <time name="diag">    1.55    1.56</time>
   <time name="diis">    4.06    4.07</time>
   <time name="orth">    0.42    0.43</time>
   <time name="total">    6.34    6.36</time>
   <dipole>
    <v name="dipole">      0.00000000       0.00000000       0.46093544 </v>
    <i name="Tr[quadrupol]"> -11292.66642939 </i>
    <i name="Echarged">      0.00000000 </i>
    <i name="Edipol_quadrupol">      0.00000000 </i>
    <i name="Eion">      0.00000000 </i>
   </dipole>
   <energy>
    <i name="e_fr_energy">   -232.08808524 </i>
    <i name="e_wo_entrp">   -231.87392534 </i>
    <i name="e_0_energy">   -231.98100529 </i>
   </energy>
  </scstep>
  <scstep>
   <time name="diag">    1.56    1.56</time>
   <time name="diis">    4.12    4.13</time>
   <time name="orth">    0.43    0.43</time>
   <time name="total">    6.43    6.45</time>
   <dipole>
    <v name="dipole">      0.00000000       0.00000000       0.46377749 </v>
    <i name="Tr[quadrupol]"> -11292.71994423 </i>
    <i name="Echarged">      0.00000000 </i>
    <i name="Edipol_quadrupol">      0.00000000 </i>
    <i name="Eion">      0.00000000 </i>
   </dipole>
   <energy>
    <i name="e_fr_energy">   -232.08802010 </i>
    <i name="e_wo_entrp">   -231.87340785 </i>
    <i name="e_0_energy">   -231.98071398 </i>
   </energy>
  </scstep>
  <scstep>
   <time name="diag">    1.54    1.55</time>
   <time name="diis">    4.07    4.08</time>
   <time name="orth">    0.43    0.43</time>
   <time name="total">    6.34    6.37</time>
   <dipole>
    <v name="dipole">      0.00000000       0.00000000       0.47286271 </v>
    <i name="Tr[quadrupol]"> -11292.85245525 </i>
    <i name="Echarged">      0.00000000 </i>
    <i name="Edipol_quadrupol">      0.00000000 </i>
    <i name="Eion">      0.00000000 </i>
   </dipole>
   <energy>
    <i name="e_fr_energy">   -232.08911961 </i>
    <i name="e_wo_entrp">   -231.87589600 </i>
    <i name="e_0_energy">   -231.98250780 </i>
   </energy>
  </scstep>
  <scstep>
   <time name="diag">    1.52    1.59</time>
   <time name="diis">    4.11    4.12</time>
   <time name="orth">    0.43    0.43</time>
   <time name="total">    6.36    6.44</time>
   <dipole>
    <v name="dipole">      0.00000000       0.00000000       0.47772354 </v>
    <i name="Tr[quadrupol]"> -11292.92976031 </i>
    <i name="Echarged">      0.00000000 </i>
    <i name="Edipol_quadrupol">      0.00000000 </i>
    <i name="Eion">      0.00000000 </i>
   </dipole>
   <energy>
    <i name="e_fr_energy">   -232.08925843 </i>
    <i name="e_wo_entrp">   -231.87547529 </i>
    <i name="e_0_energy">   -231.98236686 </i>
   </energy>
  </scstep>
  <scstep>
   <time name="diag">    1.55    1.56</time>
   <time name="diis">    4.10    4.11</time>
   <time name="orth">    0.43    0.43</time>
   <time name="total">    6.38    6.40</time>
   <dipole>
    <v name="dipole">      0.00000000       0.00000000       0.47824570 </v>
    <i name="Tr[quadrupol]"> -11292.94860152 </i>
    <i name="Echarged">      0.00000000 </i>
    <i name="Edipol_quadrupol">      0.00000000 </i>
    <i name="Eion">      0.00000000 </i>
   </dipole>
   <energy>
    <i name="e_fr_energy">   -232.08931319 </i>
    <i name="e_wo_entrp">   -231.87569490 </i>
    <i name="e_0_energy">   -231.98250404 </i>
   </energy>
  </scstep>
  <scstep>
   <time name="diag">    1.55    1.55</time>
   <time name="diis">    4.13    4.15</time>
   <time name="orth">    0.43    0.43</time>
   <time name="total">    6.43    6.45</time>
   <dipole>
    <v name="dipole">      0.00000000       0.00000000       0.47974636 </v>
    <i name="Tr[quadrupol]"> -11292.97290799 </i>
    <i name="Echarged">      0.00000000 </i>
    <i name="Edipol_quadrupol">      0.00000000 </i>
    <i name="Eion">      0.00000000 </i>
   </dipole>
   <energy>
    <i name="e_fr_energy">   -232.08949653 </i>
    <i name="e_wo_entrp">   -231.87577236 </i>
    <i name="e_0_energy">   -231.98263445 </i>
   </energy>
  </scstep>
  <scstep>
   <time name="diag">    1.54    1.54</time>
   <time name="diis">    4.16    4.17</time>
   <time name="orth">    0.43    0.43</time>
   <time name="total">    6.43    6.45</time>
   <dipole>
    <v name="dipole">      0.00000000       0.00000000       0.48330893 </v>
    <i name="Tr[quadrupol]"> -11293.04493492 </i>
    <i name="Echarged">      0.00000000 </i>
    <i name="Edipol_quadrupol">      0.00000000 </i>
    <i name="Eion">      0.00000000 </i>
   </dipole>
   <energy>
    <i name="e_fr_energy">   -232.09000409 </i>
    <i name="e_wo_entrp">   -231.87607292 </i>
    <i name="e_0_energy">   -231.98303851 </i>
   </energy>
  </scstep>
  <scstep>
   <time name="diag">    1.55    1.56</time>
   <time name="diis">    4.13    4.14</time>
   <time name="orth">    0.43    0.43</time>
   <time name="total">    6.41    6.43</time>
   <dipole>
    <v name="dipole">      0.00000000       0.00000000       0.48757304 </v>
    <i name="Tr[quadrupol]"> -11293.09960464 </i>
    <i name="Echarged">      0.00000000 </i>
    <i name="Edipol_quadrupol">      0.00000000 </i>
    <i name="Eion">      0.00000000 </i>
   </dipole>
   <energy>
    <i name="e_fr_energy">   -232.09037991 </i>
    <i name="e_wo_entrp">   -231.87650000 </i>
    <i name="e_0_energy">   -231.98343996 </i>
   </energy>
  </scstep>
  <scstep>
   <time name="diag">    1.55    1.56</time>
   <time name="diis">    4.02    4.03</time>
   <time name="orth">    0.43    0.43</time>
   <time name="total">    6.30    6.32</time>
   <dipole>
    <v name="dipole">      0.00000000       0.00000000       0.49010638 </v>
    <i name="Tr[quadrupol]"> -11293.13462808 </i>
    <i name="Echarged">      0.00000000 </i>
    <i name="Edipol_quadrupol">      0.00000000 </i>
    <i name="Eion">      0.00000000 </i>
   </dipole>
   <energy>
    <i name="e_fr_energy">   -232.09062826 </i>
    <i name="e_wo_entrp">   -231.87673149 </i>
    <i name="e_0_energy">   -231.98367987 </i>
   </energy>
  </scstep>
  <scstep>
   <time name="diag">    1.54    1.56</time>
   <time name="diis">    3.86    3.93</time>
   <time name="orth">    0.43    0.43</time>
   <time name="total">    6.15    6.31</time>
   <dipole>
    <v name="dipole">      0.00000000       0.00000000       0.49320815 </v>
    <i name="Tr[quadrupol]"> -11293.17397873 </i>
    <i name="Echarged">      0.00000000 </i>
    <i name="Edipol_quadrupol">      0.00000000 </i>
    <i name="Eion">      0.00000000 </i>
   </dipole>
   <energy>
    <i name="e_fr_energy">   -232.09092035 </i>
    <i name="e_wo_entrp">   -231.87709512 </i>
    <i name="e_0_energy">   -231.98400773 </i>
   </energy>
  </scstep>
  <scstep>
   <time name="diag">    1.54    1.54</time>
   <time name="diis">    4.00    4.05</time>
   <time name="orth">    0.43    0.43</time>
   <time name="total">    6.27    6.35</time>
   <dipole>
    <v name="dipole">      0.00000000       0.00000000       0.49803772 </v>
    <i name="Tr[quadrupol]"> -11293.23590729 </i>
    <i name="Echarged">      0.00000000 </i>
    <i name="Edipol_quadrupol">      0.00000000 </i>
    <i name="Eion">      0.00000000 </i>
   </dipole>
   <energy>
    <i name="e_fr_energy">   -232.09134080 </i>
    <i name="e_wo_entrp">   -231.87748072 </i>
    <i name="e_0_energy">   -231.98441076 </i>
   </energy>
  </scstep>
  <scstep>
   <time name="diag">    1.55    1.56</time>
   <time name="diis">    3.94    3.95</time>
   <time name="orth">    0.43    0.43</time>
   <time name="total">    6.23    6.25</time>
   <dipole>
    <v name="dipole">      0.00000000       0.00000000       0.50284905 </v>
    <i name="Tr[quadrupol]"> -11293.29513576 </i>
    <i name="Echarged">      0.00000000 </i>
    <i name="Edipol_quadrupol">      0.00000000 </i>
    <i name="Eion">      0.00000000 </i>
   </dipole>
   <energy>
    <i name="e_fr_energy">   -232.09164347 </i>
    <i name="e_wo_entrp">   -231.87778565 </i>
    <i name="e_0_energy">   -231.98471456 </i>
   </energy>
  </scstep>
  <scstep>
   <time name="diag">    1.55    1.56</time>
   <time name="diis">    3.41    3.42</time>
   <time name="orth">    0.43    0.43</time>
   <time name="total">    5.70    5.76</time>
   <dipole>
    <v name="dipole">      0.00000000       0.00000000       0.50564254 </v>
    <i name="Tr[quadrupol]"> -11293.32718393 </i>
    <i name="Echarged">      0.00000000 </i>
    <i name="Edipol_quadrupol">      0.00000000 </i>
    <i name="Eion">      0.00000000 </i>
   </dipole>
   <energy>
    <i name="e_fr_energy">   -232.09175765 </i>
    <i name="e_wo_entrp">   -231.87787781 </i>
    <i name="e_0_energy">   -231.98481773 </i>
   </energy>
  </scstep>
  <scstep>
   <time name="diag">    1.54    1.55</time>
   <time name="diis">    2.95    2.96</time>
   <time name="orth">    0.43    0.43</time>
   <time name="total">    5.24    5.26</time>
   <dipole>
    <v name="dipole">      0.00000000       0.00000000       0.50765449 </v>
    <i name="Tr[quadrupol]"> -11293.34805543 </i>
    <i name="Echarged">      0.00000000 </i>
    <i name="Edipol_quadrupol">      0.00000000 </i>
    <i name="Eion">      0.00000000 </i>
   </dipole>
   <energy>
    <i name="e_fr_energy">   -232.09181247 </i>
    <i name="e_wo_entrp">   -231.87792440 </i>
    <i name="e_0_energy">   -231.98486843 </i>
   </energy>
  </scstep>
  <scstep>
   <time name="diag">    1.54    1.54</time>
   <time name="diis">    2.55    2.56</time>
   <time name="orth">    0.43    0.43</time>
   <time name="total">    4.82    4.84</time>
   <dipole>
    <v name="dipole">      0.00000000       0.00000000       0.50886723 </v>
    <i name="Tr[quadrupol]"> -11293.35805496 </i>
    <i name="Echarged">      0.00000000 </i>
    <i name="Edipol_quadrupol">      0.00000000 </i>
    <i name="Eion">      0.00000000 </i>
   </dipole>
   <energy>
    <i name="e_fr_energy">   -232.09184159 </i>
    <i name="e_wo_entrp">   -231.87794825 </i>
    <i name="e_0_energy">   -231.98489492 </i>
   </energy>
  </scstep>
  <scstep>
   <time name="diag">    1.55    1.55</time>
   <time name="diis">    2.57    2.57</time>
   <time name="orth">    0.43    0.43</time>
   <time name="total">    4.85    4.87</time>
   <dipole>
    <v name="dipole">      0.00000000       0.00000000       0.51097884 </v>
    <i name="Tr[quadrupol]"> -11293.37305834 </i>
    <i name="Echarged">      0.00000000 </i>
    <i name="Edipol_quadrupol">      0.00000000 </i>
    <i name="Eion">      0.00000000 </i>
   </dipole>
   <energy>
    <i name="e_fr_energy">   -232.09188537 </i>
    <i name="e_wo_entrp">   -231.87798104 </i>
    <i name="e_0_energy">   -231.98493320 </i>
   </energy>
  </scstep>
  <scstep>
   <time name="diag">    1.55    1.55</time>
   <time name="diis">    2.45    2.55</time>
   <time name="orth">    0.43    0.43</time>
   <time name="total">    4.73    4.84</time>
   <dipole>
    <v name="dipole">      0.00000000       0.00000000       0.51246614 </v>
    <i name="Tr[quadrupol]"> -11293.38229246 </i>
    <i name="Echarged">      0.00000000 </i>
    <i name="Edipol_quadrupol">      0.00000000 </i>
    <i name="Eion">      0.00000000 </i>
   </dipole>
   <energy>
    <i name="e_fr_energy">   -232.09190883 </i>
    <i name="e_wo_entrp">   -231.87800620 </i>
    <i name="e_0_energy">   -231.98495752 </i>
   </energy>
  </scstep>
  <scstep>
   <time name="diag">    1.55    1.55</time>
   <time name="diis">    2.36    2.37</time>
   <time name="orth">    0.43    0.43</time>
   <time name="total">    4.66    4.67</time>
   <dipole>
    <v name="dipole">      0.00000000       0.00000000       0.51355956 </v>
    <i name="Tr[quadrupol]"> -11293.38862070 </i>
    <i name="Echarged">      0.00000000 </i>
    <i name="Edipol_quadrupol">      0.00000000 </i>
    <i name="Eion">      0.00000000 </i>
   </dipole>
   <energy>
    <i name="e_fr_energy">   -232.09192355 </i>
    <i name="e_wo_entrp">   -231.87801712 </i>
    <i name="e_0_energy">   -231.98497033 </i>
   </energy>
  </scstep>
  <scstep>
   <time name="diag">    1.54    1.54</time>
   <time name="diis">    2.48    2.49</time>
   <time name="orth">    0.43    0.43</time>
   <time name="total">    4.75    4.77</time>
   <dipole>
    <v name="dipole">      0.00000000       0.00000000       0.51484422 </v>
    <i name="Tr[quadrupol]"> -11293.39548435 </i>
    <i name="Echarged">      0.00000000 </i>
    <i name="Edipol_quadrupol">      0.00000000 </i>
    <i name="Eion">      0.00000000 </i>
   </dipole>
   <energy>
    <i name="e_fr_energy">   -232.09193715 </i>
    <i name="e_wo_entrp">   -231.87803113 </i>
    <i name="e_0_energy">   -231.98498414 </i>
   </energy>
  </scstep>
  <scstep>
   <time name="diag">    1.54    1.55</time>
   <time name="diis">    2.04    2.04</time>
   <time name="orth">    0.43    0.43</time>
   <time name="total">    4.32    4.33</time>
   <dipole>
    <v name="dipole">      0.00000000       0.00000000       0.51562873 </v>
    <i name="Tr[quadrupol]"> -11293.39970441 </i>
    <i name="Echarged">      0.00000000 </i>
    <i name="Edipol_quadrupol">      0.00000000 </i>
    <i name="Eion">      0.00000000 </i>
   </dipole>
   <energy>
    <i name="e_fr_energy">   -232.09194283 </i>
    <i name="e_wo_entrp">   -231.87803416 </i>
    <i name="e_0_energy">   -231.98498850 </i>
   </energy>
  </scstep>
  <scstep>
   <time name="diag">    1.54    1.55</time>
   <time name="diis">    2.10    2.11</time>
   <time name="orth">    0.43    0.43</time>
   <time name="total">    4.37    4.40</time>
   <dipole>
    <v name="dipole">      0.00000000       0.00000000       0.51607419 </v>
    <i name="Tr[quadrupol]"> -11293.40208592 </i>
    <i name="Echarged">      0.00000000 </i>
    <i name="Edipol_quadrupol">      0.00000000 </i>
    <i name="Eion">      0.00000000 </i>
   </dipole>
   <energy>
    <i name="e_fr_energy">   -232.09194527 </i>
    <i name="e_wo_entrp">   -231.87803528 </i>
    <i name="e_0_energy">   -231.98499028 </i>
   </energy>
  </scstep>
  <scstep>
   <time name="diag">    1.55    1.55</time>
   <time name="diis">    1.90    1.90</time>
   <time name="orth">    0.43    0.43</time>
   <time name="total">    4.19    4.20</time>
   <dipole>
    <v name="dipole">      0.00000000       0.00000000       0.51629739 </v>
    <i name="Tr[quadrupol]"> -11293.40330207 </i>
    <i name="Echarged">      0.00000000 </i>
    <i name="Edipol_quadrupol">      0.00000000 </i>
    <i name="Eion">      0.00000000 </i>
   </dipole>
   <energy>
    <i name="e_fr_energy">   -232.09194692 </i>
    <i name="e_wo_entrp">   -231.87803490 </i>
    <i name="e_0_energy">   -231.98499091 </i>
   </energy>
  </scstep>
  <scstep>
   <time name="diag">    1.54    1.54</time>
   <time name="diis">    1.85    1.87</time>
   <time name="orth">    0.42    0.43</time>
   <time name="total">    4.11    4.16</time>
   <dipole>
    <v name="dipole">      0.00000000       0.00000000       0.51650821 </v>
    <i name="Tr[quadrupol]"> -11293.40445686 </i>
    <i name="Echarged">      0.00000000 </i>
    <i name="Edipol_quadrupol">      0.00000000 </i>
    <i name="Eion">      0.00000000 </i>
   </dipole>
   <energy>
    <i name="e_fr_energy">   -232.09194858 </i>
    <i name="e_wo_entrp">   -231.87803696 </i>
    <i name="e_0_energy">   -231.98499277 </i>
   </energy>
  </scstep>
  <scstep>
   <time name="diag">    1.54    1.55</time>
   <time name="diis">    1.72    1.73</time>
   <time name="orth">    0.43    0.43</time>
   <time name="total">    3.74    3.76</time>
   <dipole>
    <v name="dipole">      0.00000000       0.00000000       0.51661488 </v>
    <i name="Tr[quadrupol]"> -11293.40512359 </i>
    <i name="Echarged">      0.00000000 </i>
    <i name="Edipol_quadrupol">      0.00000000 </i>
    <i name="Eion">      0.00000000 </i>
   </dipole>
   <energy>
    <i name="alphaZ">    865.72505489 </i>
    <i name="ewald"> 225964.86675576 </i>
    <i name="hartreedc">-271263.27632644 </i>
    <i name="XCdc">   -130.94050629 </i>
    <i name="pawpsdc">  51765.53612424 </i>
    <i name="pawaedc"> -49853.32185144 </i>
    <i name="eentropy">     -0.21391170 </i>
    <i name="bandstr">  -2698.35872913 </i>
    <i name="atom">  45117.89144060 </i>
    <i name="e_fr_energy">   -232.09194950 </i>
    <i name="e_wo_entrp">   -231.87803780 </i>
    <i name="e_0_energy">   -231.98499365 </i>
   </energy>
  </scstep>
  <structure>
   <crystal>
    <varray name="basis" >
     <v>      11.00258152       0.00000000       0.00000000 </v>
     <v>       5.50129076       9.52851510       0.00000000 </v>
     <v>       0.00000000       0.00000000      26.19178509 </v>
    </varray>
    <i name="volume">   2745.90128299 </i>
    <varray name="rec_basis" >
     <v>       0.09088776      -0.05247407       0.00000000 </v>
     <v>       0.00000000       0.10494815       0.00000000 </v>
     <v>       0.00000000       0.00000000       0.03817991 </v>
    </varray>
   </crystal>
   <varray name="positions" >
    <v>       0.08333333       0.08333333       0.38179910 </v>
    <v>       0.33333333       0.83333333       0.38179910 </v>
    <v>       0.49762504       0.50499809       0.56089880 </v>
    <v>       0.66675454       0.66593087       0.47864441 </v>
    <v>       0.83333333       0.58333333       0.38179910 </v>
    <v>       0.08333333       0.33333333       0.38179910 </v>
    <v>       0.75851171       0.24792563       0.56225766 </v>
    <v>       0.00928330       0.24800562       0.56125354 </v>
    <v>       0.71775590       0.02132362       0.56291210 </v>
    <v>       0.67034866       0.16500840       0.47273672 </v>
    <v>       0.41858961       0.90886364       0.50891848 </v>
    <v>       0.91604896       0.91229113       0.47327892 </v>
    <v>       0.00353278       0.73940454       0.57097994 </v>
    <v>       0.58333333       0.58333333       0.38179910 </v>
    <v>       0.18485557       0.15892445       0.47508784 </v>
    <v>       0.41978242       0.41505470       0.47533024 </v>
    <v>       0.58333333       0.33333333       0.38179910 </v>
    <v>       0.33333333       0.33333333       0.38179910 </v>
    <v>       0.46774743       0.02961130       0.66694907 </v>
    <v>       0.43097145       0.15802504       0.49396689 </v>
    <v>       0.58333333       0.08333333       0.38179910 </v>
    <v>       0.16678172       0.66469840       0.47440603 </v>
    <v>       0.64850302       0.81192837       0.57027116 </v>
    <v>       0.17216028       0.91597416       0.47486197 </v>
    <v>       0.33014664       0.79471681       0.62600037 </v>
    <v>       0.07515035       0.07627966       0.61171426 </v>
    <v>       0.81185919       0.83856792       0.60885645 </v>
    <v>       0.88288268       0.53345277       0.61573924 </v>
    <v>       0.34908975       0.22698436       0.64328620 </v>
    <v>       0.56761999       0.84543930       0.69871857 </v>
    <v>       0.63981342       0.29018480       0.62726811 </v>
    <v>       0.59192312       0.56491440       0.61984409 </v>
    <v>       0.41849818       0.66918425       0.47267367 </v>
    <v>       0.51857835       0.74873368       0.65018145 </v>
    <v>       0.48639277       0.26472178       0.60923008 </v>
    <v>       0.58333333       0.83333333       0.38179910 </v>
    <v>       0.17226373       0.41116372       0.47650648 </v>
    <v>       0.25738456       0.23691201       0.57530411 </v>
    <v>       0.33333333       0.58333333       0.38179910 </v>
    <v>       0.25730887       0.49121883       0.56421463 </v>
    <v>       0.28269287       0.98960517       0.60627098 </v>
    <v>       0.25224953       0.74778609       0.56519824 </v>
    <v>       0.00979451       0.49474544       0.56093540 </v>
    <v>       0.91779737       0.66264759       0.47393489 </v>
    <v>       0.83333333       0.08333333       0.38179910 </v>
    <v>       0.08333333       0.58333333       0.38179910 </v>
    <v>       0.83333333       0.33333333       0.38179910 </v>
    <v>       0.67250966       0.41643865       0.47308656 </v>
    <v>       0.91975449       0.41381160       0.47422660 </v>
    <v>       0.00480168       0.98792605       0.56339454 </v>
    <v>       0.75339000       0.51070561       0.57225691 </v>
    <v>       0.92102138       0.16538873       0.47217186 </v>
    <v>       0.83333333       0.83333333       0.38179910 </v>
    <v>       0.66312214       0.91184103       0.47021517 </v>
    <v>       0.08333333       0.83333333       0.38179910 </v>
    <v>       0.33333333       0.08333333       0.38179910 </v>
   </varray>
  </structure>
  <varray name="forces" >
   <v>      -0.16645879       0.03475794      -0.31160461 </v>
   <v>       0.20408130       0.04069436      -0.14471707 </v>
   <v>      -0.02104010      -0.01926101       0.03204199 </v>
   <v>       0.00660382       0.01383019      -0.00424427 </v>
   <v>       0.09876777       0.15349380      -0.09102088 </v>
   <v>       0.08600201       0.06475782      -0.12235088 </v>
   <v>       0.03841815      -0.00817100      -0.03837772 </v>
   <v>      -0.02855535       0.00869961       0.01856592 </v>
   <v>       0.02827141      -0.01503546      -0.02101413 </v>
   <v>       0.01632626      -0.01544498       0.01320854 </v>
   <v>      -0.00996350       0.02847033      -0.02888866 </v>
   <v>      -0.03002689       0.03288933      -0.00565702 </v>
   <v>       0.01709048       0.01553714       0.00320817 </v>
   <v>       0.05592919       0.10047657      -0.16385169 </v>
   <v>      -0.03419365       0.01303178       0.00871006 </v>
   <v>      -0.03135325       0.02397501       0.01488516 </v>
   <v>       0.21200456       0.01435120      -0.39881112 </v>
   <v>      -0.19079973       0.07987826      -0.13417305 </v>
   <v>      -0.02001942       0.02055589       0.09673544 </v>
   <v>      -0.02835188       0.00692163      -0.05612709 </v>
   <v>      -0.29728669      -0.34554873      -0.25167126 </v>
   <v>       0.03577198      -0.02642526       0.02778701 </v>
   <v>      -0.02008751       0.03586049       0.02832562 </v>
   <v>      -0.01179644      -0.02443840       0.03316278 </v>
   <v>      -0.05941309       0.09219176       0.06593303 </v>
   <v>      -0.00831527       0.00745037       0.04674434 </v>
   <v>       0.04327223       0.00679844      -0.00906779 </v>
   <v>       0.02682096       0.02150297       0.01497860 </v>
   <v>       0.00706612      -0.00109118      -0.14447303 </v>
   <v>      -0.06044101      -0.00983135      -0.05002609 </v>
   <v>      -0.03407112      -0.01203552       0.05058746 </v>
   <v>       0.00012374      -0.07664518       0.01659805 </v>
   <v>       0.01395281       0.01803215       0.00958086 </v>
   <v>       0.11560529       0.07005341       0.04721268 </v>
   <v>       0.00595138       0.02640067       0.02067107 </v>
   <v>      -0.03787959       0.09518894       0.26817669 </v>
   <v>      -0.03562043      -0.01217746       0.00156564 </v>
   <v>       0.07397830      -0.02204321       0.00781298 </v>
   <v>      -0.23309958       0.11347752       0.14856614 </v>
   <v>      -0.01839623       0.00226744      -0.00067316 </v>
   <v>       0.03215040      -0.04754000      -0.05149851 </v>
   <v>      -0.08276735      -0.04297266      -0.06794394 </v>
   <v>      -0.00204822      -0.00536441       0.03689496 </v>
   <v>      -0.03014245       0.01184580      -0.01057552 </v>
   <v>       0.16076781      -0.08917055       0.02491030 </v>
   <v>       0.16593497       0.16943687       0.26961314 </v>
   <v>       0.01033966      -0.12027015       0.21028025 </v>
   <v>       0.00413386       0.00420413       0.03643672 </v>
   <v>       0.00657786      -0.01389908      -0.00784473 </v>
   <v>      -0.03675024      -0.02177242      -0.03218664 </v>
   <v>      -0.00929203      -0.00052651      -0.05013377 </v>
   <v>      -0.02274541       0.00606259       0.04587046 </v>
   <v>       0.16950180      -0.10162123       0.11634050 </v>
   <v>      -0.01362767       0.00823113       0.00480894 </v>
   <v>      -0.22280757      -0.15452808       0.12828021 </v>
   <v>       0.16190636      -0.15551169       0.34843893 </v>
  </varray>
  <energy>
   <i name="e_fr_energy">   -232.09194950 </i>
   <i name="e_wo_entrp">   -231.98499365 </i>
   <i name="e_0_energy">     -0.21391170 </i>
  </energy>
  <time name="totalsc">  265.69  267.28</time>
 </calculation>
 <calculation>
  <scstep>
   <time name="dav">    8.89    8.99</time>
   <time name="total">    9.20    9.31</time>
   <dipole>
    <v name="dipole">      0.00000000       0.00000000       0.51668028 </v>
    <i name="Tr[quadrupol]"> -11292.48221906 </i>
    <i name="Echarged">      0.00000000 </i>
    <i name="Edipol_quadrupol">      0.00000000 </i>
    <i name="Eion">      0.00000000 </i>
   </dipole>
   <energy>
    <i name="alphaZ">    865.72408046 </i>
    <i name="ewald"> 225961.30177202 </i>
    <i name="hartreedc">-271259.75073736 </i>
    <i name="XCdc">   -130.94453999 </i>
    <i name="pawpsdc">  51765.53665950 </i>
    <i name="pawaedc"> -49853.32236731 </i>
    <i name="eentropy">     -0.21428452 </i>
    <i name="bandstr">  -2698.31551430 </i>
    <i name="atom">  45117.89144060 </i>
    <i name="e_fr_energy">   -232.09349089 </i>
    <i name="e_wo_entrp">   -231.87920637 </i>
    <i name="e_0_energy">   -231.98634863 </i>
   </energy>
  </scstep>
  <scstep>
   <time name="diag">    1.55    1.55</time>
   <time name="diis">    4.04    4.05</time>
   <time name="orth">    0.43    0.43</time>
   <time name="total">    6.32    6.35</time>
   <dipole>
    <v name="dipole">      0.00000000       0.00000000       0.51447107 </v>
    <i name="Tr[quadrupol]"> -11292.50480320 </i>
    <i name="Echarged">      0.00000000 </i>
    <i name="Edipol_quadrupol">      0.00000000 </i>
    <i name="Eion">      0.00000000 </i>
   </dipole>
   <energy>
    <i name="e_fr_energy">   -232.09666560 </i>
    <i name="e_wo_entrp">   -231.88323669 </i>
    <i name="e_0_energy">   -231.98995114 </i>
   </energy>
  </scstep>
  <scstep>
   <time name="diag">    1.54    1.55</time>
   <time name="diis">    4.16    4.17</time>
   <time name="orth">    0.43    0.43</time>
   <time name="total">    6.45    6.47</time>
   <dipole>
    <v name="dipole">      0.00000000       0.00000000       0.51643542 </v>
    <i name="Tr[quadrupol]"> -11292.48889923 </i>
    <i name="Echarged">      0.00000000 </i>
    <i name="Edipol_quadrupol">      0.00000000 </i>
    <i name="Eion">      0.00000000 </i>
   </dipole>
   <energy>
    <i name="e_fr_energy">   -232.09576462 </i>
    <i name="e_wo_entrp">   -231.88152480 </i>
    <i name="e_0_energy">   -231.98864471 </i>
   </energy>
  </scstep>
  <scstep>
   <time name="diag">    1.55    1.55</time>
   <time name="diis">    4.11    4.13</time>
   <time name="orth">    0.43    0.43</time>
   <time name="total">    6.39    6.41</time>
   <dipole>
    <v name="dipole">      0.00000000       0.00000000       0.51224868 </v>
    <i name="Tr[quadrupol]"> -11292.50208864 </i>
    <i name="Echarged">      0.00000000 </i>
    <i name="Edipol_quadrupol">      0.00000000 </i>
    <i name="Eion">      0.00000000 </i>
   </dipole>
   <energy>
    <i name="e_fr_energy">   -232.09603748 </i>
    <i name="e_wo_entrp">   -231.88191505 </i>
    <i name="e_0_energy">   -231.98897626 </i>
   </energy>
  </scstep>
  <scstep>
   <time name="diag">    1.55    1.55</time>
   <time name="diis">    4.11    4.12</time>
   <time name="orth">    0.43    0.43</time>
   <time name="total">    6.39    6.41</time>
   <dipole>
    <v name="dipole">      0.00000000       0.00000000       0.52094197 </v>
    <i name="Tr[quadrupol]"> -11292.50481832 </i>
    <i name="Echarged">      0.00000000 </i>
    <i name="Edipol_quadrupol">      0.00000000 </i>
    <i name="Eion">      0.00000000 </i>
   </dipole>
   <energy>
    <i name="e_fr_energy">   -232.09622767 </i>
    <i name="e_wo_entrp">   -231.88329700 </i>
    <i name="e_0_energy">   -231.98976233 </i>
   </energy>
  </scstep>
  <scstep>
   <time name="diag">    1.55    1.56</time>
   <time name="diis">    4.07    4.08</time>
   <time name="orth">    0.43    0.43</time>
   <time name="total">    6.35    6.37</time>
   <dipole>
    <v name="dipole">      0.00000000       0.00000000       0.51145052 </v>
    <i name="Tr[quadrupol]"> -11292.50224412 </i>
    <i name="Echarged">      0.00000000 </i>
    <i name="Edipol_quadrupol">      0.00000000 </i>
    <i name="Eion">      0.00000000 </i>
   </dipole>
   <energy>
    <i name="e_fr_energy">   -232.09588698 </i>
    <i name="e_wo_entrp">   -231.88143762 </i>
    <i name="e_0_energy">   -231.98866230 </i>
   </energy>
  </scstep>
  <scstep>
   <time name="diag">    1.54    1.55</time>
   <time name="diis">    4.00    4.10</time>
   <time name="orth">    0.43    0.43</time>
   <time name="total">    6.29    6.39</time>
   <dipole>
    <v name="dipole">      0.00000000       0.00000000       0.51540119 </v>
    <i name="Tr[quadrupol]"> -11292.50545472 </i>
    <i name="Echarged">      0.00000000 </i>
    <i name="Edipol_quadrupol">      0.00000000 </i>
    <i name="Eion">      0.00000000 </i>
   </dipole>
   <energy>
    <i name="e_fr_energy">   -232.09566033 </i>
    <i name="e_wo_entrp">   -231.88168337 </i>
    <i name="e_0_energy">   -231.98867185 </i>
   </energy>
  </scstep>
  <scstep>
   <time name="diag">    1.54    1.54</time>
   <time name="diis">    4.09    4.13</time>
   <time name="orth">    0.43    0.43</time>
   <time name="total">    6.35    6.41</time>
   <dipole>
    <v name="dipole">      0.00000000       0.00000000       0.51493831 </v>
    <i name="Tr[quadrupol]"> -11292.50545765 </i>
    <i name="Echarged">      0.00000000 </i>
    <i name="Edipol_quadrupol">      0.00000000 </i>
    <i name="Eion">      0.00000000 </i>
   </dipole>
   <energy>
    <i name="e_fr_energy">   -232.09563866 </i>
    <i name="e_wo_entrp">   -231.88166506 </i>
    <i name="e_0_energy">   -231.98865186 </i>
   </energy>
  </scstep>
  <scstep>
   <time name="diag">    1.56    1.56</time>
   <time name="diis">    3.80    3.81</time>
   <time name="orth">    0.43    0.43</time>
   <time name="total">    6.09    6.12</time>
   <dipole>
    <v name="dipole">      0.00000000       0.00000000       0.51494295 </v>
    <i name="Tr[quadrupol]"> -11292.50535688 </i>
    <i name="Echarged">      0.00000000 </i>
    <i name="Edipol_quadrupol">      0.00000000 </i>
    <i name="Eion">      0.00000000 </i>
   </dipole>
   <energy>
    <i name="e_fr_energy">   -232.09563515 </i>
    <i name="e_wo_entrp">   -231.88157477 </i>
    <i name="e_0_energy">   -231.98860496 </i>
   </energy>
  </scstep>
  <scstep>
   <time name="diag">    1.55    1.56</time>
   <time name="diis">    2.53    2.54</time>
   <time name="orth">    0.43    0.43</time>
   <time name="total">    4.56    4.58</time>
   <dipole>
    <v name="dipole">      0.00000000       0.00000000       0.51480734 </v>
    <i name="Tr[quadrupol]"> -11292.50610996 </i>
    <i name="Echarged">      0.00000000 </i>
    <i name="Edipol_quadrupol">      0.00000000 </i>
    <i name="Eion">      0.00000000 </i>
   </dipole>
   <energy>
    <i name="alphaZ">    865.71270234 </i>
    <i name="ewald"> 225961.30177202 </i>
    <i name="hartreedc">-271260.22261596 </i>
    <i name="XCdc">   -130.94745135 </i>
    <i name="pawpsdc">  51764.12138903 </i>
    <i name="pawaedc"> -49851.91269318 </i>
    <i name="eentropy">     -0.21401151 </i>
    <i name="bandstr">  -2697.82616694 </i>
    <i name="atom">  45117.89144060 </i>
    <i name="e_fr_energy">   -232.09563496 </i>
    <i name="e_wo_entrp">   -231.88162345 </i>
    <i name="e_0_energy">   -231.98862921 </i>
   </energy>
  </scstep>
  <structure>
   <crystal>
    <varray name="basis" >
     <v>      11.00258152       0.00000000       0.00000000 </v>
     <v>       5.50129076       9.52851510       0.00000000 </v>
     <v>       0.00000000       0.00000000      26.19178509 </v>
    </varray>
    <i name="volume">   2745.90128299 </i>
    <varray name="rec_basis" >
     <v>       0.09088776      -0.05247407       0.00000000 </v>
     <v>       0.00000000       0.10494815       0.00000000 </v>
     <v>       0.00000000       0.00000000       0.03817991 </v>
    </varray>
   </crystal>
   <varray name="positions" >
    <v>       0.08333333       0.08333333       0.38179910 </v>
    <v>       0.33333333       0.83333333       0.38179910 </v>
    <v>       0.49759460       0.50492983       0.56094012 </v>
    <v>       0.66675030       0.66597988       0.47863894 </v>
    <v>       0.83333333       0.58333333       0.38179910 </v>
    <v>       0.08333333       0.33333333       0.38179910 </v>
    <v>       0.75864411       0.24789668       0.56220818 </v>
    <v>       0.00918024       0.24803645       0.56127748 </v>
    <v>       0.71786931       0.02127034       0.56288500 </v>
    <v>       0.67042613       0.16495366       0.47275375 </v>
    <v>       0.41850858       0.90896454       0.50888123 </v>
    <v>       0.91589852       0.91240769       0.47327162 </v>
    <v>       0.00355770       0.73945961       0.57098407 </v>
    <v>       0.58333333       0.58333333       0.38179910 </v>
    <v>       0.18472752       0.15897063       0.47509907 </v>
    <v>       0.41964370       0.41513967       0.47534943 </v>
    <v>       0.58333333       0.33333333       0.38179910 </v>
    <v>       0.33333333       0.33333333       0.38179910 </v>
    <v>       0.46764955       0.02968416       0.66707380 </v>
    <v>       0.43087216       0.15804957       0.49389453 </v>
    <v>       0.58333333       0.08333333       0.38179910 </v>
    <v>       0.16693834       0.66460475       0.47444186 </v>
    <v>       0.64837782       0.81205546       0.57030768 </v>
    <v>       0.17216738       0.91588754       0.47490473 </v>
    <v>       0.32980091       0.79504354       0.62608538 </v>
    <v>       0.07511163       0.07630607       0.61177453 </v>
    <v>       0.81197996       0.83859201       0.60884476 </v>
    <v>       0.88292689       0.53352898       0.61575855 </v>
    <v>       0.34911337       0.22698049       0.64309993 </v>
    <v>       0.56745190       0.84540446       0.69865407 </v>
    <v>       0.63973017       0.29014214       0.62733334 </v>
    <v>       0.59205932       0.56464277       0.61986549 </v>
    <v>       0.41850905       0.66924816       0.47268603 </v>
    <v>       0.51880903       0.74898196       0.65024232 </v>
    <v>       0.48636425       0.26481535       0.60925673 </v>
    <v>       0.58333333       0.83333333       0.38179910 </v>
    <v>       0.17217598       0.41112056       0.47650849 </v>
    <v>       0.25765068       0.23683389       0.57531419 </v>
    <v>       0.33333333       0.58333333       0.38179910 </v>
    <v>       0.25724839       0.49122687       0.56421376 </v>
    <v>       0.28287579       0.98943668       0.60620458 </v>
    <v>       0.25207165       0.74763379       0.56511064 </v>
    <v>       0.00979773       0.49472643       0.56098297 </v>
    <v>       0.91768387       0.66268957       0.47392125 </v>
    <v>       0.83333333       0.08333333       0.38179910 </v>
    <v>       0.08333333       0.58333333       0.38179910 </v>
    <v>       0.83333333       0.33333333       0.38179910 </v>
    <v>       0.67251490       0.41645355       0.47313353 </v>
    <v>       0.91979931       0.41376234       0.47421648 </v>
    <v>       0.00472746       0.98784889       0.56335304 </v>
    <v>       0.75336242       0.51070374       0.57219227 </v>
    <v>       0.92094083       0.16541022       0.47223101 </v>
    <v>       0.83333333       0.83333333       0.38179910 </v>
    <v>       0.66306572       0.91187020       0.47022137 </v>
    <v>       0.08333333       0.83333333       0.38179910 </v>
    <v>       0.33333333       0.08333333       0.38179910 </v>
   </varray>
  </structure>
  <varray name="forces" >
   <v>      -0.16855931       0.03405926      -0.30589949 </v>
   <v>       0.20257611       0.04164484      -0.14325740 </v>
   <v>      -0.01592579      -0.01146630       0.03370006 </v>
   <v>       0.00293592       0.01144869      -0.00396566 </v>
   <v>       0.09824937       0.15269253      -0.09198676 </v>
   <v>       0.08555394       0.06429438      -0.12410456 </v>
   <v>       0.00996980       0.00016999      -0.00019933 </v>
   <v>      -0.00329042      -0.00291067       0.02918349 </v>
   <v>       0.02310735      -0.00845966      -0.01676254 </v>
   <v>      -0.00247556       0.00406225       0.00848016 </v>
   <v>      -0.00417207       0.02373577      -0.02736463 </v>
   <v>      -0.01887860       0.00800511      -0.01083835 </v>
   <v>       0.00626211       0.00358867       0.00215351 </v>
   <v>       0.05537540       0.09878627      -0.16180937 </v>
   <v>      -0.03870581       0.00757802       0.00911677 </v>
   <v>      -0.01674820       0.00917446       0.01164945 </v>
   <v>       0.21230161       0.01468993      -0.39371492 </v>
   <v>      -0.19037201       0.08029774      -0.13342139 </v>
   <v>      -0.01615233       0.06756939       0.05224288 </v>
   <v>      -0.02085850       0.00919289      -0.06052725 </v>
   <v>      -0.29652092      -0.34463212      -0.25082244 </v>
   <v>       0.00945568      -0.01283879       0.01507426 </v>
   <v>      -0.02135828       0.03544031       0.02241522 </v>
   <v>      -0.01396738      -0.01261899       0.02298317 </v>
   <v>      -0.02730178       0.05158583       0.04026862 </v>
   <v>      -0.00257564      -0.00545331       0.02010642 </v>
   <v>       0.03487584       0.00734212      -0.00545234 </v>
   <v>      -0.00208239       0.02028012       0.00694848 </v>
   <v>       0.00163324      -0.02207632      -0.06928041 </v>
   <v>       0.00189162       0.02164774       0.04399094 </v>
   <v>      -0.01408376      -0.01636073       0.02683761 </v>
   <v>       0.01088777      -0.00685744       0.02484312 </v>
   <v>       0.01853571       0.00613855       0.00817670 </v>
   <v>      -0.01935428      -0.05123615      -0.06277126 </v>
   <v>       0.03186214       0.02390699       0.00871444 </v>
   <v>      -0.03818158       0.09523202       0.26828064 </v>
   <v>      -0.02940012      -0.00495023       0.00359071 </v>
   <v>       0.03436917      -0.01926805      -0.03568406 </v>
   <v>      -0.23306617       0.11364682       0.14935002 </v>
   <v>      -0.01904261      -0.00317053       0.00218108 </v>
   <v>       0.00679171      -0.02668904      -0.04559129 </v>
   <v>      -0.03426519      -0.01893162      -0.01385445 </v>
   <v>       0.00804775      -0.00537286       0.02283832 </v>
   <v>      -0.01329057       0.00627166      -0.00664291 </v>
   <v>       0.16166672      -0.08803830       0.02437794 </v>
   <v>       0.16699779       0.17040569       0.27230668 </v>
   <v>       0.00915535      -0.12071890       0.21320723 </v>
   <v>      -0.00036661       0.00753580       0.02958080 </v>
   <v>       0.00105134      -0.00668558      -0.00313470 </v>
   <v>      -0.01681384      -0.00565872      -0.01047303 </v>
   <v>       0.00236292       0.00530194      -0.02677138 </v>
   <v>      -0.01238886       0.00169352       0.02868955 </v>
   <v>       0.16972468      -0.10138798       0.11647171 </v>
   <v>      -0.01375556       0.00859711       0.00413302 </v>
   <v>      -0.22322472      -0.15501600       0.13209926 </v>
   <v>       0.16153782      -0.15521813       0.35033767 </v>
  </varray>
  <energy>
   <i name="e_fr_energy">   -232.09563496 </i>
   <i name="e_wo_entrp">   -231.98862921 </i>
   <i name="e_0_energy">     -0.21401151 </i>
  </energy>
  <time name="totalsc">   67.29   67.74</time>
 </calculation>
 <calculation>
  <scstep>
   <time name="dav">    8.80    8.82</time>
   <time name="total">    9.10    9.13</time>
   <dipole>
    <v name="dipole">      0.00000000       0.00000000       0.51476030 </v>
    <i name="Tr[quadrupol]"> -11291.97555876 </i>
    <i name="Echarged">      0.00000000 </i>
    <i name="Edipol_quadrupol">      0.00000000 </i>
    <i name="Eion">      0.00000000 </i>
   </dipole>
   <energy>
    <i name="alphaZ">    865.71162872 </i>
    <i name="ewald"> 225959.26381777 </i>
    <i name="hartreedc">-271258.21433705 </i>
    <i name="XCdc">   -130.94930410 </i>
    <i name="pawpsdc">  51764.10925073 </i>
    <i name="pawaedc"> -49851.90071069 </i>
    <i name="eentropy">     -0.21427682 </i>
    <i name="bandstr">  -2697.79304217 </i>
    <i name="atom">  45117.89144060 </i>
    <i name="e_fr_energy">   -232.09553301 </i>
    <i name="e_wo_entrp">   -231.88125619 </i>
    <i name="e_0_energy">   -231.98839460 </i>
   </energy>
  </scstep>
  <scstep>
   <time name="diag">    1.54    1.54</time>
   <time name="diis">    4.04    4.05</time>
   <time name="orth">    0.43    0.43</time>
   <time name="total">    6.32    6.34</time>
   <dipole>
    <v name="dipole">      0.00000000       0.00000000       0.51340480 </v>
    <i name="Tr[quadrupol]"> -11291.98876285 </i>
    <i name="Echarged">      0.00000000 </i>
    <i name="Edipol_quadrupol">      0.00000000 </i>
    <i name="Eion">      0.00000000 </i>
   </dipole>
   <energy>
    <i name="e_fr_energy">   -232.09659940 </i>
    <i name="e_wo_entrp">   -231.88292991 </i>
    <i name="e_0_energy">   -231.98976466 </i>
   </energy>
  </scstep>
  <scstep>
   <time name="diag">    1.54    1.55</time>
   <time name="diis">    4.02    4.12</time>
   <time name="orth">    0.43    0.43</time>
   <time name="total">    6.29    6.40</time>
   <dipole>
    <v name="dipole">      0.00000000       0.00000000       0.51454183 </v>
    <i name="Tr[quadrupol]"> -11291.98040382 </i>
    <i name="Echarged">      0.00000000 </i>
    <i name="Edipol_quadrupol">      0.00000000 </i>
    <i name="Eion">      0.00000000 </i>
   </dipole>
   <energy>
    <i name="e_fr_energy">   -232.09628483 </i>
    <i name="e_wo_entrp">   -231.88202261 </i>
    <i name="e_0_energy">   -231.98915372 </i>
   </energy>
  </scstep>
  <scstep>
   <time name="diag">    1.55    1.55</time>
   <time name="diis">    4.13    4.14</time>
   <time name="orth">    0.43    0.43</time>
   <time name="total">    6.40    6.43</time>
   <dipole>
    <v name="dipole">      0.00000000       0.00000000       0.51187317 </v>
    <i name="Tr[quadrupol]"> -11291.98759530 </i>
    <i name="Echarged">      0.00000000 </i>
    <i name="Edipol_quadrupol">      0.00000000 </i>
    <i name="Eion">      0.00000000 </i>
   </dipole>
   <energy>
    <i name="e_fr_energy">   -232.09639288 </i>
    <i name="e_wo_entrp">   -231.88228030 </i>
    <i name="e_0_energy">   -231.98933659 </i>
   </energy>
  </scstep>
  <scstep>
   <time name="diag">    1.54    1.55</time>
   <time name="diis">    4.10    4.11</time>
   <time name="orth">    0.42    0.43</time>
   <time name="total">    6.37    6.39</time>
   <dipole>
    <v name="dipole">      0.00000000       0.00000000       0.51713905 </v>
    <i name="Tr[quadrupol]"> -11291.99007792 </i>
    <i name="Echarged">      0.00000000 </i>
[...]
       <r>   -19.3013     5.9825    10.2753 </r>
       <r>   -19.2077    11.4737    11.3486 </r>
       <r>   -19.1142    17.8537    13.0188 </r>
       <r>   -19.0206    20.7024    14.9555 </r>
       <r>   -18.9271     9.8577    15.8776 </r>
       <r>   -18.8335     1.2705    15.9965 </r>
       <r>   -18.7400     0.0375    16.0000 </r>
       <r>   -18.6464     0.0002    16.0000 </r>
       <r>   -18.5529     0.0000    16.0000 </r>
       <r>   -18.4594     0.0000    16.0000 </r>
       <r>   -18.3658     0.0000    16.0000 </r>
       <r>   -18.2723     0.0000    16.0000 </r>
       <r>   -18.1787     0.0000    16.0000 </r>
       <r>   -18.0852     0.0000    16.0000 </r>
       <r>   -17.9916     0.0000    16.0000 </r>
       <r>   -17.8981     0.0000    16.0000 </r>
       <r>   -17.8045     0.0000    16.0000 </r>
       <r>   -17.7110     0.0000    16.0000 </r>
       <r>   -17.6174     0.0000    16.0000 </r>
       <r>   -17.5239     0.0000    16.0000 </r>
       <r>   -17.4303     0.0000    16.0000 </r>
       <r>   -17.3368     0.0000    16.0000 </r>
       <r>   -17.2432     0.0000    16.0000 </r>
       <r>   -17.1497     0.0000    16.0000 </r>
       <r>   -17.0561     0.0000    16.0000 </r>
       <r>   -16.9626     0.0000    16.0000 </r>
       <r>   -16.8690     0.0000    16.0000 </r>
       <r>   -16.7755     0.0000    16.0000 </r>
       <r>   -16.6819     0.0000    16.0000 </r>
       <r>   -16.5884     0.0000    16.0000 </r>
       <r>   -16.4948     0.0000    16.0000 </r>
       <r>   -16.4013     0.0000    16.0000 </r>
       <r>   -16.3077     0.0000    16.0000 </r>
       <r>   -16.2142     0.0000    16.0000 </r>
       <r>   -16.1206     0.0000    16.0000 </r>
       <r>   -16.0271     0.0000    16.0000 </r>
       <r>   -15.9336     0.0000    16.0000 </r>
       <r>   -15.8400     0.0000    16.0000 </r>
       <r>   -15.7465     0.0000    16.0000 </r>
       <r>   -15.6529     0.0000    16.0000 </r>
       <r>   -15.5594     0.0000    16.0000 </r>
       <r>   -15.4658     0.0000    16.0000 </r>
       <r>   -15.3723     0.0000    16.0000 </r>
       <r>   -15.2787     0.0000    16.0000 </r>
       <r>   -15.1852     0.0000    16.0000 </r>
       <r>   -15.0916     0.0000    16.0000 </r>
       <r>   -14.9981     0.0000    16.0000 </r>
       <r>   -14.9045     0.0000    16.0000 </r>
       <r>   -14.8110     0.0000    16.0000 </r>
       <r>   -14.7174     0.0000    16.0000 </r>
       <r>   -14.6239     0.0000    16.0000 </r>
       <r>   -14.5303     0.0000    16.0000 </r>
       <r>   -14.4368     0.0000    16.0000 </r>
       <r>   -14.3432     0.0000    16.0000 </r>
       <r>   -14.2497     0.0000    16.0000 </r>
       <r>   -14.1561     0.0000    16.0000 </r>
       <r>   -14.0626     0.0000    16.0000 </r>
       <r>   -13.9690     0.0000    16.0000 </r>
       <r>   -13.8755     0.0000    16.0000 </r>
       <r>   -13.7819     0.0000    16.0000 </r>
       <r>   -13.6884     0.0000    16.0000 </r>
       <r>   -13.5948     0.0000    16.0000 </r>
       <r>   -13.5013     0.0000    16.0000 </r>
       <r>   -13.4077     0.0000    16.0000 </r>
       <r>   -13.3142     0.0000    16.0000 </r>
       <r>   -13.2207     0.0000    16.0000 </r>
       <r>   -13.1271     0.0000    16.0000 </r>
       <r>   -13.0336     0.0000    16.0000 </r>
       <r>   -12.9400     0.0000    16.0000 </r>
       <r>   -12.8465     0.0000    16.0000 </r>
       <r>   -12.7529     0.0000    16.0000 </r>
       <r>   -12.6594     0.0000    16.0000 </r>
       <r>   -12.5658     0.0000    16.0000 </r>
       <r>   -12.4723     0.0000    16.0000 </r>
       <r>   -12.3787     0.0000    16.0000 </r>
       <r>   -12.2852     0.0000    16.0000 </r>
       <r>   -12.1916     0.0000    16.0000 </r>
       <r>   -12.0981     0.0000    16.0000 </r>
       <r>   -12.0045     0.0000    16.0000 </r>
       <r>   -11.9110     0.0000    16.0000 </r>
       <r>   -11.8174     0.0000    16.0000 </r>
       <r>   -11.7239     0.0000    16.0000 </r>
       <r>   -11.6303     0.0000    16.0000 </r>
       <r>   -11.5368     0.0000    16.0000 </r>
       <r>   -11.4432     0.0000    16.0000 </r>
       <r>   -11.3497     0.0000    16.0000 </r>
       <r>   -11.2561     0.0000    16.0000 </r>
       <r>   -11.1626     0.0000    16.0000 </r>
       <r>   -11.0690     0.0000    16.0000 </r>
       <r>   -10.9755     0.0000    16.0000 </r>
       <r>   -10.8819     0.0000    16.0000 </r>
       <r>   -10.7884     0.0000    16.0000 </r>
       <r>   -10.6949     0.0000    16.0000 </r>
       <r>   -10.6013     0.0000    16.0000 </r>
       <r>   -10.5078     0.0000    16.0000 </r>
       <r>   -10.4142     0.0000    16.0000 </r>
       <r>   -10.3207     0.0000    16.0000 </r>
       <r>   -10.2271     0.0000    16.0000 </r>
       <r>   -10.1336     0.0000    16.0000 </r>
       <r>   -10.0400     0.0000    16.0000 </r>
       <r>    -9.9465     0.0000    16.0000 </r>
       <r>    -9.8529     0.0000    16.0000 </r>
       <r>    -9.7594     0.0000    16.0000 </r>
       <r>    -9.6658     0.0000    16.0000 </r>
       <r>    -9.5723     0.0000    16.0000 </r>
       <r>    -9.4787     0.0000    16.0000 </r>
       <r>    -9.3852     0.0043    16.0004 </r>
       <r>    -9.2916     0.2236    16.0213 </r>
       <r>    -9.1981     2.3468    16.2409 </r>
       <r>    -9.1045     5.4291    16.7487 </r>
       <r>    -9.0110     4.6624    17.1849 </r>
       <r>    -8.9174     5.4692    17.6965 </r>
       <r>    -8.8239     2.9092    17.9687 </r>
       <r>    -8.7303     0.8812    18.0511 </r>
       <r>    -8.6368     3.1862    18.3492 </r>
       <r>    -8.5432     5.2434    18.8397 </r>
       <r>    -8.4497     5.7758    19.3800 </r>
       <r>    -8.3561    11.4356    20.4498 </r>
       <r>    -8.2626    14.0234    21.7617 </r>
       <r>    -8.1691    10.4131    22.7358 </r>
       <r>    -8.0755    10.2864    23.6981 </r>
       <r>    -7.9820    14.8301    25.0854 </r>
       <r>    -7.8884    17.4533    26.7181 </r>
       <r>    -7.7949    21.1879    28.7002 </r>
       <r>    -7.7013    28.3974    31.3567 </r>
       <r>    -7.6078    29.3808    34.1052 </r>
       <r>    -7.5142    29.6503    36.8790 </r>
       <r>    -7.4207    34.9333    40.1469 </r>
       <r>    -7.3271    43.4850    44.2149 </r>
       <r>    -7.2336    48.7485    48.7752 </r>
       <r>    -7.1400    52.9252    53.7263 </r>
       <r>    -7.0465    56.8446    59.0440 </r>
       <r>    -6.9529    59.8840    64.6460 </r>
       <r>    -6.8594    64.1505    70.6472 </r>
       <r>    -6.7658    71.5550    77.3410 </r>
       <r>    -6.6723    74.4678    84.3073 </r>
       <r>    -6.5787    75.3888    91.3598 </r>
       <r>    -6.4852    76.6462    98.5299 </r>
       <r>    -6.3916    79.1989   105.9389 </r>
       <r>    -6.2981    82.7451   113.6795 </r>
       <r>    -6.2045    83.1250   121.4557 </r>
       <r>    -6.1110    82.5764   129.1806 </r>
       <r>    -6.0174    81.0026   136.7582 </r>
       <r>    -5.9239    79.6586   144.2101 </r>
       <r>    -5.8303    78.7886   151.5807 </r>
       <r>    -5.7368    80.3678   159.0989 </r>
       <r>    -5.6432    81.8442   166.7553 </r>
       <r>    -5.5497    86.0866   174.8086 </r>
       <r>    -5.4562    86.8202   182.9304 </r>
       <r>    -5.3626    86.2527   190.9992 </r>
       <r>    -5.2691    88.5226   199.2804 </r>
       <r>    -5.1755    90.0557   207.7049 </r>
       <r>    -5.0820    85.8854   215.7393 </r>
       <r>    -4.9884    83.1924   223.5218 </r>
       <r>    -4.8949    84.9757   231.4711 </r>
       <r>    -4.8013    84.0493   239.3338 </r>
       <r>    -4.7078    86.5254   247.4281 </r>
       <r>    -4.6142    92.0870   256.0427 </r>
       <r>    -4.5207    94.7080   264.9024 </r>
       <r>    -4.4271    98.1372   274.0830 </r>
       <r>    -4.3336   101.0422   283.5353 </r>
       <r>    -4.2400    96.1170   292.5269 </r>
       <r>    -4.1465    89.6506   300.9135 </r>
       <r>    -4.0529    87.8634   309.1330 </r>
       <r>    -3.9594    92.0886   317.7477 </r>
       <r>    -3.8658    95.3132   326.6641 </r>
       <r>    -3.7723    97.3483   335.7709 </r>
       <r>    -3.6787    98.8523   345.0183 </r>
       <r>    -3.5852    97.4126   354.1311 </r>
       <r>    -3.4916    94.1987   362.9432 </r>
       <r>    -3.3981    93.1073   371.6532 </r>
       <r>    -3.3045    91.9515   380.2551 </r>
       <r>    -3.2110    96.0176   389.2374 </r>
       <r>    -3.1174    96.1402   398.2311 </r>
       <r>    -3.0239    93.9072   407.0160 </r>
       <r>    -2.9304    95.3136   415.9324 </r>
       <r>    -2.8368    90.8006   424.4266 </r>
       <r>    -2.7433    89.2146   432.7725 </r>
       <r>    -2.6497    87.1083   440.9213 </r>
       <r>    -2.5562    87.2904   449.0872 </r>
       <r>    -2.4626    95.9150   458.0599 </r>
       <r>    -2.3691   102.7744   467.6742 </r>
       <r>    -2.2755   102.2900   477.2433 </r>
       <r>    -2.1820   101.6508   486.7525 </r>
       <r>    -2.0884   101.6451   496.2612 </r>
       <r>    -1.9949    99.9330   505.6098 </r>
       <r>    -1.9013    93.6857   514.3739 </r>
       <r>    -1.8078    86.4984   522.4657 </r>
       <r>    -1.7142    81.8252   530.1203 </r>
       <r>    -1.6207    75.8570   537.2166 </r>
       <r>    -1.5271    66.0429   543.3948 </r>
       <r>    -1.4336    54.5174   548.4948 </r>
       <r>    -1.3400    47.3915   552.9282 </r>
       <r>    -1.2465    37.1326   556.4018 </r>
       <r>    -1.1529    28.3995   559.0586 </r>
       <r>    -1.0594    22.3561   561.1499 </r>
       <r>    -0.9658    18.3730   562.8687 </r>
       <r>    -0.8723    22.1243   564.9384 </r>
       <r>    -0.7787    28.2242   567.5787 </r>
       <r>    -0.6852    29.5750   570.3454 </r>
       <r>    -0.5916    28.7482   573.0347 </r>
       <r>    -0.4981    25.7769   575.4461 </r>
       <r>    -0.4045    20.6558   577.3784 </r>
       <r>    -0.3110    20.1504   579.2635 </r>
       <r>    -0.2175    19.0285   581.0436 </r>
       <r>    -0.1239    11.0396   582.0763 </r>
       <r>    -0.0304     5.9259   582.6307 </r>
       <r>     0.0632     6.3910   583.2285 </r>
       <r>     0.1567    10.1306   584.1762 </r>
       <r>     0.2503    15.6067   585.6362 </r>
       <r>     0.3438    18.6264   587.3787 </r>
       <r>     0.4374    21.1973   589.3616 </r>
       <r>     0.5309    21.0631   591.3320 </r>
       <r>     0.6245    19.3910   593.1460 </r>
       <r>     0.7180    17.9045   594.8210 </r>
       <r>     0.8116    13.6808   596.1008 </r>
       <r>     0.9051    12.5921   597.2788 </r>
       <r>     0.9987    10.6558   598.2756 </r>
       <r>     1.0922     8.6593   599.0856 </r>
       <r>     1.1858    11.9391   600.2025 </r>
       <r>     1.2793    15.4926   601.6518 </r>
       <r>     1.3729    16.8705   603.2300 </r>
       <r>     1.4664    15.6582   604.6948 </r>
       <r>     1.5600    11.5702   605.7772 </r>
       <r>     1.6535    10.7813   606.7858 </r>
       <r>     1.7471    14.7678   608.1673 </r>
       <r>     1.8406    18.7018   609.9168 </r>
       <r>     1.9342    21.1109   611.8917 </r>
       <r>     2.0277    21.5356   613.9063 </r>
       <r>     2.1213    18.3497   615.6229 </r>
       <r>     2.2148    16.5527   617.1714 </r>
       <r>     2.3083    14.9358   618.5686 </r>
       <r>     2.4019    14.4020   619.9159 </r>
       <r>     2.4954    12.6685   621.1010 </r>
       <r>     2.5890    11.4579   622.1728 </r>
       <r>     2.6825    10.8754   623.1902 </r>
       <r>     2.7761    11.9251   624.3058 </r>
       <r>     2.8696    15.2595   625.7333 </r>
       <r>     2.9632    16.2738   627.2557 </r>
       <r>     3.0567    14.8911   628.6487 </r>
       <r>     3.1503    15.4258   630.0918 </r>
       <r>     3.2438    15.0908   631.5035 </r>
       <r>     3.3374    14.5850   632.8679 </r>
       <r>     3.4309    16.0260   634.3671 </r>
       <r>     3.5245    15.2784   635.7963 </r>
       <r>     3.6180    16.9607   637.3830 </r>
       <r>     3.7116    18.9700   639.1576 </r>
       <r>     3.8051    18.0768   640.8486 </r>
       <r>     3.8987    16.7406   642.4147 </r>
       <r>     3.9922    17.8162   644.0814 </r>
       <r>     4.0858    18.7475   645.8352 </r>
       <r>     4.1793    19.3845   647.6486 </r>
       <r>     4.2729    20.1084   649.5297 </r>
       <r>     4.3664    19.5120   651.3550 </r>
       <r>     4.4600    18.0676   653.0452 </r>
       <r>     4.5535    22.2818   655.1296 </r>
       <r>     4.6471    27.7645   657.7269 </r>
       <r>     4.7406    28.5725   660.3998 </r>
       <r>     4.8342    29.4316   663.1531 </r>
       <r>     4.9277    28.7057   665.8385 </r>
       <r>     5.0212    27.2637   668.3889 </r>
       <r>     5.1148    24.3072   670.6628 </r>
       <r>     5.2083    12.0308   671.7883 </r>
       <r>     5.3019     2.1521   671.9896 </r>
       <r>     5.3954     0.1099   671.9999 </r>
       <r>     5.4890     0.0013   672.0000 </r>
       <r>     5.5825     0.0000   672.0000 </r>
       <r>     5.6761     0.0000   672.0000 </r>
       <r>     5.7696     0.0000   672.0000 </r>
       <r>     5.8632     0.0000   672.0000 </r>
       <r>     5.9567     0.0000   672.0000 </r>
       <r>     6.0503     0.0000   672.0000 </r>
       <r>     6.1438     0.0000   672.0000 </r>
       <r>     6.2374     0.0000   672.0000 </r>
       <r>     6.3309     0.0000   672.0000 </r>
       <r>     6.4245     0.0000   672.0000 </r>
      </set>
     </set>
    </array>
   </total>
  </dos>
 </calculation>
 <structure name="finalpos" >
  <crystal>
   <varray name="basis" >
    <v>      11.00258152       0.00000000       0.00000000 </v>
    <v>       5.50129076       9.52851510       0.00000000 </v>
    <v>       0.00000000       0.00000000      26.19178509 </v>
   </varray>
   <i name="volume">   2745.90128299 </i>
   <varray name="rec_basis" >
    <v>       0.09088776      -0.05247407       0.00000000 </v>
    <v>       0.00000000       0.10494815       0.00000000 </v>
    <v>       0.00000000       0.00000000       0.03817991 </v>
   </varray>
  </crystal>
  <varray name="positions" >
   <v>       0.08333333       0.08333333       0.38179910 </v>
   <v>       0.33333333       0.83333333       0.38179910 </v>
   <v>       0.49371325       0.49785190       0.56591750 </v>
   <v>       0.67138932       0.66259070       0.48256411 </v>
   <v>       0.83333333       0.58333333       0.38179910 </v>
   <v>       0.08333333       0.33333333       0.38179910 </v>
   <v>       0.75693857       0.25055157       0.56354926 </v>
   <v>       0.00930197       0.25098432       0.56456787 </v>
   <v>       0.72491482       0.02129307       0.56543214 </v>
   <v>       0.67006445       0.16575618       0.47421759 </v>
   <v>       0.42391799       0.90944566       0.47799524 </v>
   <v>       0.91748489       0.91302552       0.47307208 </v>
   <v>      -0.00846374       0.74405124       0.56980960 </v>
   <v>       0.58333333       0.58333333       0.38179910 </v>
   <v>       0.17311048       0.16226259       0.47552199 </v>
   <v>       0.41895363       0.41416823       0.47799872 </v>
   <v>       0.58333333       0.33333333       0.38179910 </v>
   <v>       0.33333333       0.33333333       0.38179910 </v>
   <v>       0.41600800       0.07765961       0.65897794 </v>
   <v>       0.42480483       0.15967651       0.47796372 </v>
   <v>       0.58333333       0.08333333       0.38179910 </v>
   <v>       0.16702305       0.66186657       0.47422329 </v>
   <v>       0.58418959       0.86281509       0.56873811 </v>
   <v>       0.17028647       0.91244959       0.47735363 </v>
   <v>       0.33159984       0.80636664       0.61700298 </v>
   <v>       0.10008892       0.06551553       0.60817248 </v>
   <v>       0.78742688       0.83122982       0.60144009 </v>
   <v>       0.87504386       0.54394263       0.61472244 </v>
   <v>       0.31279162       0.27820636       0.63381012 </v>
   <v>       0.48850666       0.89824310       0.69249290 </v>
   <v>       0.67272774       0.25033908       0.63332812 </v>
   <v>       0.59168924       0.56014002       0.62216409 </v>
   <v>       0.41938993       0.66302688       0.47474463 </v>
   <v>       0.51588498       0.74823138       0.64954492 </v>
   <v>       0.49376248       0.26966346       0.62372599 </v>
   <v>       0.58333333       0.83333333       0.38179910 </v>
   <v>       0.16782091       0.41315921       0.47540618 </v>
   <v>       0.26708133       0.23905649       0.56398616 </v>
   <v>       0.33333333       0.58333333       0.38179910 </v>
   <v>       0.25142139       0.49066608       0.56641061 </v>
   <v>       0.29537373       0.97821783       0.57584252 </v>
   <v>       0.24275213       0.74070665       0.56697310 </v>
   <v>       0.00199250       0.49829971       0.55963085 </v>
   <v>       0.91859979       0.66178412       0.47198853 </v>
   <v>       0.83333333       0.08333333       0.38179910 </v>
   <v>       0.08333333       0.58333333       0.38179910 </v>
   <v>       0.83333333       0.33333333       0.38179910 </v>
   <v>       0.67074220       0.41627188       0.47513286 </v>
   <v>       0.91667694       0.41340790       0.47405540 </v>
   <v>       0.00275144       0.98937446       0.56697515 </v>
   <v>       0.75059034       0.50870434       0.57372686 </v>
   <v>       0.91916811       0.16511828       0.47375152 </v>
   <v>       0.83333333       0.83333333       0.38179910 </v>
   <v>       0.67184309       0.90977314       0.47216977 </v>
   <v>       0.08333333       0.83333333       0.38179910 </v>
   <v>       0.33333333       0.08333333       0.38179910 </v>
  </varray>
  <varray name="selective"  type="logical" >
   <v type="logical" >  F  F  F </v>
   <v type="logical" >  F  F  F </v>
   <v type="logical" >  T  T  T </v>
   <v type="logical" >  T  T  T </v>
   <v type="logical" >  F  F  F </v>
   <v type="logical" >  F  F  F </v>
   <v type="logical" >  T  T  T </v>
   <v type="logical" >  T  T  T </v>
   <v type="logical" >  T  T  T </v>
   <v type="logical" >  T  T  T </v>
   <v type="logical" >  T  T  T </v>
   <v type="logical" >  T  T  T </v>
   <v type="logical" >  T  T  T </v>
   <v type="logical" >  F  F  F </v>
   <v type="logical" >  T  T  T </v>
   <v type="logical" >  T  T  T </v>
   <v type="logical" >  F  F  F </v>
   <v type="logical" >  F  F  F </v>
   <v type="logical" >  T  T  T </v>
   <v type="logical" >  T  T  T </v>
   <v type="logical" >  F  F  F </v>
   <v type="logical" >  T  T  T </v>
   <v type="logical" >  T  T  T </v>
   <v type="logical" >  T  T  T </v>
   <v type="logical" >  T  T  T </v>
   <v type="logical" >  T  T  T </v>
   <v type="logical" >  T  T  T </v>
   <v type="logical" >  T  T  T </v>
   <v type="logical" >  T  T  T </v>
   <v type="logical" >  T  T  T </v>
   <v type="logical" >  T  T  T </v>
   <v type="logical" >  T  T  T </v>
   <v type="logical" >  T  T  T </v>
   <v type="logical" >  T  T  T </v>
   <v type="logical" >  T  T  T </v>
   <v type="logical" >  F  F  F </v>
   <v type="logical" >  T  T  T </v>
   <v type="logical" >  T  T  T </v>
   <v type="logical" >  F  F  F </v>
   <v type="logical" >  T  T  T </v>
   <v type="logical" >  T  T  T </v>
   <v type="logical" >  T  T  T </v>
   <v type="logical" >  T  T  T </v>
   <v type="logical" >  T  T  T </v>
   <v type="logical" >  F  F  F </v>
   <v type="logical" >  F  F  F </v>
   <v type="logical" >  F  F  F </v>
   <v type="logical" >  T  T  T </v>
   <v type="logical" >  T  T  T </v>
   <v type="logical" >  T  T  T </v>
   <v type="logical" >  T  T  T </v>
   <v type="logical" >  T  T  T </v>
   <v type="logical" >  F  F  F </v>
   <v type="logical" >  T  T  T </v>
   <v type="logical" >  F  F  F </v>
   <v type="logical" >  F  F  F </v>
  </varray>
  <nose>
   <v>      -3.00000000       0.00000000       0.00010000       0.00010000 </v>
  </nose>
 </structure>
</modeling>
