  48  48   0   0
  0.5349325E+02  0.1100258E-08  0.1100258E-08  0.2449179E-08  0.3500000E-15
  1.000000000000000E-004
  CAR 
 unknown system                          
      6.36204035     -9.90112752  301     -1.09790914      1.00000000
     -9.901  0.0000E+00  0.0000E+00
     -9.847  0.0000E+00  0.0000E+00
     -9.793  0.0000E+00  0.0000E+00
     -9.738  0.0000E+00  0.0000E+00
     -9.684  0.0000E+00  0.0000E+00
     -9.630  0.0000E+00  0.0000E+00
     -9.576  0.0000E+00  0.0000E+00
     -9.522  0.0000E+00  0.0000E+00
     -9.467  0.9557E-17  0.5181E-18
     -9.413  0.3949E-14  0.2146E-15
     -9.359  0.8827E-12  0.4807E-13
     -9.305  0.1114E-09  0.6086E-11
     -9.251  0.7950E-08  0.4370E-09
     -9.196  0.3217E-06  0.1787E-07
     -9.142  0.7398E-05  0.4189E-06
     -9.088  0.9699E-04  0.5677E-05
     -9.034  0.7267E-03  0.4507E-04
     -8.980  0.3121E-02  0.2143E-03
     -8.925  0.7716E-02  0.6325E-03
     -8.871  0.1115E-01  0.1237E-02
     -8.817  0.1029E-01  0.1795E-02
     -8.763  0.8757E-02  0.2269E-02
     -8.708  0.1005E-01  0.2814E-02
     -8.654  0.1058E-01  0.3388E-02
     -8.600  0.7311E-02  0.3784E-02
     -8.546  0.3077E-02  0.3951E-02
     -8.492  0.8028E-03  0.3995E-02
     -8.437  0.3415E-03  0.4013E-02
     -8.383  0.1089E-02  0.4072E-02
     -8.329  0.3135E-02  0.4242E-02
     -8.275  0.5892E-02  0.4562E-02
     -8.221  0.7842E-02  0.4987E-02
     -8.166  0.8218E-02  0.5432E-02
     -8.112  0.8043E-02  0.5868E-02
     -8.058  0.1034E-01  0.6429E-02
     -8.004  0.1639E-01  0.7318E-02
     -7.950  0.2056E-01  0.8432E-02
     -7.895  0.1712E-01  0.9360E-02
     -7.841  0.1016E-01  0.9911E-02
     -7.787  0.7374E-02  0.1031E-01
     -7.733  0.9427E-02  0.1082E-01
     -7.678  0.1104E-01  0.1142E-01
     -7.624  0.1049E-01  0.1199E-01
     -7.570  0.1210E-01  0.1264E-01
     -7.516  0.1727E-01  0.1358E-01
     -7.462  0.2263E-01  0.1481E-01
     -7.407  0.2723E-01  0.1628E-01
     -7.353  0.3072E-01  0.1795E-01
     -7.299  0.3232E-01  0.1970E-01
     -7.245  0.3494E-01  0.2160E-01
     -7.191  0.3961E-01  0.2374E-01
     -7.136  0.4311E-01  0.2608E-01
     -7.082  0.4567E-01  0.2856E-01
     -7.028  0.5063E-01  0.3130E-01
     -6.974  0.5708E-01  0.3439E-01
     -6.920  0.6200E-01  0.3776E-01
     -6.865  0.6543E-01  0.4130E-01
     -6.811  0.6848E-01  0.4501E-01
     -6.757  0.7157E-01  0.4889E-01
     -6.703  0.7568E-01  0.5300E-01
     -6.648  0.8119E-01  0.5740E-01
     -6.594  0.8693E-01  0.6211E-01
     -6.540  0.9310E-01  0.6716E-01
     -6.486  0.1014E+00  0.7266E-01
     -6.432  0.1138E+00  0.7883E-01
     -6.377  0.1308E+00  0.8592E-01
     -6.323  0.1490E+00  0.9400E-01
     -6.269  0.1628E+00  0.1028E+00
     -6.215  0.1682E+00  0.1119E+00
     -6.161  0.1662E+00  0.1209E+00
     -6.106  0.1580E+00  0.1295E+00
     -6.052  0.1480E+00  0.1375E+00
     -5.998  0.1449E+00  0.1454E+00
     -5.944  0.1475E+00  0.1534E+00
     -5.890  0.1464E+00  0.1613E+00
     -5.835  0.1407E+00  0.1689E+00
     -5.781  0.1365E+00  0.1763E+00
     -5.727  0.1351E+00  0.1837E+00
     -5.673  0.1321E+00  0.1908E+00
     -5.618  0.1269E+00  0.1977E+00
     -5.564  0.1238E+00  0.2044E+00
     -5.510  0.1250E+00  0.2112E+00
     -5.456  0.1300E+00  0.2182E+00
     -5.402  0.1369E+00  0.2257E+00
     -5.347  0.1448E+00  0.2335E+00
     -5.293  0.1553E+00  0.2419E+00
     -5.239  0.1678E+00  0.2510E+00
     -5.185  0.1766E+00  0.2606E+00
     -5.131  0.1782E+00  0.2703E+00
     -5.076  0.1760E+00  0.2798E+00
     -5.022  0.1738E+00  0.2892E+00
     -4.968  0.1717E+00  0.2985E+00
     -4.914  0.1678E+00  0.3076E+00
     -4.860  0.1625E+00  0.3164E+00
     -4.805  0.1580E+00  0.3250E+00
     -4.751  0.1547E+00  0.3334E+00
     -4.697  0.1535E+00  0.3417E+00
     -4.643  0.1569E+00  0.3502E+00
     -4.588  0.1645E+00  0.3591E+00
     -4.534  0.1720E+00  0.3685E+00
     -4.480  0.1751E+00  0.3780E+00
     -4.426  0.1736E+00  0.3874E+00
     -4.372  0.1705E+00  0.3966E+00
     -4.317  0.1673E+00  0.4057E+00
     -4.263  0.1649E+00  0.4146E+00
     -4.209  0.1664E+00  0.4236E+00
     -4.155  0.1740E+00  0.4331E+00
     -4.101  0.1841E+00  0.4430E+00
     -4.046  0.1909E+00  0.4534E+00
     -3.992  0.1936E+00  0.4639E+00
     -3.938  0.1942E+00  0.4744E+00
     -3.884  0.1952E+00  0.4850E+00
     -3.830  0.1976E+00  0.4957E+00
     -3.775  0.2012E+00  0.5066E+00
     -3.721  0.2039E+00  0.5177E+00
     -3.667  0.2040E+00  0.5287E+00
     -3.613  0.2008E+00  0.5396E+00
     -3.558  0.1950E+00  0.5502E+00
     -3.504  0.1903E+00  0.5605E+00
     -3.450  0.1904E+00  0.5708E+00
     -3.396  0.1942E+00  0.5814E+00
     -3.342  0.1973E+00  0.5921E+00
     -3.287  0.1984E+00  0.6028E+00
     -3.233  0.1994E+00  0.6136E+00
     -3.179  0.1993E+00  0.6244E+00
     -3.125  0.1966E+00  0.6351E+00
     -3.071  0.1947E+00  0.6456E+00
     -3.016  0.1947E+00  0.6562E+00
     -2.962  0.1922E+00  0.6666E+00
     -2.908  0.1849E+00  0.6766E+00
     -2.854  0.1794E+00  0.6864E+00
     -2.800  0.1829E+00  0.6963E+00
     -2.745  0.1909E+00  0.7066E+00
     -2.691  0.1951E+00  0.7172E+00
     -2.637  0.1947E+00  0.7278E+00
     -2.583  0.1929E+00  0.7382E+00
     -2.528  0.1917E+00  0.7486E+00
     -2.474  0.1905E+00  0.7589E+00
     -2.420  0.1869E+00  0.7691E+00
     -2.366  0.1809E+00  0.7789E+00
     -2.312  0.1755E+00  0.7884E+00
     -2.257  0.1743E+00  0.7978E+00
     -2.203  0.1788E+00  0.8075E+00
     -2.149  0.1870E+00  0.8177E+00
     -2.095  0.1925E+00  0.8281E+00
     -2.041  0.1923E+00  0.8385E+00
     -1.986  0.1923E+00  0.8490E+00
     -1.932  0.1980E+00  0.8597E+00
     -1.878  0.2048E+00  0.8708E+00
     -1.824  0.2057E+00  0.8819E+00
     -1.770  0.1991E+00  0.8927E+00
     -1.715  0.1902E+00  0.9030E+00
     -1.661  0.1851E+00  0.9131E+00
     -1.607  0.1836E+00  0.9230E+00
     -1.553  0.1832E+00  0.9330E+00
     -1.498  0.1847E+00  0.9430E+00
     -1.444  0.1867E+00  0.9531E+00
     -1.390  0.1840E+00  0.9631E+00
     -1.336  0.1784E+00  0.9728E+00
     -1.282  0.1739E+00  0.9822E+00
     -1.227  0.1648E+00  0.9911E+00
     -1.173  0.1459E+00  0.9990E+00
     -1.119  0.1232E+00  0.1006E+01
     -1.065  0.1028E+00  0.1011E+01
     -1.011  0.7834E-01  0.1016E+01
     -0.956  0.4776E-01  0.1018E+01
     -0.902  0.2259E-01  0.1019E+01
     -0.848  0.1023E-01  0.1020E+01
     -0.794  0.8888E-02  0.1020E+01
     -0.740  0.1561E-01  0.1021E+01
     -0.685  0.2626E-01  0.1023E+01
     -0.631  0.3658E-01  0.1025E+01
     -0.577  0.4475E-01  0.1027E+01
     -0.523  0.4936E-01  0.1030E+01
     -0.468  0.4792E-01  0.1032E+01
     -0.414  0.3876E-01  0.1034E+01
     -0.360  0.2788E-01  0.1036E+01
     -0.306  0.2732E-01  0.1037E+01
     -0.252  0.3769E-01  0.1039E+01
     -0.197  0.4440E-01  0.1042E+01
     -0.143  0.3836E-01  0.1044E+01
     -0.089  0.2654E-01  0.1045E+01
     -0.035  0.1806E-01  0.1046E+01
      0.019  0.1644E-01  0.1047E+01
      0.074  0.2269E-01  0.1048E+01
      0.128  0.3234E-01  0.1050E+01
      0.182  0.3638E-01  0.1052E+01
      0.236  0.3343E-01  0.1054E+01
      0.290  0.3035E-01  0.1056E+01
      0.345  0.3033E-01  0.1057E+01
      0.399  0.3289E-01  0.1059E+01
      0.453  0.3844E-01  0.1061E+01
      0.507  0.4547E-01  0.1064E+01
      0.562  0.4933E-01  0.1066E+01
      0.616  0.4947E-01  0.1069E+01
      0.670  0.4759E-01  0.1072E+01
      0.724  0.4289E-01  0.1074E+01
      0.778  0.3596E-01  0.1076E+01
      0.833  0.2823E-01  0.1077E+01
      0.887  0.2360E-01  0.1079E+01
      0.941  0.2499E-01  0.1080E+01
      0.995  0.2715E-01  0.1081E+01
      1.049  0.2598E-01  0.1083E+01
      1.104  0.2347E-01  0.1084E+01
      1.158  0.2043E-01  0.1085E+01
      1.212  0.1634E-01  0.1086E+01
      1.266  0.1230E-01  0.1087E+01
      1.320  0.9197E-02  0.1087E+01
      1.375  0.8350E-02  0.1088E+01
      1.429  0.1186E-01  0.1088E+01
      1.483  0.2127E-01  0.1090E+01
      1.537  0.3324E-01  0.1091E+01
      1.592  0.3808E-01  0.1093E+01
      1.646  0.3180E-01  0.1095E+01
      1.700  0.2446E-01  0.1096E+01
      1.754  0.2635E-01  0.1098E+01
      1.808  0.3339E-01  0.1100E+01
      1.863  0.3568E-01  0.1102E+01
      1.917  0.3275E-01  0.1103E+01
      1.971  0.3164E-01  0.1105E+01
      2.025  0.3409E-01  0.1107E+01
      2.079  0.3601E-01  0.1109E+01
      2.134  0.3662E-01  0.1111E+01
      2.188  0.3782E-01  0.1113E+01
      2.242  0.3961E-01  0.1115E+01
      2.296  0.3974E-01  0.1117E+01
      2.350  0.3724E-01  0.1119E+01
      2.405  0.3298E-01  0.1121E+01
      2.459  0.2931E-01  0.1123E+01
      2.513  0.2997E-01  0.1124E+01
      2.567  0.3642E-01  0.1126E+01
      2.622  0.4627E-01  0.1129E+01
      2.676  0.5342E-01  0.1132E+01
      2.730  0.5098E-01  0.1134E+01
      2.784  0.3807E-01  0.1137E+01
      2.838  0.2331E-01  0.1138E+01
      2.893  0.1549E-01  0.1139E+01
      2.947  0.1262E-01  0.1139E+01
      3.001  0.8788E-02  0.1140E+01
      3.055  0.5527E-02  0.1140E+01
      3.109  0.7003E-02  0.1140E+01
      3.164  0.1284E-01  0.1141E+01
      3.218  0.2007E-01  0.1142E+01
      3.272  0.2579E-01  0.1144E+01
      3.326  0.2658E-01  0.1145E+01
      3.380  0.2301E-01  0.1146E+01
      3.435  0.2073E-01  0.1147E+01
      3.489  0.2298E-01  0.1149E+01
      3.543  0.2928E-01  0.1150E+01
      3.597  0.3725E-01  0.1152E+01
      3.652  0.4284E-01  0.1155E+01
      3.706  0.4341E-01  0.1157E+01
      3.760  0.3940E-01  0.1159E+01
      3.814  0.3162E-01  0.1161E+01
      3.868  0.2302E-01  0.1162E+01
      3.923  0.1948E-01  0.1163E+01
      3.977  0.2272E-01  0.1164E+01
      4.031  0.2722E-01  0.1166E+01
      4.085  0.2704E-01  0.1167E+01
      4.139  0.2358E-01  0.1169E+01
      4.194  0.2071E-01  0.1170E+01
      4.248  0.1852E-01  0.1171E+01
      4.302  0.1631E-01  0.1172E+01
      4.356  0.1719E-01  0.1173E+01
      4.410  0.2394E-01  0.1174E+01
      4.465  0.3105E-01  0.1176E+01
      4.519  0.3510E-01  0.1177E+01
      4.573  0.4163E-01  0.1180E+01
      4.627  0.5020E-01  0.1182E+01
      4.682  0.5311E-01  0.1185E+01
      4.736  0.4951E-01  0.1188E+01
      4.790  0.4674E-01  0.1190E+01
      4.844  0.4873E-01  0.1193E+01
      4.898  0.5192E-01  0.1196E+01
      4.953  0.5440E-01  0.1199E+01
      5.007  0.5991E-01  0.1202E+01
      5.061  0.6815E-01  0.1206E+01
      5.115  0.7210E-01  0.1210E+01
      5.169  0.6839E-01  0.1213E+01
      5.224  0.6100E-01  0.1217E+01
      5.278  0.5242E-01  0.1220E+01
      5.332  0.4031E-01  0.1222E+01
      5.386  0.2494E-01  0.1223E+01
      5.440  0.1142E-01  0.1224E+01
      5.495  0.3594E-02  0.1224E+01
      5.549  0.7278E-03  0.1224E+01
      5.603  0.9014E-04  0.1224E+01
      5.657  0.6613E-05  0.1224E+01
      5.712  0.2820E-06  0.1224E+01
      5.766  0.6910E-08  0.1224E+01
      5.820  0.9662E-10  0.1224E+01
      5.874  0.7672E-12  0.1224E+01
      5.928  0.3446E-14  0.1224E+01
      5.983  0.8192E-17  0.1224E+01
      6.037  0.0000E+00  0.1224E+01
      6.091  0.0000E+00  0.1224E+01
      6.145  0.0000E+00  0.1224E+01
      6.199  0.0000E+00  0.1224E+01
      6.254  0.0000E+00  0.1224E+01
      6.308  0.0000E+00  0.1224E+01
      6.362  0.0000E+00  0.1224E+01
