 vasp.5.4.1 24Jun15 (build Mar 14 2019 10:18:33) complex                        
  
 executed on INTEL-19.0.2+OPENMPI date 2022.07.11  15:52:20
 running on   36 total cores
 distrk:  each k-point on   36 cores,    1 groups
 distr:  one band on NCORES_PER_BAND=   6 cores,    6 groups


--------------------------------------------------------------------------------------------------------


 INCAR:
 POTCAR:    PAW_PBE Au 04Oct2007                  
 POTCAR:    PAW_PBE Pd 04Jan2005                  
 POTCAR:    PAW_PBE Au 04Oct2007                  
  local pseudopotential read in
  partial core-charges read in
  partial kinetic energy density read in
  atomic valenz-charges read in
  non local Contribution for L=           2  read in
    real space projection operators read in
  non local Contribution for L=           2  read in
    real space projection operators read in
  non local Contribution for L=           0  read in
    real space projection operators read in
  non local Contribution for L=           0  read in
    real space projection operators read in
  non local Contribution for L=           1  read in
    real space projection operators read in
  non local Contribution for L=           1  read in
    real space projection operators read in
    PAW grid and wavefunctions read in
 
   number of l-projection  operators is LMAX  =           6
   number of lm-projection operators is LMMAX =          18
 
 POTCAR:    PAW_PBE Pd 04Jan2005                  
  local pseudopotential read in
  partial core-charges read in
  partial kinetic energy density read in
  atomic valenz-charges read in
  non local Contribution for L=           2  read in
    real space projection operators read in
  non local Contribution for L=           2  read in
    real space projection operators read in
  non local Contribution for L=           0  read in
    real space projection operators read in
  non local Contribution for L=           0  read in
    real space projection operators read in
  non local Contribution for L=           1  read in
    real space projection operators read in
  non local Contribution for L=           1  read in
    real space projection operators read in
    PAW grid and wavefunctions read in
 
   number of l-projection  operators is LMAX  =           6
   number of lm-projection operators is LMMAX =          18
 
 Optimization of the real space projectors (new method)

 maximal supplied QI-value         = 15.12
 optimisation between [QCUT,QGAM] = [ 10.13, 20.41] = [ 28.73,116.64] Ry 
 Optimized for a Real-space Cutoff    1.51 Angstroem

   l    n(q)    QCUT    max X(q) W(low)/X(q) W(high)/X(q)  e(spline) 
   2      8    10.129    60.898    0.46E-03    0.46E-03    0.14E-06
   2      8    10.129    58.894    0.47E-03    0.47E-03    0.14E-06
   0      9    10.129   109.617    0.16E-03    0.11E-03    0.54E-07
   0      9    10.129    75.026    0.15E-03    0.11E-03    0.52E-07
   1      9    10.129    16.344    0.96E-04    0.15E-03    0.14E-06
   1      9    10.129    10.160    0.81E-04    0.12E-03    0.11E-06
 Optimization of the real space projectors (new method)

 maximal supplied QI-value         = 14.36
 optimisation between [QCUT,QGAM] = [ 10.20, 20.39] = [ 29.12,116.47] Ry 
 Optimized for a Real-space Cutoff    1.51 Angstroem

   l    n(q)    QCUT    max X(q) W(low)/X(q) W(high)/X(q)  e(spline) 
   2      8    10.197    59.108    0.26E-03    0.14E-03    0.96E-07
   2      8    10.197    58.101    0.27E-03    0.14E-03    0.98E-07
   0      9    10.197   102.235    0.54E-04    0.60E-05    0.72E-07
   0      9    10.197    58.388    0.52E-04    0.60E-05    0.68E-07
   1      9    10.197    22.191    0.18E-03    0.25E-03    0.79E-07
   1      9    10.197    15.590    0.15E-03    0.21E-03    0.69E-07
  PAW_PBE Au 04Oct2007                  :
 energy of atom  1       EATOM= -926.0867
 kinetic energy error for atom=    0.0062 (will be added to EATOM!!)
  PAW_PBE Pd 04Jan2005                  :
 energy of atom  2       EATOM= -809.7530
 kinetic energy error for atom=    0.0091 (will be added to EATOM!!)
 
 
 POSCAR: Au Pd                                   
  positions in cartesian coordinates
  No initial velocities read in
 exchange correlation table for  LEXCH =        8
   RHO(1)=    0.500       N(1)  =     2000
   RHO(2)=  100.500       N(2)  =     4000

 VTST: version 3.2, (02/03/18)

 CHAIN: initializing optimizer
 
 OPT: Using VASP Conjugate-Gradient optimizer
 CHAIN: Read ICHAIN            0
 
 POSCAR: Au Pd                                   
  positions in cartesian coordinates
  No initial velocities read in
 


--------------------------------------------------------------------------------------------------------


 ion  position               nearest neighbor table
   1  0.083  0.083  0.408-  37 2.75  32 2.75  35 2.75  13 2.75  45 2.75   4 2.75  24 2.75  12 2.75
                            19 2.75
   2  0.750  0.500  0.592-  28 2.75  20 2.75  23 2.75  30 2.75  36 2.75  48 2.75  44 2.75   6 2.75
                             3 2.75
   3  0.667  0.417  0.500-   9 2.75  30 2.75   6 2.75  19 2.75  28 2.75   7 2.75  34 2.75  20 2.75
                            43 2.75   8 2.75   2 2.75  32 2.75
   4  0.833  0.083  0.408-  19 2.75   9 2.75  26 2.75  32 2.75  45 2.75   1 2.75  46 2.75  22 2.75
                            34 2.75
   5  0.417  0.917  0.500-  13 2.75  36 2.75  18 2.75  11 2.75  28 2.75   7 2.75  37 2.75  25 2.75
                            12 2.75  24 2.75  10 2.75  38 2.75
   6  0.500  0.500  0.592-   7 2.75   3 2.75  17 2.75  30 2.75  36 2.75  42 2.75  39 2.75   2 2.75
                            43 2.75
   7  0.417  0.667  0.500-  27 2.75   6 2.75  17 2.75  12 2.75   5 2.75   3 2.75  43 2.75  28 2.75
                            14 2.75  13 2.75  36 2.75   8 2.75
   8  0.583  0.583  0.408-  28 2.75  13 2.75   9 2.75  32 2.75  38 2.75  27 2.75  29 2.75   3 2.75
                             7 2.75
   9  0.583  0.333  0.408-   3 2.75   4 2.75   8 2.75  27 2.75  46 2.75  32 2.75  21 2.75  34 2.75
                            43 2.75
  10  0.500  0.000  0.592-  11 2.75  25 2.75  15 2.75  36 2.75  42 2.75  48 2.75  33 2.75  18 2.75
                             5 2.75
  11  0.417  0.167  0.500-  24 2.75  10 2.75  15 2.75  16 2.75   5 2.75  25 2.75  43 2.75  37 2.75
                            34 2.75  21 2.75  42 2.75  46 2.75
  12  0.167  0.917  0.500-  45 2.75  17 2.75  31 2.75  19 2.75  14 2.75  37 2.75   7 2.75  22 2.75
                             5 2.75   1 2.75  18 2.75  13 2.75
  13  0.333  0.833  0.408-   5 2.75   1 2.75   8 2.75  24 2.75  27 2.75  38 2.75  45 2.75   7 2.75
                            12 2.75
  14  0.167  0.667  0.500-  40 2.75  39 2.75  47 2.75  12 2.75  16 2.75  43 2.75  22 2.75   7 2.75
                            41 2.75  45 2.75  17 2.75  27 2.75
  15  0.250  0.250  0.592-  16 2.75  11 2.75  10 2.75  18 2.75  39 2.75  44 2.75  42 2.75  23 2.75
                            37 2.75
  16  0.167  0.417  0.500-  35 2.75  15 2.75  44 2.75  14 2.75  37 2.75  41 2.75  11 2.75  43 2.75
                            20 2.75  40 2.75  21 2.75  39 2.75
  17  0.250  0.750  0.592-  12 2.75   7 2.75   6 2.75  18 2.75  31 2.75  39 2.75  36 2.75  47 2.75
                            14 2.75
  18  0.250  0.000  0.592-  37 2.75   5 2.75  17 2.75  23 2.75  36 2.75  15 2.75  10 2.75  31 2.75
                            12 2.75
  19  0.917  0.167  0.500-   4 2.75  31 2.75  30 2.75  20 2.75  22 2.75   3 2.75  12 2.75  34 2.75
                            37 2.75  32 2.75  23 2.75   1 2.75
  20  0.917  0.417  0.500-  32 2.75  23 2.75   2 2.75  28 2.75  19 2.75  37 2.75  41 2.75   3 2.75
                            16 2.75  29 2.75  35 2.75  44 2.75
  21  0.333  0.333  0.408-  43 2.75  27 2.75  40 2.75  24 2.75  46 2.75  35 2.75   9 2.75  11 2.75
                            16 2.75
  22  0.917  0.917  0.500-  26 2.75  47 2.75  33 2.75  19 2.75  34 2.75  41 2.75  14 2.75  25 2.75
                            12 2.75   4 2.75  45 2.75  31 2.75
  23  0.000  0.250  0.592-  20 2.75  37 2.75   2 2.75  31 2.75  18 2.75  44 2.75  30 2.75  15 2.75
                            19 2.75
  24  0.333  0.083  0.408-  11 2.75  13 2.75  21 2.75  35 2.75  38 2.75   1 2.75  46 2.75   5 2.75
                            37 2.75
  25  0.667  0.917  0.500-  38 2.75  48 2.75  10 2.75  34 2.75  11 2.75  41 2.75  28 2.75  22 2.75
                             5 2.75  46 2.75  33 2.75  26 2.75
  26  0.833  0.833  0.408-  22 2.75   4 2.75  29 2.75  40 2.75  46 2.75  45 2.75  38 2.75  41 2.75
                            25 2.75
  27  0.333  0.583  0.408-   7 2.75   9 2.75  13 2.75  21 2.75  45 2.75  40 2.75   8 2.75  43 2.75
                            14 2.75
  28  0.667  0.667  0.500-   8 2.75   2 2.75  36 2.75   3 2.75  20 2.75  25 2.75   5 2.75   7 2.75
                            41 2.75  38 2.75  29 2.75  48 2.75
  29  0.833  0.583  0.408-  41 2.75  32 2.75  35 2.75  38 2.75  26 2.75  40 2.75   8 2.75  20 2.75
                            28 2.75
  30  0.750  0.250  0.592-   3 2.75  19 2.75   6 2.75   2 2.75  31 2.75  33 2.75  23 2.75  42 2.75
                            34 2.75
  31  0.000  0.000  0.592-  19 2.75  12 2.75  17 2.75  23 2.75  30 2.75  47 2.75  33 2.75  18 2.75
                            22 2.75
  32  0.833  0.333  0.408-  20 2.75   4 2.75   8 2.75   1 2.75  29 2.75   9 2.75  35 2.75  19 2.75
                             3 2.75
  33  0.750  0.000  0.592-  34 2.75  22 2.75  30 2.75  42 2.75  47 2.75  48 2.75  10 2.75  31 2.75
                            25 2.75
  34  0.667  0.167  0.500-  46 2.75  33 2.75  42 2.75   3 2.75  22 2.75  43 2.75  25 2.75  11 2.75
                            19 2.75   9 2.75   4 2.75  30 2.75
  35  0.083  0.333  0.408-  16 2.75   1 2.75  24 2.75  29 2.75  40 2.75  32 2.75  21 2.75  37 2.75
                            20 2.75
  36  0.500  0.750  0.592-   5 2.75  28 2.75   6 2.75  10 2.75  18 2.75   2 2.75  17 2.75  48 2.75
                             7 2.75
  37  0.167  0.167  0.500-   1 2.75  18 2.75  23 2.75  16 2.75   5 2.75  20 2.75  12 2.75  11 2.75
                            19 2.75  35 2.75  24 2.75  15 2.75
  38  0.583  0.833  0.408-  25 2.75  24 2.75   8 2.75  29 2.75  46 2.75  13 2.75  26 2.75  28 2.75
                             5 2.75
  39  0.250  0.500  0.592-  14 2.75  43 2.75  17 2.75  42 2.75  15 2.75  47 2.75  44 2.75   6 2.75
                            16 2.75
  40  0.083  0.583  0.408-  14 2.75  21 2.75  26 2.75  35 2.75  45 2.75  27 2.75  29 2.75  16 2.75
                            41 2.75
  41  0.917  0.667  0.500-  29 2.75  44 2.75  48 2.75  25 2.75  16 2.75  20 2.75  22 2.75  28 2.75
                            14 2.75  26 2.75  47 2.75  40 2.75
  42  0.500  0.250  0.592-  43 2.75  34 2.75  33 2.75   6 2.75  39 2.75  10 2.75  15 2.75  30 2.75
                            11 2.75
  43  0.417  0.417  0.500-  21 2.75  42 2.75  39 2.75   7 2.75  34 2.75  11 2.75  14 2.75   3 2.75
                            16 2.75  27 2.75   6 2.75   9 2.75
  44  0.000  0.500  0.592-  41 2.75  16 2.75  23 2.75  15 2.75  47 2.75  48 2.75  39 2.75   2 2.75
                            20 2.75
  45  0.083  0.833  0.408-  12 2.75   4 2.75   1 2.75  27 2.75  40 2.75  13 2.75  26 2.75  14 2.75
                            22 2.75
  46  0.583  0.083  0.408-  34 2.75  21 2.75  26 2.75   9 2.75  38 2.75  24 2.75   4 2.75  25 2.75
                            11 2.75
  47  0.000  0.750  0.592-  22 2.75  14 2.75  31 2.75  33 2.75  39 2.75  44 2.75  17 2.75  48 2.75
                            41 2.75
  48  0.750  0.750  0.592-  25 2.75  41 2.75   2 2.75  33 2.75  10 2.75  44 2.75  36 2.75  47 2.75
                            28 2.75
 
  LATTYP: Found a hexagonal cell.
 ALAT       =    11.0025815153
 C/A-ratio  =     2.2260035120
  
  Lattice vectors:
  
 A1 = (   5.5012907576,  -9.5285150994,   0.0000000000)
 A2 = ( -11.0025815153,   0.0000000000,   0.0000000000)
 A3 = (   0.0000000000,   0.0000000000, -24.4917850943)


Analysis of symmetry for initial positions (statically):
=====================================================================
 Subroutine PRICEL returns:
 Original cell was already a primitive cell.
 

 Routine SETGRP: Setting up the symmetry group for a 
 hexagonal supercell.


 Subroutine GETGRP returns: Found  1 space group operations
 (whereof  1 operations were pure point group operations)
 out of a pool of 24 trial point group operations.


The static configuration has the point symmetry C_1 .


Analysis of symmetry for dynamics (positions and initial velocities):
=====================================================================
 Subroutine PRICEL returns:
 Original cell was already a primitive cell.
 

 Routine SETGRP: Setting up the symmetry group for a 
 hexagonal supercell.


 Subroutine GETGRP returns: Found  1 space group operations
 (whereof  1 operations were pure point group operations)
 out of a pool of 24 trial point group operations.


The dynamic configuration has the point symmetry C_1 .
 
 
 KPOINTS: Automatic mesh                          

Automatic generation of k-mesh.
Space group operators:
 irot       det(A)        alpha          n_x          n_y          n_z        tau_x        tau_y        tau_z
    1     1.000000     0.000000     1.000000     0.000000     0.000000     0.000000     0.000000     0.000000
 
 Subroutine IBZKPT returns following result:
 ===========================================
 
 Found      6 irreducible k-points:
 
 Following reciprocal coordinates:
            Coordinates               Weight
  0.250000  0.250000  0.000000     16.000000
  0.000000  0.250000  0.000000     16.000000
 -0.250000  0.000000  0.000000     16.000000
 -0.250000  0.250000  0.000000     16.000000
  0.500000 -0.250000  0.000000     16.000000
 -0.250000  0.500000  0.000000     16.000000
 
 Following cartesian coordinates:
            Coordinates               Weight
  0.022722  0.013119  0.000000     16.000000
  0.000000  0.026237  0.000000     16.000000
 -0.022722  0.013119  0.000000     16.000000
 -0.022722  0.039356  0.000000     16.000000
  0.045444 -0.052474  0.000000     16.000000
 -0.022722  0.065593  0.000000     16.000000
 


--------------------------------------------------------------------------------------------------------




 Dimension of arrays:
   k-points           NKPTS =      6   k-points in BZ     NKDIM =      6   number of bands    NBANDS=    306
   number of dos      NEDOS =    301   number of ions     NIONS =     48
   non local maximal  LDIM  =      6   non local SUM 2l+1 LMDIM =     18
   total plane-waves  NPLWV = 349920
   max r-space proj   IRMAX =   2009   max aug-charges    IRDMAX=   8532
   dimension x,y,z NGX =    54 NGY =   54 NGZ =  120
   dimension x,y,z NGXF=   108 NGYF=  108 NGZF=  240
   support grid    NGXF=   108 NGYF=  108 NGZF=  240
   ions per type =              24  24
 NGX,Y,Z   is equivalent  to a cutoff of   8.16,  8.16,  8.15 a.u.
 NGXF,Y,Z  is equivalent  to a cutoff of  16.32, 16.32, 16.29 a.u.


 I would recommend the setting:
   dimension x,y,z NGX =    54 NGY =   54 NGZ =  120
 SYSTEM =  unknown system                          
 POSCAR =  Au Pd                                   

 Startparameter for this run:
   NWRITE =      1    write-flag & timer
   PREC   = normal    normal or accurate (medium, high low for compatibility)
   ISTART =      0    job   : 0-new  1-cont  2-samecut
   ICHARG =      2    charge: 1-file 2-atom 10-const
   ISPIN  =      1    spin polarized calculation?
   LNONCOLLINEAR =      F non collinear calculations
   LSORBIT =      F    spin-orbit coupling
   INIWAV =      1    electr: 0-lowe 1-rand  2-diag
   LASPH  =      F    aspherical Exc in radial PAW
   METAGGA=      F    non-selfconsistent MetaGGA calc.

 Electronic Relaxation 1
   ENCUT  =  400.0 eV  29.40 Ry    5.42 a.u.  17.94 17.94 39.94*2*pi/ulx,y,z
   ENINI  =  400.0     initial cutoff
   ENAUG  =  416.2 eV  augmentation charge cutoff
   NELM   =    500;   NELMIN=  2; NELMDL= -5     # of ELM steps 
   EDIFF  = 0.1E-05   stopping-criterion for ELM
   LREAL  =      T    real-space projection
   NLSPLINE    = F    spline interpolate recip. space projectors
   LCOMPAT=      F    compatible to vasp.4.4
   GGA_COMPAT  = T    GGA compatible to vasp.4.4-vasp.4.6
   LMAXPAW     = -100 max onsite density
   LMAXMIX     =    2 max onsite mixed and CHGCAR
   VOSKOWN=      1    Vosko Wilk Nusair interpolation
   ROPT   =   -0.00050  -0.00050
 Ionic relaxation
   EDIFFG = -.2E-01   stopping-criterion for IOM
   NSW    =    500    number of steps for IOM
   NBLOCK =      1;   KBLOCK =    500    inner block; outer block 
   IBRION =      2    ionic relax: 0-MD 1-quasi-New 2-CG
   NFREE  =      2    steps in history (QN), initial steepest desc. (CG)
   ISIF   =      0    stress and relaxation
   IWAVPR =     11    prediction:  0-non 1-charg 2-wave 3-comb
   ISYM   =      2    0-nonsym 1-usesym 2-fastsym
   LCORR  =      T    Harris-Foulkes like correction to forces

   POTIM  = 0.3500    time-step for ionic-motion
   TEIN   =    0.0    initial temperature
   TEBEG  =    0.0;   TEEND  =   0.0 temperature during run
   SMASS  =  -3.00    Nose mass-parameter (am)
   estimated Nose-frequenzy (Omega)   =  0.10E-29 period in steps =****** mass=  -0.277E-26a.u.
   SCALEE = 1.0000    scale energy and forces
   NPACO  =    256;   APACO  = 16.0  distance and # of slots for P.C.
   PSTRESS=    0.0 pullay stress

  Mass of Ions in am
   POMASS = 196.97106.42
  Ionic Valenz
   ZVAL   =  11.00 10.00
  Atomic Wigner-Seitz radii
   RWIGS  =  -1.00 -1.00
  virtual crystal weights 
   VCA    =   1.00  1.00
   NELECT =     504.0000    total number of electrons
   NUPDOWN=      -1.0000    fix difference up-down

 DOS related values:
   EMIN   =  10.00;   EMAX   =-10.00  energy-range for DOS
   EFERMI =   0.00
   ISMEAR =     0;   SIGMA  =   0.10  broadening in eV -4-tet -1-fermi 0-gaus

 Electronic relaxation 2 (details)
   IALGO  =     68    algorithm
   LDIAG  =      T    sub-space diagonalisation (order eigenvalues)
   LSUBROT=      F    optimize rotation matrix (better conditioning)
   TURBO    =      0    0=normal 1=particle mesh
   IRESTART =      0    0=no restart 2=restart with 2 vectors
   NREBOOT  =      0    no. of reboots
   NMIN     =      0    reboot dimension
   EREF     =   0.00    reference energy to select bands
   IMIX   =      4    mixing-type and parameters
     AMIX     =   0.40;   BMIX     =  1.00
     AMIX_MAG =   1.60;   BMIX_MAG =  1.00
     AMIN     =   0.10
     WC   =   100.;   INIMIX=   1;  MIXPRE=   1;  MAXMIX= -45

 Intra band minimization:
   WEIMIN = 0.0010     energy-eigenvalue tresh-hold
   EBREAK =  0.82E-09  absolut break condition
   DEPER  =   0.30     relativ break condition  

   TIME   =   0.40     timestep for ELM

  volume/ion in A,a.u.               =      53.49       360.99
  Fermi-wavevector in a.u.,A,eV,Ry     =   0.951418  1.797920 12.315955  0.905197
  Thomas-Fermi vector in A             =   2.079887
 
 Write flags
   LWAVE  =      F    write WAVECAR
   LCHARG =      F    write CHGCAR
   LVTOT  =      F    write LOCPOT, total local potential
   LVHAR  =      F    write LOCPOT, Hartree potential only
   LELF   =      F    write electronic localiz. function (ELF)
   LORBIT =      0    0 simple, 1 ext, 2 COOP (PROOUT)


 Dipole corrections
   LMONO  =      F    monopole corrections only (constant potential shift)
   LDIPOL =      T    correct potential (dipole corrections)
   IDIPOL =      3    1-x, 2-y, 3-z, 4-all directions 
   EPSILON=  1.0000000 bulk dielectric constant

 Exchange correlation treatment:
   GGA     =    PE    GGA type
   LEXCH   =     8    internal setting for exchange type
   VOSKOWN=      1    Vosko Wilk Nusair interpolation
   LHFCALC =     F    Hartree Fock is set to
   LHFONE  =     F    Hartree Fock one center treatment
   AEXX    =    0.0000 exact exchange contribution

 Linear response parameters
   LEPSILON=     F    determine dielectric tensor
   LRPA    =     F    only Hartree local field effects (RPA)
   LNABLA  =     F    use nabla operator in PAW spheres
   LVEL    =     F    velocity operator in full k-point grid
   LINTERFAST=   F  fast interpolation
   KINTER  =     0    interpolate to denser k-point grid
   CSHIFT  =0.1000    complex shift for real part using Kramers Kronig
   OMEGAMAX=  -1.0    maximum frequency
   DEG_THRESHOLD= 0.2000000E-02 threshold for treating states as degnerate
   RTIME   =    0.100 relaxation time in fs

 Orbital magnetization related:
   ORBITALMAG=     F  switch on orbital magnetization
   LCHIMAG   =     F  perturbation theory with respect to B field
   DQ        =  0.001000  dq finite difference perturbation B field



--------------------------------------------------------------------------------------------------------


 conjugate gradient relaxation of ions
 charge density and potential will be updated during run
 non-spin polarized calculation
 RMM-DIIS sequential band-by-band and
  variant of blocked Davidson during initial phase
 perform sub-space diagonalisation
    before iterative eigenvector-optimisation
 modified Broyden-mixing scheme, WC =      100.0
 initial mixing is a Kerker type mixing with AMIX =  0.4000 and BMIX =      1.0000
 Hartree-type preconditioning will be used
 using additional bands           54
 real space projection scheme for non local part
 use partial core corrections
 calculate Harris-corrections to forces 
   (improved forces if not selfconsistent)
 use gradient corrections 
 use of overlap-Matrix (Vanderbilt PP)
 Gauss-broadening in eV      SIGMA  =   0.10


--------------------------------------------------------------------------------------------------------


  energy-cutoff  :      400.00
  volume of cell :     2567.68
      direct lattice vectors                 reciprocal lattice vectors
    11.002581515  0.000000000  0.000000000     0.090887761 -0.052474073  0.000000000
     5.501290758  9.528515099  0.000000000     0.000000000  0.104948147  0.000000000
     0.000000000  0.000000000 24.491785094     0.000000000  0.000000000  0.040830017

  length of vectors
    11.002581515 11.002581515 24.491785094     0.104948147  0.104948147  0.040830017


 
 k-points in units of 2pi/SCALE and weight: Automatic mesh                          
   0.02272194  0.01311852  0.00000000       0.167
   0.00000000  0.02623704  0.00000000       0.167
  -0.02272194  0.01311852  0.00000000       0.167
  -0.02272194  0.03935555  0.00000000       0.167
   0.04544388 -0.05247407  0.00000000       0.167
  -0.02272194  0.06559259  0.00000000       0.167
 
 k-points in reciprocal lattice and weights: Automatic mesh                          
   0.25000000  0.25000000  0.00000000       0.167
   0.00000000  0.25000000  0.00000000       0.167
  -0.25000000  0.00000000  0.00000000       0.167
  -0.25000000  0.25000000  0.00000000       0.167
   0.50000000 -0.25000000  0.00000000       0.167
  -0.25000000  0.50000000  0.00000000       0.167
 
 position of ions in fractional coordinates (direct lattice) 
   0.08333333  0.08333333  0.40830017
   0.75000000  0.50000000  0.59169983
   0.66666667  0.41666667  0.50000000
   0.83333333  0.08333333  0.40830017
   0.41666667  0.91666667  0.50000000
   0.50000000  0.50000000  0.59169983
   0.41666667  0.66666667  0.50000000
   0.58333333  0.58333333  0.40830017
   0.58333333  0.33333333  0.40830017
   0.50000000  0.00000000  0.59169983
   0.41666667  0.16666667  0.50000000
   0.16666667  0.91666667  0.50000000
   0.33333333  0.83333333  0.40830017
   0.16666667  0.66666667  0.50000000
   0.25000000  0.25000000  0.59169983
   0.16666667  0.41666667  0.50000000
   0.25000000  0.75000000  0.59169983
   0.25000000  0.00000000  0.59169983
   0.91666667  0.16666667  0.50000000
   0.91666667  0.41666667  0.50000000
   0.33333333  0.33333333  0.40830017
   0.91666667  0.91666667  0.50000000
   0.00000000  0.25000000  0.59169983
   0.33333333  0.08333333  0.40830017
   0.66666667  0.91666667  0.50000000
   0.83333333  0.83333333  0.40830017
   0.33333333  0.58333333  0.40830017
   0.66666667  0.66666667  0.50000000
   0.83333333  0.58333333  0.40830017
   0.75000000  0.25000000  0.59169983
   0.00000000  0.00000000  0.59169983
   0.83333333  0.33333333  0.40830017
   0.75000000  0.00000000  0.59169983
   0.66666667  0.16666667  0.50000000
   0.08333333  0.33333333  0.40830017
   0.50000000  0.75000000  0.59169983
   0.16666667  0.16666667  0.50000000
   0.58333333  0.83333333  0.40830017
   0.25000000  0.50000000  0.59169983
   0.08333333  0.58333333  0.40830017
   0.91666667  0.66666667  0.50000000
   0.50000000  0.25000000  0.59169983
   0.41666667  0.41666667  0.50000000
   0.00000000  0.50000000  0.59169983
   0.08333333  0.83333333  0.40830017
   0.58333333  0.08333333  0.40830017
   0.00000000  0.75000000  0.59169983
   0.75000000  0.75000000  0.59169983
 
 position of ions in cartesian coordinates  (Angst):
   1.37532269  0.79404292 10.00000000
  11.00258152  4.76425755 14.49178509
   9.62725883  3.97021462 12.24589255
   9.62725883  0.79404292 10.00000000
   9.62725883  8.73447217 12.24589255
   8.25193614  4.76425755 14.49178509
   8.25193614  6.35234340 12.24589255
   9.62725883  5.55830047 10.00000000
   8.25193614  3.17617170 10.00000000
   5.50129076  0.00000000 14.49178509
   5.50129076  1.58808585 12.24589255
   6.87661345  8.73447217 12.24589255
   8.25193614  7.94042925 10.00000000
   5.50129076  6.35234340 12.24589255
   4.12596807  2.38212877 14.49178509
   4.12596807  3.97021462 12.24589255
   6.87661345  7.14638632 14.49178509
   2.75064538  0.00000000 14.49178509
  11.00258152  1.58808585 12.24589255
  12.37790420  3.97021462 12.24589255
   5.50129076  3.17617170 10.00000000
  15.12854958  8.73447217 12.24589255
   1.37532269  2.38212877 14.49178509
   4.12596807  0.79404292 10.00000000
  12.37790420  8.73447217 12.24589255
  13.75322689  7.94042925 10.00000000
   6.87661345  5.55830047 10.00000000
  11.00258152  6.35234340 12.24589255
  12.37790420  5.55830047 10.00000000
   9.62725883  2.38212877 14.49178509
   0.00000000  0.00000000 14.49178509
  11.00258152  3.17617170 10.00000000
   8.25193614  0.00000000 14.49178509
   8.25193614  1.58808585 12.24589255
   2.75064538  3.17617170 10.00000000
   9.62725883  7.14638632 14.49178509
   2.75064538  1.58808585 12.24589255
  11.00258152  7.94042925 10.00000000
   5.50129076  4.76425755 14.49178509
   4.12596807  5.55830047 10.00000000
  13.75322689  6.35234340 12.24589255
   6.87661345  2.38212877 14.49178509
   6.87661345  3.97021462 12.24589255
   2.75064538  4.76425755 14.49178509
   5.50129076  7.94042925 10.00000000
   6.87661345  0.79404292 10.00000000
   4.12596807  7.14638632 14.49178509
  12.37790420  7.14638632 14.49178509
 


--------------------------------------------------------------------------------------------------------


 k-point  1 :   0.2500 0.2500 0.0000  plane waves:   46635
 k-point  2 :   0.0000 0.2500 0.0000  plane waves:   46635
 k-point  3 :  -0.2500 0.0000 0.0000  plane waves:   46635
 k-point  4 :  -0.2500 0.2500 0.0000  plane waves:   46644
 k-point  5 :   0.5000-0.2500 0.0000  plane waves:   46644
 k-point  6 :  -0.2500 0.5000 0.0000  plane waves:   46644

 maximum and minimum number of plane-waves per node :      7818     7732

 maximum number of plane-waves:     46644
 maximum index in each direction: 
   IXMAX=   18   IYMAX=   18   IZMAX=   39
   IXMIN=  -18   IYMIN=  -18   IZMIN=  -39

 WARNING: aliasing errors must be expected set NGX to  74 to avoid them
 WARNING: aliasing errors must be expected set NGY to  74 to avoid them
 WARNING: aliasing errors must be expected set NGZ to 158 to avoid them
 aliasing errors are usually negligible using standard VASP settings
 and one can safely disregard these warnings

 real space projection operators:
  total allocation   :      12803.06 KBytes
  max/ min on nodes  :       2145.66       2127.94


 parallel 3D FFT for wavefunctions:
    minimum data exchange during FFTs selected (reduces bandwidth)
 parallel 3D FFT for charge:
    minimum data exchange during FFTs selected (reduces bandwidth)


 total amount of memory used by VASP on root node    84353. kBytes
========================================================================

   base      :      30000. kBytes
   nonlr-proj:       4285. kBytes
   fftplans  :       4447. kBytes
   grid      :       6721. kBytes
   one-center:        124. kBytes
   wavefun   :      38776. kBytes
 
     INWAV:  cpu time    0.0000: real time    0.0000
 Broyden mixing: mesh for mixing (old mesh)
   NGX = 35   NGY = 35   NGZ = 79
  (NGX  =108   NGY  =108   NGZ  =240)
  gives a total of  96775 points

 initial charge density was supplied:
 charge density of overlapping atoms calculated
 number of electron     504.0000000 magnetization 
 keeping initial charge density in first step


--------------------------------------------------------------------------------------------------------


 Maximum index for non-local projection operator          355
 Maximum index for augmentation-charges          437 (set IRDMAX)


--------------------------------------------------------------------------------------------------------


 First call to EWALD:  gamma=   0.129
 Maximum number of real-space cells 4x 4x 2
 Maximum number of reciprocal cells 2x 2x 5

 FEWALD executed in parallel
    FEWALD:  cpu time    0.0024: real time    0.0028


----------------------------------------- Iteration    1(   1)  ---------------------------------------


    POTLOK:  cpu time    0.0461: real time    0.0465
    SETDIJ:  cpu time    0.0059: real time    0.0059
     EDDAV:  cpu time    7.1131: real time    7.1336
       DOS:  cpu time    0.0013: real time    0.0013
    --------------------------------------------
      LOOP:  cpu time    7.1693: real time    7.1947

 eigenvalue-minimisations  :  3672
 total energy-change (2. order) : 0.3200890E+04  (-0.1897915E+05)
 number of electron     504.0000000 magnetization 
 augmentation part      504.0000000 magnetization 

 DIPCOR: dipole corrections for dipol
 direction  3 min pos     1,
 dipolmoment           0.000000      0.000000      0.000000 electrons x Angstroem
 Tr[quadrupol]    -10283.206813

 energy correction for charged system         0.000000 eV
 dipol+quadrupol energy correction           -0.000000 eV
 added-field ion interaction          0.000000 eV  (added to PSCEN)


 Free energy of the ion-electron system (eV)
  ---------------------------------------------------
  alpha Z        PSCENC =       805.86936429
  Ewald energy   TEWEN  =    200643.50610711
  -Hartree energ DENC   =   -243060.09792978
  -exchange      EXHF   =         0.00000000
  -V(xc)+E(xc)   XCENC  =      -327.49604040
  PAW double counting   =     40340.05962942   -38292.62782345
  entropy T*S    EENTRO =        -0.14135251
  eigenvalues    EBANDS =      1432.03187465
  atomic energy  EATOM  =     41659.78587232
  Solvation  Ediel_sol  =         0.00000000
  ---------------------------------------------------
  free energy    TOTEN  =      3200.88970165 eV

  energy without entropy =     3201.03105415  energy(sigma->0) =     3200.96037790


--------------------------------------------------------------------------------------------------------




----------------------------------------- Iteration    1(   2)  ---------------------------------------


     EDDAV:  cpu time    8.4522: real time    8.5360
       DOS:  cpu time    0.0014: real time    0.0015
    --------------------------------------------
      LOOP:  cpu time    8.4542: real time    8.5397

 eigenvalue-minimisations  :  4356
 total energy-change (2. order) :-0.3184162E+04  (-0.2927171E+04)
 number of electron     504.0000000 magnetization 
 augmentation part      504.0000000 magnetization 

 DIPCOR: dipole corrections for dipol
 direction  3 min pos     1,
 dipolmoment           0.000000      0.000000      0.000000 electrons x Angstroem
 Tr[quadrupol]    -10283.206813

 energy correction for charged system         0.000000 eV
 dipol+quadrupol energy correction           -0.000000 eV
 added-field ion interaction          0.000000 eV  (added to PSCEN)


 Free energy of the ion-electron system (eV)
  ---------------------------------------------------
  alpha Z        PSCENC =       805.86936429
  Ewald energy   TEWEN  =    200643.50610711
  -Hartree energ DENC   =   -243060.09792978
  -exchange      EXHF   =         0.00000000
  -V(xc)+E(xc)   XCENC  =      -327.49604040
  PAW double counting   =     40340.05962942   -38292.62782345
  entropy T*S    EENTRO =        -0.12247172
  eigenvalues    EBANDS =     -1752.14889470
  atomic energy  EATOM  =     41659.78587232
  Solvation  Ediel_sol  =         0.00000000
  ---------------------------------------------------
  free energy    TOTEN  =        16.72781308 eV

  energy without entropy =       16.85028481  energy(sigma->0) =       16.78904895


--------------------------------------------------------------------------------------------------------




----------------------------------------- Iteration    1(   3)  ---------------------------------------


     EDDAV:  cpu time    8.2046: real time    8.2350
       DOS:  cpu time    0.0014: real time    0.0014
    --------------------------------------------
      LOOP:  cpu time    8.2064: real time    8.2385

 eigenvalue-minimisations  :  4152
 total energy-change (2. order) :-0.2165147E+03  (-0.2011301E+03)
 number of electron     504.0000000 magnetization 
 augmentation part      504.0000000 magnetization 

 DIPCOR: dipole corrections for dipol
 direction  3 min pos     1,
 dipolmoment           0.000000      0.000000      0.000000 electrons x Angstroem
 Tr[quadrupol]    -10283.206813

 energy correction for charged system         0.000000 eV
 dipol+quadrupol energy correction           -0.000000 eV
 added-field ion interaction          0.000000 eV  (added to PSCEN)


 Free energy of the ion-electron system (eV)
  ---------------------------------------------------
  alpha Z        PSCENC =       805.86936429
  Ewald energy   TEWEN  =    200643.50610711
  -Hartree energ DENC   =   -243060.09792978
  -exchange      EXHF   =         0.00000000
  -V(xc)+E(xc)   XCENC  =      -327.49604040
  PAW double counting   =     40340.05962942   -38292.62782345
  entropy T*S    EENTRO =        -0.21139543
  eigenvalues    EBANDS =     -1968.57465032
  atomic energy  EATOM  =     41659.78587232
  Solvation  Ediel_sol  =         0.00000000
  ---------------------------------------------------
  free energy    TOTEN  =      -199.78686624 eV

  energy without entropy =     -199.57547081  energy(sigma->0) =     -199.68116852


--------------------------------------------------------------------------------------------------------




----------------------------------------- Iteration    1(   4)  ---------------------------------------


     EDDAV:  cpu time    8.3337: real time    8.3599
       DOS:  cpu time    0.0014: real time    0.0014
    --------------------------------------------
      LOOP:  cpu time    8.3359: real time    8.3663

 eigenvalue-minimisations  :  4248
 total energy-change (2. order) :-0.5836153E+01  (-0.5766693E+01)
 number of electron     504.0000000 magnetization 
 augmentation part      504.0000000 magnetization 

 DIPCOR: dipole corrections for dipol
 direction  3 min pos     1,
 dipolmoment           0.000000      0.000000      0.000000 electrons x Angstroem
 Tr[quadrupol]    -10283.206813

 energy correction for charged system         0.000000 eV
 dipol+quadrupol energy correction           -0.000000 eV
 added-field ion interaction          0.000000 eV  (added to PSCEN)


 Free energy of the ion-electron system (eV)
  ---------------------------------------------------
  alpha Z        PSCENC =       805.86936429
  Ewald energy   TEWEN  =    200643.50610711
  -Hartree energ DENC   =   -243060.09792978
  -exchange      EXHF   =         0.00000000
  -V(xc)+E(xc)   XCENC  =      -327.49604040
  PAW double counting   =     40340.05962942   -38292.62782345
  entropy T*S    EENTRO =        -0.22692190
  eigenvalues    EBANDS =     -1974.39527724
  atomic energy  EATOM  =     41659.78587232
  Solvation  Ediel_sol  =         0.00000000
  ---------------------------------------------------
  free energy    TOTEN  =      -205.62301964 eV

  energy without entropy =     -205.39609774  energy(sigma->0) =     -205.50955869


--------------------------------------------------------------------------------------------------------




----------------------------------------- Iteration    1(   5)  ---------------------------------------


     EDDAV:  cpu time    8.7374: real time    8.7663
       DOS:  cpu time    0.0014: real time    0.0014
    CHARGE:  cpu time    0.2186: real time    0.2191
    MIXING:  cpu time    0.0020: real time    0.0021
    --------------------------------------------
      LOOP:  cpu time    8.9601: real time    8.9930

 eigenvalue-minimisations  :  4524
 total energy-change (2. order) :-0.1722820E+00  (-0.1717826E+00)
 number of electron     503.9998406 magnetization 
 augmentation part      191.3856931 magnetization 

 DIPCOR: dipole corrections for dipol
 direction  3 min pos     1,
 dipolmoment           0.000000      0.000000      0.000000 electrons x Angstroem
 Tr[quadrupol]    -10283.206813

 energy correction for charged system         0.000000 eV
 dipol+quadrupol energy correction           -0.000000 eV
 added-field ion interaction          0.000000 eV  (added to PSCEN)


 Broyden mixing:
  rms(total) = 0.62785E+01    rms(broyden)= 0.62785E+01
  rms(prec ) = 0.64110E+01
  weight for this iteration     100.00

 Free energy of the ion-electron system (eV)
  ---------------------------------------------------
  alpha Z        PSCENC =       805.86936429
  Ewald energy   TEWEN  =    200643.50610711
  -Hartree energ DENC   =   -243060.09792978
  -exchange      EXHF   =         0.00000000
  -V(xc)+E(xc)   XCENC  =      -327.49604040
  PAW double counting   =     40340.05962942   -38292.62782345
  entropy T*S    EENTRO =        -0.22726109
  eigenvalues    EBANDS =     -1974.56722002
  atomic energy  EATOM  =     41659.78587232
  Solvation  Ediel_sol  =         0.00000000
  ---------------------------------------------------
  free energy    TOTEN  =      -205.79530161 eV

  energy without entropy =     -205.56804052  energy(sigma->0) =     -205.68167106


--------------------------------------------------------------------------------------------------------




----------------------------------------- Iteration    1(   6)  ---------------------------------------


    POTLOK:  cpu time    0.0420: real time    0.0422
    SETDIJ:  cpu time    0.0050: real time    0.0052
    EDDIAG:  cpu time    1.2911: real time    1.2962
  RMM-DIIS:  cpu time    3.4489: real time    3.4578
    ORTHCH:  cpu time    0.3538: real time    0.3546
       DOS:  cpu time    0.0014: real time    0.0014
    CHARGE:  cpu time    0.2215: real time    0.2221
    MIXING:  cpu time    0.0019: real time    0.0020
    --------------------------------------------
      LOOP:  cpu time    5.3661: real time    5.3843

 eigenvalue-minimisations  :  3678
 total energy-change (2. order) : 0.5530335E+01  (-0.9302902E+01)
 number of electron     503.9998421 magnetization 
 augmentation part      191.7278095 magnetization 

 DIPCOR: dipole corrections for dipol
 direction  3 min pos     1,
 dipolmoment           0.000000      0.000000      0.002707 electrons x Angstroem
 Tr[quadrupol]    -10283.172571

 energy correction for charged system         0.000000 eV
 dipol+quadrupol energy correction           -0.000000 eV
 added-field ion interaction          0.000000 eV  (added to PSCEN)


 Broyden mixing:
  rms(total) = 0.57185E+01    rms(broyden)= 0.57183E+01
  rms(prec ) = 0.59501E+01
  weight for this iteration     100.00

 eigenvalues of (default mixing * dielectric matrix)
  average eigenvalue GAMMA=   0.6886
  0.6886

 Free energy of the ion-electron system (eV)
  ---------------------------------------------------
  alpha Z        PSCENC =       805.86936403
  Ewald energy   TEWEN  =    200643.50610711
  -Hartree energ DENC   =   -242760.51294995
  -exchange      EXHF   =         0.00000000
  -V(xc)+E(xc)   XCENC  =      -339.75081613
  PAW double counting   =     43939.76669289   -41951.37846811
  entropy T*S    EENTRO =        -0.22727903
  eigenvalues    EBANDS =     -2197.32349020
  atomic energy  EATOM  =     41659.78587232
  Solvation  Ediel_sol  =         0.00000000
  ---------------------------------------------------
  free energy    TOTEN  =      -200.26496708 eV

  energy without entropy =     -200.03768806  energy(sigma->0) =     -200.15132757


--------------------------------------------------------------------------------------------------------




----------------------------------------- Iteration    1(   7)  ---------------------------------------


    POTLOK:  cpu time    0.0412: real time    0.0415
    SETDIJ:  cpu time    0.0052: real time    0.0053
    EDDIAG:  cpu time    1.2814: real time    1.2857
  RMM-DIIS:  cpu time    3.4306: real time    3.4395
    ORTHCH:  cpu time    0.3532: real time    0.3542
       DOS:  cpu time    0.0014: real time    0.0014
    CHARGE:  cpu time    0.2188: real time    0.2194
    MIXING:  cpu time    0.0020: real time    0.0021
    --------------------------------------------
      LOOP:  cpu time    5.3346: real time    5.3515

 eigenvalue-minimisations  :  3681
 total energy-change (2. order) : 0.6012516E+00  (-0.4994149E+01)
 number of electron     503.9998364 magnetization 
 augmentation part      196.7579256 magnetization 

 DIPCOR: dipole corrections for dipol
 direction  3 min pos     1,
 dipolmoment           0.000000      0.000000     -0.015892 electrons x Angstroem
 Tr[quadrupol]    -10283.046058

 energy correction for charged system         0.000000 eV
 dipol+quadrupol energy correction           -0.000009 eV
 added-field ion interaction         -0.000000 eV  (added to PSCEN)


 Broyden mixing:
  rms(total) = 0.38782E+01    rms(broyden)= 0.38780E+01
  rms(prec ) = 0.40925E+01
  weight for this iteration     100.00

 eigenvalues of (default mixing * dielectric matrix)
  average eigenvalue GAMMA=   1.0254
  1.6551  0.3958

 Free energy of the ion-electron system (eV)
  ---------------------------------------------------
  alpha Z        PSCENC =       805.86935539
  Ewald energy   TEWEN  =    200643.50610711
  -Hartree energ DENC   =   -242659.88860894
  -exchange      EXHF   =         0.00000000
  -V(xc)+E(xc)   XCENC  =      -342.08248124
  PAW double counting   =     45317.26291592   -43353.15749856
  entropy T*S    EENTRO =        -0.19621326
  eigenvalues    EBANDS =     -2270.76316418
  atomic energy  EATOM  =     41659.78587232
  Solvation  Ediel_sol  =         0.00000000
  ---------------------------------------------------
  free energy    TOTEN  =      -199.66371544 eV

  energy without entropy =     -199.46750218  energy(sigma->0) =     -199.56560881


--------------------------------------------------------------------------------------------------------




----------------------------------------- Iteration    1(   8)  ---------------------------------------


    POTLOK:  cpu time    0.0417: real time    0.0419
    SETDIJ:  cpu time    0.0058: real time    0.0059
    EDDIAG:  cpu time    1.2926: real time    1.2966
  RMM-DIIS:  cpu time    3.3336: real time    3.4260
    ORTHCH:  cpu time    0.3517: real time    0.3525
       DOS:  cpu time    0.0014: real time    0.0014
    CHARGE:  cpu time    0.2199: real time    0.2204
    MIXING:  cpu time    0.0019: real time    0.0019
    --------------------------------------------
      LOOP:  cpu time    5.2491: real time    5.3507

 eigenvalue-minimisations  :  3682
 total energy-change (2. order) : 0.6190620E+00  (-0.5651869E+01)
 number of electron     503.9998339 magnetization 
 augmentation part      198.7186112 magnetization 

 DIPCOR: dipole corrections for dipol
 direction  3 min pos     1,
 dipolmoment           0.000000      0.000000      0.119919 electrons x Angstroem
 Tr[quadrupol]    -10284.527635

 energy correction for charged system         0.000000 eV
 dipol+quadrupol energy correction           -0.000507 eV
 added-field ion interaction         -0.000000 eV  (added to PSCEN)


 Broyden mixing:
  rms(total) = 0.27223E+01    rms(broyden)= 0.27220E+01
  rms(prec ) = 0.29213E+01
  weight for this iteration     100.00

 eigenvalues of (default mixing * dielectric matrix)
  average eigenvalue GAMMA=   1.0340
  2.2361  0.4900  0.3760

 Free energy of the ion-electron system (eV)
  ---------------------------------------------------
  alpha Z        PSCENC =       805.86885755
  Ewald energy   TEWEN  =    200643.50610711
  -Hartree energ DENC   =   -242642.87881806
  -exchange      EXHF   =         0.00000000
  -V(xc)+E(xc)   XCENC  =      -344.07679755
  PAW double counting   =     47770.65773979   -45838.65099718
  entropy T*S    EENTRO =        -0.23653487
  eigenvalues    EBANDS =     -2253.02008252
  atomic energy  EATOM  =     41659.78587232
  Solvation  Ediel_sol  =         0.00000000
  ---------------------------------------------------
  free energy    TOTEN  =      -199.04465341 eV

  energy without entropy =     -198.80811854  energy(sigma->0) =     -198.92638597


--------------------------------------------------------------------------------------------------------




----------------------------------------- Iteration    1(   9)  ---------------------------------------


    POTLOK:  cpu time    0.0405: real time    0.0421
    SETDIJ:  cpu time    0.0051: real time    0.0051
    EDDIAG:  cpu time    1.2827: real time    1.2877
  RMM-DIIS:  cpu time    3.4474: real time    3.4558
    ORTHCH:  cpu time    0.3501: real time    0.3529
       DOS:  cpu time    0.0014: real time    0.0014
    CHARGE:  cpu time    0.2181: real time    0.2186
    MIXING:  cpu time    0.0021: real time    0.0021
    --------------------------------------------
      LOOP:  cpu time    5.3480: real time    5.3693

 eigenvalue-minimisations  :  3680
 total energy-change (2. order) : 0.8334393E+01  (-0.1609602E+01)
 number of electron     503.9998349 magnetization 
 augmentation part      198.4088217 magnetization 

 DIPCOR: dipole corrections for dipol
 direction  3 min pos     1,
 dipolmoment           0.000000      0.000000     -0.127820 electrons x Angstroem
 Tr[quadrupol]    -10285.602406

 energy correction for charged system         0.000000 eV
 dipol+quadrupol energy correction           -0.000576 eV
 added-field ion interaction         -0.000000 eV  (added to PSCEN)


 Broyden mixing:
  rms(total) = 0.13607E+01    rms(broyden)= 0.13605E+01
  rms(prec ) = 0.15141E+01
  weight for this iteration     100.00

 eigenvalues of (default mixing * dielectric matrix)
  average eigenvalue GAMMA=   0.9304
  2.2870  0.5305  0.5305  0.3736

 Free energy of the ion-electron system (eV)
  ---------------------------------------------------
  alpha Z        PSCENC =       805.86878858
  Ewald energy   TEWEN  =    200643.50610711
  -Hartree energ DENC   =   -242686.24717648
  -exchange      EXHF   =         0.00000000
  -V(xc)+E(xc)   XCENC  =      -344.47596590
  PAW double counting   =     49199.32533942   -47281.63496025
  entropy T*S    EENTRO =        -0.23476229
  eigenvalues    EBANDS =     -2186.60350305
  atomic energy  EATOM  =     41659.78587232
  Solvation  Ediel_sol  =         0.00000000
  ---------------------------------------------------
  free energy    TOTEN  =      -190.71026055 eV

  energy without entropy =     -190.47549827  energy(sigma->0) =     -190.59287941


--------------------------------------------------------------------------------------------------------




----------------------------------------- Iteration    1(  10)  ---------------------------------------


    POTLOK:  cpu time    0.0400: real time    0.0401
    SETDIJ:  cpu time    0.0050: real time    0.0051
    EDDIAG:  cpu time    1.2870: real time    1.2919
  RMM-DIIS:  cpu time    3.3977: real time    3.4059
    ORTHCH:  cpu time    0.3525: real time    0.3533
       DOS:  cpu time    0.0013: real time    0.0013
    CHARGE:  cpu time    0.2194: real time    0.2199
    MIXING:  cpu time    0.0022: real time    0.0022
    --------------------------------------------
      LOOP:  cpu time    5.3057: real time    5.3221

 eigenvalue-minimisations  :  3679
 total energy-change (2. order) : 0.6100495E+00  (-0.8276085E+00)
 number of electron     503.9998364 magnetization 
 augmentation part      197.4964383 magnetization 

 DIPCOR: dipole corrections for dipol
 direction  3 min pos     1,
 dipolmoment           0.000000      0.000000      0.347595 electrons x Angstroem
 Tr[quadrupol]    -10285.981337

 energy correction for charged system         0.000000 eV
 dipol+quadrupol energy correction           -0.004257 eV
 added-field ion interaction          0.000000 eV  (added to PSCEN)


 Broyden mixing:
  rms(total) = 0.12345E+01    rms(broyden)= 0.12343E+01
  rms(prec ) = 0.15336E+01
  weight for this iteration     100.00

 eigenvalues of (default mixing * dielectric matrix)
  average eigenvalue GAMMA=   0.8380
  2.2836  0.6154  0.6154  0.3873  0.2885

 Free energy of the ion-electron system (eV)
  ---------------------------------------------------
  alpha Z        PSCENC =       805.86510684
  Ewald energy   TEWEN  =    200643.50610711
  -Hartree energ DENC   =   -242716.08708084
  -exchange      EXHF   =         0.00000000
  -V(xc)+E(xc)   XCENC  =      -344.10991287
  PAW double counting   =     49380.02504316   -47462.08748937
  entropy T*S    EENTRO =        -0.16538655
  eigenvalues    EBANDS =     -2156.83247088
  atomic energy  EATOM  =     41659.78587232
  Solvation  Ediel_sol  =         0.00000000
  ---------------------------------------------------
  free energy    TOTEN  =      -190.10021107 eV

  energy without entropy =     -189.93482453  energy(sigma->0) =     -190.01751780


--------------------------------------------------------------------------------------------------------




----------------------------------------- Iteration    1(  11)  ---------------------------------------


    POTLOK:  cpu time    0.0401: real time    0.0402
    SETDIJ:  cpu time    0.0052: real time    0.0055
    EDDIAG:  cpu time    1.2838: real time    1.2889
  RMM-DIIS:  cpu time    3.4035: real time    3.4117
    ORTHCH:  cpu time    0.3524: real time    0.3532
       DOS:  cpu time    0.0014: real time    0.0014
    CHARGE:  cpu time    0.2184: real time    0.2189
    MIXING:  cpu time    0.0023: real time    0.0023
    --------------------------------------------
      LOOP:  cpu time    5.3076: real time    5.3247

 eigenvalue-minimisations  :  3679
 total energy-change (2. order) : 0.5146289E+00  (-0.3310754E+00)
 number of electron     503.9998367 magnetization 
 augmentation part      197.1300580 magnetization 

 DIPCOR: dipole corrections for dipol
 direction  3 min pos     1,
 dipolmoment           0.000000      0.000000     -0.348789 electrons x Angstroem
 Tr[quadrupol]    -10286.279891

 energy correction for charged system         0.000000 eV
 dipol+quadrupol energy correction           -0.004287 eV
 added-field ion interaction          0.000000 eV  (added to PSCEN)


 Broyden mixing:
  rms(total) = 0.11860E+01    rms(broyden)= 0.11857E+01
  rms(prec ) = 0.14852E+01
  weight for this iteration     100.00

 eigenvalues of (default mixing * dielectric matrix)
  average eigenvalue GAMMA=   0.7515
  2.2729  0.7749  0.4733  0.4733  0.3353  0.1794

 Free energy of the ion-electron system (eV)
  ---------------------------------------------------
  alpha Z        PSCENC =       805.86507754
  Ewald energy   TEWEN  =    200643.50610711
  -Hartree energ DENC   =   -242734.35791001
  -exchange      EXHF   =         0.00000000
  -V(xc)+E(xc)   XCENC  =      -343.88261619
  PAW double counting   =     49424.96514766   -47506.32441102
  entropy T*S    EENTRO =        -0.20340772
  eigenvalues    EBANDS =     -2138.93944184
  atomic energy  EATOM  =     41659.78587232
  Solvation  Ediel_sol  =         0.00000000
  ---------------------------------------------------
  free energy    TOTEN  =      -189.58558216 eV

  energy without entropy =     -189.38217444  energy(sigma->0) =     -189.48387830


--------------------------------------------------------------------------------------------------------




----------------------------------------- Iteration    1(  12)  ---------------------------------------


    POTLOK:  cpu time    0.0403: real time    0.0403
    SETDIJ:  cpu time    0.0050: real time    0.0050
    EDDIAG:  cpu time    1.2906: real time    1.2948
  RMM-DIIS:  cpu time    3.4192: real time    3.4274
    ORTHCH:  cpu time    0.3525: real time    0.3534
       DOS:  cpu time    0.0014: real time    0.0014
    CHARGE:  cpu time    0.2188: real time    0.2193
    MIXING:  cpu time    0.0023: real time    0.0023
    --------------------------------------------
      LOOP:  cpu time    5.3306: real time    5.3465

 eigenvalue-minimisations  :  3679
 total energy-change (2. order) : 0.1672673E+01  (-0.1414215E+00)
 number of electron     503.9998361 magnetization 
 augmentation part      197.2890358 magnetization 

 DIPCOR: dipole corrections for dipol
 direction  3 min pos     1,
 dipolmoment           0.000000      0.000000      0.037348 electrons x Angstroem
 Tr[quadrupol]    -10286.350500

 energy correction for charged system         0.000000 eV
 dipol+quadrupol energy correction           -0.000049 eV
 added-field ion interaction          0.000000 eV  (added to PSCEN)


 Broyden mixing:
  rms(total) = 0.56717E+00    rms(broyden)= 0.56690E+00
  rms(prec ) = 0.61599E+00
  weight for this iteration     100.00

 eigenvalues of (default mixing * dielectric matrix)
  average eigenvalue GAMMA=   0.7220
  2.2513  0.8067  0.6076  0.6076  0.3392  0.2717  0.1698

 Free energy of the ion-electron system (eV)
  ---------------------------------------------------
  alpha Z        PSCENC =       805.86931513
  Ewald energy   TEWEN  =    200643.50610711
  -Hartree energ DENC   =   -242740.65547546
  -exchange      EXHF   =         0.00000000
  -V(xc)+E(xc)   XCENC  =      -343.74623586
  PAW double counting   =     49436.83708428   -47517.73413879
  entropy T*S    EENTRO =        -0.27565013
  eigenvalues    EBANDS =     -2131.49978740
  atomic energy  EATOM  =     41659.78587232
  Solvation  Ediel_sol  =         0.00000000
  ---------------------------------------------------
  free energy    TOTEN  =      -187.91290881 eV

  energy without entropy =     -187.63725868  energy(sigma->0) =     -187.77508374


--------------------------------------------------------------------------------------------------------




----------------------------------------- Iteration    1(  13)  ---------------------------------------


    POTLOK:  cpu time    0.0400: real time    0.0401
    SETDIJ:  cpu time    0.0052: real time    0.0052
    EDDIAG:  cpu time    1.2922: real time    1.2965
  RMM-DIIS:  cpu time    3.4209: real time    3.4312
    ORTHCH:  cpu time    0.3524: real time    0.3537
       DOS:  cpu time    0.0013: real time    0.0013
    CHARGE:  cpu time    0.2185: real time    0.2190
    MIXING:  cpu time    0.0027: real time    0.0027
    --------------------------------------------
      LOOP:  cpu time    5.3338: real time    5.3523

 eigenvalue-minimisations  :  3680
 total energy-change (2. order) : 0.1213830E+00  (-0.4871780E-01)
 number of electron     503.9998366 magnetization 
 augmentation part      197.1703203 magnetization 

 DIPCOR: dipole corrections for dipol
 direction  3 min pos     1,
 dipolmoment           0.000000      0.000000     -0.012998 electrons x Angstroem
 Tr[quadrupol]    -10286.266086

 energy correction for charged system         0.000000 eV
 dipol+quadrupol energy correction           -0.000006 eV
 added-field ion interaction          0.000000 eV  (added to PSCEN)


 Broyden mixing:
  rms(total) = 0.41809E+00    rms(broyden)= 0.41801E+00
  rms(prec ) = 0.45138E+00
  weight for this iteration     100.00

 eigenvalues of (default mixing * dielectric matrix)
  average eigenvalue GAMMA=   0.7314
  2.2355  0.8742  0.8297  0.8297  0.3304  0.3304  0.2563  0.1652

 Free energy of the ion-electron system (eV)
  ---------------------------------------------------
  alpha Z        PSCENC =       805.86935833
  Ewald energy   TEWEN  =    200643.50610711
  -Hartree energ DENC   =   -242741.71037880
  -exchange      EXHF   =         0.00000000
  -V(xc)+E(xc)   XCENC  =      -343.57387175
  PAW double counting   =     49435.71929997   -47515.89385721
  entropy T*S    EENTRO =        -0.26097745
  eigenvalues    EBANDS =     -2131.23307829
  atomic energy  EATOM  =     41659.78587232
  Solvation  Ediel_sol  =         0.00000000
  ---------------------------------------------------
  free energy    TOTEN  =      -187.79152577 eV

  energy without entropy =     -187.53054832  energy(sigma->0) =     -187.66103705


--------------------------------------------------------------------------------------------------------




----------------------------------------- Iteration    1(  14)  ---------------------------------------


    POTLOK:  cpu time    0.0406: real time    0.0408
    SETDIJ:  cpu time    0.0056: real time    0.0056
    EDDIAG:  cpu time    1.2851: real time    1.2885
  RMM-DIIS:  cpu time    3.4287: real time    3.4371
    ORTHCH:  cpu time    0.3512: real time    0.3520
       DOS:  cpu time    0.0014: real time    0.0014
    CHARGE:  cpu time    0.2187: real time    0.2192
    MIXING:  cpu time    0.0028: real time    0.0028
    --------------------------------------------
      LOOP:  cpu time    5.3348: real time    5.3526

 eigenvalue-minimisations  :  3682
 total energy-change (2. order) : 0.1614234E-01  (-0.2479932E-01)
 number of electron     503.9998364 magnetization 
 augmentation part      197.0726596 magnetization 

 DIPCOR: dipole corrections for dipol
 direction  3 min pos     1,
 dipolmoment           0.000000      0.000000      0.009095 electrons x Angstroem
 Tr[quadrupol]    -10286.628119

 energy correction for charged system         0.000000 eV
 dipol+quadrupol energy correction           -0.000003 eV
 added-field ion interaction          0.000000 eV  (added to PSCEN)


 Broyden mixing:
  rms(total) = 0.42117E+00    rms(broyden)= 0.42109E+00
  rms(prec ) = 0.46723E+00
  weight for this iteration     100.00

 eigenvalues of (default mixing * dielectric matrix)
  average eigenvalue GAMMA=   0.7233
  2.2219  0.9627  0.9366  0.9366  0.3929  0.3929  0.2509  0.2509  0.1637

 Free energy of the ion-electron system (eV)
  ---------------------------------------------------
  alpha Z        PSCENC =       805.86936137
  Ewald energy   TEWEN  =    200643.50610711
  -Hartree energ DENC   =   -242758.23685510
  -exchange      EXHF   =         0.00000000
  -V(xc)+E(xc)   XCENC  =      -343.39375178
  PAW double counting   =     49451.11119824   -47530.38590679
  entropy T*S    EENTRO =        -0.26383841
  eigenvalues    EBANDS =     -2115.76757039
  atomic energy  EATOM  =     41659.78587232
  Solvation  Ediel_sol  =         0.00000000
  ---------------------------------------------------
  free energy    TOTEN  =      -187.77538344 eV

  energy without entropy =     -187.51154502  energy(sigma->0) =     -187.64346423


--------------------------------------------------------------------------------------------------------




----------------------------------------- Iteration    1(  15)  ---------------------------------------


    POTLOK:  cpu time    0.0407: real time    0.0408
    SETDIJ:  cpu time    0.0051: real time    0.0051
    EDDIAG:  cpu time    1.2861: real time    1.2891
  RMM-DIIS:  cpu time    3.4115: real time    3.4198
    ORTHCH:  cpu time    0.3501: real time    0.3509
       DOS:  cpu time    0.0013: real time    0.0013
    CHARGE:  cpu time    0.2179: real time    0.2184
    MIXING:  cpu time    0.0029: real time    0.0029
    --------------------------------------------
      LOOP:  cpu time    5.3162: real time    5.3311

 eigenvalue-minimisations  :  3680
 total energy-change (2. order) : 0.3054705E-01  (-0.1762982E-01)
 number of electron     503.9998364 magnetization 
 augmentation part      197.0697257 magnetization 

 DIPCOR: dipole corrections for dipol
 direction  3 min pos     1,
 dipolmoment           0.000000      0.000000      0.001039 electrons x Angstroem
 Tr[quadrupol]    -10286.895767

 energy correction for charged system         0.000000 eV
 dipol+quadrupol energy correction           -0.000000 eV
 added-field ion interaction          0.000000 eV  (added to PSCEN)


 Broyden mixing:
  rms(total) = 0.34250E+00    rms(broyden)= 0.34236E+00
  rms(prec ) = 0.38786E+00
  weight for this iteration     100.00

 eigenvalues of (default mixing * dielectric matrix)
  average eigenvalue GAMMA=   0.7250
  2.1660  1.4676  0.9906  0.8158  0.4463  0.4463  0.2852  0.2852  0.1621  0.1851

 Free energy of the ion-electron system (eV)
  ---------------------------------------------------
  alpha Z        PSCENC =       805.86936425
  Ewald energy   TEWEN  =    200643.50610711
  -Hartree energ DENC   =   -242769.88434064
  -exchange      EXHF   =         0.00000000
  -V(xc)+E(xc)   XCENC  =      -343.29443116
  PAW double counting   =     49460.60995630   -47539.34865644
  entropy T*S    EENTRO =        -0.26911042
  eigenvalues    EBANDS =     -2104.71959769
  atomic energy  EATOM  =     41659.78587232
  Solvation  Ediel_sol  =         0.00000000
  ---------------------------------------------------
  free energy    TOTEN  =      -187.74483638 eV

  energy without entropy =     -187.47572596  energy(sigma->0) =     -187.61028117


--------------------------------------------------------------------------------------------------------




----------------------------------------- Iteration    1(  16)  ---------------------------------------


    POTLOK:  cpu time    0.0405: real time    0.0406
    SETDIJ:  cpu time    0.0052: real time    0.0052
    EDDIAG:  cpu time    1.2677: real time    1.3441
  RMM-DIIS:  cpu time    3.4267: real time    3.4355
    ORTHCH:  cpu time    0.3502: real time    0.3510
       DOS:  cpu time    0.0014: real time    0.0014
    CHARGE:  cpu time    0.2174: real time    0.2180
    MIXING:  cpu time    0.0028: real time    0.0028
    --------------------------------------------
      LOOP:  cpu time    5.3126: real time    5.4011

 eigenvalue-minimisations  :  3681
 total energy-change (2. order) : 0.5902826E-01  (-0.1279876E-01)
 number of electron     503.9998366 magnetization 
 augmentation part      197.0926186 magnetization 

 DIPCOR: dipole corrections for dipol
 direction  3 min pos     1,
 dipolmoment           0.000000      0.000000     -0.010685 electrons x Angstroem
 Tr[quadrupol]    -10287.050623

 energy correction for charged system         0.000000 eV
 dipol+quadrupol energy correction           -0.000004 eV
 added-field ion interaction          0.000000 eV  (added to PSCEN)


 Broyden mixing:
  rms(total) = 0.20760E+00    rms(broyden)= 0.20752E+00
  rms(prec ) = 0.23625E+00
  weight for this iteration     100.00

 eigenvalues of (default mixing * dielectric matrix)
  average eigenvalue GAMMA=   0.7409
  2.1391  1.6817  1.3843  0.6663  0.6663  0.3767  0.3767  0.2779  0.2495  0.1657
  0.1657

 Free energy of the ion-electron system (eV)
  ---------------------------------------------------
  alpha Z        PSCENC =       805.86936026
  Ewald energy   TEWEN  =    200643.50610711
  -Hartree energ DENC   =   -242777.27267938
  -exchange      EXHF   =         0.00000000
  -V(xc)+E(xc)   XCENC  =      -343.20883414
  PAW double counting   =     49464.00017701   -47542.22844683
  entropy T*S    EENTRO =        -0.27209580
  eigenvalues    EBANDS =     -2097.86526867
  atomic energy  EATOM  =     41659.78587232
  Solvation  Ediel_sol  =         0.00000000
  ---------------------------------------------------
  free energy    TOTEN  =      -187.68580812 eV

  energy without entropy =     -187.41371232  energy(sigma->0) =     -187.54976022


--------------------------------------------------------------------------------------------------------




----------------------------------------- Iteration    1(  17)  ---------------------------------------


    POTLOK:  cpu time    0.0403: real time    0.0404
    SETDIJ:  cpu time    0.0052: real time    0.0052
    EDDIAG:  cpu time    1.2755: real time    1.2889
  RMM-DIIS:  cpu time    3.3877: real time    3.4211
    ORTHCH:  cpu time    0.3498: real time    0.3506
       DOS:  cpu time    0.0014: real time    0.0014
    CHARGE:  cpu time    0.2177: real time    0.2182
    MIXING:  cpu time    0.0030: real time    0.0031
    --------------------------------------------
      LOOP:  cpu time    5.2812: real time    5.3316

 eigenvalue-minimisations  :  3681
 total energy-change (2. order) : 0.3029762E-01  (-0.6837182E-02)
 number of electron     503.9998365 magnetization 
 augmentation part      197.1270419 magnetization 

 DIPCOR: dipole corrections for dipol
 direction  3 min pos     1,
 dipolmoment           0.000000      0.000000      0.003228 electrons x Angstroem
 Tr[quadrupol]    -10287.264798

 energy correction for charged system         0.000000 eV
 dipol+quadrupol energy correction           -0.000000 eV
 added-field ion interaction          0.000000 eV  (added to PSCEN)


 Broyden mixing:
  rms(total) = 0.12763E+00    rms(broyden)= 0.12758E+00
  rms(prec ) = 0.14193E+00
  weight for this iteration     100.00

 eigenvalues of (default mixing * dielectric matrix)
  average eigenvalue GAMMA=   0.7533
  2.2106  2.2106  1.2795  0.6506  0.6506  0.4367  0.4367  0.3146  0.2606  0.2606
  0.1644  0.1644

 Free energy of the ion-electron system (eV)
  ---------------------------------------------------
  alpha Z        PSCENC =       805.86936392
  Ewald energy   TEWEN  =    200643.50610711
  -Hartree energ DENC   =   -242784.61974817
  -exchange      EXHF   =         0.00000000
  -V(xc)+E(xc)   XCENC  =      -343.19352518
  PAW double counting   =     49470.09553753   -47548.09280105
  entropy T*S    EENTRO =        -0.27264286
  eigenvalues    EBANDS =     -2090.73367411
  atomic energy  EATOM  =     41659.78587232
  Solvation  Ediel_sol  =         0.00000000
  ---------------------------------------------------
  free energy    TOTEN  =      -187.65551050 eV

  energy without entropy =     -187.38286763  energy(sigma->0) =     -187.51918906


--------------------------------------------------------------------------------------------------------




----------------------------------------- Iteration    1(  18)  ---------------------------------------


    POTLOK:  cpu time    0.0409: real time    0.0412
    SETDIJ:  cpu time    0.0049: real time    0.0050
    EDDIAG:  cpu time    1.2824: real time    1.2877
  RMM-DIIS:  cpu time    3.4056: real time    3.4138
    ORTHCH:  cpu time    0.3497: real time    0.3505
       DOS:  cpu time    0.0013: real time    0.0014
    CHARGE:  cpu time    0.2160: real time    0.2165
    MIXING:  cpu time    0.0032: real time    0.0032
    --------------------------------------------
      LOOP:  cpu time    5.3046: real time    5.3228

 eigenvalue-minimisations  :  3680
 total energy-change (2. order) : 0.1247784E-01  (-0.2343961E-02)
 number of electron     503.9998365 magnetization 
 augmentation part      197.1279529 magnetization 

 DIPCOR: dipole corrections for dipol
 direction  3 min pos     1,
 dipolmoment           0.000000      0.000000     -0.002071 electrons x Angstroem
 Tr[quadrupol]    -10287.429907

 energy correction for charged system         0.000000 eV
 dipol+quadrupol energy correction           -0.000000 eV
 added-field ion interaction         -0.000000 eV  (added to PSCEN)


 Broyden mixing:
  rms(total) = 0.68484E-01    rms(broyden)= 0.68453E-01
  rms(prec ) = 0.78251E-01
  weight for this iteration     100.00

 eigenvalues of (default mixing * dielectric matrix)
  average eigenvalue GAMMA=   0.7401
  2.2938  2.2938  1.2693  0.6897  0.6897  0.4818  0.3781  0.3781  0.2886  0.2886
  0.2426  0.1633  0.1633

 Free energy of the ion-electron system (eV)
  ---------------------------------------------------
  alpha Z        PSCENC =       805.86936414
  Ewald energy   TEWEN  =    200643.50610711
  -Hartree energ DENC   =   -242790.71060672
  -exchange      EXHF   =         0.00000000
  -V(xc)+E(xc)   XCENC  =      -343.16250387
  PAW double counting   =     49476.53466006   -47554.33270055
  entropy T*S    EENTRO =        -0.27653557
  eigenvalues    EBANDS =     -2084.85668957
  atomic energy  EATOM  =     41659.78587232
  Solvation  Ediel_sol  =         0.00000000
  ---------------------------------------------------
  free energy    TOTEN  =      -187.64303266 eV

  energy without entropy =     -187.36649709  energy(sigma->0) =     -187.50476487


--------------------------------------------------------------------------------------------------------




----------------------------------------- Iteration    1(  19)  ---------------------------------------


    POTLOK:  cpu time    0.0410: real time    0.0412
    SETDIJ:  cpu time    0.0052: real time    0.0052
    EDDIAG:  cpu time    1.2921: real time    1.2965
  RMM-DIIS:  cpu time    3.4117: real time    3.4199
    ORTHCH:  cpu time    0.3497: real time    0.3506
       DOS:  cpu time    0.0014: real time    0.0014
    CHARGE:  cpu time    0.2179: real time    0.2185
    MIXING:  cpu time    0.0034: real time    0.0034
    --------------------------------------------
      LOOP:  cpu time    5.3231: real time    5.3398

 eigenvalue-minimisations  :  3682
 total energy-change (2. order) : 0.4296008E-02  (-0.4062588E-03)
 number of electron     503.9998365 magnetization 
 augmentation part      197.1257965 magnetization 

 DIPCOR: dipole corrections for dipol
 direction  3 min pos     1,
 dipolmoment           0.000000      0.000000     -0.002004 electrons x Angstroem
 Tr[quadrupol]    -10287.516246

 energy correction for charged system         0.000000 eV
 dipol+quadrupol energy correction           -0.000000 eV
 added-field ion interaction          0.000000 eV  (added to PSCEN)


 Broyden mixing:
  rms(total) = 0.36632E-01    rms(broyden)= 0.36620E-01
  rms(prec ) = 0.41861E-01
  weight for this iteration     100.00

 eigenvalues of (default mixing * dielectric matrix)
  average eigenvalue GAMMA=   0.7610
  2.3806  2.3806  1.1631  0.8792  0.8792  0.6426  0.4397  0.4397  0.3205  0.2799
  0.2607  0.2607  0.1637  0.1637

 Free energy of the ion-electron system (eV)
  ---------------------------------------------------
  alpha Z        PSCENC =       805.86936414
  Ewald energy   TEWEN  =    200643.50610711
  -Hartree energ DENC   =   -242793.74153456
  -exchange      EXHF   =         0.00000000
  -V(xc)+E(xc)   XCENC  =      -343.15333043
  PAW double counting   =     49478.25652927   -47556.00815921
  entropy T*S    EENTRO =        -0.27656640
  eigenvalues    EBANDS =     -2081.87701890
  atomic energy  EATOM  =     41659.78587232
  Solvation  Ediel_sol  =         0.00000000
  ---------------------------------------------------
  free energy    TOTEN  =      -187.63873665 eV

  energy without entropy =     -187.36217025  energy(sigma->0) =     -187.50045345


--------------------------------------------------------------------------------------------------------




----------------------------------------- Iteration    1(  20)  ---------------------------------------


    POTLOK:  cpu time    0.0411: real time    0.0413
    SETDIJ:  cpu time    0.0051: real time    0.0052
    EDDIAG:  cpu time    1.2878: real time    1.2920
  RMM-DIIS:  cpu time    3.4292: real time    3.4382
    ORTHCH:  cpu time    0.3504: real time    0.3513
       DOS:  cpu time    0.0014: real time    0.0014
    CHARGE:  cpu time    0.2169: real time    0.2174
    MIXING:  cpu time    0.0036: real time    0.0036
    --------------------------------------------
      LOOP:  cpu time    5.3361: real time    5.3540

 eigenvalue-minimisations  :  3678
 total energy-change (2. order) : 0.6160792E-03  (-0.2466710E-03)
 number of electron     503.9998364 magnetization 
 augmentation part      197.1234213 magnetization 

 DIPCOR: dipole corrections for dipol
 direction  3 min pos     1,
 dipolmoment           0.000000      0.000000     -0.000261 electrons x Angstroem
 Tr[quadrupol]    -10287.649231

 energy correction for charged system         0.000000 eV
 dipol+quadrupol energy correction           -0.000000 eV
 added-field ion interaction         -0.000000 eV  (added to PSCEN)


 Broyden mixing:
  rms(total) = 0.30279E-01    rms(broyden)= 0.30273E-01
  rms(prec ) = 0.34847E-01
  weight for this iteration     100.00

 eigenvalues of (default mixing * dielectric matrix)
  average eigenvalue GAMMA=   0.7574
  2.3972  2.3972  1.0903  1.0903  0.9274  0.7227  0.5341  0.3753  0.3753  0.3671
  0.2624  0.2624  0.2313  0.1637  0.1637

 Free energy of the ion-electron system (eV)
  ---------------------------------------------------
  alpha Z        PSCENC =       805.86936428
  Ewald energy   TEWEN  =    200643.50610711
  -Hartree energ DENC   =   -242798.54725820
  -exchange      EXHF   =         0.00000000
  -V(xc)+E(xc)   XCENC  =      -343.14005620
  PAW double counting   =     49479.41011954   -47557.14307641
  entropy T*S    EENTRO =        -0.27863592
  eigenvalues    EBANDS =     -2077.10055709
  atomic energy  EATOM  =     41659.78587232
  Solvation  Ediel_sol  =         0.00000000
  ---------------------------------------------------
  free energy    TOTEN  =      -187.63812057 eV

  energy without entropy =     -187.35948466  energy(sigma->0) =     -187.49880261


--------------------------------------------------------------------------------------------------------




----------------------------------------- Iteration    1(  21)  ---------------------------------------


    POTLOK:  cpu time    0.0405: real time    0.0415
    SETDIJ:  cpu time    0.0051: real time    0.0051
    EDDIAG:  cpu time    1.2823: real time    1.2872
  RMM-DIIS:  cpu time    3.4622: real time    3.4710
    ORTHCH:  cpu time    0.3497: real time    0.3505
       DOS:  cpu time    0.0013: real time    0.0014
    CHARGE:  cpu time    0.2176: real time    0.2182
    MIXING:  cpu time    0.0036: real time    0.0037
    --------------------------------------------
      LOOP:  cpu time    5.3631: real time    5.3818

 eigenvalue-minimisations  :  3678
 total energy-change (2. order) : 0.6296624E-03  (-0.1202363E-03)
 number of electron     503.9998364 magnetization 
 augmentation part      197.1226150 magnetization 

 DIPCOR: dipole corrections for dipol
 direction  3 min pos     1,
 dipolmoment           0.000000      0.000000      0.001872 electrons x Angstroem
 Tr[quadrupol]    -10287.737827

 energy correction for charged system         0.000000 eV
 dipol+quadrupol energy correction           -0.000000 eV
 added-field ion interaction         -0.000000 eV  (added to PSCEN)


 Broyden mixing:
  rms(total) = 0.17121E-01    rms(broyden)= 0.17112E-01
  rms(prec ) = 0.19781E-01
  weight for this iteration     100.00

 eigenvalues of (default mixing * dielectric matrix)
  average eigenvalue GAMMA=   0.7710
  2.5478  2.2890  1.3634  1.3634  0.7663  0.6954  0.6954  0.4443  0.4443  0.3382
  0.2980  0.2631  0.2631  0.2364  0.1636  0.1636

 Free energy of the ion-electron system (eV)
  ---------------------------------------------------
  alpha Z        PSCENC =       805.86936416
  Ewald energy   TEWEN  =    200643.50610711
  -Hartree energ DENC   =   -242801.79049641
  -exchange      EXHF   =         0.00000000
  -V(xc)+E(xc)   XCENC  =      -343.13155569
  PAW double counting   =     49479.85524473   -47557.60767161
  entropy T*S    EENTRO =        -0.27846173
  eigenvalues    EBANDS =     -2073.84589378
  atomic energy  EATOM  =     41659.78587232
  Solvation  Ediel_sol  =         0.00000000
  ---------------------------------------------------
  free energy    TOTEN  =      -187.63749091 eV

  energy without entropy =     -187.35902918  energy(sigma->0) =     -187.49826004


--------------------------------------------------------------------------------------------------------




----------------------------------------- Iteration    1(  22)  ---------------------------------------


    POTLOK:  cpu time    0.0405: real time    0.0406
    SETDIJ:  cpu time    0.0049: real time    0.0049
    EDDIAG:  cpu time    1.2826: real time    1.2869
  RMM-DIIS:  cpu time    3.4346: real time    3.4429
    ORTHCH:  cpu time    0.3486: real time    0.3494
       DOS:  cpu time    0.0014: real time    0.0014
    CHARGE:  cpu time    0.2192: real time    0.2197
    MIXING:  cpu time    0.0038: real time    0.0038
    --------------------------------------------
      LOOP:  cpu time    5.3364: real time    5.3522

 eigenvalue-minimisations  :  3686
 total energy-change (2. order) :-0.1789972E-04  (-0.4361692E-04)
 number of electron     503.9998364 magnetization 
 augmentation part      197.1200938 magnetization 

 DIPCOR: dipole corrections for dipol
 direction  3 min pos     1,
 dipolmoment           0.000000      0.000000      0.001134 electrons x Angstroem
 Tr[quadrupol]    -10287.831140

 energy correction for charged system         0.000000 eV
 dipol+quadrupol energy correction           -0.000000 eV
 added-field ion interaction          0.000000 eV  (added to PSCEN)


 Broyden mixing:
  rms(total) = 0.11300E-01    rms(broyden)= 0.11295E-01
  rms(prec ) = 0.13281E-01
  weight for this iteration     100.00

 eigenvalues of (default mixing * dielectric matrix)
  average eigenvalue GAMMA=   0.7767
  2.6187  2.1502  1.7286  1.4740  0.8115  0.7422  0.7422  0.4432  0.4432  0.3517
  0.3517  0.1636  0.1636  0.2681  0.2681  0.2499  0.2337

 Free energy of the ion-electron system (eV)
  ---------------------------------------------------
  alpha Z        PSCENC =       805.86936424
  Ewald energy   TEWEN  =    200643.50610711
  -Hartree energ DENC   =   -242805.15813955
  -exchange      EXHF   =         0.00000000
  -V(xc)+E(xc)   XCENC  =      -343.12323883
  PAW double counting   =     49480.37530607   -47558.15307160
  entropy T*S    EENTRO =        -0.27864772
  eigenvalues    EBANDS =     -2070.46106084
  atomic energy  EATOM  =     41659.78587232
  Solvation  Ediel_sol  =         0.00000000
  ---------------------------------------------------
  free energy    TOTEN  =      -187.63750881 eV

  energy without entropy =     -187.35886109  energy(sigma->0) =     -187.49818495


--------------------------------------------------------------------------------------------------------




----------------------------------------- Iteration    1(  23)  ---------------------------------------


    POTLOK:  cpu time    0.0409: real time    0.0416
    SETDIJ:  cpu time    0.0051: real time    0.0051
    EDDIAG:  cpu time    1.2792: real time    1.2822
  RMM-DIIS:  cpu time    3.3543: real time    3.4453
    ORTHCH:  cpu time    0.3540: real time    0.3548
       DOS:  cpu time    0.0013: real time    0.0013
    CHARGE:  cpu time    0.2175: real time    0.2180
    MIXING:  cpu time    0.0042: real time    0.0042
    --------------------------------------------
      LOOP:  cpu time    5.2571: real time    5.3568

 eigenvalue-minimisations  :  3681
 total energy-change (2. order) :-0.1847496E-03  (-0.2255109E-04)
 number of electron     503.9998364 magnetization 
 augmentation part      197.1192630 magnetization 

 DIPCOR: dipole corrections for dipol
 direction  3 min pos     1,
 dipolmoment           0.000000      0.000000      0.001485 electrons x Angstroem
 Tr[quadrupol]    -10287.922571

 energy correction for charged system         0.000000 eV
 dipol+quadrupol energy correction           -0.000000 eV
[...]
    275       1.7526      0.00000
    276       1.7989      0.00000
    277       2.0252      0.00000
    278       2.1355      0.00000
    279       2.2461      0.00000
    280       2.3322      0.00000
    281       2.4424      0.00000
    282       2.5747      0.00000
    283       2.6834      0.00000
    284       2.9228      0.00000
    285       3.1859      0.00000
    286       3.2766      0.00000
    287       3.5231      0.00000
    288       3.5766      0.00000
    289       3.6763      0.00000
    290       3.8926      0.00000
    291       4.0749      0.00000
    292       4.1462      0.00000
    293       4.4074      0.00000
    294       4.5362      0.00000
    295       4.5731      0.00000
    296       4.6318      0.00000
    297       4.6914      0.00000
    298       4.7540      0.00000
    299       4.8483      0.00000
    300       4.9088      0.00000
    301       4.9837      0.00000
    302       5.0538      0.00000
    303       5.0853      0.00000
    304       5.1574      0.00000
    305       5.2294      0.00000
    306       5.2668      0.00000


--------------------------------------------------------------------------------------------------------


 soft charge-density along one line, spin component           1
         0         1         2         3         4         5         6         7         8         9
 total charge-density along one line
 
 pseudopotential strength for first ion, spin component:           1
 -8.043   0.004  -0.003  -0.005  -0.001  -8.190   0.004  -0.003
  0.004  -7.961   0.000   0.003   0.001   0.004  -8.109   0.000
 -0.003   0.000  -7.960   0.001   0.004  -0.003   0.000  -8.108
 -0.005   0.003   0.001  -7.968   0.001  -0.005   0.003   0.001
 -0.001   0.001   0.004   0.001  -8.043  -0.001   0.001   0.004
 -8.190   0.004  -0.003  -0.005  -0.001  -8.320   0.004  -0.003
  0.004  -8.109   0.000   0.003   0.001   0.004  -8.242   0.000
 -0.003   0.000  -8.108   0.001   0.004  -0.003   0.000  -8.241
 -0.005   0.003   0.001  -8.116   0.001  -0.005   0.003   0.001
 -0.001   0.001   0.004   0.001  -8.190  -0.001   0.001   0.004
 -0.002   0.002  -0.025  -0.001   0.002  -0.002   0.002  -0.025
 -0.003   0.003  -0.037  -0.002   0.003  -0.003   0.003  -0.037
  0.001  -0.003   0.002  -0.000   0.003   0.001  -0.003   0.002
 -0.000  -0.003  -0.005   0.000  -0.000  -0.000  -0.003  -0.005
 -0.003  -0.000  -0.001  -0.003   0.001  -0.003  -0.000  -0.001
  0.001  -0.003   0.002  -0.000   0.004   0.001  -0.002   0.002
 -0.000  -0.004  -0.005   0.000  -0.000  -0.000  -0.004  -0.005
 -0.004  -0.000  -0.001  -0.003   0.001  -0.003  -0.000  -0.001
 total augmentation occupancy for first ion, spin component:           1
  4.028   0.026   0.096   0.021   0.094  -2.220   0.006  -0.100  -0.066  -0.101   0.128  -0.049  -0.045  -0.005  -0.002   0.003
  0.026   4.111  -0.017  -0.017   0.048   0.006  -1.817   0.032   0.029  -0.053  -0.061  -0.008  -0.158   0.005  -0.007   0.005
  0.096  -0.017   4.289  -0.065  -0.169  -0.100   0.032  -2.178   0.058   0.175   1.011  -0.115  -0.016  -0.205   0.018   0.002
  0.021  -0.017  -0.065   4.007  -0.024  -0.065   0.029   0.058  -1.740   0.012   0.063  -0.033  -0.007   0.014  -0.127  -0.000
  0.094   0.048  -0.169  -0.024   4.432  -0.101  -0.054   0.175   0.011  -2.608  -0.157   0.080  -0.035   0.010   0.023   0.005
 -2.220   0.006  -0.100  -0.065  -0.101   2.292  -0.030   0.103   0.099   0.106  -0.115   0.047   0.037   0.006   0.006  -0.002
  0.006  -1.817   0.032   0.029  -0.054  -0.030   1.500  -0.042  -0.037   0.058   0.053   0.005   0.146  -0.002   0.008  -0.006
 -0.100   0.032  -2.178   0.058   0.175   0.103  -0.042   2.010  -0.053  -0.177  -0.947   0.137   0.011   0.209  -0.014  -0.001
 -0.066   0.029   0.058  -1.740   0.011   0.099  -0.037  -0.053   1.445  -0.003  -0.053   0.028   0.008  -0.012   0.117   0.000
 -0.101  -0.053   0.175   0.012  -2.608   0.106   0.058  -0.177  -0.003   2.665   0.141  -0.075   0.027  -0.011  -0.019  -0.002
  0.128  -0.061   1.011   0.063  -0.157  -0.115   0.053  -0.947  -0.053   0.141   2.366  -0.487  -0.003   0.106   0.004   0.000
 -0.049  -0.008  -0.115  -0.033   0.080   0.047   0.005   0.137   0.028  -0.075  -0.487   0.144   0.013  -0.051  -0.005  -0.000
 -0.045  -0.158  -0.016  -0.007  -0.035   0.037   0.146   0.011   0.008   0.027  -0.003   0.013   0.181   0.005  -0.005  -0.005
 -0.005   0.005  -0.205   0.014   0.010   0.006  -0.002   0.209  -0.012  -0.011   0.106  -0.051   0.005   0.085  -0.001  -0.000
 -0.002  -0.007   0.018  -0.127   0.023   0.006   0.008  -0.014   0.117  -0.019   0.004  -0.005  -0.005  -0.001   0.192   0.000
  0.003   0.005   0.002  -0.000   0.005  -0.002  -0.006  -0.001   0.000  -0.002   0.000  -0.000  -0.005  -0.000   0.000   0.000
 -0.000  -0.004   0.001  -0.000  -0.000   0.000   0.001  -0.006   0.001   0.000  -0.007   0.002  -0.000  -0.003   0.000  -0.000
 -0.003  -0.000  -0.002   0.004  -0.000   0.001   0.000   0.001  -0.005   0.001  -0.000   0.000   0.000   0.000  -0.006  -0.000


------------------------ aborting loop because EDIFF is reached ----------------------------------------


    CHARGE:  cpu time    0.2097: real time    0.2102
    FORLOC:  cpu time    0.0158: real time    0.0158
    FORNL :  cpu time    1.3257: real time    1.3289
    FORCOR:  cpu time    0.0559: real time    0.0572
    FORHAR:  cpu time    0.0240: real time    0.0241
    MIXING:  cpu time    0.0027: real time    0.0027
    OFIELD:  cpu time    0.0000: real time    0.0000

 VOLUME and BASIS-vectors are now :
 -----------------------------------------------------------------------------
  energy-cutoff  :      400.00
  volume of cell :     2567.68
      direct lattice vectors                 reciprocal lattice vectors
    11.002581515  0.000000000  0.000000000     0.090887761 -0.052474073  0.000000000
     5.501290758  9.528515099  0.000000000     0.000000000  0.104948147  0.000000000
     0.000000000  0.000000000 24.491785094     0.000000000  0.000000000  0.040830017

  length of vectors
    11.002581515 11.002581515 24.491785094     0.104948147  0.104948147  0.040830017


 FORCES acting on ions
    electron-ion (+dipol)            ewald-force                    non-local-force                 convergence-correction
 -----------------------------------------------------------------------------------------------
   0.769E-01 -.886E+01 0.227E+04   -.230E+00 0.955E+01 -.227E+04   0.157E+00 -.680E+00 0.817E-01   -.257E-02 -.850E-02 -.498E-02
   -.912E+00 -.831E+01 -.228E+04   0.125E+01 0.904E+01 0.228E+04   -.348E+00 -.730E+00 0.423E-01   -.115E-02 0.342E-02 0.436E-02
   0.569E+01 -.106E+02 -.699E+01   -.606E+01 0.101E+02 0.695E+01   0.381E+00 0.401E+00 0.394E-01   -.851E-02 0.238E-02 0.562E-02
   0.610E+01 0.860E+01 0.230E+04   -.654E+01 -.888E+01 -.230E+04   0.444E+00 0.293E+00 0.152E-02   0.137E-02 -.472E-02 0.850E-02
   0.138E+02 -.121E+02 0.451E+01   -.132E+02 0.117E+02 -.447E+01   -.623E+00 0.441E+00 -.219E-01   -.181E-02 0.549E-02 -.225E-02
   0.237E+01 0.971E+01 -.228E+04   -.282E+01 -.104E+02 0.228E+04   0.461E+00 0.678E+00 -.286E-01   -.219E-02 0.380E-04 0.766E-02
   0.950E+00 -.437E+01 -.462E+01   -.660E+00 0.396E+01 0.463E+01   -.297E+00 0.430E+00 -.502E-03   -.255E-02 -.504E-02 -.808E-03
   -.136E+02 0.116E+01 0.228E+04   0.144E+02 -.949E+00 -.228E+04   -.776E+00 -.202E+00 0.419E-01   -.665E-02 -.435E-02 -.103E-01
   -.259E+00 -.886E+00 0.226E+04   -.622E-01 0.723E+00 -.226E+04   0.328E+00 0.160E+00 -.252E+00   -.273E-02 -.155E-02 0.747E-02
   -.163E+02 0.408E+01 -.230E+04   0.173E+02 -.471E+01 0.230E+04   -.102E+01 0.629E+00 -.258E-01   0.433E-02 0.796E-03 -.254E-02
   0.167E+02 0.139E+01 -.663E+01   -.157E+02 -.142E+01 0.664E+01   -.106E+01 0.262E-01 -.161E-01   -.883E-03 -.816E-04 0.353E-02
   -.187E+02 -.180E+01 0.101E+02   0.187E+02 0.236E+01 -.102E+02   0.349E-01 -.562E+00 0.353E-01   -.552E-02 0.699E-02 0.218E-02
   -.645E+00 0.500E+01 0.231E+04   0.235E+00 -.550E+01 -.231E+04   0.422E+00 0.511E+00 0.390E+00   -.595E-02 -.279E-02 -.922E-02
   -.138E+02 -.326E+01 -.220E+02   0.136E+02 0.266E+01 0.215E+02   0.232E+00 0.592E+00 0.586E+00   0.286E-02 0.451E-02 -.899E-02
   -.975E+01 -.842E+01 -.226E+04   0.101E+02 0.927E+01 0.226E+04   -.399E+00 -.852E+00 0.122E+00   0.340E-02 0.210E-02 0.644E-02
   -.497E+01 0.153E+02 0.711E+01   0.477E+01 -.151E+02 -.697E+01   0.203E+00 -.221E+00 -.122E+00   0.696E-02 -.543E-02 -.691E-02
   0.110E+02 0.373E-01 -.233E+04   -.115E+02 -.480E-01 0.233E+04   0.512E+00 -.207E-02 -.337E+00   0.588E-02 0.488E-02 -.137E-02
   -.820E+00 0.357E+01 -.224E+04   0.487E+00 -.381E+01 0.224E+04   0.334E+00 0.235E+00 0.887E-01   -.666E-03 0.156E-02 0.436E-02
   -.108E+02 0.328E+01 0.395E+01   0.106E+02 -.317E+01 -.329E+01   0.185E+00 -.108E+00 -.670E+00   0.474E-02 -.693E-02 0.685E-02
   0.517E+01 0.921E+01 -.282E+02   -.468E+01 -.869E+01 0.270E+02   -.484E+00 -.507E+00 0.118E+01   -.398E-02 -.102E-01 -.100E-01
   0.692E+01 -.613E+01 0.229E+04   -.705E+01 0.683E+01 -.229E+04   0.120E+00 -.698E+00 0.687E-01   0.441E-02 -.293E-02 -.525E-02
   -.615E+01 -.768E+01 0.175E+02   0.506E+01 0.757E+01 -.170E+02   0.108E+01 0.110E+00 -.550E+00   0.957E-02 0.326E-02 0.668E-02
   0.839E+01 0.764E+00 -.228E+04   -.868E+01 -.862E+00 0.229E+04   0.292E+00 0.970E-01 -.117E+00   -.674E-03 -.199E-02 0.183E-02
   -.742E+01 -.301E+01 0.225E+04   0.775E+01 0.311E+01 -.225E+04   -.337E+00 -.927E-01 -.626E-01   0.150E-02 -.343E-02 -.159E-01
   0.766E+01 -.577E+01 -.226E+02   -.736E+01 0.531E+01 0.221E+02   -.287E+00 0.445E+00 0.412E+00   -.101E-01 0.822E-02 0.634E-02
   0.570E+01 0.103E+02 0.200E+04   -.595E+01 -.106E+02 -.199E+04   0.242E+00 0.340E+00 -.185E+01   0.531E-02 0.187E-02 -.531E-02
   0.132E+02 -.154E+01 0.197E+04   -.136E+02 0.164E+01 -.197E+04   0.331E+00 -.102E+00 -.154E+01   -.379E-03 0.370E-02 -.986E-03
   0.968E+01 0.381E+01 0.752E+01   -.910E+01 -.323E+01 -.752E+01   -.572E+00 -.580E+00 0.429E-02   -.114E-01 -.132E-02 -.453E-02
   -.954E+01 -.292E+01 0.199E+04   0.972E+01 0.326E+01 -.199E+04   -.178E+00 -.325E+00 -.187E+01   -.180E-02 -.267E-02 -.223E-01
   0.110E+02 0.140E+02 -.198E+04   -.115E+02 -.146E+02 0.198E+04   0.579E+00 0.596E+00 0.154E+01   -.102E-02 -.374E-02 0.154E-01
   0.204E+02 0.183E+01 -.199E+04   -.209E+02 -.171E+01 0.199E+04   0.504E+00 -.134E+00 0.136E+01   0.171E-02 0.757E-02 0.795E-02
   -.109E+02 -.937E+01 0.199E+04   0.115E+02 0.951E+01 -.198E+04   -.540E+00 -.131E+00 -.139E+01   -.162E-02 -.564E-02 -.441E-02
   -.319E+01 -.866E+00 -.198E+04   0.329E+01 0.905E+00 0.198E+04   -.114E+00 -.506E-01 0.186E+01   0.613E-02 0.682E-02 0.214E-01
   -.718E+00 -.347E+01 0.377E+02   0.216E+00 0.346E+01 -.369E+02   0.512E+00 -.162E-02 -.833E+00   -.278E-02 0.405E-02 0.784E-02
   0.538E+01 -.131E+02 0.198E+04   -.556E+01 0.133E+02 -.198E+04   0.184E+00 -.192E+00 -.156E+01   -.162E-03 -.741E-02 -.181E-01
   -.112E+02 0.153E+01 -.196E+04   0.115E+02 -.168E+01 0.196E+04   -.394E+00 0.136E+00 0.141E+01   0.134E-02 0.312E-02 0.625E-03
   -.537E+00 0.105E+02 -.141E+02   0.542E+00 -.104E+02 0.136E+02   -.144E-01 -.154E+00 0.494E+00   -.628E-02 -.709E-02 -.133E-01
   -.158E+02 0.416E+01 0.197E+04   0.165E+02 -.417E+01 -.197E+04   -.756E+00 0.815E-02 -.165E+01   -.911E-03 0.394E-02 -.566E-02
   0.428E+01 0.131E+01 -.199E+04   -.447E+01 -.136E+01 0.198E+04   0.182E+00 0.531E-01 0.146E+01   0.487E-02 -.221E-02 -.147E-02
   0.964E+01 -.483E+01 0.201E+04   -.997E+01 0.514E+01 -.201E+04   0.320E+00 -.311E+00 -.155E+01   0.580E-02 0.199E-02 -.175E-01
   0.163E+01 0.210E+01 0.170E+01   -.222E+01 -.172E+01 -.165E+01   0.578E+00 -.369E+00 -.371E-01   0.251E-02 -.823E-03 -.860E-02
   -.111E+02 0.548E+01 -.197E+04   0.115E+02 -.522E+01 0.196E+04   -.439E+00 -.273E+00 0.165E+01   0.486E-02 0.120E-02 0.150E-01
   -.473E+01 0.168E+00 0.996E+01   0.481E+01 -.403E+00 -.954E+01   -.701E-01 0.249E+00 -.433E+00   0.258E-02 0.430E-03 0.420E-02
   -.735E+01 -.144E+02 -.200E+04   0.748E+01 0.151E+02 0.200E+04   -.132E+00 -.673E+00 0.157E+01   -.748E-03 0.421E-03 -.707E-02
   0.115E+02 0.128E+02 0.200E+04   -.117E+02 -.133E+02 -.200E+04   0.210E+00 0.486E+00 -.133E+01   0.440E-02 -.306E-02 0.478E-02
   -.231E-01 0.123E+02 0.197E+04   0.188E+00 -.130E+02 -.197E+04   -.155E+00 0.675E+00 -.172E+01   -.345E-02 -.951E-03 0.389E-02
   0.988E+01 -.605E+01 -.200E+04   -.103E+02 0.583E+01 0.200E+04   0.375E+00 0.216E+00 0.160E+01   0.327E-02 0.739E-02 0.675E-02
   -.790E+01 -.464E+01 -.197E+04   0.814E+01 0.462E+01 0.197E+04   -.234E+00 0.196E-01 0.190E+01   -.212E-02 0.590E-02 0.482E-02
 -----------------------------------------------------------------------------------------------
   -.762E-02 0.882E-01 0.759E-01   -.515E-12 -.536E-12 0.296E-11   -.221E-01 -.125E+00 -.242E-01   -.713E-03 -.798E-03 -.232E-01
 
 
 POSITION                                       TOTAL-FORCE (eV/Angst)
 -----------------------------------------------------------------------------------
      1.37047      0.82090      9.68193         0.001865      0.001644      0.005821
     11.00347      4.78573     14.79999        -0.007496     -0.003638      0.004658
      9.61572      3.96396     12.25053         0.004427     -0.018204      0.000485
      9.60905      0.77707      9.67133         0.002357      0.006834     -0.004984
      9.65616      8.72171     12.24174        -0.003132     -0.002468      0.009190
      8.22665      4.73634     14.81062         0.003219     -0.011288     -0.013327
      8.26134      6.33802     12.24710        -0.008649      0.009012      0.002807
      9.66274      5.57309      9.69016        -0.004254      0.003788      0.001585
      8.24321      3.18040      9.71587         0.004818     -0.004454     -0.010944
      5.54476     -0.02851     14.83030         0.001364      0.005244     -0.007175
      5.53735      1.57986     12.25172         0.000687     -0.008765     -0.003513
      6.88432      8.73637     12.23508         0.005136      0.004056      0.000528
      8.24709      7.93691      9.61422         0.007118      0.009671      0.011674
      5.49252      6.34346     12.26072         0.010002     -0.000707      0.001960
      4.13957      2.39783     14.78606        -0.002976     -0.002118      0.004020
      4.13034      3.96974     12.24037         0.004458      0.006893      0.009168
      6.83886      7.13721     14.88498        -0.003694     -0.007079     -0.007154
      2.74414     -0.00978     14.78525         0.001153     -0.000026      0.002930
     11.00896      1.58562     12.24837        -0.000913     -0.000744     -0.006970
     12.38869      3.98126     12.26530         0.001012     -0.000231      0.000375
      5.49148      3.21525      9.68916        -0.004991     -0.000363      0.004116
     15.09019      8.73420     12.23162         0.005229      0.008121     -0.006754
      1.35785      2.38406     14.82248         0.003067     -0.002007      0.000582
      4.13587      0.80686      9.71253        -0.003582      0.005429      0.004639
     12.37632      8.72069     12.26837         0.006236     -0.002642     -0.005740
     13.73363      7.92567      9.87345        -0.001161     -0.000581     -0.010434
      6.87615      5.57791      9.85812        -0.001556     -0.000529     -0.006471
     11.01960      6.34742     12.23565         0.006698      0.004786      0.002224
     12.39839      5.56405      9.87965         0.005172      0.010678      0.011653
      9.60688      2.35888     14.62774        -0.005669      0.005839     -0.004811
     -0.01943     -0.00995     14.64335        -0.008077     -0.006470     -0.010022
     11.01646      3.19069      9.84863        -0.002849     -0.000642     -0.005326
      8.26979      0.00272     14.60094        -0.005841     -0.004772     -0.002582
      8.25196      1.58773     12.20461         0.007241     -0.007266     -0.015447
      2.74529      3.20314      9.86232         0.002318      0.000531      0.011107
      9.61884      7.13856     14.63504        -0.002896     -0.006527      0.009598
      2.76974      1.58595     12.26023        -0.014332     -0.007945      0.004947
     11.03319      7.94445      9.87368        -0.000899      0.002231      0.000078
      5.48900      4.76133     14.63967        -0.006920      0.003786      0.004463
      4.11794      5.59272      9.85671         0.002108      0.001696      0.002701
     13.73033      6.36519     12.24568        -0.009846      0.003991      0.007832
      6.88698      2.37525     14.60624         0.000702     -0.012772      0.003533
      6.88512      3.95452     12.23551         0.004310      0.015238     -0.008431
      2.75579      4.78822     14.64905         0.002077     -0.007163      0.017979
      5.48955      7.93075      9.83767        -0.007671      0.003786     -0.007778
      6.87245      0.77330      9.86554         0.007353      0.009444     -0.014361
      4.09347      7.14006     14.63271         0.000181     -0.002956      0.001499
     12.38697      7.14053     14.59486         0.007097     -0.000341      0.010072
 -----------------------------------------------------------------------------------
    total drift:                               -0.030393     -0.037714      0.028506


--------------------------------------------------------------------------------------------------------



  FREE ENERGIE OF THE ION-ELECTRON SYSTEM (eV)
  ---------------------------------------------------
  free  energy   TOTEN  =      -191.60626428 eV

  energy  without entropy=     -191.34331195  energy(sigma->0) =     -191.47478811
 
 d Force = 0.6997390E-03[ 0.501E-03, 0.898E-03]  d Energy = 0.7272338E-03-0.275E-04
 d Force =-0.2367792E+02[-0.237E+02,-0.237E+02]  d Ewald  =-0.2367792E+02 0.855E-06


--------------------------------------------------------------------------------------------------------


    POTLOK:  cpu time    0.0477: real time    0.0478


--------------------------------------------------------------------------------------------------------


 stress matrix after NEB project (eV)
      0.00000      0.00000      0.00000
      0.00000      0.00000      0.00000
      0.00000      0.00000      0.00000
  FORCES: max atom, RMS     0.019465    0.011402
  FORCE total and by dimension    0.078995    0.018204
  Stress total and by dimension    0.000000    0.000000
 Conjugate gradient step on ions:
 trial-energy change:   -0.000727  1 .order   -0.000700   -0.000898   -0.000501
  (g-gl).g = 0.475E-03      g.g   = 0.498E-03  gl.gl    = 0.457E-03
 g(Force)  = 0.498E-03   g(Stress)= 0.000E+00 ortho     = 0.292E-04
 gamma     =   1.04035
 trial     =   1.70101
 opt step  =   2.94994  (harmonic =   3.85055) maximal distance =0.00455060
 next E    =  -191.606459   (d E  =  -0.00092)


--------------------------------------------------------------------------------------------------------


  
 reached required accuracy - stopping structural energy minimisation
     LOOP+:  cpu time   53.3727: real time   53.7491
    4ORBIT:  cpu time    0.0000: real time    0.0000

 total amount of memory used by VASP on root node    84353. kBytes
========================================================================

   base      :      30000. kBytes
   nonlr-proj:       4285. kBytes
   fftplans  :       4447. kBytes
   grid      :       6721. kBytes
   one-center:        124. kBytes
   wavefun   :      38776. kBytes
 
  
  
 General timing and accounting informations for this job:
 ========================================================
  
                  Total CPU time used (sec):     1386.600
                            User time (sec):     1324.248
                          System time (sec):       62.352
                         Elapsed time (sec):     1394.838
  
                   Maximum memory used (kb):      769344.
                   Average memory used (kb):           0.
  
                          Minor page faults:       518405
                          Major page faults:            2
                 Voluntary context switches:         8592
