unknown system                          
           1
    11.002582    0.000000    0.000000
     5.501291    9.528515    0.000000
     0.000000    0.000000   24.491785
   Au   Pd
  24  24
Direct configuration=     1
   0.08333333  0.08333333  0.40830017
   0.75000000  0.50000000  0.59169983
   0.66666667  0.41666667  0.50000000
   0.83333333  0.08333333  0.40830017
   0.41666667  0.91666667  0.50000000
   0.50000000  0.50000000  0.59169983
   0.41666667  0.66666667  0.50000000
   0.58333333  0.58333333  0.40830017
   0.58333333  0.33333333  0.40830017
   0.50000000  0.00000000  0.59169983
   0.41666667  0.16666667  0.50000000
   0.16666667  0.91666667  0.50000000
   0.33333333  0.83333333  0.40830017
   0.16666667  0.66666667  0.50000000
   0.25000000  0.25000000  0.59169983
   0.16666667  0.41666667  0.50000000
   0.25000000  0.75000000  0.59169983
   0.25000000  0.00000000  0.59169983
   0.91666667  0.16666667  0.50000000
   0.91666667  0.41666667  0.50000000
   0.33333333  0.33333333  0.40830017
   0.91666667  0.91666667  0.50000000
   0.00000000  0.25000000  0.59169983
   0.33333333  0.08333333  0.40830017
   0.66666667  0.91666667  0.50000000
   0.83333333  0.83333333  0.40830017
   0.33333333  0.58333333  0.40830017
   0.66666667  0.66666667  0.50000000
   0.83333333  0.58333333  0.40830017
   0.75000000  0.25000000  0.59169983
   0.00000000  0.00000000  0.59169983
   0.83333333  0.33333333  0.40830017
   0.75000000  0.00000000  0.59169983
   0.66666667  0.16666667  0.50000000
   0.08333333  0.33333333  0.40830017
   0.50000000  0.75000000  0.59169983
   0.16666667  0.16666667  0.50000000
   0.58333333  0.83333333  0.40830017
   0.25000000  0.50000000  0.59169983
   0.08333333  0.58333333  0.40830017
   0.91666667  0.66666667  0.50000000
   0.50000000  0.25000000  0.59169983
   0.41666667  0.41666667  0.50000000
   0.00000000  0.50000000  0.59169983
   0.08333333  0.83333333  0.40830017
   0.58333333  0.08333333  0.40830017
   0.00000000  0.75000000  0.59169983
   0.75000000  0.75000000  0.59169983
Direct configuration=     2
   0.08282448  0.08446287  0.40601358
   0.74981496  0.50131777  0.59389555
   0.66685596  0.41554563  0.49998160
   0.83282880  0.08276085  0.40612555
   0.41911221  0.91541032  0.49999985
   0.49984228  0.49879302  0.59388409
   0.41752207  0.66576319  0.49995247
   0.58430421  0.58364824  0.40611835
   0.58299939  0.33307022  0.40640280
   0.50215954 -0.00105089  0.59382921
   0.41895523  0.16662513  0.50001665
   0.16539026  0.91735383  0.50003991
   0.33334543  0.83261461  0.40574020
   0.16608842  0.66545800  0.49964050
   0.24974007  0.25126757  0.59391572
   0.16543262  0.41800536  0.49998712
   0.24924375  0.74987560  0.59427564
   0.24958465 -0.00012810  0.59397285
   0.91586985  0.16696986  0.50038272
   0.91705261  0.41805527  0.49926166
   0.33285136  0.33432372  0.40612855
   0.91497210  0.91594363  0.50037041
  -0.00019288  0.24973301  0.59396333
   0.33349509  0.08362425  0.40608251
   0.66794280  0.91567399  0.49983815
   0.83304544  0.83259927  0.40748508
   0.33258975  0.58348098  0.40703267
   0.66756002  0.66797582  0.49993179
   0.83364705  0.58380076  0.40749093
   0.74969514  0.24888339  0.59287661
  -0.00086849  0.00001364  0.59311093
   0.83379566  0.33388395  0.40685979
   0.75025570  0.00000798  0.59252137
   0.66588647  0.16634217  0.50047934
   0.08252882  0.33402955  0.40707977
   0.50083375  0.74987831  0.59295578
   0.16624734  0.16736737  0.49977932
   0.58484161  0.83320535  0.40738368
   0.24980526  0.49992525  0.59291133
   0.08251507  0.58406508  0.40721927
   0.91529687  0.66748669  0.49997782
   0.50062609  0.25019936  0.59265059
   0.41681722  0.41614022  0.50022830
  -0.00032494  0.50143797  0.59288371
   0.08328993  0.83234844  0.40687585
   0.58414756  0.08214094  0.40730933
  -0.00083456  0.74971771  0.59277170
   0.75056798  0.74995286  0.59236608
Direct configuration=     3
   0.08129792  0.08785149  0.39915380
   0.74925982  0.50527108  0.60048271
   0.66742384  0.41218250  0.49992640
   0.83131519  0.08104339  0.39960167
   0.42644885  0.91164129  0.49999938
   0.49936913  0.49517206  0.60043688
   0.42008828  0.66305274  0.49980990
   0.58721682  0.58459296  0.39957289
   0.58199758  0.33228087  0.40071069
   0.50863817 -0.00420355  0.60021735
   0.42582092  0.16650050  0.50006660
   0.16156104  0.91941533  0.50015963
   0.33338171  0.83045844  0.39806031
   0.16435369  0.66183198  0.49856199
   0.24896026  0.25507027  0.60056338
   0.16173047  0.42202146  0.49994846
   0.24697500  0.74950242  0.60200306
   0.24833859 -0.00051241  0.60079189
   0.91347938  0.16787943  0.50153089
   0.91821045  0.42222109  0.49704665
   0.33140545  0.33729490  0.39961370
   0.90988839  0.91377453  0.50148164
  -0.00077152  0.24893203  0.60075381
   0.33398037  0.08449702  0.39942953
   0.67177118  0.91269594  0.49935262
   0.83218176  0.83039708  0.40503982
   0.33035898  0.58392391  0.40323016
   0.67024008  0.67190326  0.49972715
   0.83458821  0.58520305  0.40506321
   0.74878057  0.24553355  0.59640693
  -0.00347396  0.00005457  0.59734424
   0.83518264  0.33553582  0.40253866
   0.75102279  0.00003192  0.59498600
   0.66354590  0.16536866  0.50191737
   0.08011529  0.33611818  0.40341855
   0.50333502  0.74951325  0.59672364
   0.16498936  0.16946949  0.49911730
   0.58936644  0.83282140  0.40463420
   0.24922105  0.49970099  0.59654582
   0.08006030  0.58626033  0.40397655
   0.91118749  0.66994674  0.49991128
   0.50250435  0.25079743  0.59550285
   0.41726889  0.41456087  0.50091321
  -0.00129977  0.50575189  0.59643536
   0.08315973  0.82939377  0.40260291
   0.58659023  0.07856378  0.40433683
  -0.00333826  0.74887083  0.59598731
   0.75227192  0.74981145  0.59436481
Direct configuration=     4
   0.08112502  0.08665103  0.39788003
   0.74988300  0.50343870  0.60153345
   0.66740598  0.41415226  0.49995351
   0.83250065  0.08069641  0.39847646
   0.42225954  0.91465262  0.49999994
   0.49979446  0.49652318  0.60188487
   0.41919636  0.66395500  0.49993080
   0.58705088  0.58433674  0.39831711
   0.58245469  0.33257957  0.39953794
   0.50685944 -0.00282056  0.60166268
   0.42158850  0.16593696  0.50003031
   0.16337208  0.91783945  0.49999363
   0.33315053  0.83134061  0.39677126
   0.16527399  0.66490371  0.49901608
   0.24979291  0.25358850  0.60159991
   0.16494934  0.41810072  0.50001219
   0.24706676  0.74917492  0.60332369
   0.24967692 -0.00063291  0.60175687
   0.91408593  0.16750422  0.50114313
   0.91581125  0.42070667  0.49809701
   0.33065826  0.33679684  0.39832072
   0.91236789  0.91511980  0.50092934
  -0.00186413  0.25070562  0.60198984
   0.33441906  0.08419041  0.39839906
   0.66934195  0.91460026  0.49962633
   0.83323225  0.83042304  0.40391670
   0.33139410  0.58386757  0.40249189
   0.67020037  0.66814391  0.49983858
   0.83465832  0.58530658  0.40361889
   0.74915536  0.24659161  0.59755025
  -0.00310668 -0.00084873  0.59824657
   0.83419953  0.33525613  0.40173264
   0.75140817 -0.00019150  0.59629618
   0.66628298  0.16513062  0.50111257
   0.08141356  0.33627728  0.40216005
   0.50176193  0.74953597  0.59744377
   0.16745837  0.16805153  0.49940975
   0.58794574  0.83321968  0.40350510
   0.24876570  0.50046119  0.59737111
   0.07972769  0.58605752  0.40271737
   0.91228060  0.66938925  0.50003523
   0.50142079  0.24996990  0.59679738
   0.41687098  0.41557045  0.50058692
  -0.00138015  0.50490043  0.59726143
   0.08224280  0.83078768  0.40197919
   0.58580253  0.07917582  0.40346679
  -0.00253756  0.74888640  0.59695802
   0.75258136  0.74999692  0.59531747
Direct configuration=     5
   0.08103442  0.08602201  0.39721260
   0.75020953  0.50247857  0.60208402
   0.66739662  0.41518436  0.49996772
   0.83312180  0.08051460  0.39788687
   0.42006443  0.91623049  0.50000023
   0.50001732  0.49723114  0.60264358
   0.41872901  0.66442776  0.49999416
   0.58696393  0.58420249  0.39765912
   0.58269421  0.33273608  0.39892345
   0.50592742 -0.00209590  0.60242001
   0.41937081  0.16564167  0.50001129
   0.16432102  0.91701372  0.49990665
   0.33302940  0.83180285  0.39609582
   0.16575621  0.66651323  0.49925401
   0.25022920  0.25281208  0.60214303
   0.16663597  0.41604634  0.50004558
   0.24711484  0.74900332  0.60401567
   0.25037817 -0.00069605  0.60226250
   0.91440374  0.16730762  0.50093994
   0.91455413  0.41991314  0.49864738
   0.33026675  0.33653588  0.39764322
   0.91366710  0.91582469  0.50063994
  -0.00243664  0.25163493  0.60263749
   0.33464893  0.08402976  0.39785912
   0.66806909  0.91559809  0.49976975
   0.83378268  0.83043664  0.40332821
   0.33193648  0.58383806  0.40210505
   0.67017957  0.66617409  0.49989697
   0.83469505  0.58536083  0.40286210
   0.74935174  0.24714601  0.59814932
  -0.00291423 -0.00132204  0.59871937
   0.83368440  0.33510957  0.40131029
   0.75161010 -0.00030857  0.59698268
   0.66771715  0.16500589  0.50069088
   0.08209382  0.33636065  0.40150062
   0.50093767  0.74954787  0.59782110
   0.16875208  0.16730856  0.49956299
   0.58720133  0.83342837  0.40291348
   0.24852711  0.50085951  0.59780354
   0.07955342  0.58595125  0.40205758
   0.91285337  0.66909714  0.50010018
   0.50085303  0.24953629  0.59747569
   0.41666248  0.41609944  0.50041596
  -0.00142226  0.50445429  0.59769427
   0.08176235  0.83151806  0.40165238
   0.58538979  0.07949652  0.40301092
  -0.00211802  0.74889456  0.59746665
   0.75274350  0.75009411  0.59581664
Direct configuration=     6
   0.08136768  0.08581982  0.39682866
   0.74976293  0.50239804  0.60259750
   0.66599795  0.41585497  0.50005350
   0.83299336  0.08091980  0.39736582
   0.41931487  0.91543134  0.49997669
   0.50009030  0.49741492  0.60312709
   0.41863710  0.66531277  0.50002848
   0.58632182  0.58441790  0.39715138
   0.58270415  0.33271800  0.39855589
   0.50536469 -0.00212638  0.60303148
   0.41984064  0.16609229  0.50005452
   0.16582542  0.91755057  0.49989946
   0.33299835  0.83220334  0.39559496
   0.16603214  0.66570708  0.49946056
   0.25001517  0.25241463  0.60260078
   0.16629232  0.41670877  0.49998593
   0.24738060  0.74926024  0.60465209
   0.25003810 -0.00046882  0.60253226
   0.91632844  0.16686970  0.50076702
   0.91636363  0.41820595  0.49901010
   0.33068420  0.33644713  0.39716249
   0.91368085  0.91617782  0.50040250
  -0.00182647  0.25119367  0.60305957
   0.33431441  0.08370122  0.39739980
   0.66735531  0.91586234  0.50001690
   0.83367237  0.83086129  0.40300821
   0.33228260  0.58399117  0.40199554
   0.66841482  0.66670079  0.49988864
   0.83478047  0.58484775  0.40245605
   0.74917731  0.24772719  0.59843745
  -0.00208362 -0.00116797  0.59889841
   0.83383252  0.33462874  0.40115399
   0.75163340 -0.00020015  0.59731306
   0.66653269  0.16590644  0.50026053
   0.08186447  0.33614210  0.40137702
   0.50051358  0.74954885  0.59784796
   0.16767374  0.16673234  0.49968499
   0.58644626  0.83339914  0.40271559
   0.24859655  0.50071308  0.59791972
   0.08014330  0.58587035  0.40186979
   0.91409434  0.66820562  0.50005100
   0.50080029  0.24961126  0.59761897
   0.41744477  0.41547073  0.50028724
  -0.00096085  0.50354248  0.59784096
   0.08205725  0.83172299  0.40142689
   0.58500778  0.08036354  0.40281800
  -0.00184273  0.74901971  0.59774095
   0.75204071  0.75027545  0.59607361
Direct configuration=     7
   0.08144762  0.08577132  0.39673657
   0.74965581  0.50237873  0.60272067
   0.66566245  0.41601583  0.50007408
   0.83296255  0.08101700  0.39724083
   0.41913508  0.91523965  0.49997104
   0.50010780  0.49745900  0.60324307
   0.41861505  0.66552506  0.50003672
   0.58616780  0.58446957  0.39702958
   0.58270653  0.33271366  0.39846773
   0.50522970 -0.00213369  0.60317816
   0.41995334  0.16620038  0.50006489
   0.16618628  0.91767935  0.49989773
   0.33299090  0.83229940  0.39547482
   0.16609832  0.66551371  0.49951011
   0.24996383  0.25231929  0.60271058
   0.16620989  0.41686766  0.49997162
   0.24744435  0.74932187  0.60480475
   0.24995653 -0.00041432  0.60259696
   0.91679012  0.16676465  0.50072554
   0.91679768  0.41779644  0.49909710
   0.33078433  0.33642584  0.39704718
   0.91368415  0.91626252  0.50034555
  -0.00168010  0.25108783  0.60316082
   0.33423417  0.08362241  0.39728962
   0.66718409  0.91592573  0.50007619
   0.83364591  0.83096315  0.40293145
   0.33236562  0.58402790  0.40196926
   0.66799151  0.66682714  0.49988664
   0.83480096  0.58472468  0.40235866
   0.74913547  0.24786660  0.59850657
  -0.00188438 -0.00113101  0.59894136
   0.83386805  0.33451340  0.40111650
   0.75163899 -0.00017415  0.59739231
   0.66624857  0.16612246  0.50015731
   0.08180946  0.33608968  0.40134737
   0.50041186  0.74954908  0.59785440
   0.16741508  0.16659413  0.49971425
   0.58626515  0.83339212  0.40266812
   0.24861321  0.50067795  0.59794758
   0.08028480  0.58585094  0.40182475
   0.91439201  0.66799177  0.50003920
   0.50078764  0.24962925  0.59765334
   0.41763242  0.41531992  0.50025637
  -0.00085017  0.50332377  0.59787615
   0.08212799  0.83177215  0.40137280
   0.58491615  0.08057151  0.40277172
  -0.00177669  0.74904973  0.59780674
   0.75187214  0.75031895  0.59613524
Direct configuration=     8
   0.08158762  0.08580641  0.39644721
   0.74947610  0.50262946  0.60300803
   0.66586044  0.41560250  0.50013483
   0.83279671  0.08129028  0.39690293
   0.41956202  0.91538793  0.49992143
   0.49977914  0.49735055  0.60351696
   0.41804503  0.66547321  0.50002578
   0.58600189  0.58441689  0.39672710
   0.58268658  0.33286467  0.39821636
   0.50511703 -0.00230515  0.60353060
   0.42000832  0.16625523  0.50011438
   0.16645820  0.91737162  0.49989724
   0.33293250  0.83233218  0.39501200
   0.16643090  0.66523731  0.49963195
   0.24994795  0.25232620  0.60294864
   0.16623708  0.41699682  0.49986867
   0.24759380  0.74939458  0.60525589
   0.24970569 -0.00036456  0.60282332
   0.91658058  0.16682508  0.50069714
   0.91698600  0.41796345  0.49920529
   0.33091054  0.33641998  0.39678637
   0.91330766  0.91647204  0.50027917
  -0.00145721  0.25066100  0.60349610
   0.33402482  0.08376733  0.39706653
   0.66728650  0.91539325  0.50025435
   0.83317723  0.83126615  0.40290824
   0.33238868  0.58428773  0.40204546
   0.66825506  0.66695748  0.49978105
   0.83475969  0.58435800  0.40242971
   0.74916795  0.24785176  0.59840273
  -0.00160160 -0.00077403  0.59885620
   0.83395635  0.33443631  0.40122965
   0.75166775  0.00003529  0.59735094
   0.66610887  0.16641256  0.49996688
   0.08160353  0.33591714  0.40147231
   0.50035845  0.74958247  0.59786059
   0.16755236  0.16667470  0.49973917
   0.58620919  0.83338181  0.40273451
   0.24884819  0.50037154  0.59792316
   0.08078345  0.58590059  0.40182801
   0.91406553  0.66785350  0.49996223
   0.50093557  0.24978736  0.59756737
   0.41776558  0.41528744  0.50019975
  -0.00078629  0.50299663  0.59790445
   0.08254658  0.83166166  0.40137452
   0.58469537  0.08080317  0.40274087
  -0.00184175  0.74920489  0.59784141
   0.75151838  0.75017760  0.59611253
Direct configuration=     9
   0.08173146  0.08584245  0.39614992
   0.74929146  0.50288708  0.60330327
   0.66606385  0.41517783  0.50019725
   0.83262632  0.08157105  0.39655576
   0.42000067  0.91554028  0.49987046
   0.49944146  0.49723912  0.60379836
   0.41745937  0.66541994  0.50001454
   0.58583144  0.58436276  0.39641632
   0.58266608  0.33301982  0.39795809
   0.50500126 -0.00248130  0.60389270
   0.42006481  0.16631157  0.50016523
   0.16673759  0.91705545  0.49989673
   0.33287250  0.83236585  0.39453649
   0.16677260  0.66495332  0.49975712
   0.24993164  0.25233331  0.60319322
   0.16626501  0.41712952  0.49976291
   0.24774734  0.74946929  0.60571942
   0.24944798 -0.00031344  0.60305587
   0.91636529  0.16688716  0.50066797
   0.91717949  0.41813504  0.49931645
   0.33104022  0.33641397  0.39651840
   0.91292084  0.91668730  0.50021097
  -0.00122821  0.25022247  0.60384058
   0.33380973  0.08391622  0.39683731
   0.66739171  0.91484617  0.50043740
   0.83269570  0.83157746  0.40288440
   0.33241237  0.58455468  0.40212374
   0.66852584  0.66709140  0.49967257
   0.83471729  0.58398126  0.40250271
   0.74920132  0.24783651  0.59829604
  -0.00131107 -0.00040726  0.59876871
   0.83404706  0.33435711  0.40134591
   0.75169730  0.00025047  0.59730844
   0.66596533  0.16671063  0.49977123
   0.08139196  0.33573987  0.40160068
   0.50030359  0.74961677  0.59786694
   0.16769342  0.16675748  0.49976477
   0.58615170  0.83337122  0.40280271
   0.24908961  0.50005673  0.59789807
   0.08129577  0.58595161  0.40183135
   0.91373010  0.66771144  0.49988315
   0.50108755  0.24994981  0.59747904
   0.41790240  0.41525406  0.50014158
  -0.00072066  0.50266052  0.59793352
   0.08297666  0.83154814  0.40137628
   0.58446853  0.08104119  0.40270918
  -0.00190860  0.74936430  0.59787703
   0.75115493  0.75003238  0.59608920
Direct configuration=    10
   0.08166822  0.08573931  0.39581929
   0.74924086  0.50269901  0.60359571
   0.66626155  0.41560525  0.50027804
   0.83274439  0.08153632  0.39613253
   0.42015176  0.91562385  0.49983395
   0.49932579  0.49720397  0.60412607
   0.41800368  0.66509375  0.50004937
   0.58576137  0.58437135  0.39611813
   0.58257066  0.33330683  0.39762734
   0.50499280 -0.00240170  0.60434088
   0.42010051  0.16623392  0.50025225
   0.16651565  0.91704232  0.49986166
   0.33303303  0.83246638  0.39388000
   0.16607040  0.66537384  0.49999332
   0.25016200  0.25221160  0.60343538
   0.16663050  0.41695144  0.49963492
   0.24763632  0.74938231  0.60632442
   0.24969211 -0.00044552  0.60332894
   0.91646654  0.16670733  0.50059291
   0.91678395  0.41826328  0.49956460
   0.33089873  0.33654556  0.39622640
   0.91287605  0.91646448  0.50010023
  -0.00152474  0.25041671  0.60427186
   0.33376129  0.08416583  0.39659316
   0.66767260  0.91481594  0.50065867
   0.83245250  0.83169241  0.40295119
   0.33250728  0.58464845  0.40220057
   0.66857540  0.66649963  0.49952746
   0.83473708  0.58380354  0.40265076
   0.74928085  0.24791217  0.59811079
  -0.00128160 -0.00037283  0.59854715
   0.83395934  0.33442252  0.40155826
   0.75170041  0.00035826  0.59712168
   0.66602068  0.16645957  0.49946321
   0.08142482  0.33575812  0.40180863
   0.50009077  0.74956918  0.59778410
   0.16806281  0.16674678  0.49984184
   0.58613024  0.83340781  0.40289334
   0.24901827  0.49997681  0.59784382
   0.08141317  0.58612614  0.40190274
   0.91360513  0.66805532  0.49980387
   0.50127721  0.24968072  0.59729503
   0.41797462  0.41513982  0.50003773
  -0.00075255  0.50256188  0.59794221
   0.08291768  0.83174961  0.40150170
   0.58423689  0.08107226  0.40275587
  -0.00203145  0.74945040  0.59777138
   0.75118443  0.74990805  0.59604661
Direct configuration=    11
   0.08161911  0.08565921  0.39556253
   0.74920157  0.50255297  0.60382281
   0.66641508  0.41593717  0.50034078
   0.83283608  0.08150934  0.39580386
   0.42026910  0.91568876  0.49980560
   0.49923597  0.49717667  0.60438056
   0.41842636  0.66484045  0.50007642
   0.58570696  0.58437803  0.39588657
   0.58249656  0.33352971  0.39737049
   0.50498623 -0.00233989  0.60468891
   0.42012823  0.16617362  0.50031982
   0.16634330  0.91703212  0.49983443
   0.33315769  0.83254445  0.39337019
   0.16552511  0.66570040  0.50017674
   0.25034090  0.25211708  0.60362344
   0.16691432  0.41681315  0.49953554
   0.24755011  0.74931476  0.60679424
   0.24988169 -0.00054808  0.60354099
   0.91654517  0.16656769  0.50053463
   0.91647678  0.41836286  0.49975731
   0.33078885  0.33664775  0.39599965
   0.91284127  0.91629145  0.50001423
  -0.00175502  0.25056755  0.60460678
   0.33372367  0.08435967  0.39640357
   0.66789073  0.91479246  0.50083051
   0.83226364  0.83178166  0.40300305
   0.33258098  0.58472128  0.40226023
   0.66861389  0.66604009  0.49941477
   0.83475245  0.58366552  0.40276572
   0.74934261  0.24797093  0.59796693
  -0.00125872 -0.00034610  0.59837510
   0.83389123  0.33447332  0.40172317
   0.75170282  0.00044195  0.59697665
   0.66606367  0.16626461  0.49922402
   0.08145033  0.33577229  0.40197012
   0.49992550  0.74953223  0.59771977
   0.16834966  0.16673848  0.49990170
   0.58611357  0.83343622  0.40296371
   0.24896288  0.49991475  0.59780169
   0.08150434  0.58626168  0.40195818
   0.91350809  0.66832235  0.49974231
   0.50142448  0.24947176  0.59715214
   0.41803071  0.41505111  0.49995709
  -0.00077730  0.50248529  0.59794896
   0.08287188  0.83190605  0.40159909
   0.58405701  0.08109639  0.40279214
  -0.00212686  0.74951727  0.59768935
   0.75120733  0.74981151  0.59601353
Direct configuration=    12
   0.08160964  0.08564089  0.39535640
   0.74902155  0.50245456  0.60409654
   0.66618433  0.41582516  0.50039393
   0.83274199  0.08139626  0.39545756
   0.41997254  0.91534935  0.49979740
   0.49926073  0.49712530  0.60464262
   0.41824941  0.66521286  0.50010676
   0.58570134  0.58457059  0.39565028
   0.58250172  0.33347548  0.39711164
   0.50527116 -0.00244825  0.60506494
   0.42031048  0.16585981  0.50036753
   0.16682053  0.91697307  0.49976959
   0.33331202  0.83278077  0.39284623
   0.16571211  0.66589740  0.50039591
   0.25033181  0.25199968  0.60375879
   0.16679698  0.41672673  0.49952872
   0.24727379  0.74920286  0.60727963
   0.25005093 -0.00061567  0.60369949
   0.91689235  0.16639720  0.50039266
   0.91703745  0.41797607  0.50012711
   0.33061517  0.33694987  0.39575399
   0.91290135  0.91658458  0.49983973
  -0.00169719  0.25072069  0.60493318
   0.33366605  0.08441735  0.39626682
   0.66754857  0.91510347  0.50098830
   0.83237022  0.83168149  0.40306114
   0.33248236  0.58492625  0.40239233
   0.66833637  0.66610379  0.49937360
   0.83490323  0.58379807  0.40291469
   0.74923713  0.24801579  0.59773337
  -0.00128611 -0.00064639  0.59817922
   0.83383946  0.33450127  0.40190438
   0.75167397  0.00040129  0.59675361
   0.66646084  0.16628776  0.49883123
   0.08155153  0.33591125  0.40219480
   0.49981781  0.74940223  0.59759502
   0.16827451  0.16656947  0.50005469
   0.58605973  0.83350153  0.40304364
   0.24875763  0.50000475  0.59773594
   0.08111591  0.58654464  0.40205005
   0.91363324  0.66804243  0.49973597
   0.50152456  0.24922986  0.59694355
   0.41817420  0.41521003  0.49982081
  -0.00077728  0.50258982  0.59789079
   0.08267164  0.83211723  0.40173038
   0.58407491  0.08106395  0.40287132
  -0.00230333  0.74946068  0.59760066
   0.75132070  0.74970674  0.59596306
Direct configuration=    13
   0.08160589  0.08563362  0.39527457
   0.74895009  0.50241549  0.60420520
   0.66609273  0.41578069  0.50041503
   0.83270464  0.08135137  0.39532008
   0.41985482  0.91521462  0.49979415
   0.49927056  0.49710491  0.60474665
   0.41817917  0.66536069  0.50011881
   0.58569911  0.58464703  0.39555649
   0.58250377  0.33345395  0.39700888
   0.50538427 -0.00249126  0.60521422
   0.42038283  0.16573523  0.50038646
   0.16700997  0.91694963  0.49974386
   0.33337328  0.83287458  0.39263824
   0.16578634  0.66597560  0.50048291
   0.25032821  0.25195307  0.60381252
   0.16675041  0.41669243  0.49952602
   0.24716410  0.74915844  0.60747232
   0.25011811 -0.00064251  0.60376240
   0.91703017  0.16632952  0.50033630
   0.91726001  0.41782253  0.50027391
   0.33054622  0.33706980  0.39565647
   0.91292520  0.91670093  0.49977047
  -0.00167423  0.25078148  0.60506275
   0.33364318  0.08444025  0.39621254
   0.66741275  0.91522693  0.50105093
   0.83241253  0.83164173  0.40308420
   0.33244321  0.58500762  0.40244477
   0.66822620  0.66612907  0.49935725
   0.83496308  0.58385069  0.40297383
   0.74919526  0.24803360  0.59764066
  -0.00129699 -0.00076559  0.59810146
   0.83381891  0.33451236  0.40197632
   0.75166251  0.00038515  0.59666507
   0.66661851  0.16629695  0.49867531
   0.08159169  0.33596641  0.40228398
   0.49977506  0.74935063  0.59754550
   0.16824468  0.16650238  0.50011542
   0.58603835  0.83352745  0.40307537
   0.24867615  0.50004047  0.59770984
   0.08096171  0.58665696  0.40208652
   0.91368292  0.66793132  0.49973345
   0.50156428  0.24913384  0.59686074
   0.41823116  0.41527311  0.49976671
  -0.00077727  0.50263131  0.59786770
   0.08259215  0.83220106  0.40178250
   0.58408201  0.08105108  0.40290275
  -0.00237339  0.74943821  0.59756546
   0.75136570  0.74966514  0.59594302
Direct configuration=    14
   0.08157104  0.08579874  0.39525119
   0.74888501  0.50253406  0.60427590
   0.66605489  0.41574227  0.50036015
   0.83256072  0.08140510  0.39514507
   0.41975482  0.91538986  0.49979187
   0.49912372  0.49710638  0.60480715
   0.41793006  0.66531672  0.50008367
   0.58577799  0.58470367  0.39552752
   0.58247776  0.33345003  0.39689352
   0.50553275 -0.00277269  0.60536644
   0.42024573  0.16578024  0.50035521
   0.16723270  0.91699604  0.49968906
   0.33324301  0.83286748  0.39249122
   0.16627677  0.66575097  0.50053419
   0.25032556  0.25192713  0.60380382
   0.16719671  0.41662550  0.49960621
   0.24709709  0.74915383  0.60763753
   0.24999095 -0.00074104  0.60375937
   0.91729043  0.16642638  0.50025535
   0.91707346  0.41768251  0.50046592
   0.33051805  0.33722085  0.39559941
   0.91307458  0.91670095  0.49964795
  -0.00156358  0.25051208  0.60516608
   0.33364144  0.08452327  0.39627436
   0.66714891  0.91517847  0.50104287
   0.83240643  0.83163670  0.40311596
   0.33227433  0.58528581  0.40252918
   0.66842724  0.66612411  0.49941227
   0.83493050  0.58393194  0.40309998
   0.74924118  0.24782375  0.59750154
  -0.00121869 -0.00086502  0.59802626
   0.83385255  0.33459530  0.40206905
   0.75165015  0.00033965  0.59652165
   0.66669529  0.16658742  0.49847827
   0.08156591  0.33595906  0.40239373
   0.49976749  0.74929049  0.59752897
   0.16830841  0.16624772  0.50026389
   0.58606105  0.83363244  0.40311767
   0.24883505  0.49989473  0.59767525
   0.08081724  0.58682106  0.40218562
   0.91363060  0.66796389  0.49980259
   0.50142532  0.24929183  0.59669805
   0.41809191  0.41530206  0.49969949
  -0.00084821  0.50274447  0.59791127
   0.08274610  0.83216173  0.40179296
   0.58408908  0.08102630  0.40291069
  -0.00252136  0.74939535  0.59753303
   0.75131185  0.74953035  0.59590159
Direct configuration=    15
   0.08157159  0.08579617  0.39525156
   0.74888602  0.50253222  0.60427480
   0.66605548  0.41574287  0.50036101
   0.83256297  0.08140427  0.39514780
   0.41975638  0.91538713  0.49979190
   0.49912601  0.49710636  0.60480621
   0.41793395  0.66531741  0.50008421
   0.58577676  0.58470279  0.39552797
   0.58247816  0.33345009  0.39689532
   0.50553044 -0.00276830  0.60536407
   0.42024787  0.16577954  0.50035570
   0.16722923  0.91699532  0.49968992
   0.33324504  0.83286759  0.39249351
   0.16626912  0.66575447  0.50053339
   0.25032560  0.25192754  0.60380395
   0.16718975  0.41662655  0.49960496
   0.24709814  0.74915391  0.60763495
   0.24999293 -0.00073950  0.60375942
   0.91728637  0.16642487  0.50025662
   0.91707637  0.41768470  0.50046293
   0.33051849  0.33721849  0.39560031
   0.91307225  0.91670095  0.49964987
  -0.00156530  0.25051628  0.60516446
   0.33364146  0.08452198  0.39627340
   0.66715303  0.91517923  0.50104299
   0.83240653  0.83163678  0.40311546
   0.33227697  0.58528147  0.40252786
   0.66842411  0.66612419  0.49941141
   0.83493101  0.58393068  0.40309801
   0.74924047  0.24782703  0.59750371
  -0.00121991 -0.00086347  0.59802744
   0.83385202  0.33459401  0.40206760
   0.75165034  0.00034036  0.59652389
   0.66669409  0.16658289  0.49848134
   0.08156631  0.33595917  0.40239202
   0.49976761  0.74929143  0.59752923
   0.16830741  0.16625169  0.50026158
   0.58606070  0.83363080  0.40311701
   0.24883257  0.49989701  0.59767579
   0.08081949  0.58681850  0.40218407
   0.91363142  0.66796338  0.49980152
   0.50142749  0.24928936  0.59670059
   0.41809408  0.41530161  0.49970054
  -0.00084710  0.50274271  0.59791059
   0.08274370  0.83216235  0.40179279
   0.58408897  0.08102669  0.40291057
  -0.00251905  0.74939602  0.59753353
   0.75131269  0.74953246  0.59590224
Direct configuration=    16
   0.08152835  0.08593966  0.39527151
   0.74892648  0.50244974  0.60427840
   0.66591469  0.41595255  0.50028881
   0.83257337  0.08144095  0.39503627
   0.41987094  0.91538505  0.49980189
   0.49910077  0.49711718  0.60478072
   0.41815522  0.66517308  0.50006697
   0.58579896  0.58475180  0.39557315
   0.58238573  0.33360190  0.39682207
   0.50551377 -0.00289278  0.60543440
   0.42028983  0.16581175  0.50031139
   0.16718318  0.91698003  0.49963764
   0.33316290  0.83288041  0.39250097
   0.16625368  0.66575919  0.50055998
   0.25036638  0.25183621  0.60376642
   0.16716220  0.41660411  0.49967148
   0.24708151  0.74912298  0.60769274
   0.24995416 -0.00086554  0.60372708
   0.91739117  0.16638146  0.50019807
   0.91707269  0.41773980  0.50059905
   0.33048493  0.33730933  0.39559927
   0.91317507  0.91663151  0.49955844
  -0.00162142  0.25038289  0.60518247
   0.33363389  0.08457670  0.39638720
   0.66712468  0.91520406  0.50099542
   0.83237933  0.83169837  0.40313104
   0.33226854  0.58534206  0.40252595
   0.66842356  0.66611578  0.49948135
   0.83491328  0.58391057  0.40320539
   0.74931969  0.24768865  0.59740744
  -0.00121979 -0.00091618  0.59797563
   0.83386155  0.33470575  0.40209433
   0.75159496  0.00032468  0.59637666
   0.66663479  0.16664782  0.49842119
   0.08150343  0.33603348  0.40249962
   0.49972181  0.74925969  0.59752968
   0.16839628  0.16633281  0.50038828
   0.58600291  0.83369114  0.40312974
   0.24894916  0.49979195  0.59769630
   0.08079759  0.58687375  0.40229154
   0.91378721  0.66797062  0.49987575
   0.50134278  0.24933120  0.59656168
   0.41818773  0.41514256  0.49965590
  -0.00084163  0.50267288  0.59798075
   0.08279076  0.83221000  0.40175417
   0.58405743  0.08105643  0.40288116
  -0.00257124  0.74937626  0.59749843
   0.75121676  0.74946571  0.59589618
Direct configuration=    17
   0.08149769  0.08604145  0.39528567
   0.74895517  0.50239124  0.60428095
   0.66581482  0.41610128  0.50023761
   0.83258075  0.08146696  0.39495716