unknown system                          
           1
    11.002582    0.000000    0.000000
     5.501291    9.528515    0.000000
     0.000000    0.000000   26.191785
   Au   O    Pd
  24   8  24
Direct configuration=     1
   0.08333333  0.08333333  0.38179910
   0.91666667  0.91666667  0.46754708
   0.08333333  0.33333333  0.38179910
   0.91666667  0.41666667  0.46754708
   0.00000000  0.25000000  0.55329505
   0.66666667  0.91666667  0.46754708
   0.08333333  0.58333333  0.38179910
   0.91666667  0.16666667  0.46754708
   0.00000000  0.50000000  0.55329505
   0.08333333  0.83333333  0.38179910
   0.75000000  0.00000000  0.55329505
   0.83333333  0.33333333  0.38179910
   0.00000000  0.75000000  0.55329505
   0.58333333  0.33333333  0.38179910
   0.83333333  0.83333333  0.38179910
   0.66666667  0.16666667  0.46754708
   0.16666667  0.41666667  0.46754708
   0.83333333  0.08333333  0.38179910
   0.75000000  0.50000000  0.55329505
   0.50000000  0.75000000  0.55329505
   0.25000000  0.50000000  0.55329505
   0.58333333  0.83333333  0.38179910
   0.41666667  0.16666667  0.46754708
   0.66666667  0.66666667  0.46754708
   0.08333333  0.58333333  0.61820090
   0.58333333  0.33333333  0.61820090
   0.33333333  0.58333333  0.61820090
   0.08333333  0.08333333  0.61820090
   0.83333333  0.33333333  0.61820090
   0.58333333  0.58333333  0.61820090
   0.58333333  0.08333333  0.61820090
   0.08333333  0.83333333  0.61820090
   0.58333333  0.08333333  0.38179910
   0.75000000  0.75000000  0.55329505
   0.25000000  0.75000000  0.55329505
   0.16666667  0.91666667  0.46754708
   0.16666667  0.66666667  0.46754708
   0.33333333  0.58333333  0.38179910
   0.83333333  0.58333333  0.38179910
   0.25000000  0.25000000  0.55329505
   0.33333333  0.33333333  0.38179910
   0.25000000  0.00000000  0.55329505
   0.16666667  0.16666667  0.46754708
   0.33333333  0.08333333  0.38179910
   0.91666667  0.66666667  0.46754708
   0.00000000  0.00000000  0.55329505
   0.41666667  0.41666667  0.46754708
   0.33333333  0.83333333  0.38179910
   0.58333333  0.58333333  0.38179910
   0.66666667  0.41666667  0.46754708
   0.41666667  0.66666667  0.46754708
   0.50000000  0.50000000  0.55329505
   0.41666667  0.91666667  0.46754708
   0.75000000  0.25000000  0.55329505
   0.50000000  0.00000000  0.55329505
   0.50000000  0.25000000  0.55329505
Direct configuration=     2
   0.08333333  0.08333333  0.38179910
   0.91860975  0.91502818  0.46862009
   0.08333333  0.33333333  0.38179910
   0.91620331  0.41762042  0.46794812
   0.00211679  0.24883839  0.55635186
   0.66585296  0.91597045  0.46784979
   0.08333333  0.58333333  0.38179910
   0.91707056  0.16607917  0.46860968
  -0.00026802  0.50024046  0.55601831
   0.08333333  0.83333333  0.38179910
   0.74952985 -0.00007172  0.55619600
   0.83333333  0.33333333  0.38179910
  -0.00146271  0.75139930  0.55606454
   0.58333333  0.33333333  0.38179910
   0.83333333  0.83333333  0.38179910
   0.66498152  0.16917468  0.46797907
   0.16825742  0.41657941  0.46767647
   0.83333333  0.08333333  0.38179910
   0.75008905  0.50052145  0.55638463
   0.49855542  0.75224797  0.55551960
   0.25203518  0.49821475  0.55597469
   0.58333333  0.83333333  0.38179910
   0.41579303  0.16670091  0.46769445
   0.66639254  0.66612619  0.46737288
   0.08265705  0.58211810  0.61576716
   0.58306786  0.33280519  0.61414338
   0.33429336  0.58417145  0.61502419
   0.08509458  0.08177978  0.61459517
   0.83345985  0.33248025  0.61554620
   0.58214613  0.58484399  0.61537300
   0.58191994  0.08331730  0.61438769
   0.08412258  0.83482732  0.61472002
   0.58333333  0.08333333  0.38179910
   0.74954519  0.75048526  0.55434333
   0.24941266  0.75058573  0.55641014
   0.16886077  0.91495160  0.46805404
   0.16837892  0.66666061  0.46717109
   0.33333333  0.58333333  0.38179910
   0.83333333  0.58333333  0.38179910
   0.25119733  0.24846164  0.55426759
   0.33333333  0.33333333  0.38179910
   0.24915888  0.00061667  0.55522999
   0.16807401  0.16499843  0.46792052
   0.33333333  0.08333333  0.38179910
   0.91669849  0.66699631  0.46772481
   0.00165608 -0.00066413  0.55676878
   0.41666355  0.41805644  0.46826494
   0.33333333  0.83333333  0.38179910
   0.58333333  0.58333333  0.38179910
   0.66436666  0.41780038  0.46770531
   0.41534681  0.66654442  0.46780036
   0.49984843  0.49935873  0.55698161
   0.41466931  0.91698835  0.46855599
   0.74870947  0.25069646  0.55701173
   0.49972750  0.00055608  0.55551974
   0.50057456  0.24924315  0.55699718
Direct configuration=     3
   0.08333333  0.08333333  0.38179910
   0.92194182  0.91221843  0.47046014
   0.08333333  0.33333333  0.38179910
   0.91540872  0.41925594  0.46863584
   0.00574674  0.24684642  0.56159380
   0.66445760  0.91477655  0.46836891
   0.08333333  0.58333333  0.38179910
   0.91776318  0.16507172  0.47043186
  -0.00072762  0.50065280  0.56068825
   0.08333333  0.83333333  0.38179910
   0.74872362 -0.00019470  0.56117064
   0.83333333  0.33333333  0.38179910
  -0.00397101  0.75379888  0.56081377
   0.58333333  0.33333333  0.38179910
   0.83333333  0.83333333  0.38179910
   0.66209177  0.17347551  0.46871986
   0.17098529  0.41642978  0.46789837
   0.83333333  0.08333333  0.38179910
   0.75024176  0.50141565  0.56168276
   0.49607820  0.75610286  0.55933434
   0.25552519  0.49515335  0.56056984
   0.58333333  0.83333333  0.38179910
   0.41429488  0.16675962  0.46794719
   0.66592245  0.66519936  0.46707416
   0.08149735  0.58003419  0.61159371
   0.58261260  0.33189950  0.60718539
   0.33593966  0.58560869  0.60957665
   0.08811484  0.07911569  0.60841193
   0.83367680  0.33101737  0.61099384
   0.58011028  0.58743451  0.61052361
   0.57949621  0.08328980  0.60784866
   0.08547600  0.83738926  0.60875087
   0.58333333  0.08333333  0.38179910
   0.74876525  0.75131741  0.55614097
   0.24840547  0.75159015  0.56175200
   0.17262330  0.91201055  0.46892341
   0.17131516  0.66665022  0.46652635
   0.33333333  0.58333333  0.38179910
   0.83333333  0.58333333  0.38179910
   0.25325055  0.24582360  0.55593534
   0.33333333  0.33333333  0.38179910
   0.24771650  0.00167415  0.55854809
   0.17048737  0.16213768  0.46856091
   0.33333333  0.08333333  0.38179910
   0.91675307  0.66756160  0.46802960
   0.00449599 -0.00180300  0.56272565
   0.41665820  0.42043969  0.46949596
   0.33333333  0.83333333  0.38179910
   0.58333333  0.58333333  0.38179910
   0.66042252  0.41974450  0.46797665
   0.41308347  0.66633480  0.46823471
   0.49958850  0.49825905  0.56330346
   0.41124418  0.91754000  0.47028611
   0.74649643  0.25189076  0.56338523
   0.49926020  0.00150966  0.55933472
   0.50155982  0.24794526  0.56334574
Direct configuration=     4
   0.08333333  0.08333333  0.38179910
   0.92139985  0.91267544  0.47016085
   0.08333333  0.33333333  0.38179910
   0.91553796  0.41898992  0.46852398
   0.00515632  0.24717042  0.56074118
   0.66468456  0.91497074  0.46828447
   0.08333333  0.58333333  0.38179910
   0.91765052  0.16523558  0.47013548
  -0.00065286  0.50058573  0.55992867
   0.08333333  0.83333333  0.38179910
   0.74885475 -0.00017470  0.56036150
   0.83333333  0.33333333  0.38179910
  -0.00356303  0.75340858  0.56004129
   0.58333333  0.33333333  0.38179910
   0.83333333  0.83333333  0.38179910
   0.66256180  0.17277596  0.46859936
   0.17054160  0.41645412  0.46786228
   0.83333333  0.08333333  0.38179910
   0.75021692  0.50127020  0.56082101
   0.49648113  0.75547585  0.55871386
   0.25495753  0.49565129  0.55982242
   0.58333333  0.83333333  0.38179910
   0.41453856  0.16675007  0.46790608
   0.66599891  0.66535012  0.46712274
   0.08168598  0.58037314  0.61227253
   0.58268665  0.33204682  0.60831713
   0.33567188  0.58537492  0.61046271
   0.08762358  0.07954901  0.60941765
   0.83364151  0.33125531  0.61173429
   0.58044142  0.58701315  0.61131238
   0.57989043  0.08329427  0.60891225
   0.08525586  0.83697255  0.60972177
   0.58333333  0.08333333  0.38179910
   0.74889211  0.75118206  0.55584858
   0.24856929  0.75142678  0.56088313
   0.17201132  0.91248892  0.46878200
   0.17083757  0.66665191  0.46663122
   0.33333333  0.58333333  0.38179910
   0.83333333  0.58333333  0.38179910
   0.25291659  0.24625269  0.55566408
   0.33333333  0.33333333  0.38179910
   0.24795111  0.00150215  0.55800840
   0.17009483  0.16260299  0.46845675
   0.33333333  0.08333333  0.38179910
   0.91674419  0.66746966  0.46798002
   0.00403407 -0.00161776  0.56175675
   0.41665907  0.42005204  0.46929573
   0.33333333  0.83333333  0.38179910
   0.58333333  0.58333333  0.38179910
   0.66106405  0.41942828  0.46793252
   0.41345161  0.66636889  0.46816406
   0.49963078  0.49843791  0.56227519
   0.41180129  0.91745027  0.47000470
   0.74685639  0.25169651  0.56234857
   0.49933621  0.00135455  0.55871421
   0.50139957  0.24815637  0.56231313
Direct configuration=     5
   0.08333333  0.08333333  0.38179910
   0.92112621  0.91311540  0.47236283
   0.08333333  0.33333333  0.38179910
   0.91607848  0.41847609  0.47075441
   0.00604309  0.25246955  0.56103125
   0.66407797  0.91627017  0.46959248
   0.08333333  0.58333333  0.38179910
   0.91782466  0.16509789  0.47245773
  -0.00246668  0.49748056  0.56083347
   0.08333333  0.83333333  0.38179910
   0.75583400 -0.00403470  0.56103998
   0.83333333  0.33333333  0.38179910
  -0.00962013  0.75527885  0.56068991
   0.58333333  0.33333333  0.38179910
   0.83333333  0.83333333  0.38179910
   0.66248640  0.17219186  0.47045335
   0.17052929  0.41748136  0.46945153
   0.83333333  0.08333333  0.38179910
   0.75395560  0.50482215  0.56155229
   0.49357604  0.76123653  0.55955533
   0.25652077  0.48907372  0.56023534
   0.58333333  0.83333333  0.38179910
   0.41568608  0.16633413  0.46888674
   0.66459307  0.66478239  0.46851532
   0.08082470  0.57923924  0.61207957
   0.58256774  0.33033183  0.60686622
   0.33587127  0.58872431  0.60905067
   0.09276935  0.07607593  0.60844218
   0.83362460  0.32956484  0.61127551
   0.57864894  0.59027685  0.61040267
   0.57630869  0.08245172  0.60835807
   0.08682408  0.83850275  0.60883590
   0.58333333  0.08333333  0.38179910
   0.74808004  0.75119572  0.55636359
   0.25160230  0.75169862  0.56261130
   0.17245693  0.91190842  0.47000659
   0.17180249  0.66604105  0.46786545
   0.33333333  0.58333333  0.38179910
   0.83333333  0.58333333  0.38179910
   0.25368262  0.24611089  0.55634182
   0.33333333  0.33333333  0.38179910
   0.25267403 -0.00047269  0.55894829
   0.16900860  0.16270104  0.46947016
   0.33333333  0.08333333  0.38179910
   0.91797669  0.66692791  0.46931671
  -0.00121601  0.00031404  0.56287091
   0.41600529  0.42076085  0.47080286
   0.33333333  0.83333333  0.38179910
   0.58333333  0.58333333  0.38179910
   0.66066628  0.42037057  0.46954687
   0.41361781  0.66653218  0.46955463
   0.49777583  0.50092750  0.56342086
   0.41187145  0.91640939  0.47182835
   0.75082298  0.24649182  0.56381566
   0.49685321  0.00006548  0.55955542
   0.49680627  0.24998209  0.56379482
Direct configuration=     6
   0.08333333  0.08333333  0.38179910
   0.92100739  0.91330646  0.47331905
   0.08333333  0.33333333  0.38179910
   0.91631321  0.41825296  0.47172299
   0.00642818  0.25477073  0.56115722
   0.66381456  0.91683446  0.47016050
   0.08333333  0.58333333  0.38179910
   0.91790029  0.16503810  0.47346619
  -0.00325434  0.49613211  0.56122639
   0.08333333  0.83333333  0.38179910
   0.75886479 -0.00571094  0.56133461
   0.83333333  0.33333333  0.38179910
  -0.01225047  0.75609102  0.56097158
   0.58333333  0.33333333  0.38179910
   0.83333333  0.83333333  0.38179910
   0.66245365  0.17193820  0.47125845
   0.17052395  0.41792744  0.47014167
   0.83333333  0.08333333  0.38179910
   0.75557915  0.50636461  0.56186985
   0.49231448  0.76373815  0.55992075
   0.25719961  0.48621737  0.56041466
   0.58333333  0.83333333  0.38179910
   0.41618441  0.16615351  0.46931260
   0.66398257  0.66453585  0.46912006
   0.08045069  0.57874683  0.61199577
   0.58251610  0.32958709  0.60623616
   0.33595786  0.59017881  0.60843748
   0.09500393  0.07456772  0.60801857
   0.83361726  0.32883074  0.61107628
   0.57787054  0.59169414  0.61000763
   0.57475329  0.08208584  0.60811741
   0.08750510  0.83916724  0.60845120
   0.58333333  0.08333333  0.38179910
   0.74772740  0.75120166  0.55658724
   0.25291940  0.75181667  0.56336177
   0.17265043  0.91165634  0.47053838
   0.17222152  0.66577577  0.46840142
   0.33333333  0.58333333  0.38179910
   0.83333333  0.58333333  0.38179910
   0.25401527  0.24604931  0.55663614
   0.33333333  0.33333333  0.38179910
   0.25472499 -0.00133027  0.55935645
   0.16853690  0.16274361  0.46991024
   0.33333333  0.08333333  0.38179910
   0.91851191  0.66669265  0.46989718
  -0.00349590  0.00115294  0.56335474
   0.41572139  0.42106865  0.47145735
   0.33333333  0.83333333  0.38179910
   0.58333333  0.58333333  0.38179910
   0.66049355  0.42077977  0.47024792
   0.41368998  0.66660309  0.47015850
   0.49697031  0.50200863  0.56391838
   0.41190192  0.91595738  0.47262028
   0.75254550  0.24423165  0.56445276
   0.49577494 -0.00049431  0.55992072
   0.49481160  0.25077493  0.56443825
Direct configuration=     7
   0.08333333  0.08333333  0.38179910
   0.92118176  0.91377797  0.47413617
   0.08333333  0.33333333  0.38179910
   0.91653922  0.41792036  0.47267459
   0.00979133  0.25317264  0.56170094
   0.66369029  0.91728909  0.47116757
   0.08333333  0.58333333  0.38179910
   0.91761471  0.16505725  0.47524010
  -0.00201490  0.49654313  0.56236698
   0.08333333  0.83333333  0.38179910
   0.75591429 -0.00395733  0.56270074
   0.83333333  0.33333333  0.38179910
  -0.01103375  0.75081123  0.56230313
   0.58333333  0.33333333  0.38179910
   0.83333333  0.83333333  0.38179910
   0.66271079  0.17174428  0.47297597
   0.17011438  0.41810335  0.47106933
   0.83333333  0.08333333  0.38179910
   0.75367125  0.51014710  0.56301532
   0.49268760  0.76521178  0.56100715
   0.25487987  0.48476584  0.56115714
   0.58333333  0.83333333  0.38179910
   0.41649123  0.16609503  0.47006485
   0.66330404  0.66478408  0.47009992
   0.07970934  0.57817396  0.61198021
   0.58315055  0.32837128  0.60689573
   0.33426825  0.59259788  0.60923306
   0.09948656  0.07249093  0.60751120
   0.83372721  0.32745489  0.61155760
   0.57711387  0.59525864  0.60970018
   0.57366824  0.07948965  0.60840323
   0.08841099  0.83895754  0.60914450
   0.58333333  0.08333333  0.38179910
   0.74543833  0.75251330  0.55707957
   0.25336403  0.75475047  0.56336575
   0.17198855  0.91190665  0.47179464
   0.17225821  0.66595572  0.46989978
   0.33333333  0.58333333  0.38179910
   0.83333333  0.58333333  0.38179910
   0.25472660  0.24459089  0.55734253
   0.33333333  0.33333333  0.38179910
   0.25542203 -0.00079738  0.56008021
   0.16780734  0.16294785  0.47075707
   0.33333333  0.08333333  0.38179910
   0.91899630  0.66643154  0.47088578
  -0.00580182  0.00563528  0.56371287
   0.41606253  0.42090642  0.47259626
   0.33333333  0.83333333  0.38179910
   0.58333333  0.58333333  0.38179910
   0.66105660  0.42028785  0.47211805
   0.41409035  0.66676221  0.47140157
   0.49934578  0.50267482  0.56286950
   0.41230032  0.91569123  0.47353671
   0.75561094  0.24031401  0.56483825
   0.49530179 -0.00067881  0.56037827
   0.49218995  0.24894817  0.56459725
Direct configuration=     8
   0.08333333  0.08333333  0.38179910
   0.92120084  0.91382958  0.47422560
   0.08333333  0.33333333  0.38179910
   0.91656396  0.41788396  0.47277874
   0.01015941  0.25299774  0.56176045
   0.66367669  0.91733885  0.47127779
   0.08333333  0.58333333  0.38179910
   0.91758346  0.16505935  0.47543424
  -0.00187926  0.49658811  0.56249181
   0.08333333  0.83333333  0.38179910
   0.75559137 -0.00376541  0.56285026
   0.83333333  0.33333333  0.38179910
  -0.01090059  0.75023339  0.56244886
   0.58333333  0.33333333  0.38179910
   0.83333333  0.83333333  0.38179910
   0.66273893  0.17172305  0.47316395
   0.17006956  0.41812260  0.47117086
   0.83333333  0.08333333  0.38179910
   0.75346244  0.51056107  0.56314069
   0.49272843  0.76537306  0.56112605
   0.25462599  0.48460698  0.56123840
   0.58333333  0.83333333  0.38179910
   0.41652481  0.16608863  0.47014718
   0.66322978  0.66481124  0.47020716
   0.07962820  0.57811127  0.61197850
   0.58321998  0.32823822  0.60696792
   0.33408333  0.59286263  0.60932013
   0.09997715  0.07226364  0.60745568
   0.83373924  0.32730431  0.61161028
   0.57703106  0.59564875  0.60966654
   0.57354948  0.07920552  0.60843451
   0.08851013  0.83893459  0.60922038
   0.58333333  0.08333333  0.38179910
   0.74518780  0.75265685  0.55713345
   0.25341270  0.75507155  0.56336618
   0.17191611  0.91193405  0.47193213
   0.17226223  0.66597541  0.47006377
   0.33333333  0.58333333  0.38179910
   0.83333333  0.58333333  0.38179910
   0.25480445  0.24443127  0.55741984
   0.33333333  0.33333333  0.38179910
   0.25549832 -0.00073906  0.56015942
   0.16772749  0.16297021  0.47084975
   0.33333333  0.08333333  0.38179910
   0.91904931  0.66640296  0.47099398
  -0.00605419  0.00612585  0.56375207
   0.41609987  0.42088867  0.47272091
   0.33333333  0.83333333  0.38179910
   0.58333333  0.58333333  0.38179910
   0.66111822  0.42023401  0.47232272
   0.41413417  0.66677962  0.47153762
   0.49960576  0.50274773  0.56275470
   0.41234393  0.91566211  0.47363700
   0.75594643  0.23988525  0.56488044
   0.49525000 -0.00069900  0.56042834
   0.49190303  0.24874825  0.56461465
Direct configuration=     9
   0.08333333  0.08333333  0.38179910
   0.92138366  0.91348537  0.47485368
   0.08333333  0.33333333  0.38179910
   0.91623595  0.41812824  0.47319442
   0.01099692  0.25251949  0.56274617
   0.66416591  0.91711925  0.47166663
   0.08333333  0.58333333  0.38179910
   0.91716811  0.16551596  0.47608540
  -0.00257372  0.49561646  0.56300362
   0.08333333  0.83333333  0.38179910
   0.75383443 -0.00394981  0.56412166
   0.83333333  0.33333333  0.38179910
  -0.01006792  0.75046613  0.56359906
   0.58333333  0.33333333  0.38179910
   0.83333333  0.83333333  0.38179910
   0.66294349  0.17187623  0.47420840
   0.16977677  0.41763362  0.47130249
   0.83333333  0.08333333  0.38179910
   0.75377173  0.51009134  0.56460434
   0.49292714  0.76618697  0.56208030
   0.25530136  0.48569145  0.56224383
   0.58333333  0.83333333  0.38179910
   0.41598797  0.16633070  0.47035167
   0.66338515  0.66516945  0.47044995
   0.07997367  0.57775189  0.61366159
   0.58341063  0.32762057  0.60704555
   0.33387580  0.59360751  0.60946261
   0.10232267  0.07166413  0.60817929
   0.83428426  0.32652399  0.61184396
   0.57644115  0.59807040  0.61027294
   0.57301215  0.07741356  0.60969331
   0.08813175  0.83941897  0.60952177
   0.58333333  0.08333333  0.38179910
   0.74335649  0.75469116  0.55775359
   0.25217795  0.75708860  0.56335750
   0.17115821  0.91247405  0.47278374
   0.17202746  0.66640601  0.47121706
   0.33333333  0.58333333  0.38179910
   0.83333333  0.58333333  0.38179910
   0.25506698  0.24267313  0.55816194
   0.33333333  0.33333333  0.38179910
   0.25676478 -0.00083109  0.56021882
   0.16777248  0.16289582  0.47116794
   0.33333333  0.08333333  0.38179910
   0.91875084  0.66651954  0.47148163
  -0.00516662  0.00531946  0.56448509
   0.41656970  0.42051418  0.47353961
   0.33333333  0.83333333  0.38179910
   0.58333333  0.58333333  0.38179910
   0.66204524  0.41929956  0.47371355
   0.41435163  0.66701007  0.47229103
   0.50000666  0.50167004  0.56222562
   0.41238359  0.91607281  0.47386352
   0.75489979  0.24024832  0.56566331
   0.49520475 -0.00097136  0.56047823
   0.49211267  0.24799142  0.56500476
Direct configuration=    10
   0.08333333  0.08333333  0.38179910
   0.92158969  0.91309748  0.47556147
   0.08333333  0.33333333  0.38179910
   0.91586631  0.41840353  0.47366286
   0.01194073  0.25198055  0.56385699
   0.66471722  0.91687178  0.47210483
   0.08333333  0.58333333  0.38179910
   0.91670005  0.16603052  0.47681920
  -0.00335633  0.49452150  0.56358037
   0.08333333  0.83333333  0.38179910
   0.75185450 -0.00415761  0.56555442
   0.83333333  0.33333333  0.38179910
  -0.00912958  0.75072842  0.56489524
   0.58333333  0.33333333  0.38179910
   0.83333333  0.83333333  0.38179910
   0.66317401  0.17204885  0.47538542
   0.16944682  0.41708257  0.47145082
   0.83333333  0.08333333  0.38179910
   0.75412027  0.50956199  0.56625375
   0.49315107  0.76710418  0.56315565
   0.25606245  0.48691356  0.56337685
   0.58333333  0.83333333  0.38179910
   0.41538299  0.16660349  0.47058211
   0.66356024  0.66557311  0.47072356
   0.08036298  0.57734690  0.61555828
   0.58362548  0.32692454  0.60713304
   0.33364192  0.59444694  0.60962316
   0.10496586  0.07098852  0.60899475
   0.83489844  0.32564464  0.61210729
   0.57577639  0.60079940  0.61095630
   0.57240663  0.07539419  0.61111188
   0.08770534  0.83996482  0.60986141
   0.58333333  0.08333333  0.38179910
   0.74129277  0.75698366  0.55845244
   0.25078650  0.75936165  0.56334772
   0.17030411  0.91308258  0.47374343
   0.17176290  0.66689126  0.47251671
   0.33333333  0.58333333  0.38179910
   0.83333333  0.58333333  0.38179910
   0.25536282  0.24069185  0.55899822
   0.33333333  0.33333333  0.38179910
   0.25819198 -0.00093481  0.56028576
   0.16782318  0.16281199  0.47152652
   0.33333333  0.08333333  0.38179910
   0.91841450  0.66665092  0.47203117
  -0.00416640  0.00441073  0.56531114
   0.41709917  0.42009216  0.47446222
   0.33333333  0.83333333  0.38179910
   0.58333333  0.58333333  0.38179910
   0.66308991  0.41824652  0.47528089
   0.41459669  0.66726977  0.47314006
   0.50045844  0.50045558  0.56162940
   0.41242829  0.91653563  0.47411878
   0.75372031  0.24065748  0.56654553
   0.49515375 -0.00127829  0.56053445
   0.49234892  0.24713854  0.56544437
Direct configuration=    11
   0.08333333  0.08333333  0.38179910
   0.92113681  0.91292332  0.47635682
   0.08333333  0.33333333  0.38179910
   0.91527139  0.41870017  0.47397994
   0.01193548  0.25078768  0.56516638
   0.66527893  0.91712079  0.47210541
   0.08333333  0.58333333  0.38179910
   0.91669981  0.16619454  0.47731130
  -0.00206141  0.49581531  0.56447191
   0.08333333  0.83333333  0.38179910
   0.75268450 -0.00542893  0.56696260
   0.83333333  0.33333333  0.38179910
  -0.00979592  0.75100837  0.56625691
   0.58333333  0.33333333  0.38179910
   0.83333333  0.83333333  0.38179910
   0.66345134  0.17152575  0.47603625
   0.16944160  0.41704454  0.47182029
   0.83333333  0.08333333  0.38179910
   0.75430252  0.50957827  0.56808940
   0.49270362  0.76729299  0.56395216
   0.25523035  0.48745950  0.56469933
   0.58333333  0.83333333  0.38179910
   0.41513284  0.16680453  0.47061018
   0.66392716  0.66539261  0.47094516
   0.08050422  0.57636821  0.61707228
   0.58205736  0.32764208  0.60753973
   0.33453380  0.59532854  0.60924453
   0.10707675  0.07052375  0.61012921
   0.83563766  0.32489661  0.61281886
   0.57496288  0.60175641  0.61199917
   0.57050362  0.07488343  0.61266363
   0.08759712  0.84027717  0.61082150
   0.58333333  0.08333333  0.38179910
   0.74156206  0.75686608  0.55926863
   0.25118128  0.75908791  0.56356537
   0.16971143  0.91375969  0.47421129
   0.17173211  0.66678349  0.47334883
   0.33333333  0.58333333  0.38179910
   0.83333333  0.58333333  0.38179910
   0.25575633  0.24096406  0.55975820
   0.33333333  0.33333333  0.38179910
   0.25851515 -0.00106329  0.56036015
   0.16753369  0.16290403  0.47164052
   0.33333333  0.08333333  0.38179910
   0.91828882  0.66675058  0.47260550
  -0.00438132  0.00448160  0.56612112
   0.41695641  0.41986744  0.47494946
   0.33333333  0.83333333  0.38179910
   0.58333333  0.58333333  0.38179910
   0.66383846  0.41797765  0.47627932
   0.41481428  0.66755665  0.47369780
   0.49974515  0.50109314  0.56195806
   0.41255950  0.91667188  0.47406280
   0.75358737  0.23991000  0.56719113
   0.49550248 -0.00046029  0.56067682
   0.49317704  0.24564773  0.56643054
Direct configuration=    12
   0.08333333  0.08333333  0.38179910
   0.92019724  0.91256200  0.47800690
   0.08333333  0.33333333  0.38179910
   0.91403711  0.41931561  0.47463778
   0.01192457  0.24831284  0.56788295
   0.66644431  0.91763740  0.47210663
   0.08333333  0.58333333  0.38179910
   0.91669932  0.16653481  0.47833226
   0.00062514  0.49849957  0.56632157
   0.08333333  0.83333333  0.38179910
   0.75440649 -0.00806650  0.56988412
   0.83333333  0.33333333  0.38179910
  -0.01117837  0.75158918  0.56908194
   0.58333333  0.33333333  0.38179910
   0.83333333  0.83333333  0.38179910
   0.66402672  0.17044050  0.47738652
   0.16943077  0.41696563  0.47258682
   0.83333333  0.08333333  0.38179910
   0.75468063  0.50961206  0.57189780
   0.49177530  0.76768472  0.56560467
   0.25350402  0.48859215  0.56744306
   0.58333333  0.83333333  0.38179910
   0.41461388  0.16722160  0.47066842
   0.66468842  0.66501812  0.47140492
   0.08079724  0.57433774  0.62021334
   0.57880401  0.32913075  0.60838347
   0.33638415  0.59715760  0.60845899
   0.11145619  0.06955950  0.61248287
   0.83717131  0.32334470  0.61429515
   0.57327510  0.60374191  0.61416279
   0.56655547  0.07382377  0.61588304
   0.08737261  0.84092519  0.61281339
   0.58333333  0.08333333  0.38179910
   0.74212077  0.75662214  0.56096197
   0.25200033  0.75851998  0.56401692
   0.16848178  0.91516448  0.47518195
   0.17166821  0.66655988  0.47507522
   0.33333333  0.58333333  0.38179910
   0.83333333  0.58333333  0.38179910
   0.25657275  0.24152880  0.56133492
   0.33333333  0.33333333  0.38179910
   0.25918564 -0.00132984  0.56051448
   0.16693309  0.16309497  0.47187703
   0.33333333  0.08333333  0.38179910
   0.91802807  0.66695733  0.47379708
  -0.00482722  0.00462865  0.56780158
   0.41666023  0.41940120  0.47596033
   0.33333333  0.83333333  0.38179910
   0.58333333  0.58333333  0.38179910
   0.66539147  0.41741983  0.47835076
   0.41526571  0.66815184  0.47485494
   0.49826529  0.50241586  0.56263993
   0.41283173  0.91695455  0.47394667
   0.75331156  0.23835922  0.56853055
   0.49622598  0.00123679  0.56097217
   0.49489513  0.24255476  0.56847653
Direct configuration=    13
   0.08333333  0.08333333  0.38179910
   0.92003767  0.91255276  0.47876730
   0.08333333  0.33333333  0.38179910
   0.91420779  0.41939485  0.47535440
   0.01235703  0.24908320  0.56886474
   0.66657763  0.91777228  0.47218441
   0.08333333  0.58333333  0.38179910
   0.91692048  0.16629423  0.47875204
   0.00067993  0.49791348  0.56681210
   0.08333333  0.83333333  0.38179910
   0.75459340 -0.00828056  0.57144502
   0.83333333  0.33333333  0.38179910
  -0.01162972  0.75174214  0.57058496
   0.58333333  0.33333333  0.38179910
   0.83333333  0.83333333  0.38179910
   0.66409900  0.17006605  0.47776789
   0.16919241  0.41726771  0.47309439
   0.83333333  0.08333333  0.38179910
   0.75616011  0.50996438  0.57369290
   0.49182586  0.76817981  0.56602813
   0.25363232  0.48733839  0.56855187
   0.58333333  0.83333333  0.38179910
   0.41463149  0.16730989  0.47071451
   0.66484626  0.66498158  0.47180445
   0.08109700  0.57360043  0.62193949
   0.57749202  0.33052388  0.60903390
   0.33724221  0.59781662  0.60875044
   0.11369598  0.06851874  0.61345451
   0.83708854  0.32254874  0.61543920
   0.57258235  0.60373588  0.61543980
   0.56470171  0.07383428  0.61714315
   0.08814873  0.84082799  0.61378756
   0.58333333  0.08333333  0.38179910
   0.74260380  0.75529050  0.56156925
   0.25100102  0.75937226  0.56414944
   0.16812804  0.91542550  0.47531183
   0.17164241  0.66635153  0.47553532
   0.33333333  0.58333333  0.38179910
   0.83333333  0.58333333  0.38179910
   0.25611114  0.24286086  0.56183866
   0.33333333  0.33333333  0.38179910
   0.25829224 -0.00069626  0.56069610
   0.16633120  0.16367755  0.47207854
   0.33333333  0.08333333  0.38179910
   0.91819528  0.66681132  0.47429918
  -0.00476017  0.00469470  0.56881529
   0.41644973  0.41931614  0.47635232
   0.33333333  0.83333333  0.38179910
   0.58333333  0.58333333  0.38179910
   0.66541288  0.41760145  0.47899556
   0.41537388  0.66827903  0.47504913
   0.49884792  0.50252085  0.56305192
   0.41327668  0.91670406  0.47400375
   0.75293602  0.23798408  0.56925225
   0.49694850  0.00141546  0.56108602
   0.49506458  0.24129070  0.56957905
Direct configuration=    14
   0.08333333  0.08333333  0.38179910
   0.91964458  0.91252999  0.48064048
   0.08333333  0.33333333  0.38179910
   0.91462826  0.41959007  0.47711974
   0.01342236  0.25098095  0.57128332
   0.66690605  0.91810455  0.47237604
   0.08333333  0.58333333  0.38179910
   0.91746531  0.16570156  0.47978615
   0.00081490  0.49646968  0.56802050
   0.08333333  0.83333333  0.38179910
   0.75505385 -0.00880788  0.57529021
   0.83333333  0.33333333  0.38179910
  -0.01274159  0.75211894  0.57428754
   0.58333333  0.33333333  0.38179910
   0.83333333  0.83333333  0.38179910
   0.66427705  0.16914363  0.47870737
   0.16860522  0.41801185  0.47434476
   0.83333333  0.08333333  0.38179910
   0.75980474  0.51083228  0.57811503
   0.49195039  0.76939943  0.56707128
   0.25394837  0.48424983  0.57128337
   0.58333333  0.83333333  0.38179910
   0.41467488  0.16752738  0.47082807
   0.66523507  0.66489159  0.47278867
   0.08183542  0.57178412  0.62619175
   0.57426003  0.33395575  0.61063622
   0.33935600  0.59944006  0.60946842
   0.11921358  0.06595490  0.61584809
   0.83688465  0.32058795  0.61825748
   0.57087579  0.60372104  0.61858566
   0.56013506  0.07386016  0.62024734
   0.09006067  0.84058853  0.61618740
   0.58333333  0.08333333  0.38179910
   0.74379373  0.75201011  0.56306525
   0.24853929  0.76147179  0.56447589
   0.16725661  0.91606853  0.47563179
   0.17157884  0.66583826  0.47666874
   0.33333333  0.58333333  0.38179910
   0.83333333  0.58333333  0.38179910
   0.25497399  0.24614230  0.56307959
   0.33333333  0.33333333  0.38179910
   0.25609140  0.00086454  0.56114350
   0.16484846  0.16511271  0.47257495
   0.33333333  0.08333333  0.38179910
   0.91860719  0.66645162  0.47553607