  48  48   0   0
  0.5349325E+02  0.1100258E-08  0.1100258E-08  0.2449179E-08  0.3500000E-15
  1.000000000000000E-004
  CAR 
 unknown system                          
      6.40384385     -9.73375697  301     -1.09878906      1.00000000
     -9.734  0.0000E+00  0.0000E+00
     -9.680  0.0000E+00  0.0000E+00
     -9.626  0.0000E+00  0.0000E+00
     -9.572  0.0000E+00  0.0000E+00
     -9.519  0.0000E+00  0.0000E+00
     -9.465  0.0000E+00  0.0000E+00
     -9.411  0.0000E+00  0.0000E+00
     -9.357  0.0000E+00  0.0000E+00
     -9.303  0.1101E-16  0.5921E-18
     -9.250  0.4243E-14  0.2288E-15
     -9.196  0.9264E-12  0.5006E-13
     -9.142  0.1147E-09  0.6219E-11
     -9.088  0.8063E-08  0.4400E-09
     -9.034  0.3227E-06  0.1780E-07
     -8.981  0.7368E-05  0.4141E-06
     -8.927  0.9620E-04  0.5589E-05
     -8.873  0.7200E-03  0.4432E-04
     -8.819  0.3097E-02  0.2109E-03
     -8.766  0.7680E-02  0.6241E-03
     -8.712  0.1111E-01  0.1222E-02
     -8.658  0.1008E-01  0.1764E-02
     -8.604  0.8276E-02  0.2209E-02
     -8.550  0.9827E-02  0.2738E-02
     -8.497  0.1109E-01  0.3334E-02
     -8.443  0.8005E-02  0.3765E-02
     -8.389  0.3405E-02  0.3948E-02
     -8.335  0.8525E-03  0.3994E-02
     -8.281  0.2266E-03  0.4006E-02
     -8.228  0.6190E-03  0.4039E-02
     -8.174  0.2129E-02  0.4154E-02
     -8.120  0.4873E-02  0.4416E-02
     -8.066  0.8274E-02  0.4861E-02
     -8.012  0.1194E-01  0.5503E-02
     -7.959  0.1593E-01  0.6360E-02
     -7.905  0.1952E-01  0.7410E-02
     -7.851  0.2043E-01  0.8509E-02
     -7.797  0.1822E-01  0.9489E-02
     -7.743  0.1642E-01  0.1037E-01
     -7.690  0.1692E-01  0.1128E-01
     -7.636  0.1704E-01  0.1220E-01
     -7.582  0.1588E-01  0.1305E-01
     -7.528  0.1705E-01  0.1397E-01
     -7.474  0.2162E-01  0.1513E-01
     -7.421  0.2397E-01  0.1642E-01
     -7.367  0.2074E-01  0.1754E-01
     -7.313  0.1763E-01  0.1849E-01
     -7.259  0.2086E-01  0.1961E-01
     -7.206  0.2756E-01  0.2109E-01
     -7.152  0.3058E-01  0.2274E-01
     -7.098  0.3077E-01  0.2439E-01
     -7.044  0.3460E-01  0.2625E-01
     -6.990  0.4131E-01  0.2847E-01
     -6.937  0.4655E-01  0.3098E-01
     -6.883  0.5197E-01  0.3377E-01
     -6.829  0.6041E-01  0.3702E-01
     -6.775  0.7081E-01  0.4083E-01
     -6.721  0.8071E-01  0.4517E-01
     -6.668  0.8907E-01  0.4997E-01
     -6.614  0.9556E-01  0.5511E-01
     -6.560  0.9914E-01  0.6044E-01
     -6.506  0.1020E+00  0.6593E-01
     -6.452  0.1100E+00  0.7185E-01
     -6.399  0.1225E+00  0.7844E-01
     -6.345  0.1321E+00  0.8554E-01
     -6.291  0.1374E+00  0.9293E-01
     -6.237  0.1431E+00  0.1006E+00
     -6.183  0.1509E+00  0.1087E+00
     -6.130  0.1599E+00  0.1173E+00
     -6.076  0.1671E+00  0.1263E+00
     -6.022  0.1691E+00  0.1354E+00
     -5.968  0.1668E+00  0.1444E+00
     -5.915  0.1626E+00  0.1532E+00
     -5.861  0.1560E+00  0.1615E+00
     -5.807  0.1493E+00  0.1696E+00
     -5.753  0.1452E+00  0.1774E+00
     -5.699  0.1398E+00  0.1849E+00
     -5.646  0.1323E+00  0.1920E+00
     -5.592  0.1306E+00  0.1990E+00
     -5.538  0.1373E+00  0.2064E+00
     -5.484  0.1446E+00  0.2142E+00
     -5.430  0.1466E+00  0.2221E+00
     -5.377  0.1455E+00  0.2299E+00
     -5.323  0.1456E+00  0.2378E+00
     -5.269  0.1497E+00  0.2458E+00
     -5.215  0.1575E+00  0.2543E+00
     -5.161  0.1647E+00  0.2631E+00
     -5.108  0.1691E+00  0.2722E+00
     -5.054  0.1727E+00  0.2815E+00
     -5.000  0.1764E+00  0.2910E+00
     -4.946  0.1778E+00  0.3006E+00
     -4.892  0.1751E+00  0.3100E+00
     -4.839  0.1709E+00  0.3192E+00
     -4.785  0.1686E+00  0.3283E+00
     -4.731  0.1691E+00  0.3374E+00
     -4.677  0.1707E+00  0.3465E+00
     -4.624  0.1722E+00  0.3558E+00
     -4.570  0.1735E+00  0.3651E+00
     -4.516  0.1744E+00  0.3745E+00
     -4.462  0.1746E+00  0.3839E+00
     -4.408  0.1729E+00  0.3932E+00
     -4.355  0.1697E+00  0.4023E+00
     -4.301  0.1684E+00  0.4114E+00
     -4.247  0.1705E+00  0.4206E+00
     -4.193  0.1738E+00  0.4299E+00
     -4.139  0.1762E+00  0.4394E+00
     -4.086  0.1775E+00  0.4489E+00
     -4.032  0.1803E+00  0.4586E+00
     -3.978  0.1866E+00  0.4687E+00
     -3.924  0.1933E+00  0.4791E+00
     -3.870  0.1975E+00  0.4897E+00
     -3.817  0.2006E+00  0.5005E+00
     -3.763  0.2038E+00  0.5115E+00
     -3.709  0.2055E+00  0.5225E+00
     -3.655  0.2049E+00  0.5335E+00
     -3.601  0.2016E+00  0.5444E+00
     -3.548  0.1960E+00  0.5549E+00
     -3.494  0.1888E+00  0.5651E+00
     -3.440  0.1828E+00  0.5749E+00
     -3.386  0.1824E+00  0.5847E+00
     -3.333  0.1875E+00  0.5948E+00
     -3.279  0.1926E+00  0.6052E+00
     -3.225  0.1929E+00  0.6155E+00
     -3.171  0.1895E+00  0.6257E+00
     -3.117  0.1860E+00  0.6357E+00
     -3.064  0.1834E+00  0.6456E+00
     -3.010  0.1818E+00  0.6554E+00
     -2.956  0.1822E+00  0.6652E+00
     -2.902  0.1849E+00  0.6751E+00
     -2.848  0.1866E+00  0.6852E+00
     -2.795  0.1848E+00  0.6951E+00
     -2.741  0.1827E+00  0.7049E+00
     -2.687  0.1839E+00  0.7148E+00
     -2.633  0.1850E+00  0.7248E+00
     -2.579  0.1836E+00  0.7347E+00
     -2.526  0.1824E+00  0.7445E+00
     -2.472  0.1831E+00  0.7543E+00
     -2.418  0.1855E+00  0.7643E+00
     -2.364  0.1892E+00  0.7745E+00
     -2.310  0.1939E+00  0.7849E+00
     -2.257  0.1975E+00  0.7955E+00
     -2.203  0.1967E+00  0.8061E+00
     -2.149  0.1930E+00  0.8165E+00
     -2.095  0.1907E+00  0.8267E+00
     -2.042  0.1897E+00  0.8370E+00
     -1.988  0.1879E+00  0.8471E+00
     -1.934  0.1877E+00  0.8572E+00
     -1.880  0.1912E+00  0.8674E+00
     -1.826  0.1963E+00  0.8780E+00
     -1.773  0.1986E+00  0.8887E+00
     -1.719  0.1975E+00  0.8993E+00
     -1.665  0.1963E+00  0.9099E+00
     -1.611  0.1962E+00  0.9204E+00
     -1.557  0.1950E+00  0.9309E+00
     -1.504  0.1915E+00  0.9412E+00
     -1.450  0.1882E+00  0.9513E+00
     -1.396  0.1862E+00  0.9614E+00
     -1.342  0.1838E+00  0.9712E+00
     -1.288  0.1789E+00  0.9809E+00
     -1.235  0.1701E+00  0.9900E+00
     -1.181  0.1535E+00  0.9983E+00
     -1.127  0.1264E+00  0.1005E+01
     -1.073  0.9762E-01  0.1010E+01
     -1.019  0.7402E-01  0.1014E+01
     -0.966  0.5150E-01  0.1017E+01
     -0.912  0.3072E-01  0.1019E+01
     -0.858  0.1876E-01  0.1020E+01
     -0.804  0.1667E-01  0.1021E+01
     -0.750  0.1904E-01  0.1022E+01
     -0.697  0.2151E-01  0.1023E+01
     -0.643  0.2311E-01  0.1024E+01
     -0.589  0.2587E-01  0.1025E+01
     -0.535  0.3310E-01  0.1027E+01
     -0.482  0.4261E-01  0.1030E+01
     -0.428  0.4645E-01  0.1032E+01
     -0.374  0.4113E-01  0.1034E+01
     -0.320  0.3480E-01  0.1036E+01
     -0.266  0.3765E-01  0.1038E+01
     -0.213  0.4471E-01  0.1041E+01
     -0.159  0.4215E-01  0.1043E+01
     -0.105  0.3054E-01  0.1044E+01
     -0.051  0.2208E-01  0.1046E+01
      0.003  0.2182E-01  0.1047E+01
      0.056  0.2633E-01  0.1048E+01
      0.110  0.3103E-01  0.1050E+01
      0.164  0.3290E-01  0.1052E+01
      0.218  0.3241E-01  0.1053E+01
      0.272  0.3382E-01  0.1055E+01
      0.325  0.3849E-01  0.1057E+01
      0.379  0.4178E-01  0.1060E+01
      0.433  0.3997E-01  0.1062E+01
      0.487  0.3612E-01  0.1064E+01
      0.541  0.3565E-01  0.1066E+01
      0.594  0.3937E-01  0.1068E+01
      0.648  0.4384E-01  0.1070E+01
      0.702  0.4455E-01  0.1072E+01
      0.756  0.4092E-01  0.1075E+01
      0.809  0.3401E-01  0.1076E+01
      0.863  0.2571E-01  0.1078E+01
      0.917  0.2163E-01  0.1079E+01
      0.971  0.2286E-01  0.1080E+01
      1.025  0.2409E-01  0.1082E+01
      1.078  0.2313E-01  0.1083E+01
      1.132  0.2187E-01  0.1084E+01
      1.186  0.2045E-01  0.1085E+01
      1.240  0.1745E-01  0.1086E+01
      1.294  0.1367E-01  0.1087E+01
      1.347  0.1158E-01  0.1087E+01
      1.401  0.1217E-01  0.1088E+01
      1.455  0.1720E-01  0.1089E+01
      1.509  0.2687E-01  0.1090E+01
      1.563  0.3470E-01  0.1092E+01
      1.616  0.3510E-01  0.1094E+01
      1.670  0.3092E-01  0.1096E+01
      1.724  0.2845E-01  0.1097E+01
      1.778  0.2979E-01  0.1099E+01
      1.832  0.3221E-01  0.1101E+01
      1.885  0.3163E-01  0.1102E+01
      1.939  0.2812E-01  0.1104E+01
      1.993  0.2584E-01  0.1105E+01
      2.047  0.2548E-01  0.1107E+01
      2.100  0.2493E-01  0.1108E+01
      2.154  0.2474E-01  0.1109E+01
      2.208  0.2746E-01  0.1111E+01
      2.262  0.3353E-01  0.1113E+01
      2.316  0.4087E-01  0.1115E+01
      2.369  0.4668E-01  0.1117E+01
      2.423  0.4707E-01  0.1120E+01
      2.477  0.4248E-01  0.1122E+01
      2.531  0.3920E-01  0.1124E+01
      2.585  0.4170E-01  0.1126E+01
      2.638  0.4817E-01  0.1129E+01
      2.692  0.5236E-01  0.1132E+01
      2.746  0.4835E-01  0.1134E+01
      2.800  0.3575E-01  0.1136E+01
      2.854  0.2149E-01  0.1138E+01
      2.907  0.1346E-01  0.1138E+01
      2.961  0.1217E-01  0.1139E+01
      3.015  0.1124E-01  0.1140E+01
      3.069  0.8860E-02  0.1140E+01
      3.123  0.1084E-01  0.1141E+01
      3.176  0.1940E-01  0.1142E+01
      3.230  0.2730E-01  0.1143E+01
      3.284  0.2718E-01  0.1145E+01
      3.338  0.2146E-01  0.1146E+01
      3.391  0.1801E-01  0.1147E+01
      3.445  0.2012E-01  0.1148E+01
      3.499  0.2402E-01  0.1149E+01
      3.553  0.2701E-01  0.1151E+01
      3.607  0.3107E-01  0.1152E+01
      3.660  0.3450E-01  0.1154E+01
      3.714  0.3464E-01  0.1156E+01
      3.768  0.3451E-01  0.1158E+01
      3.822  0.3354E-01  0.1160E+01
      3.876  0.2771E-01  0.1161E+01
      3.929  0.2186E-01  0.1162E+01
      3.983  0.2357E-01  0.1163E+01
      4.037  0.2922E-01  0.1165E+01
      4.091  0.3006E-01  0.1167E+01
      4.145  0.2651E-01  0.1168E+01
      4.198  0.2378E-01  0.1169E+01
      4.252  0.2170E-01  0.1171E+01
      4.306  0.1833E-01  0.1172E+01
      4.360  0.1702E-01  0.1172E+01
      4.414  0.2151E-01  0.1174E+01
      4.467  0.2908E-01  0.1175E+01
      4.521  0.3691E-01  0.1177E+01
      4.575  0.4646E-01  0.1180E+01
      4.629  0.5542E-01  0.1183E+01
      4.682  0.5639E-01  0.1186E+01
      4.736  0.4997E-01  0.1188E+01
      4.790  0.4586E-01  0.1191E+01
      4.844  0.4682E-01  0.1193E+01
      4.898  0.4849E-01  0.1196E+01
      4.951  0.5309E-01  0.1199E+01
      5.005  0.6453E-01  0.1202E+01
      5.059  0.7428E-01  0.1206E+01
      5.113  0.7201E-01  0.1210E+01
      5.167  0.6303E-01  0.1214E+01
      5.220  0.5698E-01  0.1217E+01
      5.274  0.5144E-01  0.1219E+01
      5.328  0.4014E-01  0.1222E+01
      5.382  0.2529E-01  0.1223E+01
      5.436  0.1301E-01  0.1224E+01
      5.489  0.5397E-02  0.1224E+01
      5.543  0.1650E-02  0.1224E+01
      5.597  0.3341E-03  0.1224E+01
      5.651  0.4178E-04  0.1224E+01
      5.705  0.3109E-05  0.1224E+01
      5.758  0.1351E-06  0.1224E+01
      5.812  0.3386E-08  0.1224E+01
      5.866  0.4865E-10  0.1224E+01
      5.920  0.3986E-12  0.1224E+01
      5.974  0.1855E-14  0.1224E+01
      6.027  0.5504E-17  0.1224E+01
      6.081  0.0000E+00  0.1224E+01
      6.135  0.0000E+00  0.1224E+01
      6.189  0.0000E+00  0.1224E+01
      6.242  0.0000E+00  0.1224E+01
      6.296  0.0000E+00  0.1224E+01
      6.350  0.0000E+00  0.1224E+01
      6.404  0.0000E+00  0.1224E+01
