unknown system                          
           1
    11.002582    0.000000    0.000000
     5.501291    9.528515    0.000000
     0.000000    0.000000   26.191785
   Au   O    Pd
  24   8  24
Direct configuration=     1
   0.50000000  0.50000000  0.55329505
   0.08333333  0.83333333  0.38179910
   0.91666667  0.16666667  0.46754708
   0.66666667  0.41666667  0.46754708
   0.83333333  0.33333333  0.38179910
   0.75000000  0.00000000  0.55329505
   0.66666667  0.16666667  0.46754708
   0.00000000  0.25000000  0.55329505
   0.08333333  0.58333333  0.38179910
   0.91666667  0.66666667  0.46754708
   0.50000000  0.75000000  0.55329505
   0.25000000  0.50000000  0.55329505
   0.66666667  0.91666667  0.46754708
   0.58333333  0.58333333  0.38179910
   0.83333333  0.83333333  0.38179910
   0.33333333  0.08333333  0.38179910
   0.16666667  0.16666667  0.46754708
   0.58333333  0.33333333  0.38179910
   0.33333333  0.33333333  0.38179910
   0.50000000  0.00000000  0.55329505
   0.25000000  0.75000000  0.55329505
   0.16666667  0.91666667  0.46754708
   0.75000000  0.25000000  0.55329505
   0.16666667  0.66666667  0.46754708
   0.08333333  0.08333333  0.61820090
   0.08333333  0.33333333  0.61820090
   0.83333333  0.58333333  0.61820090
   0.33333333  0.33333333  0.61820090
   0.83333333  0.33333333  0.61820090
   0.33333333  0.58333333  0.61820090
   0.58333333  0.33333333  0.61820090
   0.58333333  0.83333333  0.61820090
   0.25000000  0.25000000  0.55329505
   0.75000000  0.75000000  0.55329505
   0.58333333  0.08333333  0.38179910
   0.41666667  0.16666667  0.46754708
   0.16666667  0.41666667  0.46754708
   0.75000000  0.50000000  0.55329505
   0.41666667  0.41666667  0.46754708
   0.50000000  0.25000000  0.55329505
   0.25000000  0.00000000  0.55329505
   0.00000000  0.75000000  0.55329505
   0.33333333  0.58333333  0.38179910
   0.41666667  0.66666667  0.46754708
   0.66666667  0.66666667  0.46754708
   0.58333333  0.83333333  0.38179910
   0.41666667  0.91666667  0.46754708
   0.00000000  0.50000000  0.55329505
   0.83333333  0.08333333  0.38179910
   0.91666667  0.41666667  0.46754708
   0.08333333  0.33333333  0.38179910
   0.83333333  0.58333333  0.38179910
   0.00000000  0.00000000  0.55329505
   0.33333333  0.83333333  0.38179910
   0.91666667  0.91666667  0.46754708
   0.08333333  0.08333333  0.38179910
Direct configuration=     2
   0.50087789  0.50056851  0.55609802
   0.08333333  0.83333333  0.38179910
   0.91730221  0.16568805  0.46744268
   0.66574083  0.41942647  0.46814405
   0.83333333  0.33333333  0.38179910
   0.75175458 -0.00148800  0.55509614
   0.66532343  0.16659960  0.46753649
   0.00094853  0.24973973  0.55639304
   0.08333333  0.58333333  0.38179910
   0.91600615  0.66513510  0.46856088
   0.50019976  0.75016448  0.55525666
   0.24820304  0.49974979  0.55601755
   0.66566759  0.91589456  0.46726715
   0.58333333  0.58333333  0.38179910
   0.83333333  0.83333333  0.38179910
   0.33333333  0.08333333  0.38179910
   0.16717467  0.16784927  0.46777924
   0.58333333  0.33333333  0.38179910
   0.33333333  0.33333333  0.38179910
   0.49867788  0.00116457  0.55562920
   0.24877562  0.75170893  0.55593344
   0.16782276  0.91618056  0.46761029
   0.75029511  0.24848584  0.55660461
   0.16770176  0.66548426  0.46778158
   0.08519435  0.07960046  0.61463286
   0.08495052  0.33478589  0.61492517
   0.83376459  0.58395679  0.61398974
   0.33383756  0.33084168  0.61476401
   0.83127376  0.33534595  0.61557903
   0.33214481  0.58539310  0.61578951
   0.58346594  0.33188746  0.61543553
   0.58356517  0.83359333  0.61500509
   0.25010595  0.25043643  0.55655274
   0.75057061  0.74881763  0.55702823
   0.58333333  0.08333333  0.38179910
   0.41636241  0.16729936  0.46857966
   0.16652369  0.41616830  0.46814738
   0.75112504  0.50078244  0.55668793
   0.41610235  0.41637640  0.46726404
   0.49901389  0.25047613  0.55666491
   0.24875361  0.00051889  0.55560947
  -0.00079195  0.75066438  0.55417177
   0.33333333  0.58333333  0.38179910
   0.41750006  0.66690571  0.46767488
   0.66674370  0.66627853  0.46761054
   0.58333333  0.83333333  0.38179910
   0.41653169  0.91632033  0.46747545
  -0.00111251  0.50034875  0.55688937
   0.83333333  0.08333333  0.38179910
   0.91685125  0.41755587  0.46757452
   0.08333333  0.33333333  0.38179910
   0.83333333  0.58333333  0.38179910
   0.00119195 -0.00068415  0.55572375
   0.33333333  0.83333333  0.38179910
   0.91713965  0.91688004  0.46809942
   0.08333333  0.08333333  0.38179910
Direct configuration=     3
   0.50234500  0.50151859  0.56078228
   0.08333333  0.83333333  0.38179910
   0.91836430  0.16405260  0.46726822
   0.66419359  0.42403859  0.46914171
   0.83333333  0.33333333  0.38179910
   0.75468679 -0.00397471  0.55810608
   0.66307863  0.16648752  0.46751879
   0.00253369  0.24930476  0.56157032
   0.08333333  0.58333333  0.38179910
   0.91490231  0.66257559  0.47025511
   0.50053359  0.75043935  0.55853485
   0.24520001  0.49933165  0.56056731
   0.66399797  0.91460422  0.46679934
   0.58333333  0.58333333  0.38179910
   0.83333333  0.83333333  0.38179910
   0.33333333  0.08333333  0.38179910
   0.16802363  0.16982560  0.46816723
   0.58333333  0.33333333  0.38179910
   0.33333333  0.33333333  0.38179910
   0.49646838  0.00311077  0.55952997
   0.24672947  0.75456486  0.56034264
   0.16975480  0.91536819  0.46771593
   0.75078829  0.24595541  0.56213546
   0.16943157  0.66350826  0.46817346
   0.08830444  0.07336218  0.60867003
   0.08765311  0.33721337  0.60945086
   0.83448530  0.58499870  0.60695217
   0.33468021  0.32667769  0.60902037
   0.82783185  0.33870940  0.61119743
   0.33015859  0.58883532  0.61175965
   0.58368754  0.32947116  0.61081412
   0.58395262  0.83402782  0.60966432
   0.25028302  0.25116578  0.56199691
   0.75152420  0.74684169  0.56326701
   0.58333333  0.08333333  0.38179910
   0.41585395  0.16835671  0.47030529
   0.16628475  0.41533545  0.46915060
   0.75300517  0.50209004  0.56235802
   0.41515928  0.41589131  0.46679104
   0.49736593  0.25127184  0.56229653
   0.24667068  0.00138606  0.55947725
  -0.00211545  0.75177467  0.55563691
   0.33333333  0.58333333  0.38179910
   0.41889281  0.66730518  0.46788847
   0.66687244  0.66562989  0.46771659
   0.58333333  0.83333333  0.38179910
   0.41630612  0.91574154  0.46735576
  -0.00297170  0.50093157  0.56289612
   0.83333333  0.08333333  0.38179910
   0.91715972  0.41904189  0.46762040
   0.08333333  0.33333333  0.38179910
   0.83333333  0.58333333  0.38179910
   0.00318390 -0.00182748  0.55978254
   0.33333333  0.83333333  0.38179910
   0.91793009  0.91723662  0.46902249
   0.08333333  0.08333333  0.38179910
Direct configuration=     4
   0.50211012  0.50136649  0.56003235
   0.08333333  0.83333333  0.38179910
   0.91819427  0.16431443  0.46729615
   0.66444130  0.42330021  0.46898199
   0.83333333  0.33333333  0.38179910
   0.75421736 -0.00357660  0.55762421
   0.66343801  0.16650547  0.46752162
   0.00227992  0.24937440  0.56074146
   0.08333333  0.58333333  0.38179910
   0.91507903  0.66298536  0.46998387
   0.50048015  0.75039534  0.55801003
   0.24568078  0.49939859  0.55983891
   0.66426526  0.91481080  0.46687423
   0.58333333  0.58333333  0.38179910
   0.83333333  0.83333333  0.38179910
   0.33333333  0.08333333  0.38179910
   0.16788772  0.16950920  0.46810512
   0.58333333  0.33333333  0.38179910
   0.33333333  0.33333333  0.38179910
   0.49682211  0.00279919  0.55890547
   0.24705705  0.75410764  0.55963675
   0.16944549  0.91549825  0.46769902
   0.75070933  0.24636052  0.56125000
   0.16915463  0.66382461  0.46811072
   0.08780653  0.07436090  0.60962465
   0.08722044  0.33682474  0.61032727
   0.83436992  0.58483190  0.60807885
   0.33454531  0.32734433  0.60993990
   0.82838289  0.33817092  0.61189891
   0.33047657  0.58828424  0.61240481
   0.58365207  0.32985800  0.61155399
   0.58389059  0.83395826  0.61051936
   0.25025467  0.25104902  0.56112533
   0.75137154  0.74715803  0.56226821
   0.58333333  0.08333333  0.38179910
   0.41593535  0.16818744  0.47002903
   0.16632300  0.41546879  0.46898999
   0.75270417  0.50188070  0.56145027
   0.41531026  0.41596897  0.46686677
   0.49762976  0.25114445  0.56139494
   0.24700415  0.00124723  0.55885804
  -0.00190356  0.75159692  0.55540235
   0.33333333  0.58333333  0.38179910
   0.41866984  0.66724123  0.46785428
   0.66685183  0.66573374  0.46769961
   0.58333333  0.83333333  0.38179910
   0.41634223  0.91583420  0.46737492
  -0.00267406  0.50083826  0.56193446
   0.83333333  0.08333333  0.38179910
   0.91711034  0.41880399  0.46761305
   0.08333333  0.33333333  0.38179910
   0.83333333  0.58333333  0.38179910
   0.00286500 -0.00164444  0.55913275
   0.33333333  0.83333333  0.38179910
   0.91780354  0.91717953  0.46887471
   0.08333333  0.08333333  0.38179910
Direct configuration=     5
   0.50384272  0.50590785  0.56036340
   0.08333333  0.83333333  0.38179910
   0.91733183  0.16548763  0.46905846
   0.66497124  0.42248321  0.47132241
   0.83333333  0.33333333  0.38179910
   0.75464561 -0.00474787  0.55868230
   0.66351720  0.16693016  0.46928902
   0.00154222  0.24925016  0.55989874
   0.08333333  0.58333333  0.38179910
   0.91469479  0.66284114  0.47172606
   0.49730620  0.74846529  0.55826849
   0.23849380  0.50576966  0.56011056
   0.66384020  0.91435297  0.46837581
   0.58333333  0.58333333  0.38179910
   0.83333333  0.83333333  0.38179910
   0.33333333  0.08333333  0.38179910
   0.16760156  0.17002091  0.46966431
   0.58333333  0.33333333  0.38179910
   0.33333333  0.33333333  0.38179910
   0.49473389  0.00703731  0.55967004
   0.24505600  0.75776839  0.56075115
   0.17053038  0.91482923  0.46903097
   0.75379806  0.24039270  0.56184804
   0.16999299  0.66292504  0.46967231
   0.09124752  0.06661314  0.60879572
   0.09008486  0.33873498  0.60910473
   0.83449181  0.58605908  0.60686348
   0.33713784  0.32214552  0.60854929
   0.82562580  0.34109270  0.61129347
   0.32899667  0.59043879  0.61222918
   0.58227033  0.32720101  0.61097545
   0.58406997  0.83505847  0.60991847
   0.25169489  0.24743674  0.56279956
   0.75228323  0.75120208  0.56362252
   0.58333333  0.08333333  0.38179910
   0.41585199  0.16797692  0.47190985
   0.16622033  0.41561522  0.47059993
   0.74784101  0.50284360  0.56282845
   0.41516054  0.41619139  0.46818735
   0.50047168  0.24750595  0.56344245
   0.24999255 -0.00034119  0.55959411
  -0.00139855  0.75149354  0.55614036
   0.33333333  0.58333333  0.38179910
   0.41830698  0.66763856  0.46942188
   0.66671053  0.66650091  0.46885461
   0.58333333  0.83333333  0.38179910
   0.41651432  0.91596662  0.46853262
   0.00102499  0.50302924  0.56327927
   0.83333333  0.08333333  0.38179910
   0.91728408  0.41803706  0.46891357
   0.08333333  0.33333333  0.38179910
   0.83333333  0.58333333  0.38179910
   0.00168801 -0.00293787  0.56009303
   0.33333333  0.83333333  0.38179910
   0.91765959  0.91660110  0.47004703
   0.08333333  0.08333333  0.38179910
Direct configuration=     6
   0.50488041  0.50862776  0.56056167
   0.08333333  0.83333333  0.38179910
   0.91681531  0.16619028  0.47011394
   0.66528863  0.42199390  0.47272413
   0.83333333  0.33333333  0.38179910
   0.75490209 -0.00544936  0.55931601
   0.66356462  0.16718451  0.47034755
   0.00110040  0.24917574  0.55939401
   0.08333333  0.58333333  0.38179910
   0.91446466  0.66275477  0.47276949
   0.49540527  0.74730934  0.55842330
   0.23418937  0.50958542  0.56027326
   0.66358562  0.91407877  0.46927514
   0.58333333  0.58333333  0.38179910
   0.83333333  0.83333333  0.38179910
   0.33333333  0.08333333  0.38179910
   0.16743017  0.17032738  0.47059814
   0.58333333  0.33333333  0.38179910
   0.33333333  0.33333333  0.38179910
   0.49348322  0.00957560  0.56012795
   0.24385752  0.75996089  0.56141859
   0.17118014  0.91442855  0.46982871
   0.75564795  0.23681845  0.56220621
   0.17049510  0.66238628  0.47060758
   0.09330839  0.06197286  0.60829925
   0.09180042  0.33987906  0.60837253
   0.83456482  0.58679407  0.60613558
   0.33869056  0.31903184  0.60771643
   0.82397452  0.34284261  0.61093087
   0.32811032  0.59172920  0.61212400
   0.58144279  0.32560969  0.61062895
   0.58417740  0.83571740  0.60955859
   0.25255747  0.24527327  0.56380229
   0.75282926  0.75362413  0.56443365
   0.58333333  0.08333333  0.38179910
   0.41580207  0.16785083  0.47303631
   0.16615884  0.41570292  0.47156415
   0.74492837  0.50342030  0.56365387
   0.41507088  0.41632460  0.46897827
   0.50217376  0.24532678  0.56466875
   0.25178236 -0.00129253  0.56003496
  -0.00109608  0.75143162  0.55658236
   0.33333333  0.58333333  0.38179910
   0.41808966  0.66787653  0.47036076
   0.66662590  0.66696038  0.46954636
   0.58333333  0.83333333  0.38179910
   0.41661738  0.91604592  0.46922599
   0.00324043  0.50434145  0.56408470
   0.83333333  0.08333333  0.38179910
   0.91738814  0.41757773  0.46969248
   0.08333333  0.33333333  0.38179910
   0.83333333  0.58333333  0.38179910
   0.00098309 -0.00371254  0.56066816
   0.33333333  0.83333333  0.38179910
   0.91757337  0.91625466  0.47074916
   0.08333333  0.08333333  0.38179910
Direct configuration=     7
   0.50375923  0.50615781  0.56154017
   0.08333333  0.83333333  0.38179910
   0.91670502  0.16586111  0.47104665
   0.66572569  0.42116548  0.47402414
   0.83333333  0.33333333  0.38179910
   0.75519081 -0.00719292  0.56036831
   0.66362973  0.16711745  0.47143216
   0.00108877  0.24962589  0.55840048
   0.08333333  0.58333333  0.38179910
   0.91441680  0.66274819  0.47370382
   0.49555231  0.75067744  0.55900657
   0.23538302  0.51017570  0.56104774
   0.66361904  0.91447456  0.47042116
   0.58333333  0.58333333  0.38179910
   0.83333333  0.83333333  0.38179910
   0.33333333  0.08333333  0.38179910
   0.16780476  0.16968793  0.47146798
   0.58333333  0.33333333  0.38179910
   0.33333333  0.33333333  0.38179910
   0.49398761  0.00829140  0.56087715
   0.24144781  0.76278469  0.56243117
   0.17054864  0.91495080  0.47061038
   0.75636947  0.23416448  0.56307306
   0.17036887  0.66291976  0.47108989
   0.09597593  0.05627454  0.60916345
   0.09124068  0.34114422  0.60950400
   0.83421767  0.58682711  0.60696089
   0.34013748  0.31813455  0.60872369
   0.82279802  0.34347086  0.61140439
   0.32733965  0.59262775  0.61242566
   0.58124563  0.32603180  0.61116757
   0.58253580  0.83711668  0.60967535
   0.25401060  0.24086262  0.56299744
   0.75262227  0.75733787  0.56449278
   0.58333333  0.08333333  0.38179910
   0.41573296  0.16805796  0.47405815
   0.16624627  0.41562609  0.47270831
   0.74264335  0.50673523  0.56395162
   0.41560927  0.41593304  0.47045112
   0.50452998  0.24261945  0.56442358
   0.25448017 -0.00228860  0.56019332
  -0.00189294  0.75388896  0.55762283
   0.33333333  0.58333333  0.38179910
   0.41778743  0.66758487  0.47091600
   0.66648073  0.66703577  0.47067612
   0.58333333  0.83333333  0.38179910
   0.41688944  0.91666780  0.47021562
   0.00284069  0.50758735  0.56387241
   0.83333333  0.08333333  0.38179910
   0.91680253  0.41794686  0.47083309
   0.08333333  0.33333333  0.38179910
   0.83333333  0.58333333  0.38179910
  -0.00021292 -0.00565707  0.56079714
   0.33333333  0.83333333  0.38179910
   0.91742365  0.91579908  0.47140792
   0.08333333  0.08333333  0.38179910
Direct configuration=     8
   0.50355010  0.50569709  0.56172269
   0.08333333  0.83333333  0.38179910
   0.91668445  0.16579972  0.47122063
   0.66580721  0.42101095  0.47426663
   0.83333333  0.33333333  0.38179910
   0.75524467 -0.00751814  0.56056459
   0.66364187  0.16710495  0.47163448
   0.00108660  0.24970985  0.55821516
   0.08333333  0.58333333  0.38179910
   0.91440787  0.66274696  0.47387810
   0.49557974  0.75130569  0.55911537
   0.23560568  0.51028580  0.56119220
   0.66362527  0.91454838  0.47063493
   0.58333333  0.58333333  0.38179910
   0.83333333  0.83333333  0.38179910
   0.33333333  0.08333333  0.38179910
   0.16787464  0.16956865  0.47163023
   0.58333333  0.33333333  0.38179910
   0.33333333  0.33333333  0.38179910
   0.49408169  0.00805186  0.56101690
   0.24099833  0.76331141  0.56262004
   0.17043085  0.91504821  0.47075619
   0.75650406  0.23366944  0.56323475
   0.17034532  0.66301927  0.47117986
   0.09647350  0.05521164  0.60932465
   0.09113627  0.34138020  0.60971505
   0.83415291  0.58683328  0.60711484
   0.34040738  0.31796718  0.60891158
   0.82257857  0.34358805  0.61149271
   0.32719590  0.59279536  0.61248193
   0.58120885  0.32611053  0.61126804
   0.58222959  0.83737769  0.60969714
   0.25428166  0.24003991  0.56284731
   0.75258366  0.75803059  0.56450381
   0.58333333  0.08333333  0.38179910
   0.41572007  0.16809659  0.47424875
   0.16626258  0.41561176  0.47292173
   0.74221713  0.50735356  0.56400715
   0.41570969  0.41586001  0.47072585
   0.50496948  0.24211446  0.56437785
   0.25498339 -0.00247439  0.56022286
  -0.00204158  0.75434733  0.55781691
   0.33333333  0.58333333  0.38179910
   0.41773105  0.66753047  0.47101957
   0.66645365  0.66704983  0.47088685
   0.58333333  0.83333333  0.38179910
   0.41694019  0.91678379  0.47040021
   0.00276613  0.50819280  0.56383281
   0.83333333  0.08333333  0.38179910
   0.91669329  0.41801571  0.47104584
   0.08333333  0.33333333  0.38179910
   0.83333333  0.58333333  0.38179910
  -0.00043602 -0.00601978  0.56082120
   0.33333333  0.83333333  0.38179910
   0.91739572  0.91571410  0.47153080
   0.08333333  0.08333333  0.38179910
Direct configuration=     9
   0.50181793  0.50519183  0.56256926
   0.08333333  0.83333333  0.38179910
   0.91664911  0.16497492  0.47145452
   0.66585438  0.42074361  0.47505457
   0.83333333  0.33333333  0.38179910
   0.75502212 -0.00768582  0.56181456
   0.66383914  0.16662492  0.47205337
   0.00102905  0.25007441  0.55854248
   0.08333333  0.58333333  0.38179910
   0.91460511  0.66299523  0.47418708
   0.49609692  0.75129956  0.55952901
   0.23859124  0.50784206  0.56228910
   0.66386881  0.91501922  0.47109938
   0.58333333  0.58333333  0.38179910
   0.83333333  0.83333333  0.38179910
   0.33333333  0.08333333  0.38179910
   0.16836212  0.16884074  0.47161773
   0.58333333  0.33333333  0.38179910
   0.33333333  0.33333333  0.38179910
   0.49513858  0.00719377  0.56165949
   0.24100118  0.76417443  0.56362439
   0.16978263  0.91561535  0.47103945
   0.75726264  0.23333760  0.56468261
   0.17001211  0.66358557  0.47130912
   0.09859909  0.05061546  0.60974154
   0.09105211  0.34222838  0.60969371
   0.83339532  0.58848630  0.60763070
   0.34094540  0.31652646  0.60903639
   0.82215712  0.34389182  0.61146980
   0.32658030  0.59362412  0.61327250
   0.58110696  0.32639255  0.61209447
   0.58166435  0.83793374  0.61068252
   0.25306598  0.24193408  0.56349669
   0.75296317  0.75723675  0.56526922
   0.58333333  0.08333333  0.38179910
   0.41586985  0.16826252  0.47465778
   0.16646037  0.41568296  0.47372393
   0.74174320  0.50924756  0.56461167
   0.41615072  0.41547562  0.47181570
   0.50493424  0.24150845  0.56445105
   0.25421406 -0.00240080  0.56081555
  -0.00211340  0.75560677  0.55896793
   0.33333333  0.58333333  0.38179910
   0.41780290  0.66715085  0.47155830
   0.66615393  0.66686768  0.47162388
   0.58333333  0.83333333  0.38179910
   0.41712378  0.91720242  0.47081913
   0.00193085  0.50844119  0.56439317
   0.83333333  0.08333333  0.38179910
   0.91591224  0.41887888  0.47164241
   0.08333333  0.33333333  0.38179910
   0.83333333  0.58333333  0.38179910
  -0.00065218 -0.00578111  0.56128309
   0.33333333  0.83333333  0.38179910
   0.91705769  0.91541455  0.47175389
   0.08333333  0.08333333  0.38179910
Direct configuration=    10
   0.49992384  0.50463934  0.56349497
   0.08333333  0.83333333  0.38179910
   0.91661046  0.16407302  0.47171028
   0.66590595  0.42045129  0.47591616
   0.83333333  0.33333333  0.38179910
   0.75477878 -0.00786918  0.56318136
   0.66405484  0.16610002  0.47251142
   0.00096612  0.25047304  0.55890041
   0.08333333  0.58333333  0.38179910
   0.91482078  0.66326670  0.47452493
   0.49666243  0.75129286  0.55998132
   0.24185587  0.50516988  0.56348853
   0.66413512  0.91553407  0.47160724
   0.58333333  0.58333333  0.38179910
   0.83333333  0.83333333  0.38179910
   0.33333333  0.08333333  0.38179910
   0.16889518  0.16804479  0.47160406
   0.58333333  0.33333333  0.38179910
   0.33333333  0.33333333  0.38179910
   0.49629426  0.00625546  0.56236214
   0.24100430  0.76511812  0.56472263
   0.16907383  0.91623551  0.47134920
   0.75809212  0.23297474  0.56626581
   0.16964775  0.66420480  0.47145047
   0.10092338  0.04558966  0.61019740
   0.09096009  0.34315584  0.60967038
   0.83256692  0.59029385  0.60819477
   0.34153372  0.31495107  0.60917287
   0.82169628  0.34422399  0.61144474
   0.32590716  0.59453034  0.61413695
   0.58099555  0.32670093  0.61299816
   0.58104627  0.83854176  0.61176001
   0.25173666  0.24400530  0.56420676
   0.75337815  0.75636871  0.56610617
   0.58333333  0.08333333  0.38179910
   0.41603364  0.16844395  0.47510505
   0.16667664  0.41576082  0.47460111
   0.74122497  0.51131859  0.56527269
   0.41663296  0.41505530  0.47300742
   0.50489571  0.24084580  0.56453109
   0.25337282 -0.00232034  0.56146364
  -0.00219195  0.75698394  0.56022653
   0.33333333  0.58333333  0.38179910
   0.41788146  0.66673575  0.47214739
   0.66582619  0.66666850  0.47242980
   0.58333333  0.83333333  0.38179910
   0.41732453  0.91766017  0.47127721
   0.00101750  0.50871279  0.56500591
   0.83333333  0.08333333  0.38179910
   0.91505817  0.41982273  0.47229474
   0.08333333  0.33333333  0.38179910
   0.83333333  0.58333333  0.38179910
  -0.00088856 -0.00552013  0.56178815
   0.33333333  0.83333333  0.38179910
   0.91668806  0.91508700  0.47199782
   0.08333333  0.08333333  0.38179910
Direct configuration=    11
   0.49995673  0.50535231  0.56403489
   0.08333333  0.83333333  0.38179910
   0.91628946  0.16400445  0.47182737
   0.66587964  0.42015524  0.47666314
   0.83333333  0.33333333  0.38179910
   0.75469220 -0.00735727  0.56440848
   0.66445243  0.16578299  0.47285556
   0.00120544  0.25022352  0.55940838
   0.08333333  0.58333333  0.38179910
   0.91499380  0.66362602  0.47480416
   0.49648143  0.75044657  0.56041391
   0.24166309  0.50501634  0.56415675
   0.66443582  0.91547412  0.47186633
   0.58333333  0.58333333  0.38179910
   0.83333333  0.83333333  0.38179910
   0.33333333  0.08333333  0.38179910
   0.16881452  0.16815002  0.47152303
   0.58333333  0.33333333  0.38179910
   0.33333333  0.33333333  0.38179910
   0.49583405  0.00672641  0.56287030
   0.24170880  0.76476490  0.56555160
   0.16916897  0.91606561  0.47151510
   0.75799470  0.23267375  0.56766070
   0.16960586  0.66422695  0.47191423
   0.10240309  0.04196665  0.61109986
   0.09003081  0.34376805  0.61006367
   0.83237856  0.59143237  0.60928906
   0.34267677  0.31318092  0.60983933
   0.82182840  0.34502427  0.61164848
   0.32503243  0.59566132  0.61556942
   0.58054145  0.32628357  0.61379666
   0.58096147  0.83847856  0.61304475
   0.25143213  0.24422753  0.56444691
   0.75307318  0.75649413  0.56679802
   0.58333333  0.08333333  0.38179910
   0.41606848  0.16843362  0.47539647
   0.16677293  0.41599018  0.47523258
   0.74042380  0.51169495  0.56588374
   0.41678420  0.41492709  0.47365669
   0.50577332  0.24048664  0.56493001
   0.25306903 -0.00163240  0.56186135
  -0.00099553  0.75616152  0.56119488
   0.33333333  0.58333333  0.38179910
   0.41779266  0.66667406  0.47270674
   0.66554191  0.66687982  0.47283172
   0.58333333  0.83333333  0.38179910
   0.41748873  0.91771009  0.47152781
   0.00102269  0.50940594  0.56541492
   0.83333333  0.08333333  0.38179910
   0.91468575  0.42016130  0.47255813
   0.08333333  0.33333333  0.38179910
   0.83333333  0.58333333  0.38179910
  -0.00132317 -0.00468391  0.56214165
   0.33333333  0.83333333  0.38179910
   0.91627161  0.91487435  0.47229131
   0.08333333  0.08333333  0.38179910
Direct configuration=    12
   0.50001778  0.50667579  0.56503713
   0.08333333  0.83333333  0.38179910
   0.91569357  0.16387715  0.47204475
   0.66583079  0.41960567  0.47804979
   0.83333333  0.33333333  0.38179910
   0.75453148 -0.00640700  0.56668640
   0.66519049  0.16519449  0.47349438
   0.00164970  0.24976035  0.56035134
   0.08333333  0.58333333  0.38179910
   0.91531498  0.66429305  0.47532251
   0.49614544  0.74887558  0.56121691
   0.24130523  0.50473132  0.56539719
   0.66499403  0.91536284  0.47234727
   0.58333333  0.58333333  0.38179910
   0.83333333  0.83333333  0.38179910
   0.33333333  0.08333333  0.38179910
   0.16866480  0.16834535  0.47137262
   0.58333333  0.33333333  0.38179910
   0.33333333  0.33333333  0.38179910
   0.49497975  0.00760064  0.56381361
   0.24301656  0.76410921  0.56709042
   0.16934558  0.91575022  0.47182308
   0.75781384  0.23211502  0.57025005
   0.16952811  0.66426807  0.47277512
   0.10514989  0.03524121  0.61277511
   0.08830578  0.34490451  0.61079375
   0.83202889  0.59354583  0.61132041
   0.34479862  0.30989495  0.61107648
   0.82207367  0.34650983  0.61202669
   0.32340866  0.59776078  0.61822853
   0.57969851  0.32550881  0.61527893
   0.58080405  0.83836125  0.61542965
   0.25086682  0.24464007  0.56489271
   0.75250705  0.75672696  0.56808229
   0.58333333  0.08333333  0.38179910
   0.41613315  0.16841445  0.47593745
   0.16695168  0.41641593  0.47640480
   0.73893659  0.51239359  0.56701804
   0.41706496  0.41468910  0.47486194
   0.50740243  0.23981991  0.56567053
   0.25250510 -0.00035536  0.56259963
   0.00122540  0.75463483  0.56299244
   0.33333333  0.58333333  0.38179910
   0.41762782  0.66655954  0.47374505
   0.66501421  0.66727210  0.47357780
   0.58333333  0.83333333  0.38179910
   0.41779355  0.91780276  0.47199302
   0.00103232  0.51069264  0.56617416
   0.83333333  0.08333333  0.38179910
   0.91399441  0.42078979  0.47304707
   0.08333333  0.33333333  0.38179910
   0.83333333  0.58333333  0.38179910
  -0.00212996 -0.00313160  0.56279786
   0.33333333  0.83333333  0.38179910
   0.91549853  0.91447961  0.47283612
   0.08333333  0.08333333  0.38179910
Direct configuration=    13
   0.49998491  0.50671516  0.56606265
   0.08333333  0.83333333  0.38179910
   0.91558824  0.16469695  0.47222733
   0.66596662  0.41928797  0.47849429
   0.83333333  0.33333333  0.38179910
   0.75573815 -0.00751439  0.56762141
   0.66538638  0.16529146  0.47380054
   0.00181561  0.24909757  0.56088785
   0.08333333  0.58333333  0.38179910
   0.91517066  0.66433925  0.47571623
   0.49565578  0.75088738  0.56210334
   0.24062941  0.50646512  0.56627436
   0.66490921  0.91495368  0.47266122
   0.58333333  0.58333333  0.38179910
   0.83333333  0.83333333  0.38179910
   0.33333333  0.08333333  0.38179910
   0.16759802  0.16946286  0.47146006
   0.58333333  0.33333333  0.38179910
   0.33333333  0.33333333  0.38179910
   0.49463746  0.00634023  0.56453204
   0.24293261  0.76361428  0.56780745
   0.16989490  0.91499359  0.47206212
   0.75737952  0.23174296  0.57156153
   0.16994317  0.66384325  0.47349653
   0.10634960  0.03263526  0.61399753
   0.08750800  0.34470320  0.61123697
   0.83308406  0.59298160  0.61212177
   0.34608856  0.30778451  0.61181480
   0.82324551  0.34734589  0.61284151
   0.32251020  0.59852082  0.61952721
   0.57862797  0.32540500  0.61603884
   0.58057351  0.83842439  0.61583396
   0.25132321  0.24395564  0.56520774
   0.75037883  0.75873966  0.56893765
   0.58333333  0.08333333  0.38179910
   0.41625592  0.16815884  0.47612527
   0.16669176  0.41673126  0.47656418
   0.73999801  0.51228148  0.56789192
   0.41686669  0.41482344  0.47492006
   0.50735103  0.24072674  0.56659236
   0.25247331 -0.00001999  0.56280620
   0.00183068  0.75405634  0.56345828
   0.33333333  0.58333333  0.38179910
   0.41742799  0.66672824  0.47390433
   0.66512541  0.66765242  0.47362130
   0.58333333  0.83333333  0.38179910
   0.41778469  0.91752561  0.47215610
  -0.00058682  0.51198637  0.56697947
   0.83333333  0.08333333  0.38179910
   0.91423354  0.42046160  0.47298773
   0.08333333  0.33333333  0.38179910
   0.83333333  0.58333333  0.38179910
  -0.00135691 -0.00336074  0.56293431
   0.33333333  0.83333333  0.38179910
   0.91558433  0.91447914  0.47348546
   0.08333333  0.08333333  0.38179910
Direct configuration=    14
   0.49996254  0.50674195  0.56676055
   0.08333333  0.83333333  0.38179910
   0.91551655  0.16525485  0.47235158
   0.66605906  0.41907177  0.47879678
   0.83333333  0.33333333  0.38179910
   0.75655932 -0.00826800  0.56825771
   0.66551969  0.16535745  0.47400889
   0.00192851  0.24864653  0.56125297
   0.08333333  0.58333333  0.38179910
   0.91507244  0.66437069  0.47598417
   0.49532255  0.75225648  0.56270659
   0.24016949  0.50764502  0.56687131
   0.66485148  0.91467523  0.47287487
   0.58333333  0.58333333  0.38179910
   0.83333333  0.83333333  0.38179910
   0.33333333  0.08333333  0.38179910
   0.16687204  0.17022336  0.47151957
   0.58333333  0.33333333  0.38179910
   0.33333333  0.33333333  0.38179910
   0.49440452  0.00548249  0.56502095
   0.24287548  0.76327746  0.56829541
   0.17026873  0.91447867  0.47222479
   0.75708395  0.23148976  0.57245403
   0.17022563  0.66355415  0.47398747
   0.10716605  0.03086182  0.61482942
   0.08696508  0.34456621  0.61153860
   0.83380214  0.59259762  0.61266712
   0.34696641  0.30634828  0.61231725
   0.82404299  0.34791486  0.61339602
   0.32189877  0.59903806  0.62041100
   0.57789943  0.32533435  0.61655599
   0.58041661  0.83846736  0.61610910
   0.25163379  0.24348986  0.56542213
   0.74893050  0.76010937  0.56951975
   0.58333333  0.08333333  0.38179910
   0.41633946  0.16798488  0.47625309
   0.16651488  0.41694585  0.47667265
   0.74072034  0.51220519  0.56848663
   0.41673177  0.41491486  0.47495961
   0.50731605  0.24134387  0.56721969
   0.25245167  0.00020825  0.56294678
   0.00224260  0.75366265  0.56377530
   0.33333333  0.58333333  0.38179910
   0.41729199  0.66684305  0.47401273
   0.66520109  0.66791123  0.47365090