 vasp.5.4.1 24Jun15 (build Mar 14 2019 10:18:33) complex                        
  
 executed on INTEL-19.0.2+OPENMPI date 2023.01.31  00:00:20
 running on   36 total cores
 distrk:  each k-point on   36 cores,    1 groups
 distr:  one band on NCORES_PER_BAND=   6 cores,    6 groups


--------------------------------------------------------------------------------------------------------


 INCAR:
 POTCAR:    PAW_PBE Au 04Oct2007                  
 POTCAR:    PAW_PBE Pd 04Jan2005                  
 POTCAR:    PAW_PBE Au 04Oct2007                  
  local pseudopotential read in
  partial core-charges read in
  partial kinetic energy density read in
  atomic valenz-charges read in
  non local Contribution for L=           2  read in
    real space projection operators read in
  non local Contribution for L=           2  read in
    real space projection operators read in
  non local Contribution for L=           0  read in
    real space projection operators read in
  non local Contribution for L=           0  read in
    real space projection operators read in
  non local Contribution for L=           1  read in
    real space projection operators read in
  non local Contribution for L=           1  read in
    real space projection operators read in
    PAW grid and wavefunctions read in
 
   number of l-projection  operators is LMAX  =           6
   number of lm-projection operators is LMMAX =          18
 
 POTCAR:    PAW_PBE Pd 04Jan2005                  
  local pseudopotential read in
  partial core-charges read in
  partial kinetic energy density read in
  atomic valenz-charges read in
  non local Contribution for L=           2  read in
    real space projection operators read in
  non local Contribution for L=           2  read in
    real space projection operators read in
  non local Contribution for L=           0  read in
    real space projection operators read in
  non local Contribution for L=           0  read in
    real space projection operators read in
  non local Contribution for L=           1  read in
    real space projection operators read in
  non local Contribution for L=           1  read in
    real space projection operators read in
    PAW grid and wavefunctions read in
 
   number of l-projection  operators is LMAX  =           6
   number of lm-projection operators is LMMAX =          18
 
 Optimization of the real space projectors (new method)

 maximal supplied QI-value         = 15.12
 optimisation between [QCUT,QGAM] = [ 10.13, 20.41] = [ 28.73,116.64] Ry 
 Optimized for a Real-space Cutoff    1.51 Angstroem

   l    n(q)    QCUT    max X(q) W(low)/X(q) W(high)/X(q)  e(spline) 
   2      8    10.129    60.898    0.46E-03    0.46E-03    0.14E-06
   2      8    10.129    58.894    0.47E-03    0.47E-03    0.14E-06
   0      9    10.129   109.617    0.16E-03    0.11E-03    0.54E-07
   0      9    10.129    75.026    0.15E-03    0.11E-03    0.52E-07
   1      9    10.129    16.344    0.96E-04    0.15E-03    0.14E-06
   1      9    10.129    10.160    0.81E-04    0.12E-03    0.11E-06
 Optimization of the real space projectors (new method)

 maximal supplied QI-value         = 14.36
 optimisation between [QCUT,QGAM] = [ 10.20, 20.39] = [ 29.12,116.47] Ry 
 Optimized for a Real-space Cutoff    1.51 Angstroem

   l    n(q)    QCUT    max X(q) W(low)/X(q) W(high)/X(q)  e(spline) 
   2      8    10.197    59.108    0.26E-03    0.14E-03    0.96E-07
   2      8    10.197    58.101    0.27E-03    0.14E-03    0.98E-07
   0      9    10.197   102.235    0.54E-04    0.60E-05    0.72E-07
   0      9    10.197    58.388    0.52E-04    0.60E-05    0.68E-07
   1      9    10.197    22.191    0.18E-03    0.25E-03    0.79E-07
   1      9    10.197    15.590    0.15E-03    0.21E-03    0.69E-07
  PAW_PBE Au 04Oct2007                  :
 energy of atom  1       EATOM= -926.0867
 kinetic energy error for atom=    0.0062 (will be added to EATOM!!)
  PAW_PBE Pd 04Jan2005                  :
 energy of atom  2       EATOM= -809.7530
 kinetic energy error for atom=    0.0091 (will be added to EATOM!!)
 
 
 POSCAR: Au Pd                                   
  positions in cartesian coordinates
  No initial velocities read in
 exchange correlation table for  LEXCH =        8
   RHO(1)=    0.500       N(1)  =     2000
   RHO(2)=  100.500       N(2)  =     4000

 VTST: version 3.2, (02/03/18)

 CHAIN: initializing optimizer
 
 OPT: Using VASP Conjugate-Gradient optimizer
 CHAIN: Read ICHAIN            0
 
 POSCAR: Au Pd                                   
  positions in cartesian coordinates
  No initial velocities read in
 


--------------------------------------------------------------------------------------------------------


 ion  position               nearest neighbor table
   1  0.083  0.083  0.408-  25 2.75  11 2.75  18 2.75   8 2.75  38 2.75  33 2.75  43 2.75  34 2.75
                             2 2.75
   2  0.917  0.167  0.500-  43 2.75   3 2.75  45 2.75  34 2.75  37 2.75   9 2.75  13 2.75  44 2.75
                            25 2.75  11 2.75   1 2.75  47 2.75
   3  0.000  0.000  0.592-   2 2.75  34 2.75  10 2.75  36 2.75  45 2.75  47 2.75  17 2.75  27 2.75
                             9 2.75
   4  0.750  0.500  0.592-  42 2.75  37 2.75  20 2.75  45 2.75  47 2.75  48 2.75  23 2.75   7 2.75
                            13 2.75
   5  0.083  0.583  0.408-  46 2.75  24 2.75  38 2.75  41 2.75   8 2.75   6 2.75  16 2.75  14 2.75
                            35 2.75
   6  0.833  0.583  0.408-  35 2.75  22 2.75  11 2.75  38 2.75  41 2.75  40 2.75   5 2.75  37 2.75
                            42 2.75
   7  0.000  0.500  0.592-  35 2.75  14 2.75  15 2.75  10 2.75  47 2.75  48 2.75  28 2.75   4 2.75
                            37 2.75
   8  0.083  0.833  0.408-  34 2.75   5 2.75  16 2.75   1 2.75  43 2.75  41 2.75  18 2.75  46 2.75
                             9 2.75
   9  0.917  0.917  0.500-  41 2.75  10 2.75  17 2.75  35 2.75   2 2.75  44 2.75  46 2.75  19 2.75
                            34 2.75  43 2.75   8 2.75   3 2.75
  10  0.000  0.750  0.592-   9 2.75  46 2.75   3 2.75  17 2.75  28 2.75   7 2.75  36 2.75  48 2.75
                            35 2.75
  11  0.833  0.333  0.408-  37 2.75   6 2.75   1 2.75  40 2.75  43 2.75  29 2.75  38 2.75   2 2.75
                            13 2.75
  12  0.417  0.667  0.500-  16 2.75  23 2.75  36 2.75  13 2.75  34 2.75  21 2.75  39 2.75  42 2.75
                            46 2.75  18 2.75  20 2.75  40 2.75
  13  0.667  0.417  0.500-  29 2.75  45 2.75  23 2.75  12 2.75  42 2.75  44 2.75   2 2.75  39 2.75
                            37 2.75  40 2.75  11 2.75   4 2.75
  14  0.167  0.417  0.500-  38 2.75  15 2.75   7 2.75  31 2.75  35 2.75  25 2.75  46 2.75  39 2.75
                            37 2.75   5 2.75  24 2.75  28 2.75
  15  0.250  0.250  0.592-  14 2.75  31 2.75  27 2.75  28 2.75   7 2.75  32 2.75  26 2.75  47 2.75
                            25 2.75
  16  0.333  0.583  0.408-  12 2.75   8 2.75  18 2.75  24 2.75  29 2.75   5 2.75  40 2.75  39 2.75
                            46 2.75
  17  0.750  0.000  0.592-  44 2.75   9 2.75  26 2.75  10 2.75  45 2.75  48 2.75  32 2.75   3 2.75
                            19 2.75
  18  0.333  0.833  0.408-  21 2.75  16 2.75   1 2.75  33 2.75  40 2.75   8 2.75  22 2.75  12 2.75
                            34 2.75
  19  0.667  0.917  0.500-  22 2.75  48 2.75  32 2.75  35 2.75  42 2.75  44 2.75  31 2.75  21 2.75
                             9 2.75  30 2.75  41 2.75  17 2.75
  20  0.500  0.750  0.592-  21 2.75  42 2.75  23 2.75  27 2.75  32 2.75   4 2.75  36 2.75  48 2.75
                            12 2.75
  21  0.417  0.917  0.500-  18 2.75  20 2.75  27 2.75  25 2.75  12 2.75  31 2.75  42 2.75  34 2.75
                            19 2.75  33 2.75  32 2.75  22 2.75
  22  0.583  0.833  0.408-  19 2.75   6 2.75  30 2.75  33 2.75  40 2.75  18 2.75  41 2.75  42 2.75
                            21 2.75
  23  0.500  0.500  0.592-  12 2.75  13 2.75  20 2.75  26 2.75  36 2.75  45 2.75   4 2.75  28 2.75
                            39 2.75
  24  0.333  0.333  0.408-  39 2.75  16 2.75  30 2.75  33 2.75   5 2.75  38 2.75  29 2.75  31 2.75
                            14 2.75
  25  0.167  0.167  0.500-   1 2.75  27 2.75  47 2.75  14 2.75  34 2.75  37 2.75  21 2.75  31 2.75
                             2 2.75  38 2.75  15 2.75  33 2.75
  26  0.500  0.250  0.592-  39 2.75  44 2.75  28 2.75  32 2.75  17 2.75  23 2.75  15 2.75  45 2.75
                            31 2.75
  27  0.250  0.000  0.592-  25 2.75  21 2.75  15 2.75  20 2.75  36 2.75  47 2.75   3 2.75  32 2.75
                            34 2.75
  28  0.250  0.500  0.592-  46 2.75  39 2.75  26 2.75  36 2.75  10 2.75  15 2.75   7 2.75  23 2.75
                            14 2.75
  29  0.583  0.333  0.408-  13 2.75  16 2.75  30 2.75  40 2.75  43 2.75  24 2.75  11 2.75  44 2.75
                            39 2.75
  30  0.583  0.083  0.408-  44 2.75  24 2.75  29 2.75  41 2.75  22 2.75  43 2.75  33 2.75  19 2.75
                            31 2.75
  31  0.417  0.167  0.500-  33 2.75  32 2.75  15 2.75  21 2.75  14 2.75  19 2.75  39 2.75  25 2.75
                            44 2.75  24 2.75  26 2.75  30 2.75
  32  0.500  0.000  0.592-  31 2.75  19 2.75  20 2.75  26 2.75  15 2.75  48 2.75  17 2.75  27 2.75
                            21 2.75
  33  0.333  0.083  0.408-  31 2.75  22 2.75  24 2.75  18 2.75  38 2.75   1 2.75  30 2.75  21 2.75
                            25 2.75
  34  0.167  0.917  0.500-   8 2.75  36 2.75   3 2.75  12 2.75  25 2.75   2 2.75  46 2.75  21 2.75
                             9 2.75   1 2.75  18 2.75  27 2.75
  35  0.917  0.667  0.500-   6 2.75   7 2.75  48 2.75  14 2.75  19 2.75  37 2.75   9 2.75  46 2.75
                            42 2.75  41 2.75  10 2.75   5 2.75
  36  0.250  0.750  0.592-  34 2.75  12 2.75  23 2.75  27 2.75  28 2.75   3 2.75  10 2.75  20 2.75
                            46 2.75
  37  0.917  0.417  0.500-  11 2.75  47 2.75   4 2.75  25 2.75  35 2.75  42 2.75   2 2.75  13 2.75
                            14 2.75   6 2.75   7 2.75  38 2.75
  38  0.083  0.333  0.408-  14 2.75   5 2.75   6 2.75   1 2.75  33 2.75  24 2.75  11 2.75  25 2.75
                            37 2.75
  39  0.417  0.417  0.500-  24 2.75  26 2.75  28 2.75  12 2.75  31 2.75  44 2.75  46 2.75  13 2.75
                            14 2.75  16 2.75  29 2.75  23 2.75
  40  0.583  0.583  0.408-  42 2.75  18 2.75  22 2.75  29 2.75  11 2.75   6 2.75  16 2.75  13 2.75
                            12 2.75
  41  0.833  0.833  0.408-   9 2.75   6 2.75   5 2.75  30 2.75  43 2.75   8 2.75  22 2.75  35 2.75
                            19 2.75
  42  0.667  0.667  0.500-  40 2.75   4 2.75  20 2.75  13 2.75  21 2.75  37 2.75  19 2.75  12 2.75
                            35 2.75  22 2.75   6 2.75  48 2.75
  43  0.833  0.083  0.408-   2 2.75   8 2.75  11 2.75  29 2.75  41 2.75  30 2.75   1 2.75   9 2.75
                            44 2.75
  44  0.667  0.167  0.500-  30 2.75  17 2.75  26 2.75  19 2.75  13 2.75   9 2.75  39 2.75  31 2.75
                             2 2.75  29 2.75  43 2.75  45 2.75
  45  0.750  0.250  0.592-  13 2.75   2 2.75   4 2.75   3 2.75  17 2.75  23 2.75  26 2.75  47 2.75
                            44 2.75
  46  0.167  0.667  0.500-   5 2.75  28 2.75  10 2.75  14 2.75   9 2.75  34 2.75  39 2.75  35 2.75
                            12 2.75   8 2.75  36 2.75  16 2.75
  47  0.000  0.250  0.592-  37 2.75  25 2.75   7 2.75   3 2.75  27 2.75   4 2.75  15 2.75  45 2.75
                             2 2.75
  48  0.750  0.750  0.592-  19 2.75  35 2.75  17 2.75   4 2.75  32 2.75   7 2.75  10 2.75  20 2.75
                            42 2.75
 
  LATTYP: Found a hexagonal cell.
 ALAT       =    11.0025815153
 C/A-ratio  =     2.2260035120
  
  Lattice vectors:
  
 A1 = (   5.5012907576,  -9.5285150994,   0.0000000000)
 A2 = ( -11.0025815153,   0.0000000000,   0.0000000000)
 A3 = (   0.0000000000,   0.0000000000, -24.4917850943)


Analysis of symmetry for initial positions (statically):
=====================================================================
 Subroutine PRICEL returns:
 Original cell was already a primitive cell.
 

 Routine SETGRP: Setting up the symmetry group for a 
 hexagonal supercell.


 Subroutine GETGRP returns: Found  1 space group operations
 (whereof  1 operations were pure point group operations)
 out of a pool of 24 trial point group operations.


The static configuration has the point symmetry C_1 .


Analysis of symmetry for dynamics (positions and initial velocities):
=====================================================================
 Subroutine PRICEL returns:
 Original cell was already a primitive cell.
 

 Routine SETGRP: Setting up the symmetry group for a 
 hexagonal supercell.


 Subroutine GETGRP returns: Found  1 space group operations
 (whereof  1 operations were pure point group operations)
 out of a pool of 24 trial point group operations.


The dynamic configuration has the point symmetry C_1 .


Analysis of constrained symmetry for selective dynamics:
=====================================================================
 Subroutine PRICEL returns:
 Original cell was already a primitive cell.
 

 Routine SETGRP: Setting up the symmetry group for a 
 hexagonal supercell.


 Subroutine GETGRP returns: Found  1 space group operations
 (whereof  1 operations were pure point group operations)
 out of a pool of 24 trial point group operations.


The constrained configuration has the point symmetry C_1 .
 
 
 KPOINTS: Automatic mesh                          

Automatic generation of k-mesh.
Space group operators:
 irot       det(A)        alpha          n_x          n_y          n_z        tau_x        tau_y        tau_z
    1     1.000000     0.000000     1.000000     0.000000     0.000000     0.000000     0.000000     0.000000
 
 Subroutine IBZKPT returns following result:
 ===========================================
 
 Found      6 irreducible k-points:
 
 Following reciprocal coordinates:
            Coordinates               Weight
  0.250000  0.250000  0.000000     16.000000
  0.000000  0.250000  0.000000     16.000000
 -0.250000  0.000000  0.000000     16.000000
 -0.250000  0.250000  0.000000     16.000000
  0.500000 -0.250000  0.000000     16.000000
 -0.250000  0.500000  0.000000     16.000000
 
 Following cartesian coordinates:
            Coordinates               Weight
  0.022722  0.013119  0.000000     16.000000
  0.000000  0.026237  0.000000     16.000000
 -0.022722  0.013119  0.000000     16.000000
 -0.022722  0.039356  0.000000     16.000000
  0.045444 -0.052474  0.000000     16.000000
 -0.022722  0.065593  0.000000     16.000000
 


--------------------------------------------------------------------------------------------------------




 Dimension of arrays:
   k-points           NKPTS =      6   k-points in BZ     NKDIM =      6   number of bands    NBANDS=    306
   number of dos      NEDOS =    301   number of ions     NIONS =     48
   non local maximal  LDIM  =      6   non local SUM 2l+1 LMDIM =     18
   total plane-waves  NPLWV = 349920
   max r-space proj   IRMAX =   2009   max aug-charges    IRDMAX=   8532
   dimension x,y,z NGX =    54 NGY =   54 NGZ =  120
   dimension x,y,z NGXF=   108 NGYF=  108 NGZF=  240
   support grid    NGXF=   108 NGYF=  108 NGZF=  240
   ions per type =              24  24
 NGX,Y,Z   is equivalent  to a cutoff of   8.16,  8.16,  8.15 a.u.
 NGXF,Y,Z  is equivalent  to a cutoff of  16.32, 16.32, 16.29 a.u.


 I would recommend the setting:
   dimension x,y,z NGX =    54 NGY =   54 NGZ =  120
 SYSTEM =  unknown system                          
 POSCAR =  Au Pd                                   

 Startparameter for this run:
   NWRITE =      1    write-flag & timer
   PREC   = normal    normal or accurate (medium, high low for compatibility)
   ISTART =      0    job   : 0-new  1-cont  2-samecut
   ICHARG =      2    charge: 1-file 2-atom 10-const
   ISPIN  =      1    spin polarized calculation?
   LNONCOLLINEAR =      F non collinear calculations
   LSORBIT =      F    spin-orbit coupling
   INIWAV =      1    electr: 0-lowe 1-rand  2-diag
   LASPH  =      F    aspherical Exc in radial PAW
   METAGGA=      F    non-selfconsistent MetaGGA calc.

 Electronic Relaxation 1
   ENCUT  =  400.0 eV  29.40 Ry    5.42 a.u.  17.94 17.94 39.94*2*pi/ulx,y,z
   ENINI  =  400.0     initial cutoff
   ENAUG  =  416.2 eV  augmentation charge cutoff
   NELM   =    500;   NELMIN=  2; NELMDL= -5     # of ELM steps 
   EDIFF  = 0.1E-05   stopping-criterion for ELM
   LREAL  =      T    real-space projection
   NLSPLINE    = F    spline interpolate recip. space projectors
   LCOMPAT=      F    compatible to vasp.4.4
   GGA_COMPAT  = T    GGA compatible to vasp.4.4-vasp.4.6
   LMAXPAW     = -100 max onsite density
   LMAXMIX     =    2 max onsite mixed and CHGCAR
   VOSKOWN=      1    Vosko Wilk Nusair interpolation
   ROPT   =   -0.00050  -0.00050
 Ionic relaxation
   EDIFFG = -.2E-01   stopping-criterion for IOM
   NSW    =    500    number of steps for IOM
   NBLOCK =      1;   KBLOCK =    500    inner block; outer block 
   IBRION =      2    ionic relax: 0-MD 1-quasi-New 2-CG
   NFREE  =      2    steps in history (QN), initial steepest desc. (CG)
   ISIF   =      0    stress and relaxation
   IWAVPR =     11    prediction:  0-non 1-charg 2-wave 3-comb
   ISYM   =      2    0-nonsym 1-usesym 2-fastsym
   LCORR  =      T    Harris-Foulkes like correction to forces

   POTIM  = 0.3500    time-step for ionic-motion
   TEIN   =    0.0    initial temperature
   TEBEG  =    0.0;   TEEND  =   0.0 temperature during run
   SMASS  =  -3.00    Nose mass-parameter (am)
   estimated Nose-frequenzy (Omega)   =  0.10E-29 period in steps =****** mass=  -0.277E-26a.u.
   SCALEE = 1.0000    scale energy and forces
   NPACO  =    256;   APACO  = 16.0  distance and # of slots for P.C.
   PSTRESS=    0.0 pullay stress

  Mass of Ions in am
   POMASS = 196.97106.42
  Ionic Valenz
   ZVAL   =  11.00 10.00
  Atomic Wigner-Seitz radii
   RWIGS  =  -1.00 -1.00
  virtual crystal weights 
   VCA    =   1.00  1.00
   NELECT =     504.0000    total number of electrons
   NUPDOWN=      -1.0000    fix difference up-down

 DOS related values:
   EMIN   =  10.00;   EMAX   =-10.00  energy-range for DOS
   EFERMI =   0.00
   ISMEAR =     0;   SIGMA  =   0.10  broadening in eV -4-tet -1-fermi 0-gaus

 Electronic relaxation 2 (details)
   IALGO  =     68    algorithm
   LDIAG  =      T    sub-space diagonalisation (order eigenvalues)
   LSUBROT=      F    optimize rotation matrix (better conditioning)
   TURBO    =      0    0=normal 1=particle mesh
   IRESTART =      0    0=no restart 2=restart with 2 vectors
   NREBOOT  =      0    no. of reboots
   NMIN     =      0    reboot dimension
   EREF     =   0.00    reference energy to select bands
   IMIX   =      4    mixing-type and parameters
     AMIX     =   0.40;   BMIX     =  1.00
     AMIX_MAG =   1.60;   BMIX_MAG =  1.00
     AMIN     =   0.10
     WC   =   100.;   INIMIX=   1;  MIXPRE=   1;  MAXMIX= -45

 Intra band minimization:
   WEIMIN = 0.0010     energy-eigenvalue tresh-hold
   EBREAK =  0.82E-09  absolut break condition
   DEPER  =   0.30     relativ break condition  

   TIME   =   0.40     timestep for ELM

  volume/ion in A,a.u.               =      53.49       360.99
  Fermi-wavevector in a.u.,A,eV,Ry     =   0.951418  1.797920 12.315955  0.905197
  Thomas-Fermi vector in A             =   2.079887
 
 Write flags
   LWAVE  =      F    write WAVECAR
   LCHARG =      F    write CHGCAR
   LVTOT  =      F    write LOCPOT, total local potential
   LVHAR  =      F    write LOCPOT, Hartree potential only
   LELF   =      F    write electronic localiz. function (ELF)
   LORBIT =      0    0 simple, 1 ext, 2 COOP (PROOUT)


 Dipole corrections
   LMONO  =      F    monopole corrections only (constant potential shift)
   LDIPOL =      T    correct potential (dipole corrections)
   IDIPOL =      3    1-x, 2-y, 3-z, 4-all directions 
   EPSILON=  1.0000000 bulk dielectric constant

 Exchange correlation treatment:
   GGA     =    PE    GGA type
   LEXCH   =     8    internal setting for exchange type
   VOSKOWN=      1    Vosko Wilk Nusair interpolation
   LHFCALC =     F    Hartree Fock is set to
   LHFONE  =     F    Hartree Fock one center treatment
   AEXX    =    0.0000 exact exchange contribution

 Linear response parameters
   LEPSILON=     F    determine dielectric tensor
   LRPA    =     F    only Hartree local field effects (RPA)
   LNABLA  =     F    use nabla operator in PAW spheres
   LVEL    =     F    velocity operator in full k-point grid
   LINTERFAST=   F  fast interpolation
   KINTER  =     0    interpolate to denser k-point grid
   CSHIFT  =0.1000    complex shift for real part using Kramers Kronig
   OMEGAMAX=  -1.0    maximum frequency
   DEG_THRESHOLD= 0.2000000E-02 threshold for treating states as degnerate
   RTIME   =    0.100 relaxation time in fs

 Orbital magnetization related:
   ORBITALMAG=     F  switch on orbital magnetization
   LCHIMAG   =     F  perturbation theory with respect to B field
   DQ        =  0.001000  dq finite difference perturbation B field



--------------------------------------------------------------------------------------------------------


 conjugate gradient relaxation of ions
   using selective dynamics as specified on POSCAR
   WARNING: If single coordinates had been selected the selection of coordinates
            is made according to the corresponding   d i r e c t   coordinates!
            Don't support selection of single cartesian coordinates -- sorry ...
  !
 charge density and potential will be updated during run
 non-spin polarized calculation
 RMM-DIIS sequential band-by-band and
  variant of blocked Davidson during initial phase
 perform sub-space diagonalisation
    before iterative eigenvector-optimisation
 modified Broyden-mixing scheme, WC =      100.0
 initial mixing is a Kerker type mixing with AMIX =  0.4000 and BMIX =      1.0000
 Hartree-type preconditioning will be used
 using additional bands           54
 real space projection scheme for non local part
 use partial core corrections
 calculate Harris-corrections to forces 
   (improved forces if not selfconsistent)
 use gradient corrections 
 use of overlap-Matrix (Vanderbilt PP)
 Gauss-broadening in eV      SIGMA  =   0.10


--------------------------------------------------------------------------------------------------------


  energy-cutoff  :      400.00
  volume of cell :     2567.68
      direct lattice vectors                 reciprocal lattice vectors
    11.002581515  0.000000000  0.000000000     0.090887761 -0.052474073  0.000000000
     5.501290758  9.528515099  0.000000000     0.000000000  0.104948147  0.000000000
     0.000000000  0.000000000 24.491785094     0.000000000  0.000000000  0.040830017

  length of vectors
    11.002581515 11.002581515 24.491785094     0.104948147  0.104948147  0.040830017


 
 k-points in units of 2pi/SCALE and weight: Automatic mesh                          
   0.02272194  0.01311852  0.00000000       0.167
   0.00000000  0.02623704  0.00000000       0.167
  -0.02272194  0.01311852  0.00000000       0.167
  -0.02272194  0.03935555  0.00000000       0.167
   0.04544388 -0.05247407  0.00000000       0.167
  -0.02272194  0.06559259  0.00000000       0.167
 
 k-points in reciprocal lattice and weights: Automatic mesh                          
   0.25000000  0.25000000  0.00000000       0.167
   0.00000000  0.25000000  0.00000000       0.167
  -0.25000000  0.00000000  0.00000000       0.167
  -0.25000000  0.25000000  0.00000000       0.167
   0.50000000 -0.25000000  0.00000000       0.167
  -0.25000000  0.50000000  0.00000000       0.167
 
 position of ions in fractional coordinates (direct lattice) 
   0.08333333  0.08333333  0.40830017
   0.91666667  0.16666667  0.50000000
   0.00000000  0.00000000  0.59169983
   0.75000000  0.50000000  0.59169983
   0.08333333  0.58333333  0.40830017
   0.83333333  0.58333333  0.40830017
   0.00000000  0.50000000  0.59169983
   0.08333333  0.83333333  0.40830017
   0.91666667  0.91666667  0.50000000
   0.00000000  0.75000000  0.59169983
   0.83333333  0.33333333  0.40830017
   0.41666667  0.66666667  0.50000000
   0.66666667  0.41666667  0.50000000
   0.16666667  0.41666667  0.50000000
   0.25000000  0.25000000  0.59169983
   0.33333333  0.58333333  0.40830017
   0.75000000  0.00000000  0.59169983
   0.33333333  0.83333333  0.40830017
   0.66666667  0.91666667  0.50000000
   0.50000000  0.75000000  0.59169983
   0.41666667  0.91666667  0.50000000
   0.58333333  0.83333333  0.40830017
   0.50000000  0.50000000  0.59169983
   0.33333333  0.33333333  0.40830017
   0.16666667  0.16666667  0.50000000
   0.50000000  0.25000000  0.59169983
   0.25000000  0.00000000  0.59169983
   0.25000000  0.50000000  0.59169983
   0.58333333  0.33333333  0.40830017
   0.58333333  0.08333333  0.40830017
   0.41666667  0.16666667  0.50000000
   0.50000000  0.00000000  0.59169983
   0.33333333  0.08333333  0.40830017
   0.16666667  0.91666667  0.50000000
   0.91666667  0.66666667  0.50000000
   0.25000000  0.75000000  0.59169983
   0.91666667  0.41666667  0.50000000
   0.08333333  0.33333333  0.40830017
   0.41666667  0.41666667  0.50000000
   0.58333333  0.58333333  0.40830017
   0.83333333  0.83333333  0.40830017
   0.66666667  0.66666667  0.50000000
   0.83333333  0.08333333  0.40830017
   0.66666667  0.16666667  0.50000000
   0.75000000  0.25000000  0.59169983
   0.16666667  0.66666667  0.50000000
   0.00000000  0.25000000  0.59169983
   0.75000000  0.75000000  0.59169983
 
 position of ions in cartesian coordinates  (Angst):
   1.37532269  0.79404292 10.00000000
  11.00258152  1.58808585 12.24589255
   0.00000000  0.00000000 14.49178509
  11.00258152  4.76425755 14.49178509
   4.12596807  5.55830047 10.00000000
  12.37790420  5.55830047 10.00000000
   2.75064538  4.76425755 14.49178509
   5.50129076  7.94042925 10.00000000
  15.12854958  8.73447217 12.24589255
   4.12596807  7.14638632 14.49178509
  11.00258152  3.17617170 10.00000000
   8.25193614  6.35234340 12.24589255
   9.62725883  3.97021462 12.24589255
   4.12596807  3.97021462 12.24589255
   4.12596807  2.38212877 14.49178509
   6.87661345  5.55830047 10.00000000
   8.25193614  0.00000000 14.49178509
   8.25193614  7.94042925 10.00000000
  12.37790420  8.73447217 12.24589255
   9.62725883  7.14638632 14.49178509
   9.62725883  8.73447217 12.24589255
  11.00258152  7.94042925 10.00000000
   8.25193614  4.76425755 14.49178509
   5.50129076  3.17617170 10.00000000
   2.75064538  1.58808585 12.24589255
   6.87661345  2.38212877 14.49178509
   2.75064538  0.00000000 14.49178509
   5.50129076  4.76425755 14.49178509
   8.25193614  3.17617170 10.00000000
   6.87661345  0.79404292 10.00000000
   5.50129076  1.58808585 12.24589255
   5.50129076  0.00000000 14.49178509
   4.12596807  0.79404292 10.00000000
   6.87661345  8.73447217 12.24589255
  13.75322689  6.35234340 12.24589255
   6.87661345  7.14638632 14.49178509
  12.37790420  3.97021462 12.24589255
   2.75064538  3.17617170 10.00000000
   6.87661345  3.97021462 12.24589255
   9.62725883  5.55830047 10.00000000
  13.75322689  7.94042925 10.00000000
  11.00258152  6.35234340 12.24589255
   9.62725883  0.79404292 10.00000000
   8.25193614  1.58808585 12.24589255
   9.62725883  2.38212877 14.49178509
   5.50129076  6.35234340 12.24589255
   1.37532269  2.38212877 14.49178509
  12.37790420  7.14638632 14.49178509
 


--------------------------------------------------------------------------------------------------------


 k-point  1 :   0.2500 0.2500 0.0000  plane waves:   46635
 k-point  2 :   0.0000 0.2500 0.0000  plane waves:   46635
 k-point  3 :  -0.2500 0.0000 0.0000  plane waves:   46635
 k-point  4 :  -0.2500 0.2500 0.0000  plane waves:   46644
 k-point  5 :   0.5000-0.2500 0.0000  plane waves:   46644
 k-point  6 :  -0.2500 0.5000 0.0000  plane waves:   46644

 maximum and minimum number of plane-waves per node :      7818     7732

 maximum number of plane-waves:     46644
 maximum index in each direction: 
   IXMAX=   18   IYMAX=   18   IZMAX=   39
   IXMIN=  -18   IYMIN=  -18   IZMIN=  -39

 WARNING: aliasing errors must be expected set NGX to  74 to avoid them
 WARNING: aliasing errors must be expected set NGY to  74 to avoid them
 WARNING: aliasing errors must be expected set NGZ to 158 to avoid them
 aliasing errors are usually negligible using standard VASP settings
 and one can safely disregard these warnings

 real space projection operators:
  total allocation   :      12803.06 KBytes
  max/ min on nodes  :       2145.66       2127.94


 parallel 3D FFT for wavefunctions:
    minimum data exchange during FFTs selected (reduces bandwidth)
 parallel 3D FFT for charge:
    minimum data exchange during FFTs selected (reduces bandwidth)


 total amount of memory used by VASP on root node    84353. kBytes
========================================================================

   base      :      30000. kBytes
   nonlr-proj:       4285. kBytes
   fftplans  :       4447. kBytes
   grid      :       6721. kBytes
   one-center:        124. kBytes
   wavefun   :      38776. kBytes
 
     INWAV:  cpu time    0.0000: real time    0.0000
 Broyden mixing: mesh for mixing (old mesh)
   NGX = 35   NGY = 35   NGZ = 79
  (NGX  =108   NGY  =108   NGZ  =240)
  gives a total of  96775 points

 initial charge density was supplied:
 charge density of overlapping atoms calculated
 number of electron     504.0000000 magnetization 
 keeping initial charge density in first step


--------------------------------------------------------------------------------------------------------


 Maximum index for non-local projection operator          355
 Maximum index for augmentation-charges          437 (set IRDMAX)


--------------------------------------------------------------------------------------------------------


 First call to EWALD:  gamma=   0.129
 Maximum number of real-space cells 4x 4x 2
 Maximum number of reciprocal cells 2x 2x 5

 FEWALD executed in parallel
    FEWALD:  cpu time    0.0026: real time    0.0026


----------------------------------------- Iteration    1(   1)  ---------------------------------------


    POTLOK:  cpu time    0.0550: real time    0.0551
    SETDIJ:  cpu time    0.0067: real time    0.0067
     EDDAV:  cpu time    9.3281: real time    9.3998
       DOS:  cpu time    0.0014: real time    0.0014
    --------------------------------------------
      LOOP:  cpu time    9.3949: real time    9.4692

 eigenvalue-minimisations  :  3672
 total energy-change (2. order) : 0.3200690E+04  (-0.1897942E+05)
 number of electron     504.0000000 magnetization 
 augmentation part      504.0000000 magnetization 

 DIPCOR: dipole corrections for dipol
 direction  3 min pos     1,
 dipolmoment           0.000000      0.000000      0.000001 electrons x Angstroem
 Tr[quadrupol]    -10284.047499

 energy correction for charged system         0.000000 eV
 dipol+quadrupol energy correction           -0.000000 eV
 added-field ion interaction          0.000000 eV  (added to PSCEN)


 Free energy of the ion-electron system (eV)
  ---------------------------------------------------
  alpha Z        PSCENC =       805.86936440
  Ewald energy   TEWEN  =    199920.34445346
  -Hartree energ DENC   =   -242333.22301236
  -exchange      EXHF   =         0.00000000
  -V(xc)+E(xc)   XCENC  =      -327.69339923
  PAW double counting   =     40340.05962942   -38292.62782345
  entropy T*S    EENTRO =        -0.12414150
  eigenvalues    EBANDS =      1428.29895561
  atomic energy  EATOM  =     41659.78587232
  Solvation  Ediel_sol  =         0.00000000
  ---------------------------------------------------
  free energy    TOTEN  =      3200.68989867 eV

  energy without entropy =     3200.81404018  energy(sigma->0) =     3200.75196942


--------------------------------------------------------------------------------------------------------




----------------------------------------- Iteration    1(   2)  ---------------------------------------


     EDDAV:  cpu time   11.1548: real time   11.1606
       DOS:  cpu time    0.0015: real time    0.0015
    --------------------------------------------
      LOOP:  cpu time   11.1572: real time   11.1658

 eigenvalue-minimisations  :  4392
 total energy-change (2. order) :-0.3186918E+04  (-0.2928040E+04)
 number of electron     504.0000000 magnetization 
 augmentation part      504.0000000 magnetization 

 DIPCOR: dipole corrections for dipol
 direction  3 min pos     1,
 dipolmoment           0.000000      0.000000      0.000001 electrons x Angstroem
 Tr[quadrupol]    -10284.047499

 energy correction for charged system         0.000000 eV
 dipol+quadrupol energy correction           -0.000000 eV
 added-field ion interaction          0.000000 eV  (added to PSCEN)


 Free energy of the ion-electron system (eV)
  ---------------------------------------------------
  alpha Z        PSCENC =       805.86936440
  Ewald energy   TEWEN  =    199920.34445346
  -Hartree energ DENC   =   -242333.22301236
  -exchange      EXHF   =         0.00000000
  -V(xc)+E(xc)   XCENC  =      -327.69339923
  PAW double counting   =     40340.05962942   -38292.62782345
  entropy T*S    EENTRO =        -0.13310031
  eigenvalues    EBANDS =     -1758.61048946
  atomic energy  EATOM  =     41659.78587232
  Solvation  Ediel_sol  =         0.00000000
  ---------------------------------------------------
  free energy    TOTEN  =        13.77149480 eV

  energy without entropy =       13.90459510  energy(sigma->0) =       13.83804495


--------------------------------------------------------------------------------------------------------




----------------------------------------- Iteration    1(   3)  ---------------------------------------


     EDDAV:  cpu time   10.8952: real time   10.9016
       DOS:  cpu time    0.0016: real time    0.0016
    --------------------------------------------
      LOOP:  cpu time   10.8980: real time   10.9098

 eigenvalue-minimisations  :  4152
 total energy-change (2. order) :-0.2146860E+03  (-0.1997903E+03)
 number of electron     504.0000000 magnetization 
 augmentation part      504.0000000 magnetization 

 DIPCOR: dipole corrections for dipol
 direction  3 min pos     1,
 dipolmoment           0.000000      0.000000      0.000001 electrons x Angstroem
 Tr[quadrupol]    -10284.047499

 energy correction for charged system         0.000000 eV
 dipol+quadrupol energy correction           -0.000000 eV
 added-field ion interaction          0.000000 eV  (added to PSCEN)


 Free energy of the ion-electron system (eV)
  ---------------------------------------------------
  alpha Z        PSCENC =       805.86936440
  Ewald energy   TEWEN  =    199920.34445346
  -Hartree energ DENC   =   -242333.22301236
  -exchange      EXHF   =         0.00000000
  -V(xc)+E(xc)   XCENC  =      -327.69339923
  PAW double counting   =     40340.05962942   -38292.62782345
  entropy T*S    EENTRO =        -0.18647291
  eigenvalues    EBANDS =     -1973.24310915
  atomic energy  EATOM  =     41659.78587232
  Solvation  Ediel_sol  =         0.00000000
  ---------------------------------------------------
  free energy    TOTEN  =      -200.91449750 eV

  energy without entropy =     -200.72802459  energy(sigma->0) =     -200.82126104


--------------------------------------------------------------------------------------------------------




----------------------------------------- Iteration    1(   4)  ---------------------------------------


     EDDAV:  cpu time   11.3117: real time   11.4247
       DOS:  cpu time    0.0016: real time    0.0016
    --------------------------------------------
      LOOP:  cpu time   11.3143: real time   11.4304

 eigenvalue-minimisations  :  4224
 total energy-change (2. order) :-0.5729720E+01  (-0.5666786E+01)
 number of electron     504.0000000 magnetization 
 augmentation part      504.0000000 magnetization 

 DIPCOR: dipole corrections for dipol
 direction  3 min pos     1,
 dipolmoment           0.000000      0.000000      0.000001 electrons x Angstroem
 Tr[quadrupol]    -10284.047499

 energy correction for charged system         0.000000 eV
 dipol+quadrupol energy correction           -0.000000 eV
 added-field ion interaction          0.000000 eV  (added to PSCEN)


 Free energy of the ion-electron system (eV)
  ---------------------------------------------------
  alpha Z        PSCENC =       805.86936440
  Ewald energy   TEWEN  =    199920.34445346
  -Hartree energ DENC   =   -242333.22301236
  -exchange      EXHF   =         0.00000000
  -V(xc)+E(xc)   XCENC  =      -327.69339923
  PAW double counting   =     40340.05962942   -38292.62782345
  entropy T*S    EENTRO =        -0.19623705
  eigenvalues    EBANDS =     -1978.96306455
  atomic energy  EATOM  =     41659.78587232
  Solvation  Ediel_sol  =         0.00000000
  ---------------------------------------------------
  free energy    TOTEN  =      -206.64421704 eV

  energy without entropy =     -206.44797999  energy(sigma->0) =     -206.54609852


--------------------------------------------------------------------------------------------------------




----------------------------------------- Iteration    1(   5)  ---------------------------------------


     EDDAV:  cpu time   11.7874: real time   11.8823
       DOS:  cpu time    0.0016: real time    0.0016
    CHARGE:  cpu time    0.4143: real time    0.4165
    MIXING:  cpu time    0.0038: real time    0.0040
    --------------------------------------------
      LOOP:  cpu time   12.2082: real time   12.3080

 eigenvalue-minimisations  :  4440
 total energy-change (2. order) :-0.1849530E+00  (-0.1844227E+00)
 number of electron     503.9998404 magnetization 
 augmentation part      191.2271014 magnetization 

 DIPCOR: dipole corrections for dipol
 direction  3 min pos     1,
 dipolmoment           0.000000      0.000000      0.000001 electrons x Angstroem
 Tr[quadrupol]    -10284.047499

 energy correction for charged system         0.000000 eV
 dipol+quadrupol energy correction           -0.000000 eV
 added-field ion interaction          0.000000 eV  (added to PSCEN)


 Broyden mixing:
  rms(total) = 0.62104E+01    rms(broyden)= 0.62104E+01
  rms(prec ) = 0.63219E+01
  weight for this iteration     100.00

 Free energy of the ion-electron system (eV)
  ---------------------------------------------------
  alpha Z        PSCENC =       805.86936440
  Ewald energy   TEWEN  =    199920.34445346
  -Hartree energ DENC   =   -242333.22301236
  -exchange      EXHF   =         0.00000000
  -V(xc)+E(xc)   XCENC  =      -327.69339923
  PAW double counting   =     40340.05962942   -38292.62782345
  entropy T*S    EENTRO =        -0.19566759
  eigenvalues    EBANDS =     -1979.14858698
  atomic energy  EATOM  =     41659.78587232
  Solvation  Ediel_sol  =         0.00000000
  ---------------------------------------------------
  free energy    TOTEN  =      -206.82917001 eV

  energy without entropy =     -206.63350242  energy(sigma->0) =     -206.73133622


--------------------------------------------------------------------------------------------------------




----------------------------------------- Iteration    1(   6)  ---------------------------------------


    POTLOK:  cpu time    0.0624: real time    0.0630
    SETDIJ:  cpu time    0.0079: real time    0.0082
    EDDIAG:  cpu time    1.7116: real time    1.7123
  RMM-DIIS:  cpu time    4.4652: real time    4.4670
    ORTHCH:  cpu time    0.4115: real time    0.4127
       DOS:  cpu time    0.0016: real time    0.0016
    CHARGE:  cpu time    0.3048: real time    0.3048
    MIXING:  cpu time    0.0020: real time    0.0021
    --------------------------------------------
      LOOP:  cpu time    6.9676: real time    6.9765

 eigenvalue-minimisations  :  3679
 total energy-change (2. order) : 0.7625277E+01  (-0.9116345E+01)
 number of electron     503.9998416 magnetization 
 augmentation part      192.1730606 magnetization 

 DIPCOR: dipole corrections for dipol
 direction  3 min pos     1,
 dipolmoment           0.000000      0.000000      0.346913 electrons x Angstroem
 Tr[quadrupol]    -10286.154414

 energy correction for charged system         0.000000 eV
 dipol+quadrupol energy correction           -0.004241 eV
 added-field ion interaction          0.054909 eV  (added to PSCEN)


 Broyden mixing:
  rms(total) = 0.51566E+01    rms(broyden)= 0.51564E+01
  rms(prec ) = 0.53173E+01
  weight for this iteration     100.00

 eigenvalues of (default mixing * dielectric matrix)
  average eigenvalue GAMMA=   0.8362
  0.8362

 Free energy of the ion-electron system (eV)
  ---------------------------------------------------
  alpha Z        PSCENC =       805.92003236
  Ewald energy   TEWEN  =    199920.34445346
  -Hartree energ DENC   =   -242108.32794702
  -exchange      EXHF   =         0.00000000
  -V(xc)+E(xc)   XCENC  =      -340.42619171
  PAW double counting   =     43906.22034623   -41918.25519413
  entropy T*S    EENTRO =        -0.23920752
  eigenvalues    EBANDS =     -2124.22605717
  atomic energy  EATOM  =     41659.78587232
  Solvation  Ediel_sol  =         0.00000000
  ---------------------------------------------------
  free energy    TOTEN  =      -199.20389318 eV

  energy without entropy =     -198.96468566  energy(sigma->0) =     -199.08428942


--------------------------------------------------------------------------------------------------------




----------------------------------------- Iteration    1(   7)  ---------------------------------------


    POTLOK:  cpu time    0.0503: real time    0.0503
    SETDIJ:  cpu time    0.0060: real time    0.0060
    EDDIAG:  cpu time    1.6635: real time    1.6649
  RMM-DIIS:  cpu time    4.4741: real time    4.4761
    ORTHCH:  cpu time    0.4128: real time    0.4130
       DOS:  cpu time    0.0016: real time    0.0016
    CHARGE:  cpu time    0.3040: real time    0.3042
    MIXING:  cpu time    0.0020: real time    0.0020
    --------------------------------------------
      LOOP:  cpu time    6.9151: real time    6.9221

 eigenvalue-minimisations  :  3682
 total energy-change (2. order) :-0.4333379E+01  (-0.5829947E+01)
 number of electron     503.9998366 magnetization 
 augmentation part      196.8758144 magnetization 

 DIPCOR: dipole corrections for dipol
 direction  3 min pos     1,
 dipolmoment           0.000000      0.000000     -0.546715 electrons x Angstroem
 Tr[quadrupol]    -10283.752841

 energy correction for charged system         0.000000 eV
 dipol+quadrupol energy correction           -0.010532 eV
 added-field ion interaction         -0.086533 eV  (added to PSCEN)


 Broyden mixing:
  rms(total) = 0.39113E+01    rms(broyden)= 0.39111E+01
  rms(prec ) = 0.42721E+01
  weight for this iteration     100.00

 eigenvalues of (default mixing * dielectric matrix)
  average eigenvalue GAMMA=   1.0751
  1.7440  0.4063

 Free energy of the ion-electron system (eV)
  ---------------------------------------------------
  alpha Z        PSCENC =       805.77229871
  Ewald energy   TEWEN  =    199920.34445346
  -Hartree energ DENC   =   -241915.49490565
  -exchange      EXHF   =         0.00000000
  -V(xc)+E(xc)   XCENC  =      -342.69842224
  PAW double counting   =     45541.52376833   -43581.78810184
  entropy T*S    EENTRO =        -0.19109872
  eigenvalues    EBANDS =     -2290.79113700
  atomic energy  EATOM  =     41659.78587232
  Solvation  Ediel_sol  =         0.00000000
  ---------------------------------------------------
  free energy    TOTEN  =      -203.53727263 eV

  energy without entropy =     -203.34617391  energy(sigma->0) =     -203.44172327


--------------------------------------------------------------------------------------------------------




----------------------------------------- Iteration    1(   8)  ---------------------------------------


    POTLOK:  cpu time    0.0495: real time    0.0495
    SETDIJ:  cpu time    0.0060: real time    0.0060
    EDDIAG:  cpu time    1.6673: real time    1.6680
  RMM-DIIS:  cpu time    4.4835: real time    4.4856
    ORTHCH:  cpu time    0.4127: real time    0.4128
       DOS:  cpu time    0.0016: real time    0.0016
    CHARGE:  cpu time    0.3055: real time    0.3055
    MIXING:  cpu time    0.0021: real time    0.0021
    --------------------------------------------
      LOOP:  cpu time    6.9291: real time    6.9334

 eigenvalue-minimisations  :  3672
 total energy-change (2. order) :-0.1420830E+02  (-0.6830636E+01)
 number of electron     503.9998360 magnetization 
 augmentation part      196.4019339 magnetization 

 DIPCOR: dipole corrections for dipol
 direction  3 min pos     1,
 dipolmoment           0.000000      0.000000      1.641808 electrons x Angstroem
 Tr[quadrupol]    -10286.103084

 energy correction for charged system         0.000000 eV
 dipol+quadrupol energy correction           -0.094983 eV
 added-field ion interaction          0.259863 eV  (added to PSCEN)


 Broyden mixing:
  rms(total) = 0.39117E+01    rms(broyden)= 0.39114E+01
  rms(prec ) = 0.47669E+01
  weight for this iteration     100.00

 eigenvalues of (default mixing * dielectric matrix)
  average eigenvalue GAMMA=   0.9686
  2.1503  0.4253  0.3300

 Free energy of the ion-electron system (eV)
  ---------------------------------------------------
  alpha Z        PSCENC =       806.03424379
  Ewald energy   TEWEN  =    199920.34445346
  -Hartree energ DENC   =   -241930.57764063
  -exchange      EXHF   =         0.00000000
  -V(xc)+E(xc)   XCENC  =      -344.86703387
  PAW double counting   =     47726.16268864   -45796.09776673
  entropy T*S    EENTRO =        -0.26050422
  eigenvalues    EBANDS =     -2258.26988306
  atomic energy  EATOM  =     41659.78587232
  Solvation  Ediel_sol  =         0.00000000
  ---------------------------------------------------
  free energy    TOTEN  =      -217.74557031 eV

  energy without entropy =     -217.48506609  energy(sigma->0) =     -217.61531820


--------------------------------------------------------------------------------------------------------




----------------------------------------- Iteration    1(   9)  ---------------------------------------


    POTLOK:  cpu time    0.0494: real time    0.0496
    SETDIJ:  cpu time    0.0060: real time    0.0060
    EDDIAG:  cpu time    1.6815: real time    1.6845
  RMM-DIIS:  cpu time    4.4450: real time    4.4474
    ORTHCH:  cpu time    0.4153: real time    0.4156
       DOS:  cpu time    0.0017: real time    0.0017
    CHARGE:  cpu time    0.3065: real time    0.3067
    MIXING:  cpu time    0.0025: real time    0.0025
    --------------------------------------------
      LOOP:  cpu time    6.9088: real time    6.9167

 eigenvalue-minimisations  :  3672
 total energy-change (2. order) : 0.1337446E+02  (-0.3522922E+01)
 number of electron     503.9998342 magnetization 
 augmentation part      198.2705331 magnetization 

 DIPCOR: dipole corrections for dipol
 direction  3 min pos     1,
 dipolmoment           0.000000      0.000000     -0.868151 electrons x Angstroem
 Tr[quadrupol]    -10287.260226

 energy correction for charged system         0.000000 eV
 dipol+quadrupol energy correction           -0.026558 eV
 added-field ion interaction         -0.137410 eV  (added to PSCEN)


 Broyden mixing:
  rms(total) = 0.27960E+01    rms(broyden)= 0.27955E+01
  rms(prec ) = 0.32148E+01
  weight for this iteration     100.00

 eigenvalues of (default mixing * dielectric matrix)
  average eigenvalue GAMMA=   0.8510
  2.2747  0.4794  0.3249  0.3249

 Free energy of the ion-electron system (eV)
  ---------------------------------------------------
  alpha Z        PSCENC =       805.70539673
  Ewald energy   TEWEN  =    199920.34445346
  -Hartree energ DENC   =   -241947.30616246
  -exchange      EXHF   =         0.00000000
  -V(xc)+E(xc)   XCENC  =      -345.99552239
  PAW double counting   =     48721.40783778   -46805.84397702
  entropy T*S    EENTRO =        -0.22820685
  eigenvalues    EBANDS =     -2212.24080636
  atomic energy  EATOM  =     41659.78587232
  Solvation  Ediel_sol  =         0.00000000
  ---------------------------------------------------
  free energy    TOTEN  =      -204.37111480 eV

  energy without entropy =     -204.14290794  energy(sigma->0) =     -204.25701137


--------------------------------------------------------------------------------------------------------




----------------------------------------- Iteration    1(  10)  ---------------------------------------


    POTLOK:  cpu time    0.0497: real time    0.0507
    SETDIJ:  cpu time    0.0063: real time    0.0063
    EDDIAG:  cpu time    1.6425: real time    1.6433
  RMM-DIIS:  cpu time    4.3751: real time    4.4492
    ORTHCH:  cpu time    0.4047: real time    0.4048
       DOS:  cpu time    0.0018: real time    0.0018
    CHARGE:  cpu time    0.3001: real time    0.3003
    MIXING:  cpu time    0.0026: real time    0.0026
    --------------------------------------------
      LOOP:  cpu time    6.7835: real time    6.8642

 eigenvalue-minimisations  :  3681
 total energy-change (2. order) : 0.1115381E+02  (-0.1609365E+01)
 number of electron     503.9998342 magnetization 
 augmentation part      198.8014099 magnetization 

 DIPCOR: dipole corrections for dipol
 direction  3 min pos     1,
 dipolmoment           0.000000      0.000000      0.308231 electrons x Angstroem
 Tr[quadrupol]    -10286.584856

 energy correction for charged system         0.000000 eV
 dipol+quadrupol energy correction           -0.003348 eV
 added-field ion interaction          0.048786 eV  (added to PSCEN)


 Broyden mixing:
  rms(total) = 0.14172E+01    rms(broyden)= 0.14168E+01
  rms(prec ) = 0.16447E+01
  weight for this iteration     100.00

 eigenvalues of (default mixing * dielectric matrix)
  average eigenvalue GAMMA=   0.7917
  2.2635  0.5296  0.5296  0.3970  0.2387

 Free energy of the ion-electron system (eV)
  ---------------------------------------------------
  alpha Z        PSCENC =       805.91480285
  Ewald energy   TEWEN  =    199920.34445346
  -Hartree energ DENC   =   -241941.19342919
  -exchange      EXHF   =         0.00000000
  -V(xc)+E(xc)   XCENC  =      -345.74506999
  PAW double counting   =     49121.56321853   -47209.52634530
  entropy T*S    EENTRO =        -0.20872328
  eigenvalues    EBANDS =     -2204.15208010
  atomic energy  EATOM  =     41659.78587232
  Solvation  Ediel_sol  =         0.00000000
  ---------------------------------------------------
  free energy    TOTEN  =      -193.21730071 eV

  energy without entropy =     -193.00857742  energy(sigma->0) =     -193.11293906


--------------------------------------------------------------------------------------------------------




----------------------------------------- Iteration    1(  11)  ---------------------------------------


    POTLOK:  cpu time    0.0498: real time    0.0498
    SETDIJ:  cpu time    0.0061: real time    0.0061
    EDDIAG:  cpu time    1.6558: real time    1.6566
  RMM-DIIS:  cpu time    4.4660: real time    4.4679
    ORTHCH:  cpu time    0.4026: real time    0.4026
       DOS:  cpu time    0.0016: real time    0.0016
    CHARGE:  cpu time    0.3008: real time    0.3009
    MIXING:  cpu time    0.0027: real time    0.0027
    --------------------------------------------
      LOOP:  cpu time    6.8862: real time    6.8909

 eigenvalue-minimisations  :  3680
 total energy-change (2. order) : 0.2503019E+01  (-0.7621090E+00)
 number of electron     503.9998351 magnetization 
 augmentation part      197.9068690 magnetization 

 DIPCOR: dipole corrections for dipol
 direction  3 min pos     1,
 dipolmoment           0.000000      0.000000      0.048096 electrons x Angstroem
 Tr[quadrupol]    -10286.859024

 energy correction for charged system         0.000000 eV
 dipol+quadrupol energy correction           -0.000082 eV
 added-field ion interaction          0.007613 eV  (added to PSCEN)


 Broyden mixing:
  rms(total) = 0.10127E+01    rms(broyden)= 0.10124E+01
  rms(prec ) = 0.11397E+01
  weight for this iteration     100.00

 eigenvalues of (default mixing * dielectric matrix)
  average eigenvalue GAMMA=   0.7310
  2.2559  0.5266  0.5266  0.5070  0.3032  0.2666

 Free energy of the ion-electron system (eV)
  ---------------------------------------------------
  alpha Z        PSCENC =       805.87689532
  Ewald energy   TEWEN  =    199920.34445346
  -Hartree energ DENC   =   -241979.46206961
  -exchange      EXHF   =         0.00000000
  -V(xc)+E(xc)   XCENC  =      -344.97086237
  PAW double counting   =     49194.30080519   -47279.28305700
  entropy T*S    EENTRO =        -0.21725546
  eigenvalues    EBANDS =     -2167.08906310
  atomic energy  EATOM  =     41659.78587232
  Solvation  Ediel_sol  =         0.00000000
  ---------------------------------------------------
  free energy    TOTEN  =      -190.71428125 eV

  energy without entropy =     -190.49702578  energy(sigma->0) =     -190.60565352


--------------------------------------------------------------------------------------------------------




----------------------------------------- Iteration    1(  12)  ---------------------------------------


    POTLOK:  cpu time    0.0501: real time    0.0505
    SETDIJ:  cpu time    0.0061: real time    0.0060
    EDDIAG:  cpu time    1.6543: real time    1.6556
  RMM-DIIS:  cpu time    4.4484: real time    4.4515
    ORTHCH:  cpu time    0.4026: real time    0.4028
       DOS:  cpu time    0.0018: real time    0.0018
    CHARGE:  cpu time    0.3036: real time    0.3036
    MIXING:  cpu time    0.0027: real time    0.0027
    --------------------------------------------
      LOOP:  cpu time    6.8703: real time    6.8791

 eigenvalue-minimisations  :  3682
 total energy-change (2. order) : 0.1127963E+01  (-0.2293659E+00)
 number of electron     503.9998358 magnetization 
 augmentation part      197.3481803 magnetization 

 DIPCOR: dipole corrections for dipol
 direction  3 min pos     1,
 dipolmoment           0.000000      0.000000      0.040934 electrons x Angstroem
 Tr[quadrupol]    -10287.307884

 energy correction for charged system         0.000000 eV
 dipol+quadrupol energy correction           -0.000059 eV
 added-field ion interaction          0.006479 eV  (added to PSCEN)


 Broyden mixing:
  rms(total) = 0.61257E+00    rms(broyden)= 0.61242E+00
  rms(prec ) = 0.65505E+00
  weight for this iteration     100.00

 eigenvalues of (default mixing * dielectric matrix)
  average eigenvalue GAMMA=   0.7182
  2.2685  0.7542  0.5694  0.5694  0.3108  0.2775  0.2775

 Free energy of the ion-electron system (eV)
  ---------------------------------------------------
  alpha Z        PSCENC =       805.87578415
  Ewald energy   TEWEN  =    199920.34445346
  -Hartree energ DENC   =   -242012.78293446
  -exchange      EXHF   =         0.00000000
  -V(xc)+E(xc)   XCENC  =      -344.46673760
  PAW double counting   =     49235.26778339   -47318.14583006
  entropy T*S    EENTRO =        -0.26920650
  eigenvalues    EBANDS =     -2135.19550269
  atomic energy  EATOM  =     41659.78587232
  Solvation  Ediel_sol  =         0.00000000
  ---------------------------------------------------
  free energy    TOTEN  =      -189.58631798 eV

  energy without entropy =     -189.31711148  energy(sigma->0) =     -189.45171473


--------------------------------------------------------------------------------------------------------




----------------------------------------- Iteration    1(  13)  ---------------------------------------


    POTLOK:  cpu time    0.0493: real time    0.0502
    SETDIJ:  cpu time    0.0061: real time    0.0061
    EDDIAG:  cpu time    1.6542: real time    1.6560
  RMM-DIIS:  cpu time    4.4766: real time    4.4792
    ORTHCH:  cpu time    0.4064: real time    0.4065
       DOS:  cpu time    0.0017: real time    0.0017
    CHARGE:  cpu time    0.3013: real time    0.3017
    MIXING:  cpu time    0.0028: real time    0.0028
    --------------------------------------------
      LOOP:  cpu time    6.8993: real time    6.9077

 eigenvalue-minimisations  :  3680
 total energy-change (2. order) :-0.1731415E-01  (-0.9118161E-01)
 number of electron     503.9998358 magnetization 
 augmentation part      197.2173913 magnetization 

 DIPCOR: dipole corrections for dipol
 direction  3 min pos     1,
 dipolmoment           0.000000      0.000000     -0.019547 electrons x Angstroem
 Tr[quadrupol]    -10287.580556

 energy correction for charged system         0.000000 eV
 dipol+quadrupol energy correction           -0.000013 eV
 added-field ion interaction         -0.003094 eV  (added to PSCEN)


 Broyden mixing:
  rms(total) = 0.59664E+00    rms(broyden)= 0.59655E+00
  rms(prec ) = 0.64732E+00
  weight for this iteration     100.00

 eigenvalues of (default mixing * dielectric matrix)
  average eigenvalue GAMMA=   0.7283
  2.2863  0.8457  0.7691  0.7691  0.3275  0.3275  0.2508  0.2508

 Free energy of the ion-electron system (eV)
  ---------------------------------------------------
  alpha Z        PSCENC =       805.86625702
  Ewald energy   TEWEN  =    199920.34445346
  -Hartree energ DENC   =   -242027.38651785
  -exchange      EXHF   =         0.00000000
  -V(xc)+E(xc)   XCENC  =      -344.31389161
  PAW double counting   =     49263.67731748   -47345.88136062
  entropy T*S    EENTRO =        -0.26138440
  eigenvalues    EBANDS =     -2121.43437795
  atomic energy  EATOM  =     41659.78587232
  Solvation  Ediel_sol  =         0.00000000
  ---------------------------------------------------
  free energy    TOTEN  =      -189.60363213 eV

  energy without entropy =     -189.34224774  energy(sigma->0) =     -189.47293993


--------------------------------------------------------------------------------------------------------




----------------------------------------- Iteration    1(  14)  ---------------------------------------


    POTLOK:  cpu time    0.0493: real time    0.0493
    SETDIJ:  cpu time    0.0060: real time    0.0060
    EDDIAG:  cpu time    1.6287: real time    1.6295
  RMM-DIIS:  cpu time    4.9030: real time    4.9091
    ORTHCH:  cpu time    0.4013: real time    0.4015
       DOS:  cpu time    0.0017: real time    0.0017
    CHARGE:  cpu time    0.3008: real time    0.3009
    MIXING:  cpu time    0.0029: real time    0.0029
    --------------------------------------------
      LOOP:  cpu time    7.2945: real time    7.3034

 eigenvalue-minimisations  :  3681
 total energy-change (2. order) :-0.1369576E-02  (-0.4912384E-01)
 number of electron     503.9998357 magnetization 
 augmentation part      197.2692377 magnetization 

 DIPCOR: dipole corrections for dipol
 direction  3 min pos     1,
 dipolmoment           0.000000      0.000000      0.016608 electrons x Angstroem
 Tr[quadrupol]    -10287.758011

 energy correction for charged system         0.000000 eV
 dipol+quadrupol energy correction           -0.000010 eV
 added-field ion interaction          0.002629 eV  (added to PSCEN)


 Broyden mixing:
  rms(total) = 0.53973E+00    rms(broyden)= 0.53966E+00
  rms(prec ) = 0.59847E+00
  weight for this iteration     100.00

 eigenvalues of (default mixing * dielectric matrix)
  average eigenvalue GAMMA=   0.7058
  2.2896  0.9021  0.9021  0.7894  0.3650  0.3650  0.2593  0.2593  0.2207

 Free energy of the ion-electron system (eV)
  ---------------------------------------------------
  alpha Z        PSCENC =       805.87198327
  Ewald energy   TEWEN  =    199920.34445346
  -Hartree energ DENC   =   -242035.83648936
  -exchange      EXHF   =         0.00000000
  -V(xc)+E(xc)   XCENC  =      -344.18981059
  PAW double counting   =     49288.87617739   -47370.54478044
  entropy T*S    EENTRO =        -0.26927717
  eigenvalues    EBANDS =     -2113.64313058
  atomic energy  EATOM  =     41659.78587232
  Solvation  Ediel_sol  =         0.00000000
  ---------------------------------------------------
  free energy    TOTEN  =      -189.60500171 eV

  energy without entropy =     -189.33572454  energy(sigma->0) =     -189.47036312


--------------------------------------------------------------------------------------------------------




----------------------------------------- Iteration    1(  15)  ---------------------------------------


    POTLOK:  cpu time    0.0493: real time    0.0493
    SETDIJ:  cpu time    0.0060: real time    0.0060
    EDDIAG:  cpu time    1.6524: real time    1.6529
  RMM-DIIS:  cpu time    4.4196: real time    4.4216
    ORTHCH:  cpu time    0.4013: real time    0.4015
       DOS:  cpu time    0.0018: real time    0.0018
    CHARGE:  cpu time    0.2995: real time    0.2998
    MIXING:  cpu time    0.0031: real time    0.0031
    --------------------------------------------
      LOOP:  cpu time    6.8339: real time    6.8407

 eigenvalue-minimisations  :  3679
 total energy-change (2. order) : 0.1593173E+00  (-0.2376914E-01)
 number of electron     503.9998358 magnetization 
 augmentation part      197.2798182 magnetization 

 DIPCOR: dipole corrections for dipol
 direction  3 min pos     1,
 dipolmoment           0.000000      0.000000      0.022880 electrons x Angstroem
 Tr[quadrupol]    -10287.906896

 energy correction for charged system         0.000000 eV
 dipol+quadrupol energy correction           -0.000018 eV
 added-field ion interaction          0.003621 eV  (added to PSCEN)


 Broyden mixing:
  rms(total) = 0.33649E+00    rms(broyden)= 0.33643E+00
  rms(prec ) = 0.37376E+00
  weight for this iteration     100.00

 eigenvalues of (default mixing * dielectric matrix)
  average eigenvalue GAMMA=   0.7111
  2.2376  1.1557  1.1557  0.6099  0.4594  0.4594  0.2878  0.2878  0.2291  0.2291

 Free energy of the ion-electron system (eV)
  ---------------------------------------------------
  alpha Z        PSCENC =       805.87296726
  Ewald energy   TEWEN  =    199920.34445346
  -Hartree energ DENC   =   -242043.14900347
  -exchange      EXHF   =         0.00000000
  -V(xc)+E(xc)   XCENC  =      -344.10413246
  PAW double counting   =     49295.34174988   -47376.47086423
  entropy T*S    EENTRO =        -0.26976158
  eigenvalues    EBANDS =     -2106.79696563
  atomic energy  EATOM  =     41659.78587232
  Solvation  Ediel_sol  =         0.00000000
  ---------------------------------------------------
  free energy    TOTEN  =      -189.44568444 eV

  energy without entropy =     -189.17592286  energy(sigma->0) =     -189.31080365


--------------------------------------------------------------------------------------------------------




----------------------------------------- Iteration    1(  16)  ---------------------------------------


    POTLOK:  cpu time    0.0494: real time    0.0494
    SETDIJ:  cpu time    0.0061: real time    0.0061
    EDDIAG:  cpu time    1.6534: real time    1.6538
  RMM-DIIS:  cpu time    4.3464: real time    4.4171
    ORTHCH:  cpu time    0.4071: real time    0.4074
       DOS:  cpu time    0.0018: real time    0.0018
    CHARGE:  cpu time    0.3049: real time    0.3050
    MIXING:  cpu time    0.0033: real time    0.0033
    --------------------------------------------
      LOOP:  cpu time    6.7732: real time    6.8464

 eigenvalue-minimisations  :  3680
 total energy-change (2. order) : 0.5361751E-01  (-0.1463633E-01)
 number of electron     503.9998359 magnetization 
 augmentation part      197.2024411 magnetization 

 DIPCOR: dipole corrections for dipol
 direction  3 min pos     1,
 dipolmoment           0.000000      0.000000      0.033640 electrons x Angstroem
 Tr[quadrupol]    -10288.043994

 energy correction for charged system         0.000000 eV
 dipol+quadrupol energy correction           -0.000040 eV
 added-field ion interaction          0.005324 eV  (added to PSCEN)


 Broyden mixing:
  rms(total) = 0.28599E+00    rms(broyden)= 0.28590E+00
  rms(prec ) = 0.32497E+00
  weight for this iteration     100.00

 eigenvalues of (default mixing * dielectric matrix)
  average eigenvalue GAMMA=   0.7271
  2.1558  1.4642  1.4642  0.6076  0.6076  0.3372  0.3372  0.3502  0.2458  0.2458
  0.1822

 Free energy of the ion-electron system (eV)
  ---------------------------------------------------
  alpha Z        PSCENC =       805.87464888
  Ewald energy   TEWEN  =    199920.34445346
  -Hartree energ DENC   =   -242052.91839754
  -exchange      EXHF   =         0.00000000
  -V(xc)+E(xc)   XCENC  =      -343.91530312
  PAW double counting   =     49289.64445649   -47369.56401254
  entropy T*S    EENTRO =        -0.26727784
  eigenvalues    EBANDS =     -2098.37650704
  atomic energy  EATOM  =     41659.78587232
  Solvation  Ediel_sol  =         0.00000000
  ---------------------------------------------------
  free energy    TOTEN  =      -189.39206694 eV

  energy without entropy =     -189.12478909  energy(sigma->0) =     -189.25842801


--------------------------------------------------------------------------------------------------------




----------------------------------------- Iteration    1(  17)  ---------------------------------------


    POTLOK:  cpu time    0.0498: real time    0.0499
    SETDIJ:  cpu time    0.0061: real time    0.0061
    EDDIAG:  cpu time    1.6614: real time    1.6629
  RMM-DIIS:  cpu time    4.4170: real time    4.4189
    ORTHCH:  cpu time    0.4011: real time    0.4013
       DOS:  cpu time    0.0017: real time    0.0017
    CHARGE:  cpu time    0.3017: real time    0.3017
    MIXING:  cpu time    0.0036: real time    0.0036
    --------------------------------------------
      LOOP:  cpu time    6.8431: real time    6.8510

 eigenvalue-minimisations  :  3680
 total energy-change (2. order) : 0.6576614E-01  (-0.9519045E-02)
 number of electron     503.9998360 magnetization 
 augmentation part      197.1169517 magnetization 

 DIPCOR: dipole corrections for dipol
 direction  3 min pos     1,
 dipolmoment           0.000000      0.000000      0.042586 electrons x Angstroem
 Tr[quadrupol]    -10288.349843

 energy correction for charged system         0.000000 eV
 dipol+quadrupol energy correction           -0.000064 eV
 added-field ion interaction          0.006740 eV  (added to PSCEN)


 Broyden mixing:
  rms(total) = 0.14093E+00    rms(broyden)= 0.14084E+00
  rms(prec ) = 0.15712E+00
  weight for this iteration     100.00

 eigenvalues of (default mixing * dielectric matrix)
  average eigenvalue GAMMA=   0.7450
  2.0903  1.8870  1.5233  0.6065  0.6065  0.5457  0.3614  0.3614  0.2700  0.2700
  0.2378  0.1805

 Free energy of the ion-electron system (eV)
  ---------------------------------------------------
  alpha Z        PSCENC =       805.87604088
  Ewald energy   TEWEN  =    199920.34445346
  -Hartree energ DENC   =   -242067.43727557
  -exchange      EXHF   =         0.00000000
  -V(xc)+E(xc)   XCENC  =      -343.76688689
  PAW double counting   =     49291.03968796   -47369.89315591
  entropy T*S    EENTRO =        -0.27562778
  eigenvalues    EBANDS =     -2084.99940926
  atomic energy  EATOM  =     41659.78587232
  Solvation  Ediel_sol  =         0.00000000
  ---------------------------------------------------
  free energy    TOTEN  =      -189.32630080 eV

  energy without entropy =     -189.05067301  energy(sigma->0) =     -189.18848691


--------------------------------------------------------------------------------------------------------




----------------------------------------- Iteration    1(  18)  ---------------------------------------


    POTLOK:  cpu time    0.0506: real time    0.0507
    SETDIJ:  cpu time    0.0068: real time    0.0068
    EDDIAG:  cpu time    1.6298: real time    1.6305
  RMM-DIIS:  cpu time    4.3835: real time    4.3858
    ORTHCH:  cpu time    0.3974: real time    0.3975
       DOS:  cpu time    0.0016: real time    0.0016
    CHARGE:  cpu time    0.3005: real time    0.3005
    MIXING:  cpu time    0.0038: real time    0.0038
    --------------------------------------------
      LOOP:  cpu time    6.7759: real time    6.7809

 eigenvalue-minimisations  :  3679
 total energy-change (2. order) : 0.1478472E-02  (-0.3482546E-02)
 number of electron     503.9998360 magnetization 
 augmentation part      197.1102743 magnetization 

 DIPCOR: dipole corrections for dipol
 direction  3 min pos     1,
 dipolmoment           0.000000      0.000000      0.030365 electrons x Angstroem
 Tr[quadrupol]    -10288.551800

 energy correction for charged system         0.000000 eV
 dipol+quadrupol energy correction           -0.000032 eV
 added-field ion interaction          0.004806 eV  (added to PSCEN)


 Broyden mixing:
  rms(total) = 0.12221E+00    rms(broyden)= 0.12217E+00
  rms(prec ) = 0.13917E+00
  weight for this iteration     100.00

 eigenvalues of (default mixing * dielectric matrix)
  average eigenvalue GAMMA=   0.7246
  2.0925  2.0925  1.4294  0.6344  0.6344  0.6062  0.3598  0.3598  0.2797  0.2797
  0.2369  0.2369  0.1778

 Free energy of the ion-electron system (eV)
  ---------------------------------------------------
  alpha Z        PSCENC =       805.87413796
  Ewald energy   TEWEN  =    199920.34445346
  -Hartree energ DENC   =   -242076.03739001
  -exchange      EXHF   =         0.00000000
  -V(xc)+E(xc)   XCENC  =      -343.71006529
  PAW double counting   =     49300.06424615   -47378.50787671
  entropy T*S    EENTRO =        -0.27672176
  eigenvalues    EBANDS =     -2076.86147842
  atomic energy  EATOM  =     41659.78587232
  Solvation  Ediel_sol  =         0.00000000
  ---------------------------------------------------
  free energy    TOTEN  =      -189.32482232 eV

  energy without entropy =     -189.04810057  energy(sigma->0) =     -189.18646145


--------------------------------------------------------------------------------------------------------




----------------------------------------- Iteration    1(  19)  ---------------------------------------


    POTLOK:  cpu time    0.0499: real time    0.0499
    SETDIJ:  cpu time    0.0064: real time    0.0066
    EDDIAG:  cpu time    1.6480: real time    1.6487
  RMM-DIIS:  cpu time    4.4691: real time    4.4708
    ORTHCH:  cpu time    0.3966: real time    0.3968
       DOS:  cpu time    0.0016: real time    0.0016
    CHARGE:  cpu time    0.2997: real time    0.2997
    MIXING:  cpu time    0.0039: real time    0.0039
    --------------------------------------------
      LOOP:  cpu time    6.8760: real time    6.8833

 eigenvalue-minimisations  :  3680
 total energy-change (2. order) : 0.1206085E-01  (-0.1143601E-02)
 number of electron     503.9998360 magnetization 
 augmentation part      197.0979932 magnetization 

 DIPCOR: dipole corrections for dipol
 direction  3 min pos     1,
 dipolmoment           0.000000      0.000000      0.021584 electrons x Angstroem
 Tr[quadrupol]    -10288.634315

 energy correction for charged system         0.000000 eV
 dipol+quadrupol energy correction           -0.000016 eV
 added-field ion interaction          0.003416 eV  (added to PSCEN)


 Broyden mixing:
  rms(total) = 0.62994E-01    rms(broyden)= 0.62966E-01
  rms(prec ) = 0.69487E-01
  weight for this iteration     100.00

 eigenvalues of (default mixing * dielectric matrix)
  average eigenvalue GAMMA=   0.7387
  2.1938  2.1938  1.3793  0.7398  0.7398  0.5862  0.5862  0.3672  0.3672  0.2672
  0.2672  0.2571  0.2180  0.1786

 Free energy of the ion-electron system (eV)
  ---------------------------------------------------
  alpha Z        PSCENC =       805.87276417
  Ewald energy   TEWEN  =    199920.34445346
  -Hartree energ DENC   =   -242079.57153536
  -exchange      EXHF   =         0.00000000
  -V(xc)+E(xc)   XCENC  =      -343.68544874
  PAW double counting   =     49303.43130699   -47381.75544642
  entropy T*S    EENTRO =        -0.27869706
  eigenvalues    EBANDS =     -2073.45603083
  atomic energy  EATOM  =     41659.78587232
  Solvation  Ediel_sol  =         0.00000000
  ---------------------------------------------------
  free energy    TOTEN  =      -189.31276147 eV

  energy without entropy =     -189.03406441  energy(sigma->0) =     -189.17341294


--------------------------------------------------------------------------------------------------------




----------------------------------------- Iteration    1(  20)  ---------------------------------------


    POTLOK:  cpu time    0.0503: real time    0.0507
    SETDIJ:  cpu time    0.0060: real time    0.0060
    EDDIAG:  cpu time    1.6494: real time    1.6518
  RMM-DIIS:  cpu time    4.4885: real time    4.4915
    ORTHCH:  cpu time    0.3976: real time    0.3977
       DOS:  cpu time    0.0016: real time    0.0016
    CHARGE:  cpu time    0.3055: real time    0.3058
    MIXING:  cpu time    0.0040: real time    0.0040
    --------------------------------------------
      LOOP:  cpu time    6.9039: real time    6.9127

 eigenvalue-minimisations  :  3679
 total energy-change (2. order) : 0.3219247E-02  (-0.4697010E-03)
 number of electron     503.9998360 magnetization 
 augmentation part      197.0705165 magnetization 

 DIPCOR: dipole corrections for dipol
 direction  3 min pos     1,
 dipolmoment           0.000000      0.000000      0.017661 electrons x Angstroem
 Tr[quadrupol]    -10288.776426

 energy correction for charged system         0.000000 eV
 dipol+quadrupol energy correction           -0.000011 eV
 added-field ion interaction          0.002795 eV  (added to PSCEN)


 Broyden mixing:
  rms(total) = 0.44951E-01    rms(broyden)= 0.44945E-01
  rms(prec ) = 0.48578E-01
  weight for this iteration     100.00

 eigenvalues of (default mixing * dielectric matrix)
  average eigenvalue GAMMA=   0.7399
  2.2059  2.2059  1.3965  0.8852  0.8852  0.6085  0.6085  0.4301  0.3511  0.3511
  0.2666  0.2666  0.2450  0.2145  0.1782

 Free energy of the ion-electron system (eV)
  ---------------------------------------------------
  alpha Z        PSCENC =       805.87214861
  Ewald energy   TEWEN  =    199920.34445346
  -Hartree energ DENC   =   -242085.94164623
  -exchange      EXHF   =         0.00000000
  -V(xc)+E(xc)   XCENC  =      -343.64605209
  PAW double counting   =     49307.59387891   -47385.75766014
  entropy T*S    EENTRO =        -0.27933021
  eigenvalues    EBANDS =     -2067.28120685
  atomic energy  EATOM  =     41659.78587232
  Solvation  Ediel_sol  =         0.00000000
  ---------------------------------------------------
  free energy    TOTEN  =      -189.30954222 eV

  energy without entropy =     -189.03021201  energy(sigma->0) =     -189.16987712


--------------------------------------------------------------------------------------------------------




----------------------------------------- Iteration    1(  21)  ---------------------------------------


    POTLOK:  cpu time    0.0498: real time    0.0498
    SETDIJ:  cpu time    0.0060: real time    0.0060
    EDDIAG:  cpu time    1.6505: real time    1.6518
  RMM-DIIS:  cpu time    4.4985: real time    4.5008
    ORTHCH:  cpu time    0.3962: real time    0.3963
       DOS:  cpu time    0.0016: real time    0.0016
    CHARGE:  cpu time    0.3011: real time    0.3012
    MIXING:  cpu time    0.0041: real time    0.0041
    --------------------------------------------
      LOOP:  cpu time    6.9087: real time    6.9142

 eigenvalue-minimisations  :  3679
 total energy-change (2. order) : 0.9622932E-03  (-0.2497845E-03)
 number of electron     503.9998360 magnetization 
 augmentation part      197.0574437 magnetization 

 DIPCOR: dipole corrections for dipol
 direction  3 min pos     1,
 dipolmoment           0.000000      0.000000      0.020742 electrons x Angstroem
 Tr[quadrupol]    -10288.856690

 energy correction for charged system         0.000000 eV
 dipol+quadrupol energy correction           -0.000015 eV
 added-field ion interaction          0.003283 eV  (added to PSCEN)


 Broyden mixing:
  rms(total) = 0.28541E-01    rms(broyden)= 0.28535E-01
  rms(prec ) = 0.31855E-01
  weight for this iteration     100.00

 eigenvalues of (default mixing * dielectric matrix)
  average eigenvalue GAMMA=   0.7699
  2.2857  1.9659  1.9659  1.0311  1.0311  0.6250  0.6250  0.5679  0.3666  0.3666
  0.2963  0.2963  0.2516  0.2516  0.2139  0.1782

 Free energy of the ion-electron system (eV)
  ---------------------------------------------------
  alpha Z        PSCENC =       805.87263219
  Ewald energy   TEWEN  =    199920.34445346
  -Hartree energ DENC   =   -242089.51532663
  -exchange      EXHF   =         0.00000000
  -V(xc)+E(xc)   XCENC  =      -343.62319509
  PAW double counting   =     49308.58350481   -47386.69225927
  entropy T*S    EENTRO =        -0.27863634
  eigenvalues    EBANDS =     -2063.78562538
  atomic energy  EATOM  =     41659.78587232
  Solvation  Ediel_sol  =         0.00000000
  ---------------------------------------------------
  free energy    TOTEN  =      -189.30857993 eV

  energy without entropy =     -189.02994359  energy(sigma->0) =     -189.16926176


--------------------------------------------------------------------------------------------------------




----------------------------------------- Iteration    1(  22)  ---------------------------------------


    POTLOK:  cpu time    0.0501: real time    0.0503
    SETDIJ:  cpu time    0.0060: real time    0.0060
    EDDIAG:  cpu time    1.6074: real time    1.6336
  RMM-DIIS:  cpu time    4.3633: real time    4.4100
    ORTHCH:  cpu time    0.3962: real time    0.3964
       DOS:  cpu time    0.0017: real time    0.0017
    CHARGE:  cpu time    0.3024: real time    0.3025
    MIXING:  cpu time    0.0042: real time    0.0042
    --------------------------------------------
      LOOP:  cpu time    6.7321: real time    6.8082

 eigenvalue-minimisations  :  3682
 total energy-change (2. order) : 0.3071753E-03  (-0.1115926E-03)
 number of electron     503.9998361 magnetization 
 augmentation part      197.0475363 magnetization 

 DIPCOR: dipole corrections for dipol
 direction  3 min pos     1,
 dipolmoment           0.000000      0.000000      0.022203 electrons x Angstroem
 Tr[quadrupol]    -10288.985455

 energy correction for charged system         0.000000 eV
 dipol+quadrupol energy correction           -0.000017 eV
 added-field ion interaction          0.003514 eV  (added to PSCEN)


 Broyden mixing:
  rms(total) = 0.21665E-01    rms(broyden)= 0.21662E-01
  rms(prec ) = 0.25503E-01
  weight for this iteration     100.00

 eigenvalues of (default mixing * dielectric matrix)
  average eigenvalue GAMMA=   0.7995
  2.4253  2.3090  2.3090  1.2587  0.7115  0.7115  0.6475  0.6475  0.3621  0.3621
  0.3593  0.3349  0.2590  0.2590  0.2429  0.2141  0.1782

 Free energy of the ion-electron system (eV)
  ---------------------------------------------------
  alpha Z        PSCENC =       805.87286119
  Ewald energy   TEWEN  =    199920.34445346
  -Hartree energ DENC   =   -242094.73379710
  -exchange      EXHF   =         0.00000000
  -V(xc)+E(xc)   XCENC  =      -343.60363342
  PAW double counting   =     49309.74167374   -47387.83185190
  entropy T*S    EENTRO =        -0.27903610
  eigenvalues    EBANDS =     -2058.60481494
  atomic energy  EATOM  =     41659.78587232
  Solvation  Ediel_sol  =         0.00000000
  ---------------------------------------------------
  free energy    TOTEN  =      -189.30827276 eV

  energy without entropy =     -189.02923665  energy(sigma->0) =     -189.16875470


--------------------------------------------------------------------------------------------------------




----------------------------------------- Iteration    1(  23)  ---------------------------------------


    POTLOK:  cpu time    0.0499: real time    0.0499
    SETDIJ:  cpu time    0.0060: real time    0.0060
    EDDIAG:  cpu time    1.8422: real time    1.8563
  RMM-DIIS:  cpu time    4.7095: real time    4.7326
[...]
    275       1.7356      0.00000
    276       1.8587      0.00000
    277       2.1012      0.00000
    278       2.2756      0.00000
    279       2.3853      0.00000
    280       2.4499      0.00000
    281       2.4940      0.00000
    282       2.5432      0.00000
    283       2.7109      0.00000
    284       2.9415      0.00000
    285       3.1438      0.00000
    286       3.2322      0.00000
    287       3.5493      0.00000
    288       3.6424      0.00000
    289       3.7817      0.00000
    290       4.0370      0.00000
    291       4.1023      0.00000
    292       4.2223      0.00000
    293       4.4643      0.00000
    294       4.5234      0.00000
    295       4.5802      0.00000
    296       4.6286      0.00000
    297       4.6862      0.00000
    298       4.8469      0.00000
    299       4.8964      0.00000
    300       4.9600      0.00000
    301       5.0181      0.00000
    302       5.0591      0.00000
    303       5.0850      0.00000
    304       5.1399      0.00000
    305       5.2284      0.00000
    306       5.2628      0.00000


--------------------------------------------------------------------------------------------------------


 soft charge-density along one line, spin component           1
         0         1         2         3         4         5         6         7         8         9
 total charge-density along one line
 
 pseudopotential strength for first ion, spin component:           1
 -8.044   0.001  -0.003  -0.005   0.001  -8.191   0.001  -0.003
  0.001  -7.972  -0.000   0.001  -0.000   0.001  -8.120  -0.000
 -0.003  -0.000  -7.963   0.002  -0.004  -0.003  -0.000  -8.112
 -0.005   0.001   0.002  -7.966   0.001  -0.005   0.001   0.002
  0.001  -0.000  -0.004   0.001  -8.044   0.001  -0.000  -0.004
 -8.191   0.001  -0.003  -0.005   0.001  -8.321   0.001  -0.003
  0.001  -8.120  -0.000   0.001  -0.000   0.001  -8.252  -0.000
 -0.003  -0.000  -8.112   0.002  -0.004  -0.003  -0.000  -8.244
 -0.005   0.001   0.002  -8.114   0.001  -0.005   0.001   0.002
  0.001  -0.000  -0.004   0.001  -8.191   0.001  -0.000  -0.004
 -0.001   0.001  -0.024  -0.000  -0.002  -0.001   0.001  -0.024
 -0.002   0.001  -0.035  -0.001  -0.003  -0.002   0.001  -0.035
 -0.003  -0.004   0.001  -0.000   0.002  -0.003  -0.004   0.001
 -0.000  -0.002  -0.006  -0.003  -0.000  -0.000  -0.002  -0.006
 -0.002  -0.000   0.002  -0.004  -0.003  -0.002  -0.000   0.002
 -0.004  -0.004   0.002  -0.000   0.003  -0.004  -0.004   0.002
 -0.000  -0.002  -0.007  -0.004   0.000  -0.000  -0.002  -0.006
 -0.003  -0.000   0.002  -0.004  -0.003  -0.003  -0.000   0.002
 total augmentation occupancy for first ion, spin component:           1
  4.657  -0.020   0.067  -0.018   0.138  -2.831   0.014  -0.076  -0.036  -0.123   0.109  -0.063   0.054  -0.000  -0.007  -0.005
 -0.020   4.077   0.104  -0.060   0.024   0.014  -1.841  -0.088   0.052  -0.053  -0.044   0.024  -0.128  -0.026  -0.007   0.003
  0.067   0.104   4.481  -0.014   0.216  -0.075  -0.088  -2.379   0.024  -0.216   0.996  -0.141  -0.036  -0.233  -0.014   0.003
 -0.018  -0.060  -0.014   4.208  -0.007  -0.035   0.052   0.024  -1.947   0.009   0.035  -0.034  -0.004   0.010  -0.160  -0.000
  0.138   0.024   0.216  -0.007   4.240  -0.123  -0.054  -0.216   0.009  -2.431   0.169  -0.084  -0.046  -0.018  -0.019   0.004
 -2.831   0.014  -0.075  -0.035  -0.123   2.889  -0.010   0.082   0.075   0.112  -0.096   0.058  -0.044   0.001   0.008   0.002
  0.014  -1.841  -0.088   0.052  -0.054  -0.010   1.573   0.076  -0.046   0.076   0.037  -0.021   0.120   0.021   0.006  -0.005
 -0.076  -0.088  -2.379   0.024  -0.216   0.082   0.076   2.220  -0.030   0.215  -0.933   0.158   0.030   0.241   0.012  -0.002
 -0.036   0.052   0.024  -1.947   0.009   0.075  -0.046  -0.030   1.657  -0.011  -0.028   0.028   0.004  -0.007   0.146   0.000
 -0.123  -0.053  -0.216   0.009  -2.431   0.112   0.076   0.215  -0.011   2.505  -0.153   0.080   0.042   0.015   0.017  -0.002
  0.109  -0.044   0.996   0.035   0.169  -0.096   0.037  -0.933  -0.028  -0.153   2.455  -0.518  -0.012   0.115  -0.008   0.000
 -0.063   0.024  -0.141  -0.034  -0.084   0.058  -0.021   0.158   0.028   0.080  -0.518   0.151   0.010  -0.052   0.011  -0.000
  0.054  -0.128  -0.036  -0.004  -0.046  -0.044   0.120   0.030   0.004   0.042  -0.012   0.010   0.201   0.002  -0.002  -0.006
 -0.000  -0.026  -0.233   0.010  -0.018   0.001   0.021   0.241  -0.007   0.015   0.115  -0.052   0.002   0.097   0.001  -0.000
 -0.007  -0.007  -0.014  -0.160  -0.019   0.008   0.006   0.012   0.146   0.017  -0.008   0.011  -0.002   0.001   0.190   0.000
 -0.005   0.003   0.003  -0.000   0.004   0.002  -0.005  -0.002   0.000  -0.002   0.000  -0.000  -0.006  -0.000   0.000   0.000
 -0.000  -0.001  -0.000  -0.005   0.000   0.000  -0.000  -0.006   0.002  -0.000  -0.007   0.002  -0.000  -0.003   0.000   0.000
 -0.002  -0.000   0.002   0.003  -0.002   0.001   0.000  -0.000  -0.005  -0.000   0.000  -0.000   0.000   0.000  -0.006  -0.000


------------------------ aborting loop because EDIFF is reached ----------------------------------------


    CHARGE:  cpu time    0.3001: real time    0.3001
    FORLOC:  cpu time    0.0187: real time    0.0187
    FORNL :  cpu time    1.6306: real time    1.6313
    FORCOR:  cpu time    0.0674: real time    0.0686
    FORHAR:  cpu time    0.0292: real time    0.0292
    MIXING:  cpu time    0.0033: real time    0.0033
    OFIELD:  cpu time    0.0000: real time    0.0000

 VOLUME and BASIS-vectors are now :
 -----------------------------------------------------------------------------
  energy-cutoff  :      400.00
  volume of cell :     2567.68
      direct lattice vectors                 reciprocal lattice vectors
    11.002581515  0.000000000  0.000000000     0.090887761 -0.052474073  0.000000000
     5.501290758  9.528515099  0.000000000     0.000000000  0.104948147  0.000000000
     0.000000000  0.000000000 24.491785094     0.000000000  0.000000000  0.040830017

  length of vectors
    11.002581515 11.002581515 24.491785094     0.104948147  0.104948147  0.040830017


 FORCES acting on ions
    electron-ion (+dipol)            ewald-force                    non-local-force                 convergence-correction
 -----------------------------------------------------------------------------------------------
   -.625E+01 -.104E+02 0.221E+04   0.677E+01 0.107E+02 -.221E+04   -.358E+00 -.157E+00 -.220E+00   0.121E-02 0.302E-03 0.255E-02
   0.337E+01 0.430E+01 -.220E+02   -.305E+01 -.419E+01 0.227E+02   -.325E+00 -.104E+00 -.755E+00   0.816E-02 -.406E-02 -.696E-02
   -.273E+01 -.840E+01 -.229E+04   0.379E+01 0.864E+01 0.229E+04   -.106E+01 -.232E+00 0.952E-01   0.822E-02 -.113E-02 -.352E-02
   -.257E+01 0.826E+01 -.224E+04   0.313E+01 -.861E+01 0.224E+04   -.551E+00 0.353E+00 0.369E+00   -.277E-02 -.394E-02 -.448E-02
   0.128E+02 -.200E+01 0.221E+04   -.135E+02 0.248E+01 -.221E+04   0.412E+00 -.370E+00 -.303E+00   0.798E-03 -.133E-02 -.129E-02
   0.344E+01 -.134E+01 0.221E+04   -.341E+01 0.122E+01 -.221E+04   -.465E-01 0.131E+00 -.492E+00   -.739E-03 -.792E-03 -.160E-02
   -.208E+01 0.580E+01 -.225E+04   0.176E+01 -.548E+01 0.225E+04   0.320E+00 -.312E+00 0.321E+00   -.530E-03 -.589E-02 -.169E-02
   0.142E+02 -.985E+01 0.221E+04   -.147E+02 0.100E+02 -.221E+04   0.306E+00 -.672E-01 -.331E+00   0.168E-02 0.799E-03 0.146E-03
   0.403E+01 -.427E+01 -.569E+00   -.405E+01 0.394E+01 -.655E+00   0.879E-02 0.322E+00 0.122E+01   0.134E-02 0.116E-02 0.293E-02
   0.908E+00 0.420E+01 -.225E+04   -.650E+00 -.484E+01 0.224E+04   -.258E+00 0.639E+00 0.261E+00   0.385E-02 0.526E-02 -.397E-02
   0.918E+01 -.427E+00 0.222E+04   -.943E+01 0.585E+00 -.222E+04   0.134E+00 -.134E+00 0.220E+00   0.604E-03 -.930E-03 0.412E-04
   -.106E+02 0.559E+01 -.464E+02   0.996E+01 -.558E+01 0.465E+02   0.592E+00 -.129E-01 -.726E-01   0.378E-02 0.442E-03 -.390E-02
   0.120E+01 -.630E+01 0.474E+01   -.152E+01 0.627E+01 -.526E+01   0.309E+00 0.245E-01 0.523E+00   0.162E-02 0.220E-02 -.291E-02
   0.491E+01 0.388E+01 -.178E+02   -.495E+01 -.387E+01 0.177E+02   0.482E-01 0.568E-02 0.203E-01   0.274E-02 -.579E-02 -.446E-02
   -.561E+01 0.359E+01 -.226E+04   0.589E+01 -.431E+01 0.226E+04   -.275E+00 0.723E+00 0.214E+00   -.348E-02 -.130E-02 -.414E-02
   -.159E+02 0.129E+02 0.221E+04   0.167E+02 -.135E+02 -.221E+04   -.450E+00 0.432E+00 -.156E+00   0.199E-03 -.215E-03 -.442E-03
   0.768E+01 -.993E+01 -.228E+04   -.846E+01 0.107E+02 0.228E+04   0.783E+00 -.780E+00 -.785E-01   -.106E-02 -.162E-03 0.177E-02
   -.120E+02 -.174E+01 0.221E+04   0.124E+02 0.188E+01 -.221E+04   -.291E+00 -.898E-01 0.132E+00   -.148E-04 0.143E-02 0.133E-02
   -.658E+01 -.313E+01 0.610E+01   0.667E+01 0.315E+01 -.603E+01   -.904E-01 -.251E-01 -.653E-01   0.872E-02 0.360E-02 -.839E-02
   -.260E+01 -.840E+01 -.229E+04   0.288E+01 0.921E+01 0.229E+04   -.270E+00 -.808E+00 0.236E-01   -.721E-02 0.413E-02 -.534E-02
   -.275E+01 0.594E+01 -.209E+02   0.244E+01 -.494E+01 0.215E+02   0.319E+00 -.991E+00 -.628E+00   -.629E-02 0.285E-03 -.628E-02
   -.701E+01 -.701E+01 0.222E+04   0.714E+01 0.714E+01 -.222E+04   -.566E-01 -.337E-01 0.130E+00   -.977E-03 0.138E-02 -.544E-03
   0.891E+01 0.124E+02 -.230E+04   -.100E+02 -.130E+02 0.230E+04   0.110E+01 0.602E+00 -.270E-01   0.205E-02 -.130E-02 -.114E-02
   -.491E+01 0.242E+02 0.222E+04   0.509E+01 -.254E+02 -.222E+04   -.107E+00 0.801E+00 -.229E+00   -.864E-04 -.153E-02 0.686E-03
   -.335E+01 -.482E+01 0.153E+02   0.335E+01 0.479E+01 -.154E+02   -.628E-02 0.229E-01 0.314E-01   -.272E-02 -.975E-03 0.121E-02
   0.337E+01 0.131E+01 -.194E+04   -.327E+01 -.134E+01 0.194E+04   -.105E+00 0.254E-01 0.174E+01   0.229E-02 0.514E-03 -.172E-01
   -.138E+01 -.836E+01 -.199E+04   0.115E+01 0.848E+01 0.199E+04   0.234E+00 -.122E+00 0.169E+01   -.491E-02 0.349E-03 -.132E-01
   -.442E+01 0.791E+01 -.197E+04   0.500E+01 -.782E+01 0.197E+04   -.574E+00 -.958E-01 0.185E+01   0.128E-02 -.705E-03 -.594E-02
   -.233E+01 0.139E+02 0.203E+04   0.223E+01 -.142E+02 -.202E+04   0.959E-01 0.171E+00 -.173E+01   -.835E-03 -.716E-03 -.629E-04
   -.105E+02 -.278E+01 0.203E+04   0.108E+02 0.298E+01 -.203E+04   -.152E+00 -.153E+00 -.185E+01   -.808E-03 0.879E-03 0.608E-03
   0.125E+01 -.393E+00 0.284E+02   -.859E+00 0.424E+00 -.284E+02   -.390E+00 -.265E-01 0.588E-01   0.167E-02 0.207E-02 -.667E-02
   -.208E+01 -.101E+02 -.199E+04   0.217E+01 0.102E+02 0.199E+04   -.919E-01 -.788E-01 0.146E+01   -.182E-02 0.413E-03 -.938E-02
   -.831E+01 -.108E+02 0.202E+04   0.837E+01 0.113E+02 -.202E+04   -.624E-02 -.383E+00 -.169E+01   -.366E-03 0.504E-03 0.136E-02
   0.444E+01 -.247E+01 -.381E+02   -.422E+01 0.235E+01 0.390E+02   -.224E+00 0.127E+00 -.897E+00   0.353E-02 0.615E-03 -.452E-02
   0.307E+00 0.120E+01 -.103E+02   -.664E+00 -.115E+01 0.103E+02   0.354E+00 -.542E-01 -.624E-01   0.205E-02 0.258E-02 -.615E-02
   0.331E+01 -.512E+00 -.199E+04   -.344E+01 0.518E+00 0.199E+04   0.132E+00 -.175E-01 0.178E+01   0.207E-02 0.109E-01 -.901E-02
   -.139E+01 -.461E+01 -.991E+01   0.169E+01 0.462E+01 0.100E+02   -.305E+00 -.907E-03 -.104E+00   0.326E-02 -.769E-02 -.246E-02
   -.124E+01 0.101E+02 0.202E+04   0.131E+01 -.105E+02 -.201E+04   -.209E-01 0.289E+00 -.174E+01   0.327E-03 -.189E-02 0.733E-03
   -.406E+01 0.325E+00 0.287E+01   0.398E+01 -.872E+00 -.240E+01   0.817E-01 0.551E+00 -.452E+00   -.267E-02 -.650E-02 -.944E-02
   0.131E+00 0.654E+01 0.202E+04   -.132E+00 -.668E+01 -.201E+04   -.511E-01 0.660E-01 -.164E+01   -.310E-03 0.124E-03 -.223E-03
   0.468E+01 -.172E+02 0.202E+04   -.473E+01 0.174E+02 -.202E+04   0.152E-01 -.115E+00 -.150E+01   -.671E-03 0.128E-02 -.665E-03
   0.414E+01 0.363E+01 -.213E+02   -.358E+01 -.393E+01 0.213E+02   -.562E+00 0.298E+00 -.635E-01   0.151E-02 -.432E-02 -.810E-02
   0.249E+02 -.488E+01 0.203E+04   -.256E+02 0.507E+01 -.202E+04   0.379E+00 -.152E+00 -.158E+01   0.538E-04 0.746E-03 0.383E-03
   -.165E+01 0.525E+01 0.434E+02   0.105E+01 -.479E+01 -.438E+02   0.593E+00 -.453E+00 0.453E+00   -.202E-02 -.186E-02 -.281E-02
   0.523E+01 0.276E+01 -.197E+04   -.548E+01 -.279E+01 0.197E+04   0.251E+00 0.190E-01 0.143E+01   0.206E-03 0.372E-02 -.512E-02
   0.391E+01 -.790E+00 -.309E+02   -.371E+01 0.736E+00 0.319E+02   -.212E+00 0.486E-01 -.964E+00   0.214E-02 0.284E-03 -.588E-02
   -.393E+01 0.119E+01 -.197E+04   0.390E+01 -.148E+01 0.197E+04   0.421E-01 0.283E+00 0.173E+01   0.843E-03 -.378E-02 -.819E-02
   -.299E-01 -.435E+01 -.197E+04   -.186E+00 0.439E+01 0.197E+04   0.217E+00 -.487E-01 0.173E+01   -.108E-02 0.406E-02 -.394E-02
 -----------------------------------------------------------------------------------------------
   0.104E+00 -.135E+00 0.332E+00   -.629E-12 0.464E-12 0.227E-12   -.109E+00 0.115E+00 -.176E+00   0.248E-01 -.678E-02 -.166E+00
 
 
 POSITION                                       TOTAL-FORCE (eV/Angst)
 -----------------------------------------------------------------------------------
      1.37532      0.79404     10.00000         0.170549      0.130547     -0.139734
     11.00045      1.58855     12.46982         0.004482      0.001038     -0.006348
      0.03197      0.00517     15.00666         0.005892      0.001639      0.004832
     11.00429      4.75482     14.94525         0.001004      0.001523      0.005533
      4.12597      5.55830     10.00000        -0.240042      0.104723     -0.120312
     12.37790      5.55830     10.00000        -0.012312      0.009292     -0.023973
      2.74995      4.76095     14.94410        -0.001624     -0.001094      0.005022
      5.50129      7.94043     10.00000        -0.198851      0.124487     -0.137116
     15.11925      8.73038     12.42768        -0.013040     -0.001904      0.000584
      4.13932      7.13797     14.95163         0.003366     -0.002488      0.002922
     11.00258      3.17617     10.00000        -0.117192      0.023400     -0.283508
      8.23190      6.35551     12.49363         0.000141     -0.002096     -0.003627
      9.60730      3.97652     12.43381        -0.004871      0.005189     -0.000350
      4.11217      3.96964     12.45974         0.003003      0.008238     -0.000693
      4.14183      2.34811     14.94278        -0.003339     -0.005393      0.003406
      6.87661      5.55830     10.00000         0.255800     -0.222623     -0.140597
      8.23642      0.02326     14.99176        -0.004311     -0.001291     -0.002304
      8.25194      7.94043     10.00000         0.153851      0.058835     -0.209607
     12.37676      8.74685     12.43817         0.005881      0.002036      0.001264
      9.63514      7.16963     15.01386        -0.001933     -0.001212      0.009711
      9.61179      8.77186     12.47176        -0.004287      0.005126      0.006767
     11.00258      7.94043     10.00000         0.069905      0.094686     -0.254159
      8.22111      4.73877     15.01753        -0.003234     -0.002780      0.003878
      5.50129      3.17617     10.00000         0.070862     -0.426891     -0.198407
      2.75105      1.60294     12.42716        -0.008440     -0.003703      0.000774
      6.87968      2.37148     14.76856        -0.001390     -0.001477      0.000046
      2.75369      0.00175     14.83733        -0.001149      0.000098      0.004584
      5.51191      4.75250     14.81777         0.002817     -0.000583      0.001995
      8.25194      3.17617     10.00000        -0.003409     -0.107198      0.180995
      6.87661      0.79404     10.00000         0.202208      0.055077      0.163949
      5.50065      1.60550     12.40926         0.004634      0.007221      0.009598
      5.51041      0.00064     14.83308        -0.002833      0.002061      0.001977
      4.12597      0.79404     10.00000         0.048688      0.149195      0.209139
      6.86510      8.74236     12.49038        -0.001187      0.010127      0.003666
     13.73710      6.35124     12.45412        -0.000844      0.002399     -0.004069
      6.88309      7.13898     14.85649        -0.001851      0.000223      0.004219
     12.37693      3.98573     12.45719         0.001088      0.002243      0.000196
      2.75065      3.17617     10.00000         0.052965     -0.135849      0.252935
      6.87168      3.96100     12.43725        -0.006050     -0.001833      0.005622
      9.62726      5.55830     10.00000        -0.052600     -0.073338      0.256343
     13.75323      7.94043     10.00000        -0.030980      0.161094      0.188388
     11.00623      6.34950     12.46953        -0.003316     -0.000387      0.001226
      9.62726      0.79404     10.00000        -0.320468      0.043809      0.192450
      8.22146      1.60084     12.39044        -0.011281      0.002693      0.001549
      9.61926      2.37729     14.82520        -0.004504     -0.002231      0.004792
      5.49003      6.35626     12.48131        -0.005260     -0.004394     -0.004044
      1.37965      2.37125     14.81540         0.003797     -0.007123     -0.002162
     12.37771      7.15468     14.83273        -0.000333     -0.001116      0.002645
 -----------------------------------------------------------------------------------
    total drift:                                0.019853     -0.027527     -0.010527


--------------------------------------------------------------------------------------------------------



  FREE ENERGIE OF THE ION-ELECTRON SYSTEM (eV)
  ---------------------------------------------------
  free  energy   TOTEN  =      -192.69898028 eV

  energy  without entropy=     -192.44794069  energy(sigma->0) =     -192.57346049
 
 d Force = 0.2431306E-03[ 0.418E-04, 0.444E-03]  d Energy = 0.2340006E-03 0.913E-05
 d Force = 0.3088166E+02[ 0.309E+02, 0.309E+02]  d Ewald  = 0.3088166E+02-0.283E-05


--------------------------------------------------------------------------------------------------------


    POTLOK:  cpu time    0.0577: real time    0.0578


--------------------------------------------------------------------------------------------------------


 stress matrix after NEB project (eV)
      0.00000      0.00000      0.00000
      0.00000      0.00000      0.00000
      0.00000      0.00000      0.00000
  FORCES: max atom, RMS     0.013191    0.006050
  FORCE total and by dimension    0.041915    0.013040
  Stress total and by dimension    0.000000    0.000000
 Conjugate gradient step on ions:
 trial-energy change:   -0.000234  1 .order   -0.000243   -0.000444   -0.000042
  (g-gl).g = 0.185E-03      g.g   = 0.162E-03  gl.gl    = 0.462E-03
 g(Force)  = 0.162E-03   g(Stress)= 0.000E+00 ortho     = 0.129E-04
 gamma     =   0.40038
 trial     =   2.66668
 opt step  =   2.99320  (harmonic =   2.94335) maximal distance =0.00361456
 next E    =  -192.698983   (d E  =  -0.00024)


--------------------------------------------------------------------------------------------------------


  
 reached required accuracy - stopping structural energy minimisation
     LOOP+:  cpu time   69.3380: real time   69.5980
    4ORBIT:  cpu time    0.0000: real time    0.0000

 total amount of memory used by VASP on root node    84353. kBytes
========================================================================

   base      :      30000. kBytes
   nonlr-proj:       4285. kBytes
   fftplans  :       4447. kBytes
   grid      :       6721. kBytes
   one-center:        124. kBytes
   wavefun   :      38776. kBytes
 
  
  
 General timing and accounting informations for this job:
 ========================================================
  
                  Total CPU time used (sec):     1938.075
                            User time (sec):     1858.326
                          System time (sec):       79.749
                         Elapsed time (sec):     1957.304
  
                   Maximum memory used (kb):      821880.
                   Average memory used (kb):           0.
  
                          Minor page faults:       646631
                          Major page faults:            2
                 Voluntary context switches:         8832
