unknown system                          
           1
    11.002582    0.000000    0.000000
     5.501291    9.528515    0.000000
     0.000000    0.000000   24.491785
   Au   Pd
  24  24
Direct configuration=     1
   0.08333333  0.08333333  0.40830017
   0.91666667  0.16666667  0.50000000
   0.00000000  0.00000000  0.59169983
   0.75000000  0.50000000  0.59169983
   0.08333333  0.58333333  0.40830017
   0.83333333  0.58333333  0.40830017
   0.00000000  0.50000000  0.59169983
   0.08333333  0.83333333  0.40830017
   0.91666667  0.91666667  0.50000000
   0.00000000  0.75000000  0.59169983
   0.83333333  0.33333333  0.40830017
   0.41666667  0.66666667  0.50000000
   0.66666667  0.41666667  0.50000000
   0.16666667  0.41666667  0.50000000
   0.25000000  0.25000000  0.59169983
   0.33333333  0.58333333  0.40830017
   0.75000000  0.00000000  0.59169983
   0.33333333  0.83333333  0.40830017
   0.66666667  0.91666667  0.50000000
   0.50000000  0.75000000  0.59169983
   0.41666667  0.91666667  0.50000000
   0.58333333  0.83333333  0.40830017
   0.50000000  0.50000000  0.59169983
   0.33333333  0.33333333  0.40830017
   0.16666667  0.16666667  0.50000000
   0.50000000  0.25000000  0.59169983
   0.25000000  0.00000000  0.59169983
   0.25000000  0.50000000  0.59169983
   0.58333333  0.33333333  0.40830017
   0.58333333  0.08333333  0.40830017
   0.41666667  0.16666667  0.50000000
   0.50000000  0.00000000  0.59169983
   0.33333333  0.08333333  0.40830017
   0.16666667  0.91666667  0.50000000
   0.91666667  0.66666667  0.50000000
   0.25000000  0.75000000  0.59169983
   0.91666667  0.41666667  0.50000000
   0.08333333  0.33333333  0.40830017
   0.41666667  0.41666667  0.50000000
   0.58333333  0.58333333  0.40830017
   0.83333333  0.83333333  0.40830017
   0.66666667  0.66666667  0.50000000
   0.83333333  0.08333333  0.40830017
   0.66666667  0.16666667  0.50000000
   0.75000000  0.25000000  0.59169983
   0.16666667  0.66666667  0.50000000
   0.00000000  0.25000000  0.59169983
   0.75000000  0.75000000  0.59169983
Direct configuration=     2
   0.08333333  0.08333333  0.40830017
   0.91687038  0.16708435  0.50033853
   0.00140163  0.00038923  0.59381738
   0.75105320  0.49966905  0.59357020
   0.08333333  0.58333333  0.40830017
   0.83333333  0.58333333  0.40830017
  -0.00063371  0.50037576  0.59350869
   0.08333333  0.83333333  0.40830017
   0.91672498  0.91615159  0.49923737
   0.00110727  0.74876622  0.59357857
   0.83333333  0.33333333  0.40830017
   0.41566336  0.66657577  0.50004186
   0.66639999  0.41610114  0.49965561
   0.16672606  0.41652644  0.50003686
   0.25105926  0.24872713  0.59348336
   0.33333333  0.58333333  0.40830017
   0.74806153  0.00131066  0.59386414
   0.33333333  0.83333333  0.40830017
   0.66662627  0.91676663  0.49998481
   0.49970144  0.75132256  0.59387953
   0.41515188  0.91900872  0.50041106
   0.58333333  0.83333333  0.40830017
   0.49898813  0.49898501  0.59385119
   0.33333333  0.33333333  0.40830017
   0.16680670  0.16659285  0.50005688
   0.50021586  0.24980792  0.59244832
   0.24974196  0.00029678  0.59266879
   0.25072250  0.50009312  0.59263746
   0.58333333  0.33333333  0.40830017
   0.58333333  0.08333333  0.40830017
   0.41730723  0.16669888  0.49999949
   0.49978242  0.00034877  0.59281587
   0.33333333  0.08333333  0.40830017
   0.16711347  0.91654228  0.50045849
   0.91598190  0.66678136  0.49997676
   0.24974801  0.75001744  0.59270342
   0.91730801  0.41657640  0.50005311
   0.08333333  0.33333333  0.40830017
   0.41706829  0.41544314  0.50023847
   0.58333333  0.58333333  0.40830017
   0.83333333  0.83333333  0.40830017
   0.66801534  0.66616997  0.50000311
   0.83333333  0.08333333  0.40830017
   0.66491473  0.16779091  0.49973907
   0.74971861  0.24985952  0.59288644
   0.16706669  0.66649972  0.50048971
   0.00019310  0.24952745  0.59267175
   0.74965001  0.75005946  0.59279041
Direct configuration=     3
   0.08333333  0.08333333  0.40830017
   0.91747270  0.16831935  0.50133948
   0.00554590  0.00154009  0.60007846
   0.75416724  0.49869050  0.59910041
   0.08333333  0.58333333  0.40830017
   0.83333333  0.58333333  0.40830017
  -0.00250745  0.50148679  0.59885706
   0.08333333  0.83333333  0.40830017
   0.91689739  0.91462862  0.49698245
   0.00438119  0.74511823  0.59913352
   0.83333333  0.33333333  0.40830017
   0.41269685  0.66630703  0.50016564
   0.66561147  0.41442901  0.49863732
   0.16690169  0.41611182  0.50014586
   0.25419124  0.24496358  0.59875680
   0.33333333  0.58333333  0.40830017
   0.74232996  0.00518597  0.60026349
   0.33333333  0.83333333  0.40830017
   0.66650682  0.91706221  0.49993989
   0.49881868  0.75523304  0.60032437
   0.41067302  0.92593361  0.50162647
   0.58333333  0.83333333  0.40830017
   0.49599630  0.49598394  0.60021225
   0.33333333  0.33333333  0.40830017
   0.16722075  0.16637458  0.50022506
   0.50085410  0.24923999  0.59466140
   0.24897899  0.00117430  0.59553377
   0.25285877  0.50036844  0.59540979
   0.58333333  0.33333333  0.40830017
   0.58333333  0.08333333  0.40830017
   0.41920123  0.16679412  0.49999800
   0.49913910  0.00137998  0.59611572
   0.33333333  0.08333333  0.40830017
   0.16843456  0.91617448  0.50181412
   0.91395721  0.66712048  0.49990803
   0.24900293  0.75006900  0.59567080
   0.91920431  0.41630949  0.50021014
   0.08333333  0.33333333  0.40830017
   0.41825581  0.41182548  0.50094356
   0.58333333  0.58333333  0.40830017
   0.83333333  0.83333333  0.40830017
   0.67200305  0.66470135  0.50001231
   0.83333333  0.08333333  0.40830017
   0.65973469  0.17111502  0.49896756
   0.74888662  0.24944414  0.59639497
   0.16824945  0.66600609  0.50193766
   0.00076404  0.24813023  0.59554547
   0.74861517  0.75023528  0.59601500
Direct configuration=     4
   0.08333333  0.08333333  0.40830017
   0.91742473  0.16729591  0.50282692
   0.00487978  0.00109978  0.60238215
   0.75291349  0.49848727  0.60104095
   0.08333333  0.58333333  0.40830017
   0.83333333  0.58333333  0.40830017
  -0.00121796  0.50063606  0.60088146
   0.08333333  0.83333333  0.40830017
   0.91648371  0.91535441  0.49879593
   0.00355859  0.74635784  0.60111978
   0.83333333  0.33333333  0.40830017
   0.41435155  0.66586466  0.50194864
   0.66479874  0.41570379  0.50023414
   0.16668793  0.41590045  0.50177182
   0.25415015  0.24527052  0.60078976
   0.33333333  0.58333333  0.40830017
   0.74318985  0.00475210  0.60248035
   0.33333333  0.83333333  0.40830017
   0.66658179  0.91753836  0.50129941
   0.49871482  0.75487166  0.60252890
   0.41128729  0.92531913  0.50292130
   0.58333333  0.83333333  0.40830017
   0.49673972  0.49627605  0.60257363
   0.33333333  0.33333333  0.40830017
   0.16685847  0.16770607  0.50112543
   0.50046907  0.24912021  0.59580447
   0.24928252  0.00120700  0.59704023
   0.25260055  0.49939817  0.59661946
   0.58333333  0.33333333  0.40830017
   0.58333333  0.08333333  0.40830017
   0.41870324  0.16731149  0.50081456
   0.49925153  0.00136182  0.59754189
   0.33333333  0.08333333  0.40830017
   0.16745299  0.91661977  0.50302751
   0.91463131  0.66687108  0.50118351
   0.24974756  0.74995810  0.59710479
   0.91946067  0.41643073  0.50141006
   0.08333333  0.33333333  0.40830017
   0.41800624  0.41202243  0.50194076
   0.58333333  0.58333333  0.40830017
   0.83333333  0.83333333  0.40830017
   0.67090351  0.66442216  0.50139105
   0.83333333  0.08333333  0.40830017
   0.66051803  0.17002712  0.49968981
   0.74891677  0.24946893  0.59762772
   0.16742373  0.66580972  0.50311813
   0.00103645  0.24841446  0.59681087
   0.74839457  0.75109842  0.59728187
Direct configuration=     5
   0.08333333  0.08333333  0.40830017
   0.91728083  0.16422559  0.50728922
   0.00288142 -0.00022116  0.60929319
   0.74915222  0.49787757  0.60686256
   0.08333333  0.58333333  0.40830017
   0.83333333  0.58333333  0.40830017
   0.00265053  0.49808388  0.60695465
   0.08333333  0.83333333  0.40830017
   0.91524269  0.91753178  0.50423635
   0.00109081  0.75007667  0.60707855
   0.83333333  0.33333333  0.40830017
   0.41931565  0.66453757  0.50729763
   0.66236054  0.41952814  0.50502462
   0.16604665  0.41526635  0.50664968
   0.25402690  0.24619136  0.60688865
   0.33333333  0.58333333  0.40830017
   0.74576954  0.00345050  0.60913096
   0.33333333  0.83333333  0.40830017
   0.66680670  0.91896681  0.50537797
   0.49840326  0.75378752  0.60914247
   0.41313008  0.92347568  0.50680577
   0.58333333  0.83333333  0.40830017
   0.49896998  0.49715236  0.60965778
   0.33333333  0.33333333  0.40830017
   0.16577165  0.17170054  0.50382652
   0.49931397  0.24876087  0.59923365
   0.25019311  0.00130509  0.60155959
   0.25182591  0.49648739  0.60024848
   0.58333333  0.33333333  0.40830017
   0.58333333  0.08333333  0.40830017
   0.41720928  0.16886359  0.50326425
   0.49958885  0.00130735  0.60182038
   0.33333333  0.08333333  0.40830017
   0.16450827  0.91795565  0.50666766
   0.91665360  0.66612286  0.50500995
   0.25198144  0.74962541  0.60140676
   0.92022977  0.41679447  0.50500983
   0.08333333  0.33333333  0.40830017
   0.41725753  0.41261328  0.50493237
   0.58333333  0.58333333  0.40830017
   0.83333333  0.83333333  0.40830017
   0.66760488  0.66358457  0.50552725
   0.83333333  0.08333333  0.40830017
   0.66286805  0.16676342  0.50185658
   0.74900722  0.24954330  0.60132599
   0.16494658  0.66522060  0.50665954
   0.00185367  0.24926717  0.60060707
   0.74773278  0.75368784  0.60108249
Direct configuration=     6
   0.08333333  0.08333333  0.40830017
   0.91725187  0.16360776  0.50818715
   0.00247930 -0.00048696  0.61068387
   0.74839536  0.49775489  0.60803401
   0.08333333  0.58333333  0.40830017
   0.83333333  0.58333333  0.40830017
   0.00342897  0.49757031  0.60817673
   0.08333333  0.83333333  0.40830017
   0.91499297  0.91796992  0.50533111
   0.00059423  0.75082499  0.60827760
   0.83333333  0.33333333  0.40830017
   0.42031456  0.66427052  0.50837398
   0.66186991  0.42029770  0.50598858
   0.16591761  0.41513875  0.50763123
   0.25400210  0.24637665  0.60811590
   0.33333333  0.58333333  0.40830017
   0.74628863  0.00318859  0.61046923
   0.33333333  0.83333333  0.40830017
   0.66685196  0.91925425  0.50619869
   0.49834056  0.75356936  0.61047329
   0.41350090  0.92310473  0.50758742
   0.58333333  0.83333333  0.40830017
   0.49941877  0.49732869  0.61108329
   0.33333333  0.33333333  0.40830017
   0.16555295  0.17250433  0.50437005
   0.49908153  0.24868857  0.59992369
   0.25037634  0.00132482  0.60246900
   0.25167004  0.49590166  0.60097873
   0.58333333  0.33333333  0.40830017
   0.58333333  0.08333333  0.40830017
   0.41690866  0.16917592  0.50375719
   0.49965672  0.00129639  0.60268132
   0.33333333  0.08333333  0.40830017
   0.16391572  0.91822446  0.50740015
   0.91706054  0.66597230  0.50577993
   0.25243095  0.74955846  0.60227243
   0.92038454  0.41686766  0.50573420
   0.08333333  0.33333333  0.40830017
   0.41710687  0.41273217  0.50553436
   0.58333333  0.58333333  0.40830017
   0.83333333  0.83333333  0.40830017
   0.66694111  0.66341603  0.50635956
   0.83333333  0.08333333  0.40830017
   0.66334093  0.16610668  0.50229258
   0.74902542  0.24955826  0.60207018
   0.16444811  0.66510205  0.50737216
   0.00201812  0.24943875  0.60137096
   0.74759961  0.75420890  0.60184727
Direct configuration=     7
   0.08333333  0.08333333  0.40830017
   0.91595446  0.16636456  0.50892400
   0.00240855  0.00005124  0.61202284
   0.74994041  0.49886456  0.60907660
   0.08333333  0.58333333  0.40830017
   0.83333333  0.58333333  0.40830017
   0.00046832  0.49944879  0.60943625
   0.08333333  0.83333333  0.40830017
   0.91578600  0.91629864  0.50692225
   0.00098072  0.75007552  0.60935558
   0.83333333  0.33333333  0.40830017
   0.41579245  0.66714524  0.50948500
   0.66554128  0.41595546  0.50711067
   0.16618507  0.41613913  0.50836102
   0.25388968  0.24562808  0.60949406
   0.33333333  0.58333333  0.40830017
   0.74667613  0.00347112  0.61177905
   0.33333333  0.83333333  0.40830017
   0.66685578  0.91751293  0.50713488
   0.49908223  0.75325378  0.61186908
   0.41348225  0.92157928  0.50834402
   0.58333333  0.83333333  0.40830017
   0.49824139  0.49726188  0.61247556
   0.33333333  0.33333333  0.40830017
   0.16610736  0.16996806  0.50549143
   0.50029798  0.24861883  0.60077652
   0.24970290  0.00128733  0.60352317
   0.25206829  0.49758051  0.60236564
   0.58333333  0.33333333  0.40830017
   0.58333333  0.08333333  0.40830017
   0.41622906  0.16870179  0.50483893
   0.50005642  0.00105016  0.60376400
   0.33333333  0.08333333  0.40830017
   0.16561756  0.91712646  0.50838445
   0.91602507  0.66643075  0.50716603
   0.25197475  0.74905869  0.60342230
   0.91716505  0.41766508  0.50707017
   0.08333333  0.33333333  0.40830017
   0.41708919  0.41458297  0.50644038
   0.58333333  0.58333333  0.40830017
   0.83333333  0.83333333  0.40830017
   0.66803888  0.66534725  0.50773798
   0.83333333  0.08333333  0.40830017
   0.66388936  0.16747421  0.50359461
   0.74904938  0.24896936  0.60300040
   0.16530567  0.66610438  0.50829314
   0.00163169  0.24925387  0.60243468
   0.74878459  0.75196812  0.60282400
Direct configuration=     8
   0.08333333  0.08333333  0.40830017
   0.91564274  0.16702692  0.50910104
   0.00239155  0.00018056  0.61234455
   0.75031163  0.49913117  0.60932710
   0.08333333  0.58333333  0.40830017
   0.83333333  0.58333333  0.40830017
  -0.00024302  0.49990012  0.60973887
   0.08333333  0.83333333  0.40830017
   0.91597654  0.91589708  0.50730454
   0.00107359  0.74989545  0.60961458
   0.83333333  0.33333333  0.40830017
   0.41470594  0.66783593  0.50975194
   0.66642338  0.41491217  0.50738027
   0.16624933  0.41637949  0.50853636
   0.25386266  0.24544823  0.60982518
   0.33333333  0.58333333  0.40830017
   0.74676923  0.00353901  0.61209375
   0.33333333  0.83333333  0.40830017
   0.66685670  0.91709456  0.50735981
   0.49926042  0.75317795  0.61220444
   0.41347776  0.92121277  0.50852581
   0.58333333  0.83333333  0.40830017
   0.49795850  0.49724582  0.61281008
   0.33333333  0.33333333  0.40830017
   0.16624056  0.16935868  0.50576085
   0.50059025  0.24860208  0.60098143
   0.24954109  0.00127833  0.60377645
   0.25216398  0.49798388  0.60269886
   0.58333333  0.33333333  0.40830017
   0.58333333  0.08333333  0.40830017
   0.41606577  0.16858788  0.50509884
   0.50015246  0.00099100  0.60402413
   0.33333333  0.08333333  0.40830017
   0.16602645  0.91686264  0.50862095
   0.91577629  0.66654090  0.50749906
   0.25186514  0.74893862  0.60369857
   0.91639151  0.41785667  0.50739116
   0.08333333  0.33333333  0.40830017
   0.41708495  0.41502765  0.50665807
   0.58333333  0.58333333  0.40830017
   0.83333333  0.83333333  0.40830017
   0.66830263  0.66581126  0.50806916
   0.83333333  0.08333333  0.40830017
   0.66402113  0.16780278  0.50390744
   0.74905514  0.24882786  0.60322390
   0.16551171  0.66634520  0.50851442
   0.00153884  0.24920944  0.60269025
   0.74906930  0.75142974  0.60305868
Direct configuration=     9
   0.08333333  0.08333333  0.40830017
   0.91727210  0.16609623  0.50892159
   0.00282018  0.00054489  0.61260405
   0.75067799  0.49939161  0.60959962
   0.08333333  0.58333333  0.40830017
   0.83333333  0.58333333  0.40830017
  -0.00080582  0.50044710  0.61000689
   0.08333333  0.83333333  0.40830017
   0.91651707  0.91567238  0.50773934
   0.00161732  0.74909746  0.60991101
   0.83333333  0.33333333  0.40830017
   0.41511088  0.66689967  0.50978214
   0.66529729  0.41643046  0.50759401
   0.16568173  0.41669734  0.50865153
   0.25329962  0.24601329  0.61012596
   0.33333333  0.58333333  0.40830017
   0.74680720  0.00310849  0.61235351
   0.33333333  0.83333333  0.40830017
   0.66633377  0.91761363  0.50748751
   0.49955350  0.75284847  0.61259708
   0.41368786  0.92045727  0.50869464
   0.58333333  0.83333333  0.40830017
   0.49810433  0.49711673  0.61308189
   0.33333333  0.33333333  0.40830017
   0.16620910  0.16810913  0.50636604
   0.50103533  0.24867763  0.60133357
   0.24929233  0.00078667  0.60428877
   0.25180944  0.49885187  0.60353842
   0.58333333  0.33333333  0.40830017
   0.58333333  0.08333333  0.40830017
   0.41609997  0.16815407  0.50570227
   0.50068360  0.00058592  0.60445552
   0.33333333  0.08333333  0.40830017
   0.16535104  0.91765312  0.50894277
   0.91592760  0.66612114  0.50794044
   0.25092866  0.74921457  0.60463809
   0.91557296  0.41847589  0.50793541
   0.08333333  0.33333333  0.40830017
   0.41754086  0.41602679  0.50699294
   0.58333333  0.58333333  0.40830017
   0.83333333  0.83333333  0.40830017
   0.66790924  0.66597687  0.50846321
   0.83333333  0.08333333  0.40830017
   0.66370493  0.16754556  0.50460712
   0.74901551  0.24917037  0.60401952
   0.16563596  0.66700611  0.50872135
   0.00118638  0.24908596  0.60332902
   0.74956131  0.75069530  0.60386555
Direct configuration=    10
   0.08333333  0.08333333  0.40830017
   0.91782017  0.16578317  0.50886122
   0.00296436  0.00066744  0.61269133
   0.75080123  0.49947922  0.60969128
   0.08333333  0.58333333  0.40830017
   0.83333333  0.58333333  0.40830017
  -0.00099513  0.50063109  0.61009704
   0.08333333  0.83333333  0.40830017
   0.91669888  0.91559680  0.50788560
   0.00180021  0.74882904  0.61001073
   0.83333333  0.33333333  0.40830017
   0.41524709  0.66658474  0.50979229
   0.66491850  0.41694117  0.50766591
   0.16549081  0.41680426  0.50869027
   0.25311022  0.24620337  0.61022714
   0.33333333  0.58333333  0.40830017
   0.74681997  0.00296368  0.61244089
   0.33333333  0.83333333  0.40830017
   0.66615788  0.91778823  0.50753046
   0.49965208  0.75273765  0.61272915
   0.41375853  0.92020314  0.50875143
   0.58333333  0.83333333  0.40830017
   0.49815339  0.49707331  0.61317332
   0.33333333  0.33333333  0.40830017
   0.16619851  0.16768882  0.50656961
   0.50118505  0.24870305  0.60145202
   0.24920865  0.00062128  0.60446110
   0.25169019  0.49914383  0.60382083
   0.58333333  0.33333333  0.40830017
   0.58333333  0.08333333  0.40830017
   0.41611148  0.16800814  0.50590525
   0.50086226  0.00044967  0.60460062
   0.33333333  0.08333333  0.40830017
   0.16512385  0.91791901  0.50905102
   0.91597850  0.66597994  0.50808891
   0.25061365  0.74930740  0.60495412
   0.91529762  0.41868418  0.50811847
   0.08333333  0.33333333  0.40830017
   0.41769422  0.41636288  0.50710558
   0.58333333  0.58333333  0.40830017
   0.83333333  0.83333333  0.40830017
   0.66777691  0.66603258  0.50859575
   0.83333333  0.08333333  0.40830017
   0.66359857  0.16745904  0.50484247
   0.74900218  0.24928559  0.60428715
   0.16567775  0.66722841  0.50879096
   0.00106782  0.24904442  0.60354388
   0.74972681  0.75044825  0.60413696
Direct configuration=    11
   0.08333333  0.08333333  0.40830017
   0.91730025  0.16601533  0.50872242
   0.00266717  0.00077710  0.61276646
   0.75046613  0.49916611  0.60985467
   0.08333333  0.58333333  0.40830017
   0.83333333  0.58333333  0.40830017
  -0.00010161  0.49996248  0.61014692
   0.08333333  0.83333333  0.40830017
   0.91634463  0.91586939  0.50790995
   0.00176312  0.74898175  0.61016837
   0.83333333  0.33333333  0.40830017
   0.41548933  0.66664035  0.50979322
   0.66484732  0.41734407  0.50768061
   0.16567882  0.41633966  0.50872657
   0.25286635  0.24675940  0.61017700
   0.33333333  0.58333333  0.40830017
   0.74729595  0.00233891  0.61243828
   0.33333333  0.83333333  0.40830017
   0.66638770  0.91792385  0.50752632
   0.49935691  0.75261231  0.61282540
   0.41378344  0.91984894  0.50886810
   0.58333333  0.83333333  0.40830017
   0.49847889  0.49731685  0.61323666
   0.33333333  0.33333333  0.40830017
   0.16635518  0.16788669  0.50692250
   0.50083911  0.24890193  0.60173375
   0.24975290  0.00021100  0.60482263
   0.25148832  0.49901297  0.60426721
   0.58333333  0.33333333  0.40830017
   0.58333333  0.08333333  0.40830017
   0.41562434  0.16850093  0.50623384
   0.50083920  0.00023148  0.60486853
   0.33333333  0.08333333  0.40830017
   0.16533675  0.91758492  0.50922831
   0.91590331  0.66612018  0.50819003
   0.25056633  0.74947200  0.60554134
   0.91554495  0.41851780  0.50832683
   0.08333333  0.33333333  0.40830017
   0.41731165  0.41608202  0.50727826
   0.58333333  0.58333333  0.40830017
   0.83333333  0.83333333  0.40830017
   0.66726146  0.66614955  0.50869251
   0.83333333  0.08333333  0.40830017
   0.66370462  0.16739780  0.50524454
   0.74935388  0.24954344  0.60468454
   0.16566717  0.66729521  0.50888671
   0.00081708  0.24918062  0.60401232
   0.74961589  0.75086262  0.60472134
Direct configuration=    12
   0.08333333  0.08333333  0.40830017
   0.91711626  0.16609749  0.50867330
   0.00256199  0.00081590  0.61279304
   0.75034754  0.49905531  0.60991249
   0.08333333  0.58333333  0.40830017
   0.83333333  0.58333333  0.40830017
   0.00021460  0.49972587  0.61016457
   0.08333333  0.83333333  0.40830017
   0.91621926  0.91596585  0.50791857
   0.00175000  0.74903579  0.61022416
   0.83333333  0.33333333  0.40830017
   0.41557506  0.66666003  0.50979354
   0.66482214  0.41748665  0.50768581
   0.16574535  0.41617525  0.50873941
   0.25278005  0.24695617  0.61015926
   0.33333333  0.58333333  0.40830017
   0.74746439  0.00211781  0.61243736
   0.33333333  0.83333333  0.40830017
   0.66646903  0.91797185  0.50752485
   0.49925246  0.75256796  0.61285946
   0.41379225  0.91972359  0.50890938
   0.58333333  0.83333333  0.40830017
   0.49859409  0.49740304  0.61325907
   0.33333333  0.33333333  0.40830017
   0.16641062  0.16795672  0.50704739
   0.50071669  0.24897231  0.60183344
   0.24994550  0.00006581  0.60495057
   0.25141689  0.49896666  0.60442517
   0.58333333  0.33333333  0.40830017
   0.58333333  0.08333333  0.40830017
   0.41545195  0.16867532  0.50635012
   0.50083104  0.00015427  0.60496333
   0.33333333  0.08333333  0.40830017
   0.16541209  0.91746669  0.50929106
   0.91587671  0.66616981  0.50822581
   0.25054958  0.74953025  0.60574915
   0.91563248  0.41845891  0.50840057
   0.08333333  0.33333333  0.40830017
   0.41717626  0.41598263  0.50733938
   0.58333333  0.58333333  0.40830017
   0.83333333  0.83333333  0.40830017
   0.66707905  0.66619094  0.50872675
   0.83333333  0.08333333  0.40830017
   0.66374215  0.16737613  0.50538682
   0.74947834  0.24963470  0.60482517
   0.16566342  0.66731885  0.50892059
   0.00072834  0.24922881  0.60417809
   0.74957664  0.75100925  0.60492815
Direct configuration=    13
   0.08333333  0.08333333  0.40830017
   0.91658286  0.16653365  0.50874417
   0.00242480  0.00090177  0.61278414
   0.75040748  0.49916462  0.61002900
   0.08333333  0.58333333  0.40830017
   0.83333333  0.58333333  0.40830017
   0.00018734  0.49960600  0.61016710
   0.08333333  0.83333333  0.40830017
   0.91616659  0.91609279  0.50779216
   0.00177253  0.74908934  0.61031058
   0.83333333  0.33333333  0.40830017
   0.41517737  0.66676831  0.50987667
   0.66497782  0.41703677  0.50765084
   0.16567270  0.41638611  0.50870672
   0.25301640  0.24664303  0.61012242
   0.33333333  0.58333333  0.40830017
   0.74744681  0.00229018  0.61237742
   0.33333333  0.83333333  0.40830017
   0.66624554  0.91790703  0.50756962
   0.49921770  0.75253998  0.61290448
   0.41377120  0.92017992  0.50899845
   0.58333333  0.83333333  0.40830017
   0.49837564  0.49751171  0.61324227
   0.33333333  0.33333333  0.40830017
   0.16634359  0.16805883  0.50722869
   0.50074938  0.24894550  0.60210916
   0.25015147  0.00016770  0.60519353
   0.25159425  0.49894551  0.60463362
   0.58333333  0.33333333  0.40830017
   0.58333333  0.08333333  0.40830017
   0.41554761  0.16854568  0.50649600
   0.50065998  0.00019705  0.60512033
   0.33333333  0.08333333  0.40830017
   0.16547616  0.91726120  0.50946704
   0.91570265  0.66625904  0.50828499
   0.25074065  0.74941762  0.60603047
   0.91595273  0.41826187  0.50848341
   0.08333333  0.33333333  0.40830017
   0.41691515  0.41571064  0.50746463
   0.58333333  0.58333333  0.40830017
   0.83333333  0.83333333  0.40830017
   0.66726057  0.66635274  0.50882360
   0.83333333  0.08333333  0.40830017
   0.66360705  0.16782128  0.50562079
   0.74959358  0.24944532  0.60498198
   0.16570847  0.66706016  0.50910356
   0.00083890  0.24903177  0.60443678
   0.74948209  0.75097350  0.60520304
Direct configuration=    14
   0.08333333  0.08333333  0.40830017
   0.91636133  0.16671480  0.50877361
   0.00236782  0.00093743  0.61278045
   0.75043238  0.49921003  0.61007739
   0.08333333  0.58333333  0.40830017
   0.83333333  0.58333333  0.40830017
   0.00017602  0.49955622  0.61016816
   0.08333333  0.83333333  0.40830017
   0.91614472  0.91614551  0.50773965
   0.00178189  0.74911159  0.61034647
   0.83333333  0.33333333  0.40830017
   0.41501220  0.66681328  0.50991120
   0.66504248  0.41684993  0.50763631
   0.16564252  0.41647369  0.50869315
   0.25311457  0.24651297  0.61010712
   0.33333333  0.58333333  0.40830017
   0.74743950  0.00236177  0.61235252
   0.33333333  0.83333333  0.40830017
   0.66615272  0.91788011  0.50758821
   0.49920327  0.75252836  0.61292318
   0.41376246  0.92036944  0.50903545
   0.58333333  0.83333333  0.40830017
   0.49828492  0.49755684  0.61323529
   0.33333333  0.33333333  0.40830017
   0.16631574  0.16810124  0.50730399
   0.50076295  0.24893437  0.60222367
   0.25023701  0.00021002  0.60529444
   0.25166792  0.49893672  0.60472019
   0.58333333  0.33333333  0.40830017
   0.58333333  0.08333333  0.40830017
   0.41558734  0.16849184  0.50655659
   0.50058893  0.00021481  0.60518554
   0.33333333  0.08333333  0.40830017
   0.16550278  0.91717586  0.50954014
   0.91563036  0.66629611  0.50830957
   0.25082000  0.74937085  0.60614730
   0.91608573  0.41818003  0.50851781
   0.08333333  0.33333333  0.40830017
   0.41680670  0.41559767  0.50751665
   0.58333333  0.58333333  0.40830017
   0.83333333  0.83333333  0.40830017
   0.66733595  0.66641994  0.50886383
   0.83333333  0.08333333  0.40830017
   0.66355094  0.16800616  0.50571796
   0.74964144  0.24936667  0.60504711
   0.16572719  0.66695273  0.50917955
   0.00088482  0.24894993  0.60454422
   0.74944282  0.75095866  0.60531720
Direct configuration=    15
   0.08333333  0.08333333  0.40830017
   0.91663726  0.16661703  0.50892259
   0.00259768  0.00080279  0.61273749
   0.75053898  0.49919731  0.61013706
   0.08333333  0.58333333  0.40830017
   0.83333333  0.58333333  0.40830017
   0.00003794  0.49968673  0.61015947
   0.08333333  0.83333333  0.40830017
   0.91609057  0.91616781  0.50759059
   0.00176581  0.74907597  0.61039536
   0.83333333  0.33333333  0.40830017
   0.41498187  0.66669167  0.51000277
   0.66465956  0.41721340  0.50763621
   0.16553638  0.41670381  0.50868694
   0.25326306  0.24634214  0.61010773
   0.33333333  0.58333333  0.40830017
   0.74724916  0.00249828  0.61225582
   0.33333333  0.83333333  0.40830017
   0.66615489  0.91797721  0.50767948
   0.49931244  0.75251080  0.61295187
   0.41348950  0.92063618  0.50909841
   0.58333333  0.83333333  0.40830017
   0.49836130  0.49740669  0.61319303
   0.33333333  0.33333333  0.40830017
   0.16602427  0.16809098  0.50739006
   0.50087956  0.24888045  0.60252963
   0.25013298  0.00028888  0.60550292
   0.25168220  0.49891249  0.60485286
   0.58333333  0.33333333  0.40830017
   0.58333333  0.08333333  0.40830017
   0.41581746  0.16840084  0.50660718
   0.50068158  0.00017181  0.60536482
   0.33333333  0.08333333  0.40830017
   0.16532150  0.91738634  0.50972941
   0.91545783  0.66645070  0.50839361
   0.25086091  0.74940444  0.60634566
   0.91612866  0.41814108  0.50857502
   0.08333333  0.33333333  0.40830017
   0.41675800  0.41552984  0.50762887
   0.58333333  0.58333333  0.40830017
   0.83333333  0.83333333  0.40830017
   0.66747199  0.66626085  0.50897261
   0.83333333  0.08333333  0.40830017
   0.66328818  0.16804275  0.50583971
   0.74949884  0.24944221  0.60518139
   0.16561711  0.66682872  0.50939602
   0.00097550  0.24876081  0.60471419
   0.74944185  0.75089293  0.60547604
Direct configuration=    16
   0.08333333  0.08333333  0.40830017
   0.91669977  0.16659488  0.50895634
   0.00264975  0.00077229  0.61272776
   0.75056312  0.49919443  0.61015057
   0.08333333  0.58333333  0.40830017
   0.83333333  0.58333333  0.40830017
   0.00000667  0.49971630  0.61015750
   0.08333333  0.83333333  0.40830017
   0.91607830  0.91617286  0.50755682
   0.00176217  0.74906791  0.61040643
   0.83333333  0.33333333  0.40830017
   0.41497500  0.66666413  0.51002351
   0.66457282  0.41729574  0.50763618
   0.16551234  0.41675593  0.50868554
   0.25329670  0.24630345  0.61010787
   0.33333333  0.58333333  0.40830017
   0.74720604  0.00252920  0.61223392
   0.33333333  0.83333333  0.40830017
   0.66615538  0.91799920  0.50770015
   0.49933717  0.75250683  0.61295837
   0.41342767  0.92069660  0.50911267
   0.58333333  0.83333333  0.40830017
   0.49837860  0.49737268  0.61318346
   0.33333333  0.33333333  0.40830017
   0.16595824  0.16808865  0.50740956
   0.50090598  0.24886824  0.60259894
   0.25010942  0.00030674  0.60555014
   0.25168543  0.49890700  0.60488291
   0.58333333  0.33333333  0.40830017
   0.58333333  0.08333333  0.40830017
   0.41586959  0.16838023  0.50661864
   0.50070256  0.00016206  0.60540543
   0.33333333  0.08333333  0.40830017
   0.16528043  0.91743402  0.50977229
   0.91541875  0.66648571  0.50841265
   0.25087017  0.74941205  0.60639059
   0.91613839  0.41813226  0.50858798
   0.08333333  0.33333333  0.40830017
   0.41674697  0.41551448  0.50765429
   0.58333333  0.58333333  0.40830017
   0.83333333  0.83333333  0.40830017
   0.66750280  0.66622481  0.50899725
   0.83333333  0.08333333  0.40830017
   0.66322866  0.16805104  0.50586728
   0.74946654  0.24945932  0.60521181
   0.16559218  0.66680063  0.50944505
   0.00099604  0.24871797  0.60475269
   0.74944163  0.75087804  0.60551202
Direct configuration=    17
   0.08333333  0.08333333  0.40830017
   0.91661027  0.16663035  0.50906328
   0.00270365  0.00057617  0.61271336
   0.75061813  0.49902752  0.61017639