  56  56   0   0
  0.4903395E+02  0.1100258E-08  0.1100258E-08  0.2619179E-08  0.3500000E-15
  1.000000000000000E-004
  CAR 
 unknown system                          
      6.46776352    -21.35784994  301     -1.39713807      1.00000000
    -21.358  0.0000E+00  0.0000E+00
    -21.265  0.0000E+00  0.0000E+00
    -21.172  0.0000E+00  0.0000E+00
    -21.080  0.0000E+00  0.0000E+00
    -20.987  0.0000E+00  0.0000E+00
    -20.894  0.0000E+00  0.0000E+00
    -20.801  0.0000E+00  0.0000E+00
    -20.709  0.0000E+00  0.0000E+00
    -20.616  0.1809E-14  0.1678E-15
    -20.523  0.1631E-10  0.1513E-11
    -20.430  0.2748E-07  0.2550E-08
    -20.338  0.8821E-05  0.8207E-06
    -20.245  0.5566E-03  0.5245E-04
    -20.152  0.7282E-02  0.7279E-03
    -20.059  0.2236E-01  0.2802E-02
    -19.967  0.2803E-01  0.5402E-02
    -19.874  0.3540E-01  0.8686E-02
    -19.781  0.3210E-01  0.1166E-01
    -19.688  0.3172E-01  0.1461E-01
    -19.596  0.4338E-01  0.1863E-01
    -19.503  0.4114E-01  0.2244E-01
    -19.410  0.3391E-01  0.2559E-01
    -19.317  0.3209E-01  0.2857E-01
    -19.225  0.2634E-01  0.3101E-01
    -19.132  0.9741E-02  0.3191E-01
    -19.039  0.9294E-03  0.3200E-01
    -18.946  0.1882E-04  0.3200E-01
    -18.854  0.7535E-07  0.3200E-01
    -18.761  0.5750E-10  0.3200E-01
    -18.668  0.8192E-14  0.3200E-01
    -18.575  0.0000E+00  0.3200E-01
    -18.483  0.0000E+00  0.3200E-01
    -18.390  0.0000E+00  0.3200E-01
    -18.297  0.0000E+00  0.3200E-01
    -18.204  0.0000E+00  0.3200E-01
    -18.112  0.0000E+00  0.3200E-01
    -18.019  0.0000E+00  0.3200E-01
    -17.926  0.0000E+00  0.3200E-01
    -17.833  0.0000E+00  0.3200E-01
    -17.741  0.0000E+00  0.3200E-01
    -17.648  0.0000E+00  0.3200E-01
    -17.555  0.0000E+00  0.3200E-01
    -17.462  0.0000E+00  0.3200E-01
    -17.370  0.0000E+00  0.3200E-01
    -17.277  0.0000E+00  0.3200E-01
    -17.184  0.0000E+00  0.3200E-01
    -17.091  0.0000E+00  0.3200E-01
    -16.999  0.0000E+00  0.3200E-01
    -16.906  0.0000E+00  0.3200E-01
    -16.813  0.0000E+00  0.3200E-01
    -16.720  0.0000E+00  0.3200E-01
    -16.627  0.0000E+00  0.3200E-01
    -16.535  0.0000E+00  0.3200E-01
    -16.442  0.0000E+00  0.3200E-01
    -16.349  0.0000E+00  0.3200E-01
    -16.256  0.0000E+00  0.3200E-01
    -16.164  0.0000E+00  0.3200E-01
    -16.071  0.0000E+00  0.3200E-01
    -15.978  0.0000E+00  0.3200E-01
    -15.885  0.0000E+00  0.3200E-01
    -15.793  0.0000E+00  0.3200E-01
    -15.700  0.0000E+00  0.3200E-01
    -15.607  0.0000E+00  0.3200E-01
    -15.514  0.0000E+00  0.3200E-01
    -15.422  0.0000E+00  0.3200E-01
    -15.329  0.0000E+00  0.3200E-01
    -15.236  0.0000E+00  0.3200E-01
    -15.143  0.0000E+00  0.3200E-01
    -15.051  0.0000E+00  0.3200E-01
    -14.958  0.0000E+00  0.3200E-01
    -14.865  0.0000E+00  0.3200E-01
    -14.772  0.0000E+00  0.3200E-01
    -14.680  0.0000E+00  0.3200E-01
    -14.587  0.0000E+00  0.3200E-01
    -14.494  0.0000E+00  0.3200E-01
    -14.401  0.0000E+00  0.3200E-01
    -14.309  0.0000E+00  0.3200E-01
    -14.216  0.0000E+00  0.3200E-01
    -14.123  0.0000E+00  0.3200E-01
    -14.030  0.0000E+00  0.3200E-01
    -13.938  0.0000E+00  0.3200E-01
    -13.845  0.0000E+00  0.3200E-01
    -13.752  0.0000E+00  0.3200E-01
    -13.659  0.0000E+00  0.3200E-01
    -13.567  0.0000E+00  0.3200E-01
    -13.474  0.0000E+00  0.3200E-01
    -13.381  0.0000E+00  0.3200E-01
    -13.288  0.0000E+00  0.3200E-01
    -13.196  0.0000E+00  0.3200E-01
    -13.103  0.0000E+00  0.3200E-01
    -13.010  0.0000E+00  0.3200E-01
    -12.917  0.0000E+00  0.3200E-01
    -12.825  0.0000E+00  0.3200E-01
    -12.732  0.0000E+00  0.3200E-01
    -12.639  0.0000E+00  0.3200E-01
    -12.546  0.0000E+00  0.3200E-01
    -12.454  0.0000E+00  0.3200E-01
    -12.361  0.0000E+00  0.3200E-01
    -12.268  0.0000E+00  0.3200E-01
    -12.175  0.0000E+00  0.3200E-01
    -12.083  0.0000E+00  0.3200E-01
    -11.990  0.0000E+00  0.3200E-01
    -11.897  0.0000E+00  0.3200E-01
    -11.804  0.0000E+00  0.3200E-01
    -11.712  0.0000E+00  0.3200E-01
    -11.619  0.0000E+00  0.3200E-01
    -11.526  0.0000E+00  0.3200E-01
    -11.433  0.0000E+00  0.3200E-01
    -11.341  0.0000E+00  0.3200E-01
    -11.248  0.0000E+00  0.3200E-01
    -11.155  0.0000E+00  0.3200E-01
    -11.062  0.0000E+00  0.3200E-01
    -10.970  0.0000E+00  0.3200E-01
    -10.877  0.0000E+00  0.3200E-01
    -10.784  0.0000E+00  0.3200E-01
    -10.691  0.0000E+00  0.3200E-01
    -10.599  0.0000E+00  0.3200E-01
    -10.506  0.0000E+00  0.3200E-01
    -10.413  0.0000E+00  0.3200E-01
    -10.320  0.0000E+00  0.3200E-01
    -10.228  0.0000E+00  0.3200E-01
    -10.135  0.0000E+00  0.3200E-01
    -10.042  0.0000E+00  0.3200E-01
     -9.949  0.0000E+00  0.3200E-01
     -9.857  0.0000E+00  0.3200E-01
     -9.764  0.0000E+00  0.3200E-01
     -9.671  0.0000E+00  0.3200E-01
     -9.578  0.7980E-17  0.3200E-01
     -9.486  0.1586E-12  0.3200E-01
     -9.393  0.5718E-09  0.3200E-01
     -9.300  0.3890E-06  0.3200E-01
     -9.207  0.5120E-04  0.3200E-01
     -9.115  0.1357E-02  0.3213E-01
     -9.022  0.7680E-02  0.3284E-01
     -8.929  0.1062E-01  0.3383E-01
     -8.836  0.9408E-02  0.3470E-01
     -8.744  0.1029E-01  0.3565E-01
     -8.651  0.4544E-02  0.3608E-01
     -8.558  0.1006E-01  0.3701E-01
     -8.465  0.3026E-01  0.3982E-01
     -8.373  0.3829E-01  0.4337E-01
     -8.280  0.2529E-01  0.4571E-01
     -8.187  0.1533E-01  0.4713E-01
     -8.094  0.2377E-01  0.4934E-01
     -8.002  0.4013E-01  0.5306E-01
     -7.909  0.4925E-01  0.5763E-01
     -7.816  0.4948E-01  0.6222E-01
     -7.723  0.4892E-01  0.6676E-01
     -7.631  0.6092E-01  0.7241E-01
     -7.538  0.6735E-01  0.7865E-01
     -7.445  0.7297E-01  0.8542E-01
     -7.352  0.7760E-01  0.9262E-01
     -7.260  0.7817E-01  0.9987E-01
     -7.167  0.8711E-01  0.1080E+00
     -7.074  0.1048E+00  0.1177E+00
     -6.981  0.1169E+00  0.1285E+00
     -6.889  0.1216E+00  0.1398E+00
     -6.796  0.1266E+00  0.1515E+00
     -6.703  0.1391E+00  0.1644E+00
     -6.610  0.1538E+00  0.1787E+00
     -6.518  0.1666E+00  0.1941E+00
     -6.425  0.1782E+00  0.2107E+00
     -6.332  0.1818E+00  0.2275E+00
     -6.239  0.1863E+00  0.2448E+00
     -6.147  0.1766E+00  0.2612E+00
     -6.054  0.1556E+00  0.2756E+00
     -5.961  0.1508E+00  0.2896E+00
     -5.868  0.1519E+00  0.3037E+00
     -5.776  0.1580E+00  0.3184E+00
     -5.683  0.1633E+00  0.3335E+00
     -5.590  0.1671E+00  0.3490E+00
     -5.497  0.1701E+00  0.3648E+00
     -5.404  0.1725E+00  0.3808E+00
     -5.312  0.1737E+00  0.3969E+00
     -5.219  0.1676E+00  0.4124E+00
     -5.126  0.1706E+00  0.4283E+00
     -5.033  0.1777E+00  0.4447E+00
     -4.941  0.1793E+00  0.4614E+00
     -4.848  0.1813E+00  0.4782E+00
     -4.755  0.1757E+00  0.4945E+00
     -4.662  0.1677E+00  0.5101E+00
     -4.570  0.1709E+00  0.5259E+00
     -4.477  0.1827E+00  0.5429E+00
     -4.384  0.1874E+00  0.5602E+00
     -4.291  0.1876E+00  0.5776E+00
     -4.199  0.1881E+00  0.5951E+00
     -4.106  0.1902E+00  0.6127E+00
     -4.013  0.1894E+00  0.6303E+00
     -3.920  0.1844E+00  0.6474E+00
     -3.828  0.1851E+00  0.6646E+00
     -3.735  0.1860E+00  0.6818E+00
     -3.642  0.1863E+00  0.6991E+00
     -3.549  0.1922E+00  0.7169E+00
     -3.457  0.1922E+00  0.7347E+00
     -3.364  0.1896E+00  0.7523E+00
     -3.271  0.1843E+00  0.7694E+00
     -3.178  0.1743E+00  0.7856E+00
     -3.086  0.1769E+00  0.8020E+00
     -2.993  0.1862E+00  0.8193E+00
     -2.900  0.1890E+00  0.8368E+00
     -2.807  0.1903E+00  0.8544E+00
     -2.715  0.1922E+00  0.8723E+00
     -2.622  0.1900E+00  0.8899E+00
     -2.529  0.1879E+00  0.9073E+00
     -2.436  0.1851E+00  0.9245E+00
     -2.344  0.1878E+00  0.9419E+00
     -2.251  0.1933E+00  0.9598E+00
     -2.158  0.1948E+00  0.9779E+00
     -2.065  0.1995E+00  0.9964E+00
     -1.973  0.1999E+00  0.1015E+01
     -1.880  0.1911E+00  0.1033E+01
     -1.787  0.1813E+00  0.1050E+01
     -1.694  0.1620E+00  0.1065E+01
     -1.602  0.1467E+00  0.1078E+01
     -1.509  0.1347E+00  0.1091E+01
     -1.416  0.1221E+00  0.1102E+01
     -1.323  0.9372E-01  0.1111E+01
     -1.231  0.6104E-01  0.1116E+01
     -1.138  0.4179E-01  0.1120E+01
     -1.045  0.4556E-01  0.1124E+01
     -0.952  0.4693E-01  0.1129E+01
     -0.860  0.4385E-01  0.1133E+01
     -0.767  0.4594E-01  0.1137E+01
     -0.674  0.4454E-01  0.1141E+01
     -0.581  0.4351E-01  0.1145E+01
     -0.489  0.5310E-01  0.1150E+01
     -0.396  0.5098E-01  0.1155E+01
     -0.303  0.3876E-01  0.1159E+01
     -0.210  0.3308E-01  0.1162E+01
     -0.118  0.3240E-01  0.1165E+01
     -0.025  0.2592E-01  0.1167E+01
      0.068  0.1805E-01  0.1169E+01
      0.161  0.2386E-01  0.1171E+01
      0.253  0.2740E-01  0.1173E+01
      0.346  0.3089E-01  0.1176E+01
      0.439  0.3469E-01  0.1179E+01
      0.532  0.3605E-01  0.1183E+01
      0.624  0.3734E-01  0.1186E+01
      0.717  0.3720E-01  0.1190E+01
      0.810  0.2830E-01  0.1192E+01
      0.903  0.2882E-01  0.1195E+01
      0.995  0.3452E-01  0.1198E+01
      1.088  0.2993E-01  0.1201E+01
      1.181  0.2344E-01  0.1203E+01
      1.274  0.2348E-01  0.1205E+01
      1.366  0.2707E-01  0.1208E+01
      1.459  0.2310E-01  0.1210E+01
      1.552  0.2001E-01  0.1212E+01
      1.645  0.2851E-01  0.1215E+01
      1.737  0.3099E-01  0.1217E+01
      1.830  0.2727E-01  0.1220E+01
      1.923  0.2965E-01  0.1223E+01
      2.016  0.3969E-01  0.1226E+01
      2.108  0.3801E-01  0.1230E+01
      2.201  0.3378E-01  0.1233E+01
      2.294  0.3274E-01  0.1236E+01
      2.387  0.3316E-01  0.1239E+01
      2.479  0.3471E-01  0.1242E+01
      2.572  0.3291E-01  0.1245E+01
      2.665  0.2418E-01  0.1248E+01
      2.758  0.2059E-01  0.1250E+01
      2.850  0.1873E-01  0.1251E+01
      2.943  0.2227E-01  0.1253E+01
      3.036  0.2354E-01  0.1256E+01
      3.129  0.2825E-01  0.1258E+01
      3.221  0.3300E-01  0.1261E+01
      3.314  0.2804E-01  0.1264E+01
      3.407  0.2826E-01  0.1266E+01
      3.500  0.3092E-01  0.1269E+01
      3.592  0.3828E-01  0.1273E+01
      3.685  0.4198E-01  0.1277E+01
      3.778  0.3755E-01  0.1280E+01
      3.871  0.3184E-01  0.1283E+01
      3.963  0.3631E-01  0.1287E+01
      4.056  0.3880E-01  0.1290E+01
      4.149  0.3849E-01  0.1294E+01
      4.242  0.3674E-01  0.1297E+01
      4.334  0.3425E-01  0.1300E+01
      4.427  0.3542E-01  0.1304E+01
      4.520  0.3759E-01  0.1307E+01
      4.613  0.4275E-01  0.1311E+01
      4.705  0.5437E-01  0.1316E+01
      4.798  0.6056E-01  0.1322E+01
      4.891  0.5790E-01  0.1327E+01
      4.984  0.5698E-01  0.1332E+01
      5.076  0.5429E-01  0.1337E+01
      5.169  0.4343E-01  0.1341E+01
      5.262  0.2265E-01  0.1344E+01
      5.355  0.4653E-02  0.1344E+01
      5.447  0.2651E-03  0.1344E+01
      5.540  0.3541E-05  0.1344E+01
      5.633  0.1008E-07  0.1344E+01
      5.726  0.5751E-11  0.1344E+01
      5.818  0.6344E-15  0.1344E+01
      5.911  0.0000E+00  0.1344E+01
      6.004  0.0000E+00  0.1344E+01
      6.097  0.0000E+00  0.1344E+01
      6.190  0.0000E+00  0.1344E+01
      6.282  0.0000E+00  0.1344E+01
      6.375  0.0000E+00  0.1344E+01
      6.468  0.0000E+00  0.1344E+01
