  48  48   0   0
  0.5349325E+02  0.1100258E-08  0.1100258E-08  0.2449179E-08  0.3500000E-15
  1.000000000000000E-004
  CAR 
 unknown system                          
      6.30675364     -9.93399249  301     -1.11233646      1.00000000
     -9.934  0.0000E+00  0.0000E+00
     -9.880  0.0000E+00  0.0000E+00
     -9.826  0.0000E+00  0.0000E+00
     -9.772  0.0000E+00  0.0000E+00
     -9.717  0.0000E+00  0.0000E+00
     -9.663  0.0000E+00  0.0000E+00
     -9.609  0.0000E+00  0.0000E+00
     -9.555  0.0000E+00  0.0000E+00
     -9.501  0.8887E-17  0.4811E-18
     -9.447  0.3456E-14  0.1876E-15
     -9.393  0.7748E-12  0.4213E-13
     -9.338  0.9830E-10  0.5364E-11
     -9.284  0.7071E-08  0.3882E-09
     -9.230  0.2891E-06  0.1604E-07
     -9.176  0.6734E-05  0.3806E-06
     -9.122  0.8961E-04  0.5232E-05
     -9.068  0.6831E-03  0.4221E-04
     -9.014  0.2993E-02  0.2042E-03
     -8.960  0.7595E-02  0.6154E-03
     -8.905  0.1152E-01  0.1239E-02
     -8.851  0.1189E-01  0.1883E-02
     -8.797  0.1147E-01  0.2504E-02
     -8.743  0.1174E-01  0.3139E-02
     -8.689  0.9388E-02  0.3647E-02
     -8.635  0.4766E-02  0.3906E-02
     -8.581  0.1453E-02  0.3984E-02
     -8.526  0.2627E-03  0.3998E-02
     -8.472  0.3477E-04  0.4000E-02
     -8.418  0.7629E-04  0.4004E-02
     -8.364  0.4634E-03  0.4030E-02
     -8.310  0.1693E-02  0.4121E-02
     -8.256  0.3850E-02  0.4330E-02
     -8.202  0.6171E-02  0.4664E-02
     -8.148  0.8165E-02  0.5106E-02
     -8.093  0.9753E-02  0.5634E-02
     -8.039  0.1169E-01  0.6266E-02
     -7.985  0.1528E-01  0.7094E-02
     -7.931  0.1828E-01  0.8083E-02
     -7.877  0.1691E-01  0.8999E-02
     -7.823  0.1216E-01  0.9657E-02
     -7.769  0.8865E-02  0.1014E-01
     -7.714  0.9540E-02  0.1065E-01
     -7.660  0.1117E-01  0.1126E-01
     -7.606  0.1089E-01  0.1185E-01
     -7.552  0.1146E-01  0.1247E-01
     -7.498  0.1569E-01  0.1332E-01
     -7.444  0.2251E-01  0.1454E-01
     -7.390  0.3026E-01  0.1617E-01
     -7.335  0.3619E-01  0.1813E-01
     -7.281  0.3873E-01  0.2023E-01
     -7.227  0.4184E-01  0.2250E-01
     -7.173  0.4901E-01  0.2515E-01
     -7.119  0.5575E-01  0.2817E-01
     -7.065  0.5511E-01  0.3115E-01
     -7.011  0.4817E-01  0.3376E-01
     -6.957  0.4326E-01  0.3610E-01
     -6.902  0.4509E-01  0.3854E-01
     -6.848  0.5251E-01  0.4138E-01
     -6.794  0.6282E-01  0.4478E-01
     -6.740  0.7196E-01  0.4868E-01
     -6.686  0.7581E-01  0.5278E-01
     -6.632  0.7683E-01  0.5694E-01
     -6.578  0.8312E-01  0.6144E-01
     -6.523  0.9669E-01  0.6668E-01
     -6.469  0.1123E+00  0.7276E-01
     -6.415  0.1263E+00  0.7959E-01
     -6.361  0.1382E+00  0.8707E-01
     -6.307  0.1471E+00  0.9504E-01
     -6.253  0.1509E+00  0.1032E+00
     -6.199  0.1503E+00  0.1113E+00
     -6.144  0.1481E+00  0.1194E+00
     -6.090  0.1447E+00  0.1272E+00
     -6.036  0.1422E+00  0.1349E+00
     -5.982  0.1438E+00  0.1427E+00
     -5.928  0.1480E+00  0.1507E+00
     -5.874  0.1495E+00  0.1588E+00
     -5.820  0.1473E+00  0.1667E+00
     -5.766  0.1457E+00  0.1746E+00
     -5.711  0.1466E+00  0.1826E+00
     -5.657  0.1494E+00  0.1907E+00
     -5.603  0.1524E+00  0.1989E+00
     -5.549  0.1499E+00  0.2070E+00
     -5.495  0.1418E+00  0.2147E+00
     -5.441  0.1374E+00  0.2221E+00
     -5.387  0.1421E+00  0.2298E+00
     -5.332  0.1522E+00  0.2381E+00
     -5.278  0.1620E+00  0.2468E+00
     -5.224  0.1686E+00  0.2560E+00
     -5.170  0.1723E+00  0.2653E+00
     -5.116  0.1735E+00  0.2747E+00
     -5.062  0.1736E+00  0.2841E+00
     -5.008  0.1733E+00  0.2935E+00
     -4.953  0.1719E+00  0.3028E+00
     -4.899  0.1691E+00  0.3119E+00
     -4.845  0.1656E+00  0.3209E+00
     -4.791  0.1645E+00  0.3298E+00
     -4.737  0.1656E+00  0.3388E+00
     -4.683  0.1661E+00  0.3478E+00
     -4.629  0.1668E+00  0.3568E+00
     -4.575  0.1687E+00  0.3659E+00
     -4.520  0.1711E+00  0.3752E+00
     -4.466  0.1715E+00  0.3845E+00
     -4.412  0.1687E+00  0.3936E+00
     -4.358  0.1655E+00  0.4026E+00
     -4.304  0.1656E+00  0.4115E+00
     -4.250  0.1677E+00  0.4206E+00
     -4.196  0.1672E+00  0.4296E+00
     -4.141  0.1648E+00  0.4386E+00
     -4.087  0.1649E+00  0.4475E+00
     -4.033  0.1679E+00  0.4566E+00
     -3.979  0.1719E+00  0.4659E+00
     -3.925  0.1754E+00  0.4754E+00
     -3.871  0.1785E+00  0.4850E+00
     -3.817  0.1847E+00  0.4950E+00
     -3.763  0.1955E+00  0.5056E+00
     -3.708  0.2056E+00  0.5168E+00
     -3.654  0.2104E+00  0.5281E+00
     -3.600  0.2120E+00  0.5396E+00
     -3.546  0.2120E+00  0.5511E+00
     -3.492  0.2090E+00  0.5624E+00
     -3.438  0.2059E+00  0.5736E+00
     -3.384  0.2069E+00  0.5848E+00
     -3.329  0.2084E+00  0.5960E+00
     -3.275  0.2052E+00  0.6072E+00
     -3.221  0.1983E+00  0.6179E+00
     -3.167  0.1903E+00  0.6282E+00
     -3.113  0.1839E+00  0.6381E+00
     -3.059  0.1818E+00  0.6480E+00
     -3.005  0.1827E+00  0.6579E+00
     -2.950  0.1844E+00  0.6679E+00
     -2.896  0.1874E+00  0.6780E+00
     -2.842  0.1910E+00  0.6883E+00
     -2.788  0.1946E+00  0.6989E+00
     -2.734  0.1983E+00  0.7096E+00
     -2.680  0.2007E+00  0.7205E+00
     -2.626  0.2004E+00  0.7313E+00
     -2.572  0.1975E+00  0.7420E+00
     -2.517  0.1909E+00  0.7524E+00
     -2.463  0.1825E+00  0.7622E+00
     -2.409  0.1779E+00  0.7719E+00
     -2.355  0.1782E+00  0.7815E+00
     -2.301  0.1793E+00  0.7912E+00
     -2.247  0.1808E+00  0.8010E+00
     -2.193  0.1843E+00  0.8110E+00
     -2.138  0.1876E+00  0.8211E+00
     -2.084  0.1882E+00  0.8313E+00
     -2.030  0.1882E+00  0.8415E+00
     -1.976  0.1929E+00  0.8520E+00
     -1.922  0.2032E+00  0.8630E+00
     -1.868  0.2119E+00  0.8744E+00
     -1.814  0.2112E+00  0.8859E+00
     -1.759  0.2008E+00  0.8967E+00
     -1.705  0.1886E+00  0.9069E+00
     -1.651  0.1815E+00  0.9168E+00
     -1.597  0.1790E+00  0.9265E+00
     -1.543  0.1803E+00  0.9362E+00
     -1.489  0.1860E+00  0.9463E+00
     -1.435  0.1929E+00  0.9567E+00
     -1.381  0.1966E+00  0.9674E+00
     -1.326  0.1915E+00  0.9777E+00
     -1.272  0.1753E+00  0.9872E+00
     -1.218  0.1533E+00  0.9955E+00
     -1.164  0.1293E+00  0.1003E+01
     -1.110  0.1054E+00  0.1008E+01
     -1.056  0.8337E-01  0.1013E+01
     -1.002  0.6073E-01  0.1016E+01
     -0.947  0.3832E-01  0.1018E+01
     -0.893  0.2190E-01  0.1019E+01
     -0.839  0.1420E-01  0.1020E+01
     -0.785  0.1457E-01  0.1021E+01
     -0.731  0.2034E-01  0.1022E+01
     -0.677  0.2960E-01  0.1024E+01
     -0.623  0.4146E-01  0.1026E+01
     -0.568  0.5090E-01  0.1029E+01
     -0.514  0.5109E-01  0.1031E+01
     -0.460  0.4123E-01  0.1034E+01
     -0.406  0.2866E-01  0.1035E+01
     -0.352  0.2314E-01  0.1036E+01
     -0.298  0.2962E-01  0.1038E+01
     -0.244  0.4040E-01  0.1040E+01
     -0.190  0.4174E-01  0.1042E+01
     -0.135  0.3278E-01  0.1044E+01
     -0.081  0.2382E-01  0.1045E+01
     -0.027  0.2052E-01  0.1047E+01
      0.027  0.2111E-01  0.1048E+01
      0.081  0.2433E-01  0.1049E+01
      0.135  0.2843E-01  0.1051E+01
      0.189  0.2943E-01  0.1052E+01
      0.244  0.2891E-01  0.1054E+01
      0.298  0.3094E-01  0.1055E+01
      0.352  0.3534E-01  0.1057E+01
      0.406  0.3975E-01  0.1059E+01
      0.460  0.4327E-01  0.1062E+01
      0.514  0.4752E-01  0.1064E+01
      0.568  0.5273E-01  0.1067E+01
      0.622  0.5373E-01  0.1070E+01
      0.677  0.4759E-01  0.1073E+01
      0.731  0.3942E-01  0.1075E+01
      0.785  0.3157E-01  0.1077E+01
      0.839  0.2326E-01  0.1078E+01
      0.893  0.1945E-01  0.1079E+01
      0.947  0.2191E-01  0.1080E+01
      1.001  0.2585E-01  0.1081E+01
      1.056  0.2890E-01  0.1083E+01
      1.110  0.2972E-01  0.1085E+01
      1.164  0.2614E-01  0.1086E+01
      1.218  0.1888E-01  0.1087E+01
      1.272  0.1078E-01  0.1088E+01
      1.326  0.4643E-02  0.1088E+01
      1.380  0.2318E-02  0.1088E+01
      1.435  0.5523E-02  0.1088E+01
      1.489  0.1666E-01  0.1089E+01
      1.543  0.3271E-01  0.1091E+01
      1.597  0.4140E-01  0.1093E+01
      1.651  0.3638E-01  0.1095E+01
      1.705  0.2871E-01  0.1097E+01
      1.759  0.2934E-01  0.1098E+01
      1.813  0.3361E-01  0.1100E+01
      1.868  0.3371E-01  0.1102E+01
      1.922  0.3141E-01  0.1104E+01
      1.976  0.3098E-01  0.1105E+01
      2.030  0.3256E-01  0.1107E+01
      2.084  0.3576E-01  0.1109E+01
      2.138  0.4062E-01  0.1111E+01
      2.192  0.4486E-01  0.1114E+01
      2.247  0.4573E-01  0.1116E+01
      2.301  0.4193E-01  0.1118E+01
      2.355  0.3380E-01  0.1120E+01
      2.409  0.2496E-01  0.1122E+01
      2.463  0.2282E-01  0.1123E+01
      2.517  0.3085E-01  0.1125E+01
      2.571  0.4259E-01  0.1127E+01
      2.626  0.4998E-01  0.1130E+01
      2.680  0.5102E-01  0.1132E+01
      2.734  0.4500E-01  0.1135E+01
      2.788  0.3233E-01  0.1137E+01
      2.842  0.1972E-01  0.1138E+01
      2.896  0.1387E-01  0.1138E+01
      2.950  0.1304E-01  0.1139E+01
      3.004  0.1106E-01  0.1140E+01
      3.059  0.7982E-02  0.1140E+01
      3.113  0.8814E-02  0.1141E+01
      3.167  0.1431E-01  0.1141E+01
      3.221  0.2083E-01  0.1142E+01
      3.275  0.2410E-01  0.1144E+01
      3.329  0.2265E-01  0.1145E+01
      3.383  0.2126E-01  0.1146E+01
      3.438  0.2415E-01  0.1147E+01
      3.492  0.2984E-01  0.1149E+01
      3.546  0.3628E-01  0.1151E+01
      3.600  0.4116E-01  0.1153E+01
      3.654  0.4224E-01  0.1156E+01
      3.708  0.3934E-01  0.1158E+01
      3.762  0.3344E-01  0.1159E+01
      3.817  0.2726E-01  0.1161E+01
      3.871  0.2397E-01  0.1162E+01
      3.925  0.2421E-01  0.1164E+01
      3.979  0.2575E-01  0.1165E+01
      4.033  0.2659E-01  0.1166E+01
      4.087  0.2622E-01  0.1168E+01
      4.141  0.2348E-01  0.1169E+01
      4.195  0.1911E-01  0.1170E+01
      4.250  0.1588E-01  0.1171E+01
      4.304  0.1409E-01  0.1172E+01
      4.358  0.1590E-01  0.1173E+01
      4.412  0.2402E-01  0.1174E+01
      4.466  0.3336E-01  0.1176E+01
      4.520  0.3941E-01  0.1178E+01
      4.574  0.4334E-01  0.1180E+01
      4.629  0.4453E-01  0.1183E+01
      4.683  0.4393E-01  0.1185E+01
      4.737  0.4414E-01  0.1187E+01
      4.791  0.4596E-01  0.1190E+01
      4.845  0.5033E-01  0.1193E+01
      4.899  0.5526E-01  0.1196E+01
      4.953  0.6009E-01  0.1199E+01
      5.007  0.6882E-01  0.1203E+01
      5.062  0.7886E-01  0.1207E+01
      5.116  0.8059E-01  0.1211E+01
      5.170  0.7325E-01  0.1215E+01
      5.224  0.6277E-01  0.1219E+01
      5.278  0.4900E-01  0.1221E+01
      5.332  0.3126E-01  0.1223E+01
      5.386  0.1475E-01  0.1224E+01
      5.441  0.4735E-02  0.1224E+01
      5.495  0.9686E-03  0.1224E+01
      5.549  0.1205E-03  0.1224E+01
      5.603  0.8863E-05  0.1224E+01
      5.657  0.3784E-06  0.1224E+01
      5.711  0.9275E-08  0.1224E+01
      5.765  0.1296E-09  0.1224E+01
      5.820  0.1027E-11  0.1224E+01
      5.874  0.4602E-14  0.1224E+01
      5.928  0.1094E-16  0.1224E+01
      5.982  0.0000E+00  0.1224E+01
      6.036  0.0000E+00  0.1224E+01
      6.090  0.0000E+00  0.1224E+01
      6.144  0.0000E+00  0.1224E+01
      6.198  0.0000E+00  0.1224E+01
      6.253  0.0000E+00  0.1224E+01
      6.307  0.0000E+00  0.1224E+01
