  48  48   0   0
  0.5349325E+02  0.1100258E-08  0.1100258E-08  0.2449179E-08  0.3500000E-15
  1.000000000000000E-004
  CAR 
 unknown system                          
      6.32917961     -9.85390584  301     -1.09795404      1.00000000
     -9.854  0.0000E+00  0.0000E+00
     -9.800  0.0000E+00  0.0000E+00
     -9.746  0.0000E+00  0.0000E+00
     -9.692  0.0000E+00  0.0000E+00
     -9.638  0.0000E+00  0.0000E+00
     -9.584  0.0000E+00  0.0000E+00
     -9.530  0.0000E+00  0.0000E+00
     -9.476  0.0000E+00  0.0000E+00
     -9.422  0.9605E-17  0.5181E-18
     -9.368  0.3993E-14  0.2159E-15
     -9.314  0.8871E-12  0.4807E-13
     -9.261  0.1115E-09  0.6062E-11
     -9.207  0.7939E-08  0.4343E-09
     -9.153  0.3210E-06  0.1775E-07
     -9.099  0.7384E-05  0.4160E-06
     -9.045  0.9688E-04  0.5642E-05
     -8.991  0.7268E-03  0.4485E-04
     -8.937  0.3125E-02  0.2134E-03
     -8.883  0.7721E-02  0.6299E-03
     -8.829  0.1104E-01  0.1226E-02
     -8.775  0.9626E-02  0.1745E-02
     -8.721  0.7129E-02  0.2129E-02
     -8.667  0.8428E-02  0.2584E-02
     -8.613  0.1082E-01  0.3168E-02
     -8.559  0.9152E-02  0.3661E-02
     -8.505  0.4648E-02  0.3912E-02
     -8.451  0.1555E-02  0.3996E-02
     -8.397  0.1084E-02  0.4054E-02
     -8.343  0.2474E-02  0.4188E-02
     -8.290  0.4647E-02  0.4438E-02
     -8.236  0.6849E-02  0.4808E-02
     -8.182  0.9246E-02  0.5307E-02
     -8.128  0.1199E-01  0.5953E-02
     -8.074  0.1560E-01  0.6795E-02
     -8.020  0.1877E-01  0.7808E-02
     -7.966  0.1775E-01  0.8765E-02
     -7.912  0.1302E-01  0.9467E-02
     -7.858  0.8857E-02  0.9945E-02
     -7.804  0.7972E-02  0.1037E-01
     -7.750  0.9966E-02  0.1091E-01
     -7.696  0.1254E-01  0.1159E-01
     -7.642  0.1461E-01  0.1238E-01
     -7.588  0.1674E-01  0.1328E-01
     -7.534  0.1957E-01  0.1434E-01
     -7.480  0.2370E-01  0.1561E-01
     -7.426  0.2676E-01  0.1706E-01
     -7.372  0.2655E-01  0.1849E-01
     -7.319  0.2582E-01  0.1988E-01
     -7.265  0.2630E-01  0.2130E-01
     -7.211  0.2876E-01  0.2285E-01
     -7.157  0.3429E-01  0.2470E-01
     -7.103  0.4001E-01  0.2686E-01
     -7.049  0.4603E-01  0.2934E-01
     -6.995  0.5609E-01  0.3237E-01
     -6.941  0.6612E-01  0.3594E-01
     -6.887  0.6831E-01  0.3962E-01
     -6.833  0.6578E-01  0.4317E-01
     -6.779  0.6890E-01  0.4689E-01
     -6.725  0.7906E-01  0.5115E-01
     -6.671  0.8766E-01  0.5588E-01
     -6.617  0.9074E-01  0.6077E-01
     -6.563  0.9298E-01  0.6579E-01
     -6.509  0.9701E-01  0.7102E-01
     -6.455  0.1030E+00  0.7658E-01
     -6.402  0.1137E+00  0.8271E-01
     -6.348  0.1304E+00  0.8974E-01
     -6.294  0.1495E+00  0.9781E-01
     -6.240  0.1650E+00  0.1067E+00
     -6.186  0.1715E+00  0.1160E+00
     -6.132  0.1675E+00  0.1250E+00
     -6.078  0.1594E+00  0.1336E+00
     -6.024  0.1526E+00  0.1418E+00
     -5.970  0.1464E+00  0.1497E+00
     -5.916  0.1413E+00  0.1574E+00
     -5.862  0.1399E+00  0.1649E+00
     -5.808  0.1435E+00  0.1726E+00
     -5.754  0.1499E+00  0.1807E+00
     -5.700  0.1539E+00  0.1890E+00
     -5.646  0.1517E+00  0.1972E+00
     -5.592  0.1450E+00  0.2050E+00
     -5.538  0.1384E+00  0.2125E+00
     -5.484  0.1339E+00  0.2197E+00
     -5.431  0.1319E+00  0.2268E+00
     -5.377  0.1329E+00  0.2340E+00
     -5.323  0.1368E+00  0.2414E+00
     -5.269  0.1437E+00  0.2491E+00
     -5.215  0.1527E+00  0.2574E+00
     -5.161  0.1602E+00  0.2660E+00
     -5.107  0.1643E+00  0.2749E+00
     -5.053  0.1674E+00  0.2839E+00
     -4.999  0.1708E+00  0.2931E+00
     -4.945  0.1721E+00  0.3024E+00
     -4.891  0.1692E+00  0.3115E+00
     -4.837  0.1626E+00  0.3203E+00
     -4.783  0.1569E+00  0.3288E+00
     -4.729  0.1568E+00  0.3372E+00
     -4.675  0.1600E+00  0.3458E+00
     -4.621  0.1626E+00  0.3546E+00
     -4.567  0.1649E+00  0.3635E+00
     -4.513  0.1677E+00  0.3726E+00
     -4.460  0.1711E+00  0.3818E+00
     -4.406  0.1733E+00  0.3911E+00
     -4.352  0.1732E+00  0.4005E+00
     -4.298  0.1735E+00  0.4098E+00
     -4.244  0.1756E+00  0.4193E+00
     -4.190  0.1779E+00  0.4289E+00
     -4.136  0.1786E+00  0.4385E+00
     -4.082  0.1788E+00  0.4482E+00
     -4.028  0.1800E+00  0.4579E+00
     -3.974  0.1815E+00  0.4677E+00
     -3.920  0.1817E+00  0.4775E+00
     -3.866  0.1814E+00  0.4873E+00
     -3.812  0.1828E+00  0.4971E+00
     -3.758  0.1859E+00  0.5072E+00
     -3.704  0.1906E+00  0.5174E+00
     -3.650  0.1941E+00  0.5279E+00
     -3.596  0.1917E+00  0.5383E+00
     -3.543  0.1874E+00  0.5484E+00
     -3.489  0.1866E+00  0.5584E+00
     -3.435  0.1851E+00  0.5684E+00
     -3.381  0.1782E+00  0.5780E+00
     -3.327  0.1700E+00  0.5872E+00
     -3.273  0.1665E+00  0.5962E+00
     -3.219  0.1688E+00  0.6053E+00
     -3.165  0.1744E+00  0.6147E+00
     -3.111  0.1813E+00  0.6245E+00
     -3.057  0.1868E+00  0.6345E+00
     -3.003  0.1889E+00  0.6447E+00
     -2.949  0.1894E+00  0.6549E+00
     -2.895  0.1919E+00  0.6653E+00
     -2.841  0.1956E+00  0.6758E+00
     -2.787  0.1982E+00  0.6865E+00
     -2.733  0.2023E+00  0.6975E+00
     -2.679  0.2078E+00  0.7087E+00
     -2.625  0.2094E+00  0.7200E+00
     -2.572  0.2063E+00  0.7311E+00
     -2.518  0.2035E+00  0.7421E+00
     -2.464  0.2010E+00  0.7529E+00
     -2.410  0.1970E+00  0.7635E+00
     -2.356  0.1916E+00  0.7739E+00
     -2.302  0.1836E+00  0.7838E+00
     -2.248  0.1754E+00  0.7932E+00
     -2.194  0.1726E+00  0.8025E+00
     -2.140  0.1767E+00  0.8121E+00
     -2.086  0.1820E+00  0.8219E+00
     -2.032  0.1838E+00  0.8318E+00
     -1.978  0.1852E+00  0.8418E+00
     -1.924  0.1901E+00  0.8521E+00
     -1.870  0.1980E+00  0.8627E+00
     -1.816  0.2051E+00  0.8738E+00
     -1.762  0.2095E+00  0.8851E+00
     -1.708  0.2134E+00  0.8966E+00
     -1.654  0.2176E+00  0.9084E+00
     -1.601  0.2194E+00  0.9202E+00
     -1.547  0.2184E+00  0.9320E+00
     -1.493  0.2153E+00  0.9436E+00
     -1.439  0.2081E+00  0.9548E+00
     -1.385  0.1974E+00  0.9655E+00
     -1.331  0.1871E+00  0.9756E+00
     -1.277  0.1770E+00  0.9851E+00
     -1.223  0.1613E+00  0.9938E+00
     -1.169  0.1352E+00  0.1001E+01
     -1.115  0.1020E+00  0.1007E+01
     -1.061  0.7370E-01  0.1011E+01
     -1.007  0.5667E-01  0.1014E+01
     -0.953  0.4574E-01  0.1016E+01
     -0.899  0.3434E-01  0.1018E+01
     -0.845  0.2334E-01  0.1019E+01
     -0.791  0.1751E-01  0.1020E+01
     -0.737  0.1800E-01  0.1021E+01
     -0.683  0.2141E-01  0.1022E+01
     -0.630  0.2484E-01  0.1024E+01
     -0.576  0.2981E-01  0.1025E+01
     -0.522  0.3804E-01  0.1027E+01
     -0.468  0.4656E-01  0.1030E+01
     -0.414  0.5009E-01  0.1033E+01
     -0.360  0.4770E-01  0.1035E+01
     -0.306  0.4426E-01  0.1037E+01
     -0.252  0.4308E-01  0.1040E+01
     -0.198  0.4085E-01  0.1042E+01
     -0.144  0.3319E-01  0.1044E+01
     -0.090  0.2345E-01  0.1045E+01
     -0.036  0.1741E-01  0.1046E+01
      0.018  0.1533E-01  0.1047E+01
      0.072  0.1630E-01  0.1048E+01
      0.126  0.2109E-01  0.1049E+01
      0.180  0.2888E-01  0.1050E+01
      0.234  0.3488E-01  0.1052E+01
      0.287  0.3642E-01  0.1054E+01
      0.341  0.3726E-01  0.1056E+01
      0.395  0.3940E-01  0.1058E+01
      0.449  0.3941E-01  0.1060E+01
      0.503  0.3718E-01  0.1062E+01
      0.557  0.3749E-01  0.1065E+01
      0.611  0.4248E-01  0.1067E+01
      0.665  0.4831E-01  0.1069E+01
      0.719  0.5041E-01  0.1072E+01
      0.773  0.4933E-01  0.1075E+01
      0.827  0.4470E-01  0.1077E+01
      0.881  0.3377E-01  0.1079E+01
      0.935  0.2259E-01  0.1080E+01
      0.989  0.1895E-01  0.1081E+01
      1.043  0.1961E-01  0.1082E+01
      1.097  0.1893E-01  0.1083E+01
      1.151  0.1709E-01  0.1084E+01
      1.205  0.1619E-01  0.1085E+01
      1.258  0.1561E-01  0.1086E+01
      1.312  0.1381E-01  0.1087E+01
      1.366  0.1234E-01  0.1087E+01
      1.420  0.1353E-01  0.1088E+01
      1.474  0.1823E-01  0.1089E+01
      1.528  0.2568E-01  0.1090E+01
      1.582  0.3192E-01  0.1092E+01
      1.636  0.3303E-01  0.1094E+01
      1.690  0.3093E-01  0.1096E+01
      1.744  0.3043E-01  0.1097E+01
      1.798  0.3172E-01  0.1099E+01
      1.852  0.3004E-01  0.1101E+01
      1.906  0.2475E-01  0.1102E+01
      1.960  0.2241E-01  0.1103E+01
      2.014  0.2659E-01  0.1105E+01
      2.068  0.3383E-01  0.1106E+01
      2.122  0.3891E-01  0.1109E+01
      2.176  0.3965E-01  0.1111E+01
      2.229  0.3863E-01  0.1113E+01
      2.283  0.3935E-01  0.1115E+01
      2.337  0.4146E-01  0.1117E+01
      2.391  0.4324E-01  0.1119E+01
      2.445  0.4378E-01  0.1122E+01
      2.499  0.4225E-01  0.1124E+01
      2.553  0.4041E-01  0.1126E+01
      2.607  0.4174E-01  0.1129E+01
      2.661  0.4586E-01  0.1131E+01
      2.715  0.4680E-01  0.1134E+01
      2.769  0.3927E-01  0.1136E+01
      2.823  0.2613E-01  0.1137E+01
      2.877  0.1528E-01  0.1138E+01
      2.931  0.1157E-01  0.1139E+01
      2.985  0.1189E-01  0.1139E+01
      3.039  0.9949E-02  0.1140E+01
      3.093  0.6922E-02  0.1140E+01
      3.147  0.8955E-02  0.1141E+01
      3.200  0.1661E-01  0.1141E+01
      3.254  0.2323E-01  0.1143E+01
      3.308  0.2343E-01  0.1144E+01
      3.362  0.1964E-01  0.1145E+01
      3.416  0.1769E-01  0.1146E+01
      3.470  0.2085E-01  0.1147E+01
      3.524  0.2790E-01  0.1149E+01
      3.578  0.3536E-01  0.1151E+01
      3.632  0.4200E-01  0.1153E+01
      3.686  0.4554E-01  0.1155E+01
      3.740  0.4174E-01  0.1157E+01
      3.794  0.3238E-01  0.1159E+01
      3.848  0.2479E-01  0.1161E+01
      3.902  0.2314E-01  0.1162E+01
      3.956  0.2659E-01  0.1163E+01
      4.010  0.3070E-01  0.1165E+01
      4.064  0.2946E-01  0.1166E+01
      4.117  0.2372E-01  0.1168E+01
      4.171  0.2048E-01  0.1169E+01
      4.225  0.2077E-01  0.1170E+01
      4.279  0.1964E-01  0.1171E+01
      4.333  0.1655E-01  0.1172E+01
      4.387  0.1666E-01  0.1173E+01
      4.441  0.2144E-01  0.1174E+01
      4.495  0.2865E-01  0.1176E+01
      4.549  0.3953E-01  0.1178E+01
      4.603  0.5219E-01  0.1180E+01
      4.657  0.5713E-01  0.1184E+01
      4.711  0.5168E-01  0.1186E+01
      4.765  0.4439E-01  0.1189E+01
      4.819  0.4231E-01  0.1191E+01
      4.873  0.4730E-01  0.1194E+01
      4.927  0.5668E-01  0.1197E+01
      4.981  0.6606E-01  0.1200E+01
      5.035  0.7274E-01  0.1204E+01
      5.088  0.7325E-01  0.1208E+01
      5.142  0.6729E-01  0.1212E+01
      5.196  0.6230E-01  0.1215E+01
      5.250  0.5998E-01  0.1218E+01
      5.304  0.5132E-01  0.1221E+01
      5.358  0.3342E-01  0.1223E+01
      5.412  0.1517E-01  0.1224E+01
      5.466  0.4525E-02  0.1224E+01
      5.520  0.8494E-03  0.1224E+01
      5.574  0.9722E-04  0.1224E+01
      5.628  0.6644E-05  0.1224E+01
      5.682  0.2671E-06  0.1224E+01
      5.736  0.6252E-08  0.1224E+01
      5.790  0.8451E-10  0.1224E+01
      5.844  0.6558E-12  0.1224E+01
      5.898  0.2906E-14  0.1224E+01
      5.952  0.6860E-17  0.1224E+01
      6.006  0.0000E+00  0.1224E+01
      6.059  0.0000E+00  0.1224E+01
      6.113  0.0000E+00  0.1224E+01
      6.167  0.0000E+00  0.1224E+01
      6.221  0.0000E+00  0.1224E+01
      6.275  0.0000E+00  0.1224E+01
      6.329  0.0000E+00  0.1224E+01
