       N       E                     dE             d eps       ncg     rms          rms(c)
DAV:   1     0.320058009893E+04    0.32006E+04   -0.18974E+05  3672   0.112E+03
DAV:   2     0.154226420043E+02   -0.31852E+04   -0.29263E+04  4392   0.263E+02
DAV:   3    -0.199550133842E+03   -0.21497E+03   -0.19987E+03  4128   0.652E+01
DAV:   4    -0.205250349626E+03   -0.57002E+01   -0.56355E+01  4188   0.108E+01
DAV:   5    -0.205454171103E+03   -0.20382E+00   -0.20318E+00  4404   0.206E+00    0.627E+01
RMM:   6    -0.199364820295E+03    0.60894E+01   -0.89616E+01  3678   0.150E+01    0.549E+01
RMM:   7    -0.218690629341E+03   -0.19326E+02   -0.62754E+01  3683   0.124E+01    0.494E+01
RMM:   8    -0.221058577443E+03   -0.23679E+01   -0.88863E+01  3678   0.142E+01    0.426E+01
RMM:   9    -0.208621309194E+03    0.12437E+02   -0.51654E+01  3682   0.115E+01    0.345E+01
RMM:  10    -0.194727221732E+03    0.13894E+02   -0.22064E+01  3682   0.800E+00    0.182E+01
RMM:  11    -0.189649287324E+03    0.50779E+01   -0.10254E+01  3682   0.508E+00    0.940E+00
RMM:  12    -0.188429487087E+03    0.12198E+01   -0.36262E+00  3682   0.288E+00    0.760E+00
RMM:  13    -0.188387723524E+03    0.41764E-01   -0.99578E-01  3680   0.158E+00    0.632E+00
RMM:  14    -0.188477241236E+03   -0.89518E-01   -0.60446E-01  3682   0.124E+00    0.634E+00
RMM:  15    -0.188308167197E+03    0.16907E+00   -0.45492E-01  3680   0.105E+00    0.446E+00
RMM:  16    -0.188115985284E+03    0.19218E+00   -0.15059E-01  3679   0.587E-01    0.295E+00
RMM:  17    -0.188067363109E+03    0.48622E-01   -0.10956E-01  3681   0.507E-01    0.231E+00
RMM:  18    -0.188016266559E+03    0.51097E-01   -0.41074E-02  3681   0.306E-01    0.122E+00
RMM:  19    -0.188002372400E+03    0.13894E-01   -0.11468E-02  3682   0.155E-01    0.891E-01
RMM:  20    -0.187996877927E+03    0.54945E-02   -0.83004E-03  3679   0.134E-01    0.602E-01
RMM:  21    -0.187995180626E+03    0.16973E-02   -0.44161E-03  3682   0.988E-02    0.479E-01
RMM:  22    -0.187993280344E+03    0.19003E-02   -0.24302E-03  3682   0.716E-02    0.322E-01
RMM:  23    -0.187992404065E+03    0.87628E-03   -0.15362E-03  3679   0.574E-02    0.181E-01
RMM:  24    -0.187992435641E+03   -0.31577E-04   -0.74884E-04  3680   0.388E-02    0.128E-01
RMM:  25    -0.187992538143E+03   -0.10250E-03   -0.17779E-04  3685   0.202E-02    0.842E-02
RMM:  26    -0.187992812260E+03   -0.27412E-03   -0.87055E-05  3681   0.132E-02    0.529E-02
RMM:  27    -0.187993245110E+03   -0.43285E-03   -0.58958E-05  3674   0.116E-02    0.440E-02
RMM:  28    -0.187993797328E+03   -0.55222E-03   -0.50723E-05  3675   0.109E-02    0.260E-02
RMM:  29    -0.187994520966E+03   -0.72364E-03   -0.52102E-05  3675   0.100E-02    0.236E-02
RMM:  30    -0.187995184325E+03   -0.66336E-03   -0.44147E-05  3665   0.857E-03    0.231E-02
RMM:  31    -0.187995554583E+03   -0.37026E-03   -0.23001E-05  3420   0.661E-03    0.163E-02
RMM:  32    -0.187995765585E+03   -0.21100E-03   -0.11592E-05  2965   0.440E-03    0.116E-02
RMM:  33    -0.187995915206E+03   -0.14962E-03   -0.77692E-06  2755   0.348E-03    0.596E-03
RMM:  34    -0.187995978876E+03   -0.63670E-04   -0.19455E-06  2310   0.182E-03    0.443E-03
RMM:  35    -0.187996037023E+03   -0.58147E-04   -0.12206E-06  2182   0.151E-03    0.178E-03
RMM:  36    -0.187996073285E+03   -0.36262E-04   -0.72378E-07  2145   0.115E-03    0.185E-03
RMM:  37    -0.187996087653E+03   -0.14368E-04   -0.30507E-07  1687   0.754E-04    0.177E-03
RMM:  38    -0.187996101424E+03   -0.13771E-04   -0.32665E-07  2111   0.852E-04    0.141E-03
RMM:  39    -0.187996104380E+03   -0.29557E-05   -0.10869E-07  1056   0.426E-04    0.990E-04
RMM:  40    -0.187996106079E+03   -0.16990E-05   -0.77236E-08  1183   0.466E-04    0.466E-04
RMM:  41    -0.187996106984E+03   -0.90549E-06   -0.38545E-08   996   0.415E-04
   1 F= -.18799611E+03 E0= -.18787791E+03  d E =-.187996E+03
       N       E                     dE             d eps       ncg     rms          rms(c)
DAV:   1    -0.188622818547E+03   -0.62671E+00   -0.22505E+02  3684   0.229E+01    0.262E+00
RMM:   2    -0.188863846362E+03   -0.24103E+00   -0.24191E+00  3685   0.333E+00    0.195E+00
RMM:   3    -0.189077467125E+03   -0.21362E+00   -0.25711E-01  3709   0.842E-01    0.406E+00
RMM:   4    -0.188864060303E+03    0.21341E+00   -0.13012E-01  3687   0.556E-01    0.179E+00
RMM:   5    -0.188853135425E+03    0.10925E-01   -0.55407E-02  3684   0.376E-01    0.127E+00
RMM:   6    -0.188848928774E+03    0.42067E-02   -0.29806E-02  3685   0.279E-01    0.102E+00
RMM:   7    -0.188838942647E+03    0.99861E-02   -0.13124E-02  3683   0.186E-01    0.311E-01
RMM:   8    -0.188838054817E+03    0.88783E-03   -0.23644E-03  3683   0.746E-02    0.245E-01
RMM:   9    -0.188837532026E+03    0.52279E-03   -0.10167E-03  3685   0.504E-02    0.145E-01
RMM:  10    -0.188837357963E+03    0.17406E-03   -0.56599E-04  3684   0.368E-02    0.825E-02
RMM:  11    -0.188837294471E+03    0.63493E-04   -0.12664E-04  3690   0.179E-02    0.363E-02
RMM:  12    -0.188837296506E+03   -0.20350E-05   -0.29533E-05  3678   0.871E-03    0.282E-02
RMM:  13    -0.188837289702E+03    0.68038E-05   -0.14513E-05  3597   0.618E-03    0.131E-02
RMM:  14    -0.188837289286E+03    0.41570E-06   -0.45063E-06  2872   0.345E-03
   2 F= -.18883729E+03 E0= -.18871964E+03  d E =-.841182E+00
       N       E                     dE             d eps       ncg     rms          rms(c)
DAV:   1    -0.188097571204E+03    0.73972E+00   -0.15812E+03  3672   0.616E+01    0.563E+00
RMM:   2    -0.189715331522E+03   -0.16178E+01   -0.16737E+01  3685   0.877E+00    0.357E+00
RMM:   3    -0.190217896378E+03   -0.50256E+00   -0.11497E+00  3708   0.183E+00    0.630E+00
RMM:   4    -0.189721956501E+03    0.49594E+00   -0.42764E-01  3685   0.103E+00    0.396E+00
RMM:   5    -0.189657197893E+03    0.64759E-01   -0.20386E-01  3685   0.713E-01    0.266E+00
RMM:   6    -0.189621474472E+03    0.35723E-01   -0.15783E-01  3684   0.639E-01    0.186E+00
RMM:   7    -0.189595905007E+03    0.25569E-01   -0.69281E-02  3683   0.423E-01    0.996E-01
RMM:   8    -0.189585354637E+03    0.10550E-01   -0.17756E-02  3686   0.205E-01    0.601E-01
RMM:   9    -0.189582045484E+03    0.33092E-02   -0.61808E-03  3683   0.123E-01    0.378E-01
RMM:  10    -0.189580828162E+03    0.12173E-02   -0.31651E-03  3682   0.856E-02    0.214E-01
RMM:  11    -0.189580484883E+03    0.34328E-03   -0.85554E-04  3687   0.461E-02    0.109E-01
RMM:  12    -0.189580450946E+03    0.33937E-04   -0.26573E-04  3687   0.261E-02    0.678E-02
RMM:  13    -0.189580417091E+03    0.33855E-04   -0.11441E-04  3682   0.172E-02    0.321E-02
RMM:  14    -0.189580416006E+03    0.10849E-05   -0.25374E-05  3678   0.818E-03    0.196E-02
RMM:  15    -0.189580416922E+03   -0.91604E-06   -0.93717E-06  3317   0.493E-03
   3 F= -.18958042E+03 E0= -.18946494E+03  d E =-.158431E+01
       N       E                     dE             d eps       ncg     rms          rms(c)
DAV:   1    -0.189973599792E+03   -0.39318E+00   -0.41134E+02  3672   0.312E+01    0.225E+00
RMM:   2    -0.190417919164E+03   -0.44432E+00   -0.41418E+00  3685   0.445E+00    0.236E+00
RMM:   3    -0.190520998354E+03   -0.10308E+00   -0.30132E-01  3713   0.945E-01    0.384E+00
RMM:   4    -0.190363744017E+03    0.15725E+00   -0.55966E-02  3676   0.413E-01    0.138E+00
RMM:   5    -0.190365263939E+03   -0.15199E-02   -0.43266E-02  3685   0.333E-01    0.158E+00
RMM:   6    -0.190356545440E+03    0.87185E-02   -0.59328E-02  3684   0.387E-01    0.111E+00
RMM:   7    -0.190345523144E+03    0.11022E-01   -0.19519E-02  3684   0.224E-01    0.495E-01
RMM:   8    -0.190342665649E+03    0.28575E-02   -0.30865E-03  3688   0.888E-02    0.225E-01
RMM:   9    -0.190342195968E+03    0.46968E-03   -0.12326E-03  3684   0.562E-02    0.149E-01
RMM:  10    -0.190341973880E+03    0.22209E-03   -0.51651E-04  3684   0.356E-02    0.105E-01
RMM:  11    -0.190341892940E+03    0.80939E-04   -0.16804E-04  3685   0.205E-02    0.621E-02
RMM:  12    -0.190341876848E+03    0.16093E-04   -0.15266E-04  3685   0.192E-02    0.469E-02
RMM:  13    -0.190341860573E+03    0.16275E-04   -0.43097E-05  3684   0.104E-02    0.210E-02
RMM:  14    -0.190341860479E+03    0.93765E-07   -0.68851E-06  3129   0.433E-03
   4 F= -.19034186E+03 E0= -.19022958E+03  d E =-.761444E+00
       N       E                     dE             d eps       ncg     rms          rms(c)
DAV:   1    -0.188202369112E+03    0.21395E+01   -0.38896E+03  3672   0.989E+01    0.592E+00
RMM:   2    -0.191757494659E+03   -0.35551E+01   -0.36383E+01  3685   0.133E+01    0.426E+00
RMM:   3    -0.192401694682E+03   -0.64420E+00   -0.18377E+00  3705   0.235E+00    0.797E+00
RMM:   4    -0.191596916213E+03    0.80478E+00   -0.33575E-01  3682   0.969E-01    0.345E+00
RMM:   5    -0.191569574375E+03    0.27342E-01   -0.22177E-01  3684   0.750E-01    0.334E+00
RMM:   6    -0.191520025024E+03    0.49549E-01   -0.44294E-01  3685   0.105E+00    0.270E+00
RMM:   7    -0.191483538188E+03    0.36487E-01   -0.18883E-01  3683   0.691E-01    0.196E+00
RMM:   8    -0.191444607490E+03    0.38931E-01   -0.46871E-02  3685   0.348E-01    0.766E-01
RMM:   9    -0.191439237897E+03    0.53696E-02   -0.10891E-02  3684   0.167E-01    0.545E-01
RMM:  10    -0.191436703897E+03    0.25340E-02   -0.46178E-03  3682   0.109E-01    0.353E-01
RMM:  11    -0.191435394465E+03    0.13094E-02   -0.43153E-03  3685   0.101E-01    0.181E-01
RMM:  12    -0.191435233964E+03    0.16050E-03   -0.16612E-03  3684   0.639E-02    0.123E-01
RMM:  13    -0.191435101668E+03    0.13230E-03   -0.34004E-04  3684   0.297E-02    0.568E-02
RMM:  14    -0.191435070360E+03    0.31308E-04   -0.49945E-05  3685   0.117E-02    0.256E-02
RMM:  15    -0.191435068390E+03    0.19698E-05   -0.22249E-05  3678   0.755E-03    0.182E-02
RMM:  16    -0.191435069584E+03   -0.11943E-05   -0.11036E-05  3669   0.524E-03    0.835E-03
RMM:  17    -0.191435075973E+03   -0.63892E-05   -0.21035E-06  2195   0.247E-03    0.498E-03
RMM:  18    -0.191435078757E+03   -0.27833E-05   -0.75406E-07  2031   0.161E-03    0.251E-03
RMM:  19    -0.191435083625E+03   -0.48686E-05   -0.26827E-07  2062   0.843E-04    0.188E-03
RMM:  20    -0.191435086197E+03   -0.25718E-05   -0.10716E-07  1347   0.564E-04    0.849E-04
RMM:  21    -0.191435090511E+03   -0.43141E-05   -0.10757E-07  1446   0.505E-04    0.771E-04
RMM:  22    -0.191435093062E+03   -0.25507E-05   -0.75562E-08  1154   0.436E-04    0.712E-04
RMM:  23    -0.191435096758E+03   -0.36956E-05   -0.16011E-07  1332   0.508E-04    0.656E-04
RMM:  24    -0.191435098266E+03   -0.15089E-05   -0.79121E-08  1071   0.434E-04    0.483E-04
RMM:  25    -0.191435099529E+03   -0.12629E-05   -0.12537E-07  1203   0.434E-04    0.266E-04
RMM:  26    -0.191435099804E+03   -0.27435E-06   -0.10228E-08   514   0.326E-04
   5 F= -.19143510E+03 E0= -.19133154E+03  d E =-.185468E+01
       N       E                     dE             d eps       ncg     rms          rms(c)
DAV:   1    -0.191329101033E+03    0.10600E+00   -0.15917E+02  3708   0.194E+01    0.110E+00
RMM:   2    -0.191499283961E+03   -0.17018E+00   -0.16349E+00  3684   0.280E+00    0.121E+00
RMM:   3    -0.191525130289E+03   -0.25846E-01   -0.10452E-01  3721   0.567E-01    0.197E+00
RMM:   4    -0.191483626020E+03    0.41504E-01   -0.14949E-02  3675   0.217E-01    0.690E-01
RMM:   5    -0.191481879686E+03    0.17463E-02   -0.81539E-03  3685   0.147E-01    0.677E-01
RMM:   6    -0.191478666398E+03    0.32133E-02   -0.21814E-02  3684   0.233E-01    0.497E-01
RMM:   7    -0.191477613037E+03    0.10534E-02   -0.74358E-03  3683   0.137E-01    0.329E-01
RMM:   8    -0.191476412593E+03    0.12004E-02   -0.12883E-03  3689   0.577E-02    0.144E-01
RMM:   9    -0.191476208194E+03    0.20440E-03   -0.47006E-04  3682   0.348E-02    0.101E-01
RMM:  10    -0.191476091403E+03    0.11679E-03   -0.21029E-04  3684   0.225E-02    0.540E-02
RMM:  11    -0.191476072228E+03    0.19175E-04   -0.97466E-05  3684   0.152E-02    0.388E-02
RMM:  12    -0.191476058881E+03    0.13347E-04   -0.76994E-05  3686   0.134E-02    0.180E-02
RMM:  13    -0.191476058208E+03    0.67306E-06   -0.14511E-05  3672   0.604E-03    0.125E-02
RMM:  14    -0.191476056994E+03    0.12138E-05   -0.19676E-06  2137   0.254E-03    0.664E-03
RMM:  15    -0.191476056914E+03    0.79825E-07   -0.77595E-07  2006   0.157E-03
   6 F= -.19147606E+03 E0= -.19137400E+03  d E =-.189564E+01
       N       E                     dE             d eps       ncg     rms          rms(c)
DAV:   1    -0.191407773449E+03    0.68284E-01   -0.25961E+02  3672   0.250E+01    0.187E+00
RMM:   2    -0.191690244010E+03   -0.28247E+00   -0.28420E+00  3686   0.360E+00    0.150E+00
RMM:   3    -0.191808892860E+03   -0.11865E+00   -0.20786E-01  3699   0.756E-01    0.345E+00
RMM:   4    -0.191675067800E+03    0.13383E+00   -0.49097E-02  3686   0.364E-01    0.116E+00
RMM:   5    -0.191666896282E+03    0.81715E-02   -0.20545E-02  3685   0.231E-01    0.802E-01
RMM:   6    -0.191668089090E+03   -0.11928E-02   -0.30194E-02  3684   0.274E-01    0.823E-01
RMM:   7    -0.191662053682E+03    0.60354E-02   -0.12377E-02  3684   0.177E-01    0.340E-01
RMM:   8    -0.191660746680E+03    0.13070E-02   -0.21360E-03  3683   0.741E-02    0.193E-01
RMM:   9    -0.191660286919E+03    0.45976E-03   -0.72340E-04  3681   0.431E-02    0.877E-02
RMM:  10    -0.191660227696E+03    0.59222E-04   -0.22686E-04  3684   0.231E-02    0.616E-02
RMM:  11    -0.191660185439E+03    0.42257E-04   -0.10293E-04  3683   0.159E-02    0.338E-02
RMM:  12    -0.191660178659E+03    0.67798E-05   -0.56547E-05  3683   0.115E-02    0.191E-02
RMM:  13    -0.191660177210E+03    0.14487E-05   -0.15947E-05  3678   0.639E-03    0.109E-02
RMM:  14    -0.191660176994E+03    0.21602E-06   -0.22691E-06  2234   0.268E-03
   7 F= -.19166018E+03 E0= -.19156026E+03  d E =-.184120E+00
       N       E                     dE             d eps       ncg     rms          rms(c)
DAV:   1    -0.191659907232E+03    0.26998E-03   -0.13780E+00  3744   0.181E+00    0.127E-01
RMM:   2    -0.191661406672E+03   -0.14994E-02   -0.15224E-02  3686   0.263E-01    0.113E-01
RMM:   3    -0.191661919444E+03   -0.51277E-03   -0.10784E-03  3704   0.548E-02    0.242E-01
RMM:   4    -0.191661280983E+03    0.63846E-03   -0.23219E-04  3684   0.255E-02    0.761E-02
RMM:   5    -0.191661283998E+03   -0.30149E-05   -0.98980E-05  3686   0.163E-02    0.590E-02
RMM:   6    -0.191661304064E+03   -0.20065E-04   -0.16243E-04  3683   0.202E-02    0.581E-02
RMM:   7    -0.191661275869E+03    0.28194E-04   -0.67174E-05  3684   0.131E-02    0.213E-02
RMM:   8    -0.191661272684E+03    0.31850E-05   -0.11249E-05  3666   0.535E-03    0.155E-02
RMM:   9    -0.191661269536E+03    0.31480E-05   -0.36987E-06  2582   0.317E-03    0.584E-03
RMM:  10    -0.191661269416E+03    0.12013E-06   -0.11673E-06  1959   0.182E-03
   8 F= -.19166127E+03 E0= -.19156120E+03  d E =-.185213E+00
       N       E                     dE             d eps       ncg     rms          rms(c)
DAV:   1    -0.191661142827E+03    0.12671E-03   -0.27895E+01  3672   0.816E+00    0.606E-01
RMM:   2    -0.191696000035E+03   -0.34857E-01   -0.32677E-01  3684   0.120E+00    0.708E-01
RMM:   3    -0.191703046807E+03   -0.70468E-02   -0.25069E-02  3701   0.258E-01    0.104E+00
RMM:   4    -0.191691356370E+03    0.11690E-01   -0.50152E-03  3687   0.118E-01    0.346E-01
RMM:   5    -0.191690775236E+03    0.58113E-03   -0.22043E-03  3684   0.764E-02    0.266E-01
RMM:   6    -0.191691042801E+03   -0.26756E-03   -0.38257E-03  3685   0.963E-02    0.280E-01
RMM:   7    -0.191690307529E+03    0.73527E-03   -0.15814E-03  3683   0.626E-02    0.103E-01
RMM:   8    -0.191690224190E+03    0.83339E-04   -0.25540E-04  3683   0.256E-02    0.741E-02
RMM:   9    -0.191690148200E+03    0.75990E-04   -0.90772E-05  3680   0.152E-02    0.293E-02
RMM:  10    -0.191690141284E+03    0.69164E-05   -0.27163E-05  3677   0.797E-03    0.209E-02
RMM:  11    -0.191690136789E+03    0.44941E-05   -0.15574E-05  3672   0.600E-03    0.123E-02
RMM:  12    -0.191690135693E+03    0.10969E-05   -0.92500E-06  3671   0.453E-03    0.592E-03
RMM:  13    -0.191690135686E+03    0.68103E-08   -0.19019E-06  2050   0.234E-03
   9 F= -.19169014E+03 E0= -.19159122E+03  d E =-.288663E-01
       N       E                     dE             d eps       ncg     rms          rms(c)
DAV:   1    -0.191689282332E+03    0.85336E-03   -0.22454E+00  3696   0.231E+00    0.171E-01
RMM:   2    -0.191692121655E+03   -0.28393E-02   -0.26428E-02  3684   0.341E-01    0.214E-01
RMM:   3    -0.191692531015E+03   -0.40936E-03   -0.20337E-03  3703   0.736E-02    0.285E-01
RMM:   4    -0.191691663683E+03    0.86733E-03   -0.38669E-04  3687   0.329E-02    0.972E-02
RMM:   5    -0.191691642456E+03    0.21227E-04   -0.17347E-04  3684   0.215E-02    0.756E-02
RMM:   6    -0.191691684178E+03   -0.41722E-04   -0.31143E-04  3685   0.275E-02    0.802E-02
RMM:   7    -0.191691622907E+03    0.61271E-04   -0.12952E-04  3683   0.179E-02    0.272E-02
RMM:   8    -0.191691618957E+03    0.39497E-05   -0.19464E-05  3672   0.708E-03    0.212E-02
RMM:   9    -0.191691612911E+03    0.60461E-05   -0.70431E-06  3373   0.425E-03    0.845E-03
RMM:  10    -0.191691612494E+03    0.41699E-06   -0.20941E-06  2040   0.239E-03
  10 F= -.19169161E+03 E0= -.19159302E+03  d E =-.303431E-01
       N       E                     dE             d eps       ncg     rms          rms(c)
DAV:   1    -0.191690109630E+03    0.15033E-02   -0.12345E+01  3672   0.540E+00    0.353E-01
RMM:   2    -0.191706314180E+03   -0.16205E-01   -0.14889E-01  3684   0.803E-01    0.506E-01
RMM:   3    -0.191706895734E+03   -0.58155E-03   -0.10737E-02  3711   0.170E-01    0.542E-01
RMM:   4    -0.191703780659E+03    0.31151E-02   -0.16596E-03  3688   0.694E-02    0.204E-01
RMM:   5    -0.191703621296E+03    0.15936E-03   -0.74372E-04  3686   0.445E-02    0.177E-01
RMM:   6    -0.191703720070E+03   -0.98774E-04   -0.17493E-03  3682   0.644E-02    0.187E-01
RMM:   7    -0.191703415743E+03    0.30433E-03   -0.86357E-04  3682   0.457E-02    0.662E-02
RMM:   8    -0.191703390070E+03    0.25674E-04   -0.91953E-05  3688   0.153E-02    0.501E-02
RMM:   9    -0.191703355827E+03    0.34243E-04   -0.34814E-05  3678   0.949E-03    0.246E-02
RMM:  10    -0.191703348687E+03    0.71398E-05   -0.17813E-05  3672   0.631E-03    0.164E-02
RMM:  11    -0.191703345175E+03    0.35122E-05   -0.14427E-05  3676   0.560E-03    0.816E-03
RMM:  12    -0.191703345085E+03    0.90055E-07   -0.50918E-06  2873   0.344E-03
  11 F= -.19170335E+03 E0= -.19160534E+03  d E =-.117326E-01
       N       E                     dE             d eps       ncg     rms          rms(c)
DAV:   1    -0.191702046086E+03    0.12991E-02   -0.22409E+00  3672   0.230E+00    0.149E-01
RMM:   2    -0.191705014552E+03   -0.29685E-02   -0.27078E-02  3684   0.343E-01    0.227E-01
RMM:   3    -0.191704992309E+03    0.22243E-04   -0.19560E-03  3713   0.726E-02    0.221E-01
RMM:   4    -0.191704489133E+03    0.50318E-03   -0.28867E-04  3688   0.291E-02    0.863E-02
RMM:   5    -0.191704472331E+03    0.16802E-04   -0.13236E-04  3686   0.188E-02    0.756E-02
RMM:   6    -0.191704505057E+03   -0.32726E-04   -0.32641E-04  3681   0.278E-02    0.795E-02
RMM:   7    -0.191704451616E+03    0.53440E-04   -0.15711E-04  3681   0.195E-02    0.278E-02
RMM:   8    -0.191704447523E+03    0.40938E-05   -0.16170E-05  3672   0.645E-03    0.212E-02
RMM:   9    -0.191704441623E+03    0.58994E-05   -0.60896E-06  3062   0.401E-03    0.109E-02
RMM:  10    -0.191704440373E+03    0.12501E-05   -0.33304E-06  2465   0.292E-03    0.738E-03
RMM:  11    -0.191704439851E+03    0.52184E-06   -0.27756E-06  2045   0.282E-03
  12 F= -.19170444E+03 E0= -.19160666E+03  d E =-.128274E-01
       N       E                     dE             d eps       ncg     rms          rms(c)
DAV:   1    -0.191703069994E+03    0.13704E-02   -0.51024E+00  3672   0.348E+00    0.248E-01
RMM:   2    -0.191709355432E+03   -0.62854E-02   -0.60449E-02  3685   0.516E-01    0.287E-01
RMM:   3    -0.191710442446E+03   -0.10870E-02   -0.44858E-03  3712   0.111E-01    0.412E-01
RMM:   4    -0.191708628052E+03    0.18144E-02   -0.87516E-04  3685   0.493E-02    0.151E-01
RMM:   5    -0.191708541895E+03    0.86158E-04   -0.34793E-04  3685   0.306E-02    0.111E-01
RMM:   6    -0.191708617994E+03   -0.76100E-04   -0.79090E-04  3683   0.436E-02    0.118E-01
RMM:   7    -0.191708494189E+03    0.12380E-03   -0.30504E-04  3682   0.274E-02    0.479E-02
RMM:   8    -0.191708475697E+03    0.18493E-04   -0.44770E-05  3679   0.106E-02    0.315E-02
RMM:   9    -0.191708462214E+03    0.13482E-04   -0.16259E-05  3672   0.649E-03    0.142E-02
RMM:  10    -0.191708460190E+03    0.20241E-05   -0.66948E-06  3386   0.395E-03    0.961E-03
RMM:  11    -0.191708459243E+03    0.94705E-06   -0.36724E-06  2592   0.303E-03
  13 F= -.19170846E+03 E0= -.19161099E+03  d E =-.401939E-02
       N       E                     dE             d eps       ncg     rms          rms(c)
DAV:   1    -0.191708250934E+03    0.20926E-03   -0.37574E-01  3708   0.945E-01    0.675E-02
RMM:   2    -0.191708724298E+03   -0.47336E-03   -0.44829E-03  3685   0.141E-01    0.855E-02
RMM:   3    -0.191708772031E+03   -0.47732E-04   -0.33560E-04  3712   0.303E-02    0.107E-01
RMM:   4    -0.191708653115E+03    0.11892E-03   -0.62821E-05  3685   0.133E-02    0.415E-02
RMM:   5    -0.191708649372E+03    0.37434E-05   -0.25271E-05  3677   0.830E-03    0.298E-02
RMM:   6    -0.191708658693E+03   -0.93212E-05   -0.59545E-05  3683   0.120E-02    0.321E-02
RMM:   7    -0.191708649391E+03    0.93022E-05   -0.22997E-05  3672   0.752E-03    0.133E-02
RMM:   8    -0.191708648067E+03    0.13238E-05   -0.34611E-06  2634   0.301E-03    0.857E-03
RMM:   9    -0.191708647043E+03    0.10240E-05   -0.12737E-06  1955   0.202E-03    0.386E-03
RMM:  10    -0.191708646987E+03    0.55814E-07   -0.65331E-07  1942   0.139E-03
  14 F= -.19170865E+03 E0= -.19161128E+03  d E =-.420714E-02
       N       E                     dE             d eps       ncg     rms          rms(c)
DAV:   1    -0.191707765751E+03    0.88129E-03   -0.22770E+00  3672   0.233E+00    0.153E-01
RMM:   2    -0.191710524920E+03   -0.27592E-02   -0.26635E-02  3685   0.345E-01    0.192E-01
RMM:   3    -0.191710831102E+03   -0.30618E-03   -0.18873E-03  3710   0.725E-02    0.245E-01
RMM:   4    -0.191710184919E+03    0.64618E-03   -0.33948E-04  3685   0.309E-02    0.961E-02
RMM:   5    -0.191710144261E+03    0.40658E-04   -0.12636E-04  3686   0.186E-02    0.685E-02
RMM:   6    -0.191710157794E+03   -0.13533E-04   -0.40353E-04  3682   0.310E-02    0.604E-02
RMM:   7    -0.191710133858E+03    0.23935E-04   -0.98204E-05  3679   0.155E-02    0.353E-02
RMM:   8    -0.191710120151E+03    0.13707E-04   -0.17692E-05  3675   0.680E-03    0.193E-02
RMM:   9    -0.191710115684E+03    0.44677E-05   -0.60052E-06  3014   0.395E-03    0.101E-02
RMM:  10    -0.191710114562E+03    0.11215E-05   -0.30879E-06  2205   0.287E-03    0.696E-03
RMM:  11    -0.191710114055E+03    0.50653E-06   -0.22849E-06  1961   0.266E-03
  15 F= -.19171011E+03 E0= -.19161295E+03  d E =-.146707E-02
       N       E                     dE             d eps       ncg     rms          rms(c)
DAV:   1    -0.191710104339E+03    0.10223E-04   -0.18940E-02  3756   0.212E-01    0.141E-02
RMM:   2    -0.191710128621E+03   -0.24282E-04   -0.22482E-04  3685   0.317E-02    0.213E-02
RMM:   3    -0.191710128074E+03    0.54699E-06   -0.16244E-05  3701   0.674E-03    0.204E-02
RMM:   4    -0.191710123860E+03    0.42145E-05   -0.26528E-06  2324   0.286E-03    0.965E-03
RMM:   5    -0.191710123458E+03    0.40184E-06   -0.11484E-06  1948   0.203E-03
  16 F= -.19171012E+03 E0= -.19161300E+03  d E =-.147647E-02
       N       E                     dE             d eps       ncg     rms          rms(c)
DAV:   1    -0.191709690457E+03    0.43340E-03   -0.12852E+00  3672   0.175E+00    0.109E-01
RMM:   2    -0.191711220526E+03   -0.15301E-02   -0.14651E-02  3686   0.258E-01    0.140E-01
RMM:   3    -0.191711356929E+03   -0.13640E-03   -0.10316E-03  3713   0.539E-02    0.176E-01
RMM:   4    -0.191711032962E+03    0.32397E-03   -0.17160E-04  3682   0.221E-02    0.724E-02
RMM:   5    -0.191711009610E+03    0.23353E-04   -0.64075E-05  3685   0.133E-02    0.515E-02
RMM:   6    -0.191711027060E+03   -0.17451E-04   -0.19527E-04  3682   0.216E-02    0.587E-02
RMM:   7    -0.191710998549E+03    0.28511E-04   -0.86495E-05  3681   0.145E-02    0.223E-02
RMM:   8    -0.191710995315E+03    0.32343E-05   -0.10415E-05  3562   0.516E-03    0.158E-02
RMM:   9    -0.191710991829E+03    0.34857E-05   -0.37217E-06  2692   0.321E-03    0.765E-03
RMM:  10    -0.191710991120E+03    0.70905E-06   -0.19343E-06  1953   0.232E-03
  17 F= -.19171099E+03 E0= -.19161398E+03  d E =-.867662E-03
       N       E                     dE             d eps       ncg     rms          rms(c)
DAV:   1    -0.191710377679E+03    0.61415E-03   -0.65729E-01  3672   0.125E+00    0.780E-02
RMM:   2    -0.191711169034E+03   -0.79135E-03   -0.75435E-03  3686   0.185E-01    0.104E-01
RMM:   3    -0.191711226239E+03   -0.57205E-04   -0.53221E-04  3714   0.387E-02    0.125E-01
RMM:   4    -0.191711062932E+03    0.16331E-03   -0.87476E-05  3685   0.157E-02    0.496E-02
RMM:   5    -0.191711053484E+03    0.94480E-05   -0.33693E-05  3683   0.964E-03    0.363E-02
RMM:   6    -0.191711058298E+03   -0.48141E-05   -0.10328E-04  3684   0.157E-02    0.352E-02
RMM:   7    -0.191711050017E+03    0.82807E-05   -0.37085E-05  3679   0.949E-03    0.173E-02
RMM:   8    -0.191711047753E+03    0.22638E-05   -0.52011E-06  2888   0.370E-03    0.121E-02
RMM:   9    -0.191711045811E+03    0.19423E-05   -0.19622E-06  2069   0.246E-03    0.579E-03
RMM:  10    -0.191711045501E+03    0.31003E-06   -0.10451E-06  1942   0.176E-03
  18 F= -.19171105E+03 E0= -.19161410E+03  d E =-.922043E-03
       N       E                     dE             d eps       ncg     rms          rms(c)
DAV:   1    -0.191710998370E+03    0.47441E-04   -0.79578E-02  3672   0.436E-01    0.267E-02
RMM:   2    -0.191711094290E+03   -0.95920E-04   -0.89932E-04  3686   0.639E-02    0.364E-02
RMM:   3    -0.191711098406E+03   -0.41155E-05   -0.63034E-05  3715   0.133E-02    0.414E-02
RMM:   4    -0.191711081005E+03    0.17401E-04   -0.10189E-05  3656   0.542E-03    0.171E-02
RMM:   5    -0.191711080252E+03    0.75241E-06   -0.41221E-06  2764   0.342E-03
  19 F= -.19171108E+03 E0= -.19161410E+03  d E =-.956794E-03
       N       E                     dE             d eps       ncg     rms          rms(c)
DAV:   1    -0.191710661769E+03    0.41924E-03   -0.78082E-01  3672   0.136E+00    0.812E-02
RMM:   2    -0.191711595179E+03   -0.93341E-03   -0.85787E-03  3684   0.199E-01    0.120E-01
RMM:   3    -0.191711608849E+03   -0.13670E-04   -0.59963E-04  3714   0.418E-02    0.124E-01
RMM:   4    -0.191711455053E+03    0.15380E-03   -0.97979E-05  3685   0.167E-02    0.549E-02
RMM:   5    -0.191711438370E+03    0.16683E-04   -0.44415E-05  3686   0.109E-02    0.428E-02
RMM:   6    -0.191711442606E+03   -0.42367E-05   -0.93694E-05  3682   0.152E-02    0.463E-02
RMM:   7    -0.191711423097E+03    0.19510E-04   -0.67783E-05  3687   0.129E-02    0.162E-02
RMM:   8    -0.191711422337E+03    0.75929E-06   -0.78300E-06  3094   0.452E-03
  20 F= -.19171142E+03 E0= -.19161453E+03  d E =-.342085E-03
