<?xml version="1.0" encoding="ISO-8859-1"?>
<modeling>
 <generator>
  <i name="program" type="string">vasp </i>
  <i name="version" type="string">5.4.1  </i>
  <i name="subversion" type="string">24Jun15 (build Mar 14 2019 10:18:33) complex                          parallel </i>
  <i name="platform" type="string">INTEL-19.0.2+OPENMPI-3.1.3 </i>
  <i name="date" type="string">2023 01 31 </i>
  <i name="time" type="string">01:03:40 </i>
 </generator>
 <incar>
  <i type="int" name="ISTART">     0</i>
  <i type="string" name="PREC">normal</i>
  <i type="string" name="ALGO"> Fast</i>
  <i type="int" name="NELM">   500</i>
  <i type="int" name="IBRION">     2</i>
  <i type="int" name="NFREE">     2</i>
  <i name="EDIFF">      0.00000100</i>
  <i name="EDIFFG">     -0.02000000</i>
  <i type="int" name="NSW">   500</i>
  <i type="int" name="ISIF">     0</i>
  <i type="int" name="ISYM">     2</i>
  <i name="ENCUT">    400.00000000</i>
  <i name="POTIM">      0.35000000</i>
  <i type="string" name="LREAL"> Auto</i>
  <i type="logical" name="LPLANE"> T  </i>
  <i type="int" name="ISMEAR">     0</i>
  <i name="SIGMA">      0.10000000</i>
  <i type="int" name="NWRITE">     1</i>
  <i type="logical" name="LWAVE"> F  </i>
  <i type="logical" name="LCHARG"> F  </i>
  <i type="logical" name="LVTOT"> F  </i>
  <i type="logical" name="LORBIT"> F  </i>
  <i type="logical" name="LAECHG"> F  </i>
  <v type="int" name="KPOINT_BSE">    -1     0     0     0</v>
  <i type="int" name="NELM">   500</i>
  <i type="string" name="GGA"> PE          ! optPBE-vdW XC-functional</i>
  <i type="int" name="VOSKOWN">     1</i>
  <i type="logical" name="LDIPOL"> T  </i>
  <i type="logical" name="LMONO"> F  </i>
  <i type="int" name="IDIPOL">     3</i>
  <v name="DIPOL">      0.00000000      0.00000000      0.50000000</v>
 </incar>
 <kpoints>
  <generation param="Monkhorst-Pack">
   <v type="int" name="divisions">       2        2        1 </v>
   <v name="usershift">      0.00000000       0.00000000       0.00000000 </v>
   <v name="genvec1">      0.50000000      -0.00000000       0.00000000 </v>
   <v name="genvec2">      0.00000000       0.50000000       0.00000000 </v>
   <v name="genvec3">      0.00000000       0.00000000       1.00000000 </v>
   <v name="shift">      0.50000000       0.50000000       0.00000000 </v>
  </generation>
  <varray name="kpointlist" >
   <v>       0.25000000       0.25000000       0.00000000 </v>
   <v>       0.00000000       0.25000000       0.00000000 </v>
   <v>      -0.25000000       0.00000000       0.00000000 </v>
   <v>      -0.25000000       0.25000000       0.00000000 </v>
   <v>       0.50000000      -0.25000000       0.00000000 </v>
   <v>      -0.25000000       0.50000000       0.00000000 </v>
  </varray>
  <varray name="weights" >
   <v>       0.16666667 </v>
   <v>       0.16666667 </v>
   <v>       0.16666667 </v>
   <v>       0.16666667 </v>
   <v>       0.16666667 </v>
   <v>       0.16666667 </v>
  </varray>
 </kpoints>
 <parameters>
  <separator name="general" >
   <i type="string" name="SYSTEM">unknown system</i>
   <i type="logical" name="LCOMPAT"> F  </i>
  </separator>
  <separator name="electronic" >
   <i type="string" name="PREC">normal</i>
   <i name="ENMAX">    400.00000000</i>
   <i name="ENAUG">    416.23000000</i>
   <i name="EDIFF">      0.00000100</i>
   <i type="int" name="IALGO">    68</i>
   <i type="int" name="IWAVPR">    11</i>
   <i type="int" name="NBANDS">   306</i>
   <i name="NELECT">    504.00000000</i>
   <i type="int" name="TURBO">     0</i>
   <i type="int" name="IRESTART">     0</i>
   <i type="int" name="NREBOOT">     0</i>
   <i type="int" name="NMIN">     0</i>
   <i name="EREF">      0.00000000</i>
   <separator name="electronic smearing" >
    <i type="int" name="ISMEAR">     0</i>
    <i name="SIGMA">      0.10000000</i>
    <i name="KSPACING">      0.50000000</i>
    <i type="logical" name="KGAMMA"> T  </i>
   </separator>
   <separator name="electronic projectors" >
    <i type="logical" name="LREAL"> T  </i>
    <v name="ROPT">     -0.00050000     -0.00050000</v>
    <i type="int" name="LMAXPAW">  -100</i>
    <i type="int" name="LMAXMIX">     2</i>
    <i type="logical" name="NLSPLINE"> F  </i>
   </separator>
   <separator name="electronic startup" >
    <i type="int" name="ISTART">     0</i>
    <i type="int" name="ICHARG">     2</i>
    <i type="int" name="INIWAV">     1</i>
   </separator>
   <separator name="electronic spin" >
    <i type="int" name="ISPIN">     1</i>
    <i type="logical" name="LNONCOLLINEAR"> F  </i>
    <v name="MAGMOM">      1.00000000      1.00000000      1.00000000      1.00000000      1.00000000      1.00000000      1.00000000      1.00000000      1.00000000      1.00000000      1.00000000      1.00000000      1.00000000      1.00000000      1.00000000      1.00000000      1.00000000      1.00000000      1.00000000      1.00000000
      1.00000000      1.00000000      1.00000000      1.00000000      1.00000000      1.00000000      1.00000000      1.00000000      1.00000000      1.00000000      1.00000000      1.00000000      1.00000000      1.00000000      1.00000000      1.00000000      1.00000000      1.00000000      1.00000000      1.00000000
      1.00000000      1.00000000      1.00000000      1.00000000      1.00000000      1.00000000      1.00000000      1.00000000</v>
    <i name="NUPDOWN">     -1.00000000</i>
    <i type="logical" name="LSORBIT"> F  </i>
    <v name="SAXIS">      0.00000000      0.00000000      1.00000000</v>
    <i type="logical" name="LSPIRAL"> F  </i>
    <v name="QSPIRAL">      0.00000000      0.00000000      0.00000000</v>
    <i type="logical" name="LZEROZ"> F  </i>
   </separator>
   <separator name="electronic exchange-correlation" >
    <i type="logical" name="LASPH"> F  </i>
    <i type="logical" name="LMETAGGA"> F  </i>
   </separator>
   <separator name="electronic convergence" >
    <i type="int" name="NELM">   500</i>
    <i type="int" name="NELMDL">    -5</i>
    <i type="int" name="NELMIN">     2</i>
    <i name="ENINI">    400.00000000</i>
    <separator name="electronic convergence detail" >
     <i type="logical" name="LDIAG"> T  </i>
     <i type="logical" name="LSUBROT"> F  </i>
     <i name="WEIMIN">      0.00100000</i>
     <i name="EBREAK">      0.00000000</i>
     <i name="DEPER">      0.30000000</i>
     <i type="int" name="NRMM">     4</i>
     <i name="TIME">      0.40000000</i>
    </separator>
   </separator>
   <separator name="electronic mixer" >
    <i name="AMIX">      0.40000000</i>
    <i name="BMIX">      1.00000000</i>
    <i name="AMIN">      0.10000000</i>
    <i name="AMIX_MAG">      1.60000000</i>
    <i name="BMIX_MAG">      1.00000000</i>
    <separator name="electronic mixer details" >
     <i type="int" name="IMIX">     4</i>
     <i type="logical" name="MIXFIRST"> F  </i>
     <i type="int" name="MAXMIX">   -45</i>
     <i name="WC">    100.00000000</i>
     <i type="int" name="INIMIX">     1</i>
     <i type="int" name="MIXPRE">     1</i>
     <i type="int" name="MREMOVE">     5</i>
    </separator>
   </separator>
   <separator name="electronic dipolcorrection" >
    <i type="logical" name="LDIPOL"> T  </i>
    <i type="logical" name="LMONO"> F  </i>
    <i type="int" name="IDIPOL">     3</i>
    <i name="EPSILON">      1.00000000</i>
    <v name="DIPOL">      0.00000000      0.00000000      0.50000000</v>
    <i name="EFIELD">      0.00000000</i>
   </separator>
  </separator>
  <separator name="grids" >
   <i type="int" name="NGX">    54</i>
   <i type="int" name="NGY">    54</i>
   <i type="int" name="NGZ">   120</i>
   <i type="int" name="NGXF">   108</i>
   <i type="int" name="NGYF">   108</i>
   <i type="int" name="NGZF">   240</i>
   <i type="logical" name="ADDGRID"> F  </i>
  </separator>
  <separator name="ionic" >
   <i type="int" name="NSW">   500</i>
   <i type="int" name="IBRION">     2</i>
   <i type="int" name="ISIF">     0</i>
   <i name="PSTRESS">      0.00000000</i>
   <i name="EDIFFG">     -0.02000000</i>
   <i type="int" name="NFREE">     2</i>
   <i name="POTIM">      0.35000000</i>
   <i name="SMASS">     -3.00000000</i>
   <i name="SCALEE">      1.00000000</i>
  </separator>
  <separator name="ionic md" >
   <i name="TEBEG">      0.00010000</i>
   <i name="TEEND">      0.00010000</i>
   <i type="int" name="NBLOCK">     1</i>
   <i type="int" name="KBLOCK">   500</i>
   <i type="int" name="NPACO">   256</i>
   <i name="APACO">     16.00000000</i>
  </separator>
  <separator name="symmetry" >
   <i type="int" name="ISYM">     2</i>
   <i name="SYMPREC">      0.00001000</i>
  </separator>
  <separator name="dos" >
   <i type="logical" name="LORBIT"> F  </i>
   <v name="RWIGS">     -1.00000000     -1.00000000</v>
   <i type="int" name="NEDOS">   301</i>
   <i name="EMIN">     10.00000000</i>
   <i name="EMAX">    -10.00000000</i>
   <i name="EFERMI">      0.00000000</i>
  </separator>
  <separator name="writing" >
   <i type="int" name="NWRITE">     1</i>
   <i type="logical" name="LWAVE"> F  </i>
   <i type="logical" name="LCHARG"> F  </i>
   <i type="logical" name="LPARD"> F  </i>
   <i type="logical" name="LVTOT"> F  </i>
   <i type="logical" name="LVHAR"> F  </i>
   <i type="logical" name="LELF"> F  </i>
   <i type="logical" name="LOPTICS"> F  </i>
   <v name="STM">      0.00000000      0.00000000      0.00000000      0.00000000      0.00000000      0.00000000      0.00000000</v>
  </separator>
  <separator name="performance" >
   <i type="int" name="NPAR">     6</i>
   <i type="int" name="NSIM">     4</i>
   <i type="int" name="NBLK">    -1</i>
   <i type="logical" name="LPLANE"> T  </i>
   <i type="logical" name="LSCALAPACK"> T  </i>
   <i type="logical" name="LSCAAWARE"> F  </i>
   <i type="logical" name="LSCALU"> F  </i>
   <i type="logical" name="LASYNC"> F  </i>
   <i type="logical" name="LORBITALREAL"> F  </i>
  </separator>
  <separator name="miscellaneous" >
   <i type="int" name="IDIOT">     3</i>
   <i type="logical" name="LMUSIC"> F  </i>
   <v name="POMASS">    196.96600000    106.42000000</v>
   <v name="DARWINR">      0.00000000      0.00000000</v>
   <v name="DARWINV">      1.00000000      1.00000000</v>
   <i type="logical" name="LCORR"> T  </i>
  </separator>
  <i type="logical" name="GGA_COMPAT"> T  </i>
  <i type="logical" name="LBERRY"> F  </i>
  <i type="int" name="ICORELEVEL">     0</i>
  <i type="logical" name="LDAU"> F  </i>
  <i type="int" name="I_CONSTRAINED_M">     0</i>
  <separator name="electronic exchange-correlation" >
   <i type="string" name="GGA">PE</i>
   <i type="int" name="VOSKOWN">     1</i>
   <i type="logical" name="LHFCALC"> F  </i>
   <i type="string" name="PRECFOCK"></i>
   <i type="logical" name="LSYMGRAD"> F  </i>
   <i type="logical" name="LHFONE"> F  </i>
   <i type="logical" name="LRHFCALC"> F  </i>
   <i type="logical" name="LTHOMAS"> F  </i>
   <i type="logical" name="LMODELHF"> F  </i>
   <i name="ENCUT4O">     -1.00000000</i>
   <i type="int" name="EXXOEP">     0</i>
   <i type="int" name="FOURORBIT">     0</i>
   <i name="AEXX">      0.00000000</i>
   <i name="HFALPHA">      0.00000000</i>
   <i name="MCALPHA">      0.00000000</i>
   <i name="ALDAX">      1.00000000</i>
   <i name="AGGAX">      1.00000000</i>
   <i name="ALDAC">      1.00000000</i>
   <i name="AGGAC">      1.00000000</i>
   <i type="int" name="NKREDX">     1</i>
   <i type="int" name="NKREDY">     1</i>
   <i type="int" name="NKREDZ">     1</i>
   <i type="logical" name="SHIFTRED"> F  </i>
   <i type="logical" name="ODDONLY"> F  </i>
   <i type="logical" name="EVENONLY"> F  </i>
   <i type="int" name="LMAXFOCK">     0</i>
   <i type="int" name="NMAXFOCKAE">     0</i>
   <i type="logical" name="LFOCKAEDFT"> F  </i>
   <i name="HFSCREEN">      0.00000000</i>
   <i name="HFSCREENC">      0.00000000</i>
   <i type="int" name="NBANDSGWLOW">     0</i>
  </separator>
  <separator name="vdW DFT" >
   <i type="logical" name="LUSE_VDW"> F  </i>
   <i name="Zab_VDW">     -0.84910000</i>
   <i name="PARAM1">      0.12340000</i>
   <i name="PARAM2">      1.00000000</i>
   <i name="PARAM3">      0.00000000</i>
  </separator>
  <separator name="model GW" >
   <i type="int" name="MODEL_GW">     0</i>
   <i name="MODEL_EPS0">     32.09595293</i>
   <i name="MODEL_ALPHA">      1.00000000</i>
  </separator>
  <separator name="linear response parameters" >
   <i type="logical" name="LEPSILON"> F  </i>
   <i type="logical" name="LRPA"> F  </i>
   <i type="logical" name="LNABLA"> F  </i>
   <i type="logical" name="LVEL"> F  </i>
   <i type="int" name="KINTER">     0</i>
   <i name="CSHIFT">      0.10000000</i>
   <i name="OMEGAMAX">     -1.00000000</i>
   <i name="DEG_THRESHOLD">      0.00200000</i>
  </separator>
  <separator name="orbital magnetization" >
   <i type="logical" name="NUCIND"> F  </i>
   <v name="MAGPOS">      0.00000000      0.00000000      0.00000000</v>
   <i type="logical" name="LNICSALL"> T  </i>
   <i type="logical" name="ORBITALMAG"> F  </i>
   <i type="logical" name="LMAGBLOCH"> F  </i>
   <i type="logical" name="LCHIMAG"> F  </i>
   <i type="logical" name="LGAUGE"> T  </i>
   <i type="int" name="MAGATOM">     0</i>
   <v name="MAGDIPOL">      0.00000000      0.00000000      0.00000000</v>
   <v name="AVECCONST">      0.00000000      0.00000000      0.00000000</v>
  </separator>
  <separator name="response functions" >
   <i type="logical" name="LADDER"> F  </i>
   <i type="logical" name="LFXC"> F  </i>
   <i type="logical" name="LHARTREE"> T  </i>
   <i type="int" name="IBSE">     0</i>
   <v type="int" name="KPOINT">    -1     0     0     0</v>
   <i type="logical" name="LTCTE"> F  </i>
   <i type="logical" name="LTETE"> F  </i>
   <i type="logical" name="LTRIPLET"> F  </i>
   <i type="logical" name="LFXCEPS"> F  </i>
   <i type="logical" name="LFXHEG"> F  </i>
   <i type="int" name="NATURALO">     0</i>
   <i type="logical" name="L2ORDER"> F  </i>
   <i type="logical" name="LUSEW"> F  </i>
   <i name="ENCUTGW">     -2.00000000</i>
   <i name="ENCUTGWSOFT">     -2.00000000</i>
   <i name="ENCUTLF">     -1.00000000</i>
   <i type="int" name="LMAXMP2">    -1</i>
   <i name="SCISSOR">      0.00000000</i>
   <i type="int" name="NOMEGA">     0</i>
   <i type="int" name="NOMEGAR">     0</i>
   <i type="int" name="NBANDSGW">    -1</i>
   <i type="int" name="NBANDSO">    -1</i>
   <i type="int" name="NBANDSV">    -1</i>
   <i type="int" name="NELM">   500</i>
   <i type="int" name="NELMHF">     1</i>
   <i type="int" name="DIM">     3</i>
   <i type="int" name="ANTIRES">     0</i>
   <i name="OMEGAMAX">    -30.00000000</i>
   <i name="OMEGAMIN">    -30.00000000</i>
   <i name="OMEGATL">   -200.00000000</i>
   <i type="int" name="OMEGAGRID">     0</i>
   <i name="CSHIFT">     -0.10000000</i>
   <i type="logical" name="SELFENERGY"> F  </i>
   <i type="logical" name="LSPECTRAL"> F  </i>
   <i type="logical" name="LSPECTRALGW"> F  </i>
   <i type="logical" name="LSINGLES"> F  </i>
   <i type="logical" name="LFERMIGW"> F  </i>
   <i type="logical" name="ODDONLYGW"> F  </i>
   <i type="logical" name="EVENONLYGW"> F  </i>
   <i type="int" name="NKREDLFX">     1</i>
   <i type="int" name="NKREDLFY">     1</i>
   <i type="int" name="NKREDLFZ">     1</i>
   <i type="int" name="MAXMEM">  1800</i>
   <i type="int" name="TELESCOPE">     0</i>
   <i type="int" name="TAUPAR">     1</i>
   <i type="int" name="OMEGAPAR">    -1</i>
   <i name="LAMBDA">      1.00000000</i>
  </separator>
  <separator name="External order field" >
   <i name="OFIELD_KAPPA">      0.00000000</i>
   <v name="OFIELD_K">      0.00000000      0.00000000      0.00000000</v>
   <i name="OFIELD_Q6_NEAR">      0.00000000</i>
   <i name="OFIELD_Q6_FAR">      0.00000000</i>
   <i name="OFIELD_A">      0.00000000</i>
  </separator>
 </parameters>
 <atominfo>
  <atoms>      48 </atoms>
  <types>       2 </types>
  <array name="atoms" >
   <dimension dim="1">ion</dimension>
   <field type="string">element</field>
   <field type="int">atomtype</field>
   <set>
    <rc><c>Au</c><c>   1</c></rc>
    <rc><c>Au</c><c>   1</c></rc>
    <rc><c>Au</c><c>   1</c></rc>
    <rc><c>Au</c><c>   1</c></rc>
    <rc><c>Au</c><c>   1</c></rc>
    <rc><c>Au</c><c>   1</c></rc>
    <rc><c>Au</c><c>   1</c></rc>
    <rc><c>Au</c><c>   1</c></rc>
    <rc><c>Au</c><c>   1</c></rc>
    <rc><c>Au</c><c>   1</c></rc>
    <rc><c>Au</c><c>   1</c></rc>
    <rc><c>Au</c><c>   1</c></rc>
    <rc><c>Au</c><c>   1</c></rc>
    <rc><c>Au</c><c>   1</c></rc>
    <rc><c>Au</c><c>   1</c></rc>
    <rc><c>Au</c><c>   1</c></rc>
    <rc><c>Au</c><c>   1</c></rc>
    <rc><c>Au</c><c>   1</c></rc>
    <rc><c>Au</c><c>   1</c></rc>
    <rc><c>Au</c><c>   1</c></rc>
    <rc><c>Au</c><c>   1</c></rc>
    <rc><c>Au</c><c>   1</c></rc>
    <rc><c>Au</c><c>   1</c></rc>
    <rc><c>Au</c><c>   1</c></rc>
    <rc><c>Pd</c><c>   2</c></rc>
    <rc><c>Pd</c><c>   2</c></rc>
    <rc><c>Pd</c><c>   2</c></rc>
    <rc><c>Pd</c><c>   2</c></rc>
    <rc><c>Pd</c><c>   2</c></rc>
    <rc><c>Pd</c><c>   2</c></rc>
    <rc><c>Pd</c><c>   2</c></rc>
    <rc><c>Pd</c><c>   2</c></rc>
    <rc><c>Pd</c><c>   2</c></rc>
    <rc><c>Pd</c><c>   2</c></rc>
    <rc><c>Pd</c><c>   2</c></rc>
    <rc><c>Pd</c><c>   2</c></rc>
    <rc><c>Pd</c><c>   2</c></rc>
    <rc><c>Pd</c><c>   2</c></rc>
    <rc><c>Pd</c><c>   2</c></rc>
    <rc><c>Pd</c><c>   2</c></rc>
    <rc><c>Pd</c><c>   2</c></rc>
    <rc><c>Pd</c><c>   2</c></rc>
    <rc><c>Pd</c><c>   2</c></rc>
    <rc><c>Pd</c><c>   2</c></rc>
    <rc><c>Pd</c><c>   2</c></rc>
    <rc><c>Pd</c><c>   2</c></rc>
    <rc><c>Pd</c><c>   2</c></rc>
    <rc><c>Pd</c><c>   2</c></rc>
   </set>
  </array>
  <array name="atomtypes" >
   <dimension dim="1">type</dimension>
   <field type="int">atomspertype</field>
   <field type="string">element</field>
   <field>mass</field>
   <field>valence</field>
   <field type="string">pseudopotential</field>
   <set>
    <rc><c>  24</c><c>Au</c><c>    196.96600000</c><c>     11.00000000</c><c>  PAW_PBE Au 04Oct2007                  </c></rc>
    <rc><c>  24</c><c>Pd</c><c>    106.42000000</c><c>     10.00000000</c><c>  PAW_PBE Pd 04Jan2005                  </c></rc>
   </set>
  </array>
 </atominfo>
 <structure name="initialpos" >
  <crystal>
   <varray name="basis" >
    <v>      11.00258152       0.00000000       0.00000000 </v>
    <v>       5.50129076       9.52851510       0.00000000 </v>
    <v>       0.00000000       0.00000000      24.49178509 </v>
   </varray>
   <i name="volume">   2567.67623402 </i>
   <varray name="rec_basis" >
    <v>       0.09088776      -0.05247407       0.00000000 </v>
    <v>       0.00000000       0.10494815       0.00000000 </v>
    <v>       0.00000000       0.00000000       0.04083002 </v>
   </varray>
  </crystal>
  <varray name="positions" >
   <v>       0.25000000       0.75000000       0.59169983 </v>
   <v>       0.91666667       0.16666667       0.50000000 </v>
   <v>       0.00000000       0.00000000       0.59169983 </v>
   <v>       0.83333333       0.83333333       0.40830017 </v>
   <v>       0.91666667       0.41666667       0.50000000 </v>
   <v>       0.00000000       0.25000000       0.59169983 </v>
   <v>       0.66666667       0.66666667       0.50000000 </v>
   <v>       0.00000000       0.50000000       0.59169983 </v>
   <v>       0.83333333       0.58333333       0.40830017 </v>
   <v>       0.75000000       0.25000000       0.59169983 </v>
   <v>       0.50000000       0.25000000       0.59169983 </v>
   <v>       0.83333333       0.33333333       0.40830017 </v>
   <v>       0.33333333       0.08333333       0.40830017 </v>
   <v>       0.66666667       0.16666667       0.50000000 </v>
   <v>       0.16666667       0.41666667       0.50000000 </v>
   <v>       0.83333333       0.08333333       0.40830017 </v>
   <v>       0.16666667       0.66666667       0.50000000 </v>
   <v>       0.41666667       0.91666667       0.50000000 </v>
   <v>       0.16666667       0.91666667       0.50000000 </v>
   <v>       0.50000000       0.50000000       0.59169983 </v>
   <v>       0.58333333       0.08333333       0.40830017 </v>
   <v>       0.41666667       0.16666667       0.50000000 </v>
   <v>       0.50000000       0.00000000       0.59169983 </v>
   <v>       0.41666667       0.41666667       0.50000000 </v>
   <v>       0.00000000       0.75000000       0.59169983 </v>
   <v>       0.58333333       0.58333333       0.40830017 </v>
   <v>       0.16666667       0.16666667       0.50000000 </v>
   <v>       0.33333333       0.33333333       0.40830017 </v>
   <v>       0.66666667       0.91666667       0.50000000 </v>
   <v>       0.33333333       0.58333333       0.40830017 </v>
   <v>       0.25000000       0.50000000       0.59169983 </v>
   <v>       0.33333333       0.83333333       0.40830017 </v>
   <v>       0.91666667       0.91666667       0.50000000 </v>
   <v>       0.25000000       0.25000000       0.59169983 </v>
   <v>       0.08333333       0.83333333       0.40830017 </v>
   <v>       0.08333333       0.08333333       0.40830017 </v>
   <v>       0.08333333       0.58333333       0.40830017 </v>
   <v>       0.08333333       0.33333333       0.40830017 </v>
   <v>       0.58333333       0.33333333       0.40830017 </v>
   <v>       0.75000000       0.00000000       0.59169983 </v>
   <v>       0.41666667       0.66666667       0.50000000 </v>
   <v>       0.58333333       0.83333333       0.40830017 </v>
   <v>       0.75000000       0.50000000       0.59169983 </v>
   <v>       0.50000000       0.75000000       0.59169983 </v>
   <v>       0.66666667       0.41666667       0.50000000 </v>
   <v>       0.25000000       0.00000000       0.59169983 </v>
   <v>       0.91666667       0.66666667       0.50000000 </v>
   <v>       0.75000000       0.75000000       0.59169983 </v>
  </varray>
  <varray name="selective"  type="logical" >
   <v type="logical" >  T  T  T </v>
   <v type="logical" >  T  T  T </v>
   <v type="logical" >  T  T  T </v>
   <v type="logical" >  F  F  F </v>
   <v type="logical" >  T  T  T </v>
   <v type="logical" >  T  T  T </v>
   <v type="logical" >  T  T  T </v>
   <v type="logical" >  T  T  T </v>
   <v type="logical" >  F  F  F </v>
   <v type="logical" >  T  T  T </v>
   <v type="logical" >  T  T  T </v>
   <v type="logical" >  F  F  F </v>
   <v type="logical" >  F  F  F </v>
   <v type="logical" >  T  T  T </v>
   <v type="logical" >  T  T  T </v>
   <v type="logical" >  F  F  F </v>
   <v type="logical" >  T  T  T </v>
   <v type="logical" >  T  T  T </v>
   <v type="logical" >  T  T  T </v>
   <v type="logical" >  T  T  T </v>
   <v type="logical" >  F  F  F </v>
   <v type="logical" >  T  T  T </v>
   <v type="logical" >  T  T  T </v>
   <v type="logical" >  T  T  T </v>
   <v type="logical" >  T  T  T </v>
   <v type="logical" >  F  F  F </v>
   <v type="logical" >  T  T  T </v>
   <v type="logical" >  F  F  F </v>
   <v type="logical" >  T  T  T </v>
   <v type="logical" >  F  F  F </v>
   <v type="logical" >  T  T  T </v>
   <v type="logical" >  F  F  F </v>
   <v type="logical" >  T  T  T </v>
   <v type="logical" >  T  T  T </v>
   <v type="logical" >  F  F  F </v>
   <v type="logical" >  F  F  F </v>
   <v type="logical" >  F  F  F </v>
   <v type="logical" >  F  F  F </v>
   <v type="logical" >  F  F  F </v>
   <v type="logical" >  T  T  T </v>
   <v type="logical" >  T  T  T </v>
   <v type="logical" >  F  F  F </v>
   <v type="logical" >  T  T  T </v>
   <v type="logical" >  T  T  T </v>
   <v type="logical" >  T  T  T </v>
   <v type="logical" >  T  T  T </v>
   <v type="logical" >  T  T  T </v>
   <v type="logical" >  T  T  T </v>
  </varray>
  <nose>
   <v>      -3.00000000       0.00000000       0.00010000       0.00010000 </v>
  </nose>
 </structure>
 <calculation>
  <scstep>
   <time name="dav">    9.16    9.23</time>
   <time name="total">    9.23    9.30</time>
   <dipole>
    <v name="dipole">      0.00000000       0.00000000      -0.00000148 </v>
    <i name="Tr[quadrupol]"> -10268.91538534 </i>
    <i name="Echarged">      0.00000000 </i>
    <i name="Edipol_quadrupol">      0.00000000 </i>
    <i name="Eion">      0.00000000 </i>
   </dipole>
   <energy>
    <i name="alphaZ">    805.86936475 </i>
    <i name="ewald"> 200633.47078148 </i>
    <i name="hartreedc">-243049.55160618 </i>
    <i name="XCdc">   -327.49751644 </i>
    <i name="pawpsdc">  40340.05962942 </i>
    <i name="pawaedc"> -38292.62782345 </i>
    <i name="eentropy">     -0.12181889 </i>
    <i name="bandstr">   1431.19321592 </i>
    <i name="atom">  41659.78587232 </i>
    <i name="e_fr_energy">   3200.58009893 </i>
    <i name="e_wo_entrp">   3200.70191782 </i>
    <i name="e_0_energy">   3200.64100838 </i>
   </energy>
  </scstep>
  <scstep>
   <time name="dav">   10.94   10.94</time>
   <time name="total">   10.94   10.95</time>
   <dipole>
    <v name="dipole">      0.00000000       0.00000000      -0.00000148 </v>
    <i name="Tr[quadrupol]"> -10268.91538534 </i>
    <i name="Echarged">      0.00000000 </i>
    <i name="Edipol_quadrupol">      0.00000000 </i>
    <i name="Eion">      0.00000000 </i>
   </dipole>
   <energy>
    <i name="e_fr_energy">     15.42264200 </i>
    <i name="e_wo_entrp">     15.57185553 </i>
    <i name="e_0_energy">     15.49724877 </i>
   </energy>
  </scstep>
  <scstep>
   <time name="dav">   10.56   10.57</time>
   <time name="total">   10.56   10.57</time>
   <dipole>
    <v name="dipole">      0.00000000       0.00000000      -0.00000148 </v>
    <i name="Tr[quadrupol]"> -10268.91538534 </i>
    <i name="Echarged">      0.00000000 </i>
    <i name="Edipol_quadrupol">      0.00000000 </i>
    <i name="Eion">      0.00000000 </i>
   </dipole>
   <energy>
    <i name="e_fr_energy">   -199.55013384 </i>
    <i name="e_wo_entrp">   -199.33114652 </i>
    <i name="e_0_energy">   -199.44064018 </i>
   </energy>
  </scstep>
  <scstep>
   <time name="dav">   11.51   11.55</time>
   <time name="total">   11.51   11.56</time>
   <dipole>
    <v name="dipole">      0.00000000       0.00000000      -0.00000148 </v>
    <i name="Tr[quadrupol]"> -10268.91538534 </i>
    <i name="Echarged">      0.00000000 </i>
    <i name="Edipol_quadrupol">      0.00000000 </i>
    <i name="Eion">      0.00000000 </i>
   </dipole>
   <energy>
    <i name="e_fr_energy">   -205.25034963 </i>
    <i name="e_wo_entrp">   -205.02056142 </i>
    <i name="e_0_energy">   -205.13545552 </i>
   </energy>
  </scstep>
  <scstep>
   <time name="dav">   11.07   11.15</time>
   <time name="total">   11.38   11.47</time>
   <dipole>
    <v name="dipole">      0.00000000       0.00000000      -0.00000148 </v>
    <i name="Tr[quadrupol]"> -10268.91538534 </i>
    <i name="Echarged">      0.00000000 </i>
    <i name="Edipol_quadrupol">      0.00000000 </i>
    <i name="Eion">      0.00000000 </i>
   </dipole>
   <energy>
    <i name="e_fr_energy">   -205.45417110 </i>
    <i name="e_wo_entrp">   -205.22538342 </i>
    <i name="e_0_energy">   -205.33977726 </i>
   </energy>
  </scstep>
  <scstep>
   <time name="diag">    1.65    1.65</time>
   <time name="diis">    4.29    4.30</time>
   <time name="orth">    0.41    0.41</time>
   <time name="total">    6.72    6.73</time>
   <dipole>
    <v name="dipole">      0.00000000       0.00000000      -0.67023381 </v>
    <i name="Tr[quadrupol]"> -10268.92291504 </i>
    <i name="Echarged">      0.00000000 </i>
    <i name="Edipol_quadrupol">      0.00000000 </i>
    <i name="Eion">      0.00000000 </i>
   </dipole>
   <energy>
    <i name="e_fr_energy">   -199.36482030 </i>
    <i name="e_wo_entrp">   -199.11951273 </i>
    <i name="e_0_energy">   -199.24216651 </i>
   </energy>
  </scstep>
  <scstep>
   <time name="diag">    1.66    1.66</time>
   <time name="diis">    4.39    4.40</time>
   <time name="orth">    0.41    0.41</time>
   <time name="total">    6.83    6.84</time>
   <dipole>
    <v name="dipole">      0.00000000       0.00000000       1.62105582 </v>
    <i name="Tr[quadrupol]"> -10269.55889804 </i>
    <i name="Echarged">      0.00000000 </i>
    <i name="Edipol_quadrupol">      0.00000000 </i>
    <i name="Eion">      0.00000000 </i>
   </dipole>
   <energy>
    <i name="e_fr_energy">   -218.69062934 </i>
    <i name="e_wo_entrp">   -218.41895331 </i>
    <i name="e_0_energy">   -218.55479133 </i>
   </energy>
  </scstep>
  <scstep>
   <time name="diag">    1.66    1.66</time>
   <time name="diis">    4.39    4.39</time>
   <time name="orth">    0.41    0.41</time>
   <time name="total">    6.83    6.83</time>
   <dipole>
    <v name="dipole">      0.00000000       0.00000000      -1.76927228 </v>
    <i name="Tr[quadrupol]"> -10270.39461664 </i>
    <i name="Echarged">      0.00000000 </i>
    <i name="Edipol_quadrupol">      0.00000000 </i>
    <i name="Eion">      0.00000000 </i>
   </dipole>
   <energy>
    <i name="e_fr_energy">   -221.05857744 </i>
    <i name="e_wo_entrp">   -220.78413226 </i>
    <i name="e_0_energy">   -220.92135485 </i>
   </energy>
  </scstep>
  <scstep>
   <time name="diag">    1.67    1.68</time>
   <time name="diis">    4.33    4.33</time>
   <time name="orth">    0.42    0.42</time>
   <time name="total">    6.79    6.79</time>
   <dipole>
    <v name="dipole">      0.00000000       0.00000000       0.27110197 </v>
    <i name="Tr[quadrupol]"> -10270.71523235 </i>
    <i name="Echarged">      0.00000000 </i>
    <i name="Edipol_quadrupol">      0.00000000 </i>
    <i name="Eion">      0.00000000 </i>
   </dipole>
   <energy>
    <i name="e_fr_energy">   -208.62130919 </i>
    <i name="e_wo_entrp">   -208.46087719 </i>
    <i name="e_0_energy">   -208.54109319 </i>
   </energy>
  </scstep>
  <scstep>
   <time name="diag">    1.66    1.66</time>
   <time name="diis">    4.31    4.32</time>
   <time name="orth">    0.40    0.40</time>
   <time name="total">    6.74    6.75</time>
   <dipole>
    <v name="dipole">      0.00000000       0.00000000      -0.24240465 </v>
    <i name="Tr[quadrupol]"> -10269.85186934 </i>
    <i name="Echarged">      0.00000000 </i>
    <i name="Edipol_quadrupol">      0.00000000 </i>
    <i name="Eion">      0.00000000 </i>
   </dipole>
   <energy>
    <i name="e_fr_energy">   -194.72722173 </i>
    <i name="e_wo_entrp">   -194.55911452 </i>
    <i name="e_0_energy">   -194.64316813 </i>
   </energy>
  </scstep>
  <scstep>
   <time name="diag">    1.65    1.65</time>
   <time name="diis">    4.30    4.40</time>
   <time name="orth">    0.48    0.48</time>
   <time name="total">    6.91    7.01</time>
   <dipole>
    <v name="dipole">      0.00000000       0.00000000      -0.11807861 </v>
    <i name="Tr[quadrupol]"> -10270.86269231 </i>
    <i name="Echarged">      0.00000000 </i>
    <i name="Edipol_quadrupol">      0.00000000 </i>
    <i name="Eion">      0.00000000 </i>
   </dipole>
   <energy>
    <i name="e_fr_energy">   -189.64928732 </i>
    <i name="e_wo_entrp">   -189.41352652 </i>
    <i name="e_0_energy">   -189.53140692 </i>
   </energy>
  </scstep>
  <scstep>
   <time name="diag">    1.99    2.01</time>
   <time name="diis">    4.29    4.29</time>
   <time name="orth">    0.40    0.40</time>
   <time name="total">    7.06    7.09</time>
   <dipole>
    <v name="dipole">      0.00000000       0.00000000      -0.14933695 </v>
    <i name="Tr[quadrupol]"> -10271.10129430 </i>
    <i name="Echarged">      0.00000000 </i>
    <i name="Edipol_quadrupol">      0.00000000 </i>
    <i name="Eion">      0.00000000 </i>
   </dipole>
   <energy>
    <i name="e_fr_energy">   -188.42948709 </i>
    <i name="e_wo_entrp">   -188.23677838 </i>
    <i name="e_0_energy">   -188.33313273 </i>
   </energy>
  </scstep>
  <scstep>
   <time name="diag">    1.65    1.66</time>
   <time name="diis">    4.41    4.41</time>
   <time name="orth">    0.40    0.40</time>
   <time name="total">    6.82    6.83</time>
   <dipole>
    <v name="dipole">      0.00000000       0.00000000      -0.08814791 </v>
    <i name="Tr[quadrupol]"> -10271.46970396 </i>
    <i name="Echarged">      0.00000000 </i>
    <i name="Edipol_quadrupol">      0.00000000 </i>
    <i name="Eion">      0.00000000 </i>
   </dipole>
   <energy>
    <i name="e_fr_energy">   -188.38772352 </i>
    <i name="e_wo_entrp">   -188.15079952 </i>
    <i name="e_0_energy">   -188.26926152 </i>
   </energy>
  </scstep>
  <scstep>
   <time name="diag">    1.64    1.64</time>
   <time name="diis">    4.27    4.27</time>
   <time name="orth">    0.40    0.40</time>
   <time name="total">    6.68    6.68</time>
   <dipole>
    <v name="dipole">      0.00000000       0.00000000      -0.08251057 </v>
    <i name="Tr[quadrupol]"> -10271.76917157 </i>
    <i name="Echarged">      0.00000000 </i>
    <i name="Edipol_quadrupol">      0.00000000 </i>
    <i name="Eion">      0.00000000 </i>
   </dipole>
   <energy>
    <i name="e_fr_energy">   -188.47724124 </i>
    <i name="e_wo_entrp">   -188.25486784 </i>
    <i name="e_0_energy">   -188.36605454 </i>
   </energy>
  </scstep>
  <scstep>
   <time name="diag">    1.65    1.65</time>
   <time name="diis">    4.40    4.40</time>
   <time name="orth">    0.40    0.40</time>
   <time name="total">    6.81    6.82</time>
   <dipole>
    <v name="dipole">      0.00000000       0.00000000      -0.06312567 </v>
    <i name="Tr[quadrupol]"> -10272.03701853 </i>
    <i name="Echarged">      0.00000000 </i>
    <i name="Edipol_quadrupol">      0.00000000 </i>
    <i name="Eion">      0.00000000 </i>
   </dipole>
   <energy>
    <i name="e_fr_energy">   -188.30816720 </i>
    <i name="e_wo_entrp">   -188.08213605 </i>
    <i name="e_0_energy">   -188.19515162 </i>
   </energy>
  </scstep>
  <scstep>
   <time name="diag">    1.64    1.64</time>
   <time name="diis">    4.35    4.36</time>
   <time name="orth">    0.40    0.40</time>
   <time name="total">    6.76    6.76</time>
   <dipole>
    <v name="dipole">      0.00000000       0.00000000      -0.06813159 </v>
    <i name="Tr[quadrupol]"> -10272.24335079 </i>
    <i name="Echarged">      0.00000000 </i>
    <i name="Edipol_quadrupol">      0.00000000 </i>
    <i name="Eion">      0.00000000 </i>
   </dipole>
   <energy>
    <i name="e_fr_energy">   -188.11598528 </i>
    <i name="e_wo_entrp">   -187.88686750 </i>
    <i name="e_0_energy">   -188.00142639 </i>
   </energy>
  </scstep>
  <scstep>
   <time name="diag">    1.62    1.67</time>
   <time name="diis">    4.33    4.35</time>
   <time name="orth">    0.39    0.39</time>
   <time name="total">    6.70    6.77</time>
   <dipole>
    <v name="dipole">      0.00000000       0.00000000      -0.05828247 </v>
    <i name="Tr[quadrupol]"> -10272.57198357 </i>
    <i name="Echarged">      0.00000000 </i>
    <i name="Edipol_quadrupol">      0.00000000 </i>
    <i name="Eion">      0.00000000 </i>
   </dipole>
   <energy>
    <i name="e_fr_energy">   -188.06736311 </i>
    <i name="e_wo_entrp">   -187.83928646 </i>
    <i name="e_0_energy">   -187.95332479 </i>
   </energy>
  </scstep>
  <scstep>
   <time name="diag">    1.62    1.62</time>
   <time name="diis">    4.37    4.37</time>
   <time name="orth">    0.38    0.38</time>
   <time name="total">    6.74    6.75</time>
   <dipole>
    <v name="dipole">      0.00000000       0.00000000      -0.05061551 </v>
    <i name="Tr[quadrupol]"> -10272.76649702 </i>
    <i name="Echarged">      0.00000000 </i>
    <i name="Edipol_quadrupol">      0.00000000 </i>
    <i name="Eion">      0.00000000 </i>
   </dipole>
   <energy>
    <i name="e_fr_energy">   -188.01626656 </i>
    <i name="e_wo_entrp">   -187.78534774 </i>
    <i name="e_0_energy">   -187.90080715 </i>
   </energy>
  </scstep>
  <scstep>
   <time name="diag">    1.63    1.63</time>
   <time name="diis">    4.38    4.38</time>
   <time name="orth">    0.38    0.38</time>
   <time name="total">    6.75    6.76</time>
   <dipole>
    <v name="dipole">      0.00000000       0.00000000      -0.03965818 </v>
    <i name="Tr[quadrupol]"> -10272.90541655 </i>
    <i name="Echarged">      0.00000000 </i>
    <i name="Edipol_quadrupol">      0.00000000 </i>
    <i name="Eion">      0.00000000 </i>
   </dipole>
   <energy>
    <i name="e_fr_energy">   -188.00237240 </i>
    <i name="e_wo_entrp">   -187.76787500 </i>
    <i name="e_0_energy">   -187.88512370 </i>
   </energy>
  </scstep>
  <scstep>
   <time name="diag">    1.62    1.62</time>
   <time name="diis">    4.71    4.74</time>
   <time name="orth">    0.46    0.46</time>
   <time name="total">    7.28    7.31</time>
   <dipole>
    <v name="dipole">      0.00000000       0.00000000      -0.03073503 </v>
    <i name="Tr[quadrupol]"> -10273.07860673 </i>
    <i name="Echarged">      0.00000000 </i>
    <i name="Edipol_quadrupol">      0.00000000 </i>
    <i name="Eion">      0.00000000 </i>
   </dipole>
   <energy>
    <i name="e_fr_energy">   -187.99687793 </i>
    <i name="e_wo_entrp">   -187.76170299 </i>
    <i name="e_0_energy">   -187.87929046 </i>
   </energy>
  </scstep>
  <scstep>
   <time name="diag">    1.72    1.72</time>
   <time name="diis">    4.38    4.39</time>
   <time name="orth">    0.38    0.38</time>
   <time name="total">    6.86    6.87</time>
   <dipole>
    <v name="dipole">      0.00000000       0.00000000      -0.02926917 </v>
    <i name="Tr[quadrupol]"> -10273.25544237 </i>
    <i name="Echarged">      0.00000000 </i>
    <i name="Edipol_quadrupol">      0.00000000 </i>
    <i name="Eion">      0.00000000 </i>
   </dipole>
   <energy>
    <i name="e_fr_energy">   -187.99518063 </i>
    <i name="e_wo_entrp">   -187.75902329 </i>
    <i name="e_0_energy">   -187.87710196 </i>
   </energy>
  </scstep>
  <scstep>
   <time name="diag">    1.61    1.61</time>
   <time name="diis">    4.37    4.37</time>
   <time name="orth">    0.38    0.38</time>
   <time name="total">    6.73    6.75</time>
   <dipole>
    <v name="dipole">      0.00000000       0.00000000      -0.02769612 </v>
    <i name="Tr[quadrupol]"> -10273.44545935 </i>
    <i name="Echarged">      0.00000000 </i>
    <i name="Edipol_quadrupol">      0.00000000 </i>
    <i name="Eion">      0.00000000 </i>
   </dipole>
   <energy>
    <i name="e_fr_energy">   -187.99328034 </i>
    <i name="e_wo_entrp">   -187.75728860 </i>
    <i name="e_0_energy">   -187.87528447 </i>
   </energy>
  </scstep>
  <scstep>
   <time name="diag">    1.59    1.65</time>
   <time name="diis">    4.38    4.38</time>
   <time name="orth">    0.38    0.38</time>
   <time name="total">    6.71    6.77</time>
   <dipole>
    <v name="dipole">      0.00000000       0.00000000      -0.02545269 </v>
    <i name="Tr[quadrupol]"> -10273.56526659 </i>
    <i name="Echarged">      0.00000000 </i>
    <i name="Edipol_quadrupol">      0.00000000 </i>
    <i name="Eion">      0.00000000 </i>
   </dipole>
   <energy>
    <i name="e_fr_energy">   -187.99240406 </i>
    <i name="e_wo_entrp">   -187.75639126 </i>
    <i name="e_0_energy">   -187.87439766 </i>
   </energy>
  </scstep>
  <scstep>
   <time name="diag">    1.61    1.61</time>
   <time name="diis">    4.38    4.38</time>
   <time name="orth">    0.38    0.38</time>
   <time name="total">    6.74    6.74</time>
   <dipole>
    <v name="dipole">      0.00000000       0.00000000      -0.01809593 </v>
    <i name="Tr[quadrupol]"> -10273.68352166 </i>
    <i name="Echarged">      0.00000000 </i>
    <i name="Edipol_quadrupol">      0.00000000 </i>
    <i name="Eion">      0.00000000 </i>
   </dipole>
   <energy>
    <i name="e_fr_energy">   -187.99243564 </i>
    <i name="e_wo_entrp">   -187.75613839 </i>
    <i name="e_0_energy">   -187.87428701 </i>
   </energy>
  </scstep>
  <scstep>
   <time name="diag">    1.63    1.63</time>
   <time name="diis">    4.35    4.35</time>
   <time name="orth">    0.38    0.38</time>
   <time name="total">    6.72    6.73</time>
   <dipole>
    <v name="dipole">      0.00000000       0.00000000      -0.01694774 </v>
    <i name="Tr[quadrupol]"> -10273.74146548 </i>
    <i name="Echarged">      0.00000000 </i>
    <i name="Edipol_quadrupol">      0.00000000 </i>
    <i name="Eion">      0.00000000 </i>
   </dipole>
   <energy>
    <i name="e_fr_energy">   -187.99253814 </i>
    <i name="e_wo_entrp">   -187.75616786 </i>
    <i name="e_0_energy">   -187.87435300 </i>
   </energy>
  </scstep>
  <scstep>
   <time name="diag">    1.61    1.61</time>
   <time name="diis">    4.32    4.33</time>
   <time name="orth">    0.38    0.38</time>
   <time name="total">    6.68    6.69</time>
   <dipole>
    <v name="dipole">      0.00000000       0.00000000      -0.01522743 </v>
    <i name="Tr[quadrupol]"> -10273.81911709 </i>
    <i name="Echarged">      0.00000000 </i>
    <i name="Edipol_quadrupol">      0.00000000 </i>
    <i name="Eion">      0.00000000 </i>
   </dipole>
   <energy>
    <i name="e_fr_energy">   -187.99281226 </i>
    <i name="e_wo_entrp">   -187.75661490 </i>
    <i name="e_0_energy">   -187.87471358 </i>
   </energy>
  </scstep>
  <scstep>
   <time name="diag">    1.62    1.63</time>
   <time name="diis">    4.36    4.36</time>
   <time name="orth">    0.38    0.38</time>
   <time name="total">    6.73    6.73</time>
   <dipole>
    <v name="dipole">      0.00000000       0.00000000      -0.01398425 </v>
    <i name="Tr[quadrupol]"> -10273.88206699 </i>
    <i name="Echarged">      0.00000000 </i>
    <i name="Edipol_quadrupol">      0.00000000 </i>
    <i name="Eion">      0.00000000 </i>
   </dipole>
   <energy>
    <i name="e_fr_energy">   -187.99324511 </i>
    <i name="e_wo_entrp">   -187.75697918 </i>
    <i name="e_0_energy">   -187.87511215 </i>
   </energy>
  </scstep>
  <scstep>
   <time name="diag">    1.61    1.61</time>
   <time name="diis">    4.39    4.40</time>
   <time name="orth">    0.37    0.39</time>
   <time name="total">    6.75    6.80</time>
   <dipole>
    <v name="dipole">      0.00000000       0.00000000      -0.01243790 </v>
    <i name="Tr[quadrupol]"> -10273.94831686 </i>
    <i name="Echarged">      0.00000000 </i>
    <i name="Edipol_quadrupol">      0.00000000 </i>
    <i name="Eion">      0.00000000 </i>
   </dipole>
   <energy>
    <i name="e_fr_energy">   -187.99379733 </i>
    <i name="e_wo_entrp">   -187.75737964 </i>
    <i name="e_0_energy">   -187.87558849 </i>
   </energy>
  </scstep>
  <scstep>
   <time name="diag">    1.61    1.63</time>
   <time name="diis">    4.87    5.16</time>
   <time name="orth">    0.38    0.38</time>
   <time name="total">    7.22    7.54</time>
   <dipole>
    <v name="dipole">      0.00000000       0.00000000      -0.00980419 </v>
    <i name="Tr[quadrupol]"> -10274.03297703 </i>
    <i name="Echarged">      0.00000000 </i>
    <i name="Edipol_quadrupol">      0.00000000 </i>
    <i name="Eion">      0.00000000 </i>
   </dipole>
   <energy>
    <i name="e_fr_energy">   -187.99452097 </i>
    <i name="e_wo_entrp">   -187.75827515 </i>
    <i name="e_0_energy">   -187.87639806 </i>
   </energy>
  </scstep>
  <scstep>
   <time name="diag">    1.61    1.61</time>
   <time name="diis">    4.38    4.38</time>
   <time name="orth">    0.38    0.38</time>
   <time name="total">    6.73    6.74</time>
   <dipole>
    <v name="dipole">      0.00000000       0.00000000      -0.00718943 </v>
    <i name="Tr[quadrupol]"> -10274.11225513 </i>
    <i name="Echarged">      0.00000000 </i>
    <i name="Edipol_quadrupol">      0.00000000 </i>
    <i name="Eion">      0.00000000 </i>
   </dipole>
   <energy>
    <i name="e_fr_energy">   -187.99518432 </i>
    <i name="e_wo_entrp">   -187.75885447 </i>
    <i name="e_0_energy">   -187.87701940 </i>
   </energy>
  </scstep>
  <scstep>
   <time name="diag">    1.62    1.62</time>
   <time name="diis">    4.01    4.01</time>
   <time name="orth">    0.38    0.38</time>
   <time name="total">    6.37    6.38</time>
   <dipole>
    <v name="dipole">      0.00000000       0.00000000      -0.00573865 </v>
    <i name="Tr[quadrupol]"> -10274.15159488 </i>
    <i name="Echarged">      0.00000000 </i>
    <i name="Edipol_quadrupol">      0.00000000 </i>
    <i name="Eion">      0.00000000 </i>
   </dipole>
   <energy>
    <i name="e_fr_energy">   -187.99555458 </i>
    <i name="e_wo_entrp">   -187.75915565 </i>
    <i name="e_0_energy">   -187.87735511 </i>
   </energy>
  </scstep>
  <scstep>
   <time name="diag">    1.61    1.61</time>
   <time name="diis">    3.59    3.60</time>
   <time name="orth">    0.38    0.38</time>
   <time name="total">    5.95    5.96</time>
   <dipole>
    <v name="dipole">      0.00000000       0.00000000      -0.00468375 </v>
    <i name="Tr[quadrupol]"> -10274.18016111 </i>
    <i name="Echarged">      0.00000000 </i>
    <i name="Edipol_quadrupol">      0.00000000 </i>
    <i name="Eion">      0.00000000 </i>
   </dipole>
   <energy>
    <i name="e_fr_energy">   -187.99576558 </i>
    <i name="e_wo_entrp">   -187.75932898 </i>
    <i name="e_0_energy">   -187.87754728 </i>
   </energy>
  </scstep>
  <scstep>
   <time name="diag">    1.62    1.62</time>
   <time name="diis">    3.29    3.29</time>
   <time name="orth">    0.39    0.39</time>
   <time name="total">    5.67    5.68</time>
   <dipole>
    <v name="dipole">      0.00000000       0.00000000      -0.00368899 </v>
    <i name="Tr[quadrupol]"> -10274.20647299 </i>
    <i name="Echarged">      0.00000000 </i>
    <i name="Edipol_quadrupol">      0.00000000 </i>
    <i name="Eion">      0.00000000 </i>
   </dipole>
   <energy>
    <i name="e_fr_energy">   -187.99591521 </i>
    <i name="e_wo_entrp">   -187.75951977 </i>
    <i name="e_0_energy">   -187.87771749 </i>
   </energy>
  </scstep>
  <scstep>
   <time name="diag">    1.61    1.62</time>
   <time name="diis">    2.83    2.84</time>
   <time name="orth">    0.38    0.38</time>
   <time name="total">    5.19    5.22</time>
   <dipole>
    <v name="dipole">      0.00000000       0.00000000      -0.00319512 </v>
    <i name="Tr[quadrupol]"> -10274.21717889 </i>
    <i name="Echarged">      0.00000000 </i>
    <i name="Edipol_quadrupol">      0.00000000 </i>
    <i name="Eion">      0.00000000 </i>
   </dipole>
   <energy>
    <i name="e_fr_energy">   -187.99597888 </i>
    <i name="e_wo_entrp">   -187.75958280 </i>
    <i name="e_0_energy">   -187.87778084 </i>
   </energy>
  </scstep>
  <scstep>
   <time name="diag">    1.62    1.62</time>
   <time name="diis">    2.64    2.72</time>
   <time name="orth">    0.38    0.38</time>
   <time name="total">    5.00    5.09</time>
   <dipole>
    <v name="dipole">      0.00000000       0.00000000      -0.00261632 </v>
    <i name="Tr[quadrupol]"> -10274.22728551 </i>
    <i name="Echarged">      0.00000000 </i>
    <i name="Edipol_quadrupol">      0.00000000 </i>
    <i name="Eion">      0.00000000 </i>
   </dipole>
   <energy>
    <i name="e_fr_energy">   -187.99603702 </i>
    <i name="e_wo_entrp">   -187.75964110 </i>
    <i name="e_0_energy">   -187.87783906 </i>
   </energy>
  </scstep>
  <scstep>
   <time name="diag">    1.62    1.62</time>
   <time name="diis">    2.66    2.67</time>
   <time name="orth">    0.38    0.38</time>
   <time name="total">    5.04    5.04</time>
   <dipole>
    <v name="dipole">      0.00000000       0.00000000      -0.00209885 </v>
    <i name="Tr[quadrupol]"> -10274.23473647 </i>
    <i name="Echarged">      0.00000000 </i>
    <i name="Edipol_quadrupol">      0.00000000 </i>
    <i name="Eion">      0.00000000 </i>
   </dipole>
   <energy>
    <i name="e_fr_energy">   -187.99607329 </i>
    <i name="e_wo_entrp">   -187.75967841 </i>
    <i name="e_0_energy">   -187.87787585 </i>
   </energy>
  </scstep>
  <scstep>
   <time name="diag">    1.62    1.62</time>
   <time name="diis">    2.43    2.43</time>
   <time name="orth">    0.38    0.38</time>
   <time name="total">    4.80    4.81</time>
   <dipole>
    <v name="dipole">      0.00000000       0.00000000      -0.00180249 </v>
    <i name="Tr[quadrupol]"> -10274.23883112 </i>
    <i name="Echarged">      0.00000000 </i>
    <i name="Edipol_quadrupol">      0.00000000 </i>
    <i name="Eion">      0.00000000 </i>
   </dipole>
   <energy>
    <i name="e_fr_energy">   -187.99608765 </i>
    <i name="e_wo_entrp">   -187.75968850 </i>
    <i name="e_0_energy">   -187.87788808 </i>
   </energy>
  </scstep>
  <scstep>
   <time name="diag">    1.61    1.61</time>
   <time name="diis">    2.62    2.62</time>
   <time name="orth">    0.38    0.38</time>
   <time name="total">    4.98    4.99</time>
   <dipole>
    <v name="dipole">      0.00000000       0.00000000      -0.00135477 </v>
    <i name="Tr[quadrupol]"> -10274.24513450 </i>
    <i name="Echarged">      0.00000000 </i>
    <i name="Edipol_quadrupol">      0.00000000 </i>
    <i name="Eion">      0.00000000 </i>
   </dipole>
   <energy>
    <i name="e_fr_energy">   -187.99610142 </i>
    <i name="e_wo_entrp">   -187.75970329 </i>
    <i name="e_0_energy">   -187.87790236 </i>
   </energy>
  </scstep>
  <scstep>
   <time name="diag">    1.62    1.62</time>
   <time name="diis">    2.11    2.12</time>
   <time name="orth">    0.38    0.38</time>
   <time name="total">    4.48    4.49</time>
   <dipole>
    <v name="dipole">      0.00000000       0.00000000      -0.00113289 </v>
    <i name="Tr[quadrupol]"> -10274.24838439 </i>
    <i name="Echarged">      0.00000000 </i>
    <i name="Edipol_quadrupol">      0.00000000 </i>
    <i name="Eion">      0.00000000 </i>
   </dipole>
   <energy>
    <i name="e_fr_energy">   -187.99610438 </i>
    <i name="e_wo_entrp">   -187.75970726 </i>
    <i name="e_0_energy">   -187.87790582 </i>
   </energy>
  </scstep>
  <scstep>
   <time name="diag">    1.45    2.03</time>
   <time name="diis">    1.99    2.31</time>
   <time name="orth">    0.38    0.38</time>
   <time name="total">    4.19    5.10</time>
   <dipole>
    <v name="dipole">      0.00000000       0.00000000      -0.00092146 </v>
    <i name="Tr[quadrupol]"> -10274.25150029 </i>
    <i name="Echarged">      0.00000000 </i>
    <i name="Edipol_quadrupol">      0.00000000 </i>
    <i name="Eion">      0.00000000 </i>
   </dipole>
   <energy>
    <i name="e_fr_energy">   -187.99610608 </i>
    <i name="e_wo_entrp">   -187.75971327 </i>
    <i name="e_0_energy">   -187.87790967 </i>
   </energy>
  </scstep>
  <scstep>
   <time name="diag">    1.62    1.62</time>
   <time name="diis">    2.05    2.05</time>
   <time name="orth">    0.38    0.38</time>
   <time name="total">    4.11    4.11</time>
   <dipole>
    <v name="dipole">      0.00000000       0.00000000      -0.00080842 </v>
    <i name="Tr[quadrupol]"> -10274.25326398 </i>
    <i name="Echarged">      0.00000000 </i>
    <i name="Edipol_quadrupol">      0.00000000 </i>
    <i name="Eion">      0.00000000 </i>
   </dipole>
   <energy>
    <i name="alphaZ">    805.86962017 </i>
    <i name="ewald"> 200633.47078148 </i>
    <i name="hartreedc">-242821.46523291 </i>
    <i name="XCdc">   -343.06616558 </i>
    <i name="pawpsdc">  49454.69229786 </i>
    <i name="pawaedc"> -47532.18731520 </i>
    <i name="eentropy">     -0.23639343 </i>
    <i name="bandstr">  -2044.85957169 </i>
    <i name="atom">  41659.78587232 </i>
    <i name="e_fr_energy">   -187.99610698 </i>
    <i name="e_wo_entrp">   -187.75971355 </i>
    <i name="e_0_energy">   -187.87791027 </i>
   </energy>
  </scstep>
  <structure>
   <crystal>
    <varray name="basis" >
     <v>      11.00258152       0.00000000       0.00000000 </v>
     <v>       5.50129076       9.52851510       0.00000000 </v>
     <v>       0.00000000       0.00000000      24.49178509 </v>
    </varray>
    <i name="volume">   2567.67623402 </i>
    <varray name="rec_basis" >
     <v>       0.09088776      -0.05247407       0.00000000 </v>
     <v>       0.00000000       0.10494815       0.00000000 </v>
     <v>       0.00000000       0.00000000       0.04083002 </v>
    </varray>
   </crystal>
   <varray name="positions" >
    <v>       0.25000000       0.75000000       0.59169983 </v>
    <v>       0.91666667       0.16666667       0.50000000 </v>
    <v>       0.00000000       0.00000000       0.59169983 </v>
    <v>       0.83333333       0.83333333       0.40830017 </v>
    <v>       0.91666667       0.41666667       0.50000000 </v>
    <v>       0.00000000       0.25000000       0.59169983 </v>
    <v>       0.66666667       0.66666667       0.50000000 </v>
    <v>       0.00000000       0.50000000       0.59169983 </v>
    <v>       0.83333333       0.58333333       0.40830017 </v>
    <v>       0.75000000       0.25000000       0.59169983 </v>
    <v>       0.50000000       0.25000000       0.59169983 </v>
    <v>       0.83333333       0.33333333       0.40830017 </v>
    <v>       0.33333333       0.08333333       0.40830017 </v>
    <v>       0.66666667       0.16666667       0.50000000 </v>
    <v>       0.16666667       0.41666667       0.50000000 </v>
    <v>       0.83333333       0.08333333       0.40830017 </v>
    <v>       0.16666667       0.66666667       0.50000000 </v>
    <v>       0.41666667       0.91666667       0.50000000 </v>
    <v>       0.16666667       0.91666667       0.50000000 </v>
    <v>       0.50000000       0.50000000       0.59169983 </v>
    <v>       0.58333333       0.08333333       0.40830017 </v>
    <v>       0.41666667       0.16666667       0.50000000 </v>
    <v>       0.50000000       0.00000000       0.59169983 </v>
    <v>       0.41666667       0.41666667       0.50000000 </v>
    <v>       0.00000000       0.75000000       0.59169983 </v>
    <v>       0.58333333       0.58333333       0.40830017 </v>
    <v>       0.16666667       0.16666667       0.50000000 </v>
    <v>       0.33333333       0.33333333       0.40830017 </v>
    <v>       0.66666667       0.91666667       0.50000000 </v>
    <v>       0.33333333       0.58333333       0.40830017 </v>
    <v>       0.25000000       0.50000000       0.59169983 </v>
    <v>       0.33333333       0.83333333       0.40830017 </v>
    <v>       0.91666667       0.91666667       0.50000000 </v>
    <v>       0.25000000       0.25000000       0.59169983 </v>
    <v>       0.08333333       0.83333333       0.40830017 </v>
    <v>       0.08333333       0.08333333       0.40830017 </v>
    <v>       0.08333333       0.58333333       0.40830017 </v>
    <v>       0.08333333       0.33333333       0.40830017 </v>
    <v>       0.58333333       0.33333333       0.40830017 </v>
    <v>       0.75000000       0.00000000       0.59169983 </v>
    <v>       0.41666667       0.66666667       0.50000000 </v>
    <v>       0.58333333       0.83333333       0.40830017 </v>
    <v>       0.75000000       0.50000000       0.59169983 </v>
    <v>       0.50000000       0.75000000       0.59169983 </v>
    <v>       0.66666667       0.41666667       0.50000000 </v>
    <v>       0.25000000       0.00000000       0.59169983 </v>
    <v>       0.91666667       0.66666667       0.50000000 </v>
    <v>       0.75000000       0.75000000       0.59169983 </v>
   </varray>
  </structure>
  <varray name="forces" >
   <v>       0.09931712      -0.09290287       1.60547785 </v>
   <v>       0.20865337      -0.14030601      -0.31370165 </v>
   <v>      -0.24925841      -0.29026849       1.61427382 </v>
   <v>       0.12245298      -0.20729578      -1.16068508 </v>
   <v>       0.01746537       0.05678077      -0.01978221 </v>
   <v>       0.39305887      -0.07838708       1.64074578 </v>
   <v>      -0.20067594       0.12259318       0.24810411 </v>
   <v>       0.13574491       0.34200719       1.55592632 </v>
   <v>       0.10067470       0.11088890      -1.57823475 </v>
   <v>       0.00901226       0.14642504       1.63457640 </v>
   <v>      -0.24431940      -0.01039954       1.86630019 </v>
   <v>      -0.15068892       0.08399023      -1.62240413 </v>
   <v>      -0.35518727       0.06806194      -1.57828936 </v>
   <v>       0.12028117      -0.27283948      -0.03279757 </v>
   <v>      -0.09172276      -0.04986496      -0.25886702 </v>
   <v>       0.21839092      -0.15906031      -1.61316941 </v>
   <v>      -0.31112807       0.14693739      -0.29967546 </v>
   <v>      -0.17567041      -0.34663439      -0.00015058 </v>
   <v>       0.19365765       0.02138983      -0.54470850 </v>
   <v>       0.23728320       0.29410754       1.40071674 </v>
   <v>      -0.12837428       0.04847945      -1.63220846 </v>
   <v>      -0.35571851       0.08368449      -0.00481153 </v>
   <v>       0.01348449      -0.24451271       1.50637588 </v>
   <v>       0.21981968       0.40079452      -0.58979446 </v>
   <v>      -0.27045998       0.07200136       0.72225579 </v>
   <v>      -0.31534440       0.08009522      -0.73180619 </v>
   <v>       0.02844388      -0.02623784      -0.03623688 </v>
   <v>      -0.01680958       0.20291663      -0.98727041 </v>
   <v>       0.26290080      -0.32732700       0.23334601 </v>
   <v>       0.15927424       0.06153508      -0.74633640 </v>
   <v>      -0.15235206       0.02986431       1.07537353 </v>
   <v>      -0.07515263      -0.16580061      -0.81840962 </v>
   <v>      -0.28220022      -0.34997678       0.13783024 </v>
   <v>      -0.11592250      -0.06738896       0.94333201 </v>
   <v>       0.20319012      -0.12354281      -0.81525678 </v>
   <v>       0.15533629      -0.10931160      -0.87110098 </v>
   <v>       0.12893378      -0.04374878      -0.82078874 </v>
   <v>       0.16267342      -0.07509393      -0.90355965 </v>
   <v>      -0.05685073       0.38314079      -0.88861506 </v>
   <v>       0.01969481      -0.42198711       0.76120649 </v>
   <v>       0.20927294      -0.12274992      -0.38376652 </v>
   <v>      -0.19383609      -0.12772119      -0.91437744 </v>
   <v>      -0.08675748       0.29011421       0.86165194 </v>
   <v>       0.09025570      -0.10608445       0.80050346 </v>
   <v>      -0.10656325       0.37715086      -0.18649823 </v>
   <v>       0.15586523       0.10818695       0.91417234 </v>
   <v>       0.13426450       0.42279808       0.16707789 </v>
   <v>       0.13559047       0.00549868       0.66405626 </v>
  </varray>
  <energy>
   <i name="e_fr_energy">   -187.99610698 </i>
   <i name="e_wo_entrp">   -187.87791027 </i>
   <i name="e_0_energy">     -0.23639343 </i>
  </energy>
  <time name="totalsc">  282.78  284.89</time>
 </calculation>
 <calculation>
  <scstep>
   <time name="dav">    9.24    9.32</time>
   <time name="total">    9.61    9.68</time>
   <dipole>
    <v name="dipole">      0.00000000       0.00000000      -0.00067640 </v>
    <i name="Tr[quadrupol]"> -10267.91182824 </i>
    <i name="Echarged">      0.00000000 </i>
    <i name="Edipol_quadrupol">      0.00000000 </i>
    <i name="Eion">      0.00000000 </i>
   </dipole>
   <energy>
    <i name="alphaZ">    805.86988076 </i>
    <i name="ewald"> 199153.49703500 </i>
    <i name="hartreedc">-241350.63856228 </i>
    <i name="XCdc">   -344.29258882 </i>
    <i name="pawpsdc">  49454.69305445 </i>
    <i name="pawaedc"> -47532.18797091 </i>
    <i name="eentropy">     -0.23447296 </i>
    <i name="bandstr">  -2035.11506610 </i>
    <i name="atom">  41659.78587232 </i>
    <i name="e_fr_energy">   -188.62281855 </i>
    <i name="e_wo_entrp">   -188.38834558 </i>
    <i name="e_0_energy">   -188.50558206 </i>
   </energy>
  </scstep>
  <scstep>
   <time name="diag">    1.61    1.61</time>
   <time name="diis">    4.36    4.36</time>
   <time name="orth">    0.38    0.38</time>
   <time name="total">    6.72    6.72</time>
   <dipole>
    <v name="dipole">      0.00000000       0.00000000       0.04989519 </v>
    <i name="Tr[quadrupol]"> -10267.77833973 </i>
    <i name="Echarged">      0.00000000 </i>
    <i name="Edipol_quadrupol">      0.00000000 </i>
    <i name="Eion">      0.00000000 </i>
   </dipole>
   <energy>
    <i name="e_fr_energy">   -188.86384636 </i>
    <i name="e_wo_entrp">   -188.63016934 </i>
    <i name="e_0_energy">   -188.74700785 </i>
   </energy>
  </scstep>
  <scstep>
   <time name="diag">    1.60    1.60</time>
   <time name="diis">    4.41    4.41</time>
   <time name="orth">    0.38    0.38</time>
   <time name="total">    6.75    6.76</time>
   <dipole>
    <v name="dipole">      0.00000000       0.00000000      -0.12297054 </v>
    <i name="Tr[quadrupol]"> -10267.93550440 </i>
    <i name="Echarged">      0.00000000 </i>
    <i name="Edipol_quadrupol">      0.00000000 </i>
    <i name="Eion">      0.00000000 </i>
   </dipole>
   <energy>
    <i name="e_fr_energy">   -189.07746712 </i>
    <i name="e_wo_entrp">   -188.85663000 </i>
    <i name="e_0_energy">   -188.96704856 </i>
   </energy>
  </scstep>
  <scstep>
   <time name="diag">    1.62    1.62</time>
   <time name="diis">    4.39    4.40</time>
   <time name="orth">    0.38    0.38</time>
   <time name="total">    6.76    6.76</time>
   <dipole>
    <v name="dipole">      0.00000000       0.00000000       0.01845447 </v>
    <i name="Tr[quadrupol]"> -10268.01459556 </i>
    <i name="Echarged">      0.00000000 </i>
    <i name="Edipol_quadrupol">      0.00000000 </i>
    <i name="Eion">      0.00000000 </i>
   </dipole>
   <energy>
    <i name="e_fr_energy">   -188.86406030 </i>
    <i name="e_wo_entrp">   -188.62228499 </i>
    <i name="e_0_energy">   -188.74317265 </i>
   </energy>
  </scstep>
  <scstep>
   <time name="diag">    1.62    1.62</time>
   <time name="diis">    4.40    4.40</time>
   <time name="orth">    0.38    0.38</time>
   <time name="total">    6.76    6.77</time>
   <dipole>
    <v name="dipole">      0.00000000       0.00000000       0.00574484 </v>
    <i name="Tr[quadrupol]"> -10267.93210910 </i>
    <i name="Echarged">      0.00000000 </i>
    <i name="Edipol_quadrupol">      0.00000000 </i>
    <i name="Eion">      0.00000000 </i>
   </dipole>
   <energy>
    <i name="e_fr_energy">   -188.85313542 </i>
    <i name="e_wo_entrp">   -188.62300084 </i>
    <i name="e_0_energy">   -188.73806813 </i>
   </energy>
  </scstep>
  <scstep>
   <time name="diag">    1.62    1.62</time>
   <time name="diis">    4.18    4.51</time>
   <time name="orth">    0.38    0.38</time>
   <time name="total">    6.55    6.88</time>
   <dipole>
    <v name="dipole">      0.00000000       0.00000000       0.01699121 </v>
    <i name="Tr[quadrupol]"> -10267.93303434 </i>
    <i name="Echarged">      0.00000000 </i>
    <i name="Edipol_quadrupol">      0.00000000 </i>
    <i name="Eion">      0.00000000 </i>
   </dipole>
   <energy>
    <i name="e_fr_energy">   -188.84892877 </i>
    <i name="e_wo_entrp">   -188.61700996 </i>
    <i name="e_0_energy">   -188.73296937 </i>
   </energy>
  </scstep>
  <scstep>
   <time name="diag">    1.60    1.61</time>
   <time name="diis">    4.20    4.49</time>
   <time name="orth">    0.34    0.53</time>
   <time name="total">    6.51    7.16</time>
   <dipole>
    <v name="dipole">      0.00000000       0.00000000       0.01800006 </v>
    <i name="Tr[quadrupol]"> -10267.94571556 </i>
    <i name="Echarged">      0.00000000 </i>
    <i name="Edipol_quadrupol">      0.00000000 </i>
    <i name="Eion">      0.00000000 </i>
   </dipole>
   <energy>
    <i name="e_fr_energy">   -188.83894265 </i>
    <i name="e_wo_entrp">   -188.60236343 </i>
    <i name="e_0_energy">   -188.72065304 </i>
   </energy>
  </scstep>
  <scstep>
   <time name="diag">    1.56    1.73</time>
   <time name="diis">    4.39    4.40</time>
   <time name="orth">    0.38    0.38</time>
   <time name="total">    6.70    6.90</time>
   <dipole>
    <v name="dipole">      0.00000000       0.00000000       0.00871250 </v>
    <i name="Tr[quadrupol]"> -10267.92541758 </i>
    <i name="Echarged">      0.00000000 </i>
    <i name="Edipol_quadrupol">      0.00000000 </i>
    <i name="Eion">      0.00000000 </i>
   </dipole>
   <energy>
    <i name="e_fr_energy">   -188.83805482 </i>
    <i name="e_wo_entrp">   -188.60417893 </i>
    <i name="e_0_energy">   -188.72111687 </i>
   </energy>
  </scstep>
  <scstep>
   <time name="diag">    1.62    1.62</time>
   <time name="diis">    4.38    4.39</time>
   <time name="orth">    0.38    0.38</time>
   <time name="total">    6.75    6.76</time>
   <dipole>
    <v name="dipole">      0.00000000       0.00000000       0.00917627 </v>
    <i name="Tr[quadrupol]"> -10267.92402546 </i>
    <i name="Echarged">      0.00000000 </i>
    <i name="Edipol_quadrupol">      0.00000000 </i>
    <i name="Eion">      0.00000000 </i>
   </dipole>
   <energy>
    <i name="e_fr_energy">   -188.83753203 </i>
    <i name="e_wo_entrp">   -188.60219255 </i>
    <i name="e_0_energy">   -188.71986229 </i>
   </energy>
  </scstep>
  <scstep>
   <time name="diag">    1.63    1.63</time>
   <time name="diis">    4.36    4.36</time>
   <time name="orth">    0.38    0.38</time>
   <time name="total">    6.73    6.74</time>
   <dipole>
    <v name="dipole">      0.00000000       0.00000000       0.00985203 </v>
    <i name="Tr[quadrupol]"> -10267.92086056 </i>
    <i name="Echarged">      0.00000000 </i>
    <i name="Edipol_quadrupol">      0.00000000 </i>
    <i name="Eion">      0.00000000 </i>
   </dipole>
   <energy>
    <i name="e_fr_energy">   -188.83735796 </i>
    <i name="e_wo_entrp">   -188.60212288 </i>
    <i name="e_0_energy">   -188.71974042 </i>
   </energy>
  </scstep>
  <scstep>
   <time name="diag">    1.60    1.60</time>
   <time name="diis">    4.43    4.43</time>
   <time name="orth">    0.38    0.38</time>
   <time name="total">    6.77    6.78</time>
   <dipole>
    <v name="dipole">      0.00000000       0.00000000       0.01020599 </v>
    <i name="Tr[quadrupol]"> -10267.92100812 </i>
    <i name="Echarged">      0.00000000 </i>
    <i name="Edipol_quadrupol">      0.00000000 </i>
    <i name="Eion">      0.00000000 </i>
   </dipole>
   <energy>
    <i name="e_fr_energy">   -188.83729447 </i>
    <i name="e_wo_entrp">   -188.60205693 </i>
    <i name="e_0_energy">   -188.71967570 </i>
   </energy>
  </scstep>
  <scstep>
   <time name="diag">    1.62    1.62</time>
   <time name="diis">    4.34    4.34</time>
   <time name="orth">    0.38    0.38</time>
   <time name="total">    6.70    6.71</time>
   <dipole>
    <v name="dipole">      0.00000000       0.00000000       0.00993980 </v>
    <i name="Tr[quadrupol]"> -10267.92317487 </i>
    <i name="Echarged">      0.00000000 </i>
    <i name="Edipol_quadrupol">      0.00000000 </i>
    <i name="Eion">      0.00000000 </i>
   </dipole>
   <energy>
    <i name="e_fr_energy">   -188.83729651 </i>
    <i name="e_wo_entrp">   -188.60196634 </i>
    <i name="e_0_energy">   -188.71963142 </i>
   </energy>
  </scstep>
  <scstep>
   <time name="diag">    1.58    1.65</time>
   <time name="diis">    4.22    4.23</time>
   <time name="orth">    0.38    0.38</time>
   <time name="total">    6.55    6.64</time>
   <dipole>
    <v name="dipole">      0.00000000       0.00000000       0.00985884 </v>
    <i name="Tr[quadrupol]"> -10267.92575600 </i>
    <i name="Echarged">      0.00000000 </i>
    <i name="Edipol_quadrupol">      0.00000000 </i>
    <i name="Eion">      0.00000000 </i>
   </dipole>
   <energy>
    <i name="e_fr_energy">   -188.83728970 </i>
    <i name="e_wo_entrp">   -188.60200338 </i>
    <i name="e_0_energy">   -188.71964654 </i>
   </energy>
  </scstep>
  <scstep>
   <time name="diag">    1.61    1.62</time>
   <time name="diis">    3.43    3.43</time>
   <time name="orth">    0.38    0.38</time>
   <time name="total">    5.49    5.50</time>
   <dipole>
    <v name="dipole">      0.00000000       0.00000000       0.00975859 </v>
    <i name="Tr[quadrupol]"> -10267.92723178 </i>
    <i name="Echarged">      0.00000000 </i>
    <i name="Edipol_quadrupol">      0.00000000 </i>
    <i name="Eion">      0.00000000 </i>
   </dipole>
   <energy>
    <i name="alphaZ">    805.86190941 </i>
    <i name="ewald"> 199153.49703500 </i>
    <i name="hartreedc">-241351.37869884 </i>
    <i name="XCdc">   -344.26287838 </i>
    <i name="pawpsdc">  49201.32574764 </i>
    <i name="pawaedc"> -47277.16420680 </i>
    <i name="eentropy">     -0.23529668 </i>
    <i name="bandstr">  -2036.26677295 </i>
    <i name="atom">  41659.78587232 </i>
    <i name="e_fr_energy">   -188.83728929 </i>
    <i name="e_wo_entrp">   -188.60199261 </i>
    <i name="e_0_energy">   -188.71964095 </i>
   </energy>
  </scstep>
  <structure>
   <crystal>
    <varray name="basis" >
     <v>      11.00258152       0.00000000       0.00000000 </v>
     <v>       5.50129076       9.52851510       0.00000000 </v>
     <v>       0.00000000       0.00000000      24.49178509 </v>
    </varray>
    <i name="volume">   2567.67623402 </i>
    <varray name="rec_basis" >
     <v>       0.09088776      -0.05247407       0.00000000 </v>
     <v>       0.00000000       0.10494815       0.00000000 </v>
     <v>       0.00000000       0.00000000       0.04083002 </v>
    </varray>
   </crystal>
   <varray name="positions" >
    <v>       0.25046946       0.74967074       0.59391350 </v>
    <v>       0.91755571       0.16616941       0.49956746 </v>
    <v>      -0.00025067      -0.00102874       0.59392563 </v>
    <v>       0.83333333       0.83333333       0.40830017 </v>
    <v>       0.91661965       0.41686790       0.49997272 </v>
    <v>       0.00134531       0.24972219       0.59396213 </v>
    <v>       0.66583350       0.66710115       0.50034209 </v>
    <v>      -0.00018941       0.50121210       0.59384518 </v>
    <v>       0.83333333       0.58333333       0.40830017 </v>
    <v>       0.74976819       0.25051894       0.59395362 </v>
    <v>       0.49926855       0.24996314       0.59427313 </v>
    <v>       0.83333333       0.33333333       0.40830017 </v>
    <v>       0.33333333       0.08333333       0.40830017 </v>
    <v>       0.66751932       0.16569970       0.49995478 </v>
    <v>       0.16647351       0.41648994       0.49964307 </v>
    <v>       0.83333333       0.08333333       0.40830017 </v>
    <v>       0.16545135       0.66718743       0.49958680 </v>
    <v>       0.41674174       0.91543817       0.49999979 </v>
    <v>       0.16722315       0.91674247       0.49924894 </v>
    <v>       0.50020711       0.50104234       0.59363117 </v>
    <v>       0.58333333       0.08333333       0.40830017 </v>
    <v>       0.41542658       0.16696325       0.49999337 </v>
    <v>       0.50047467      -0.00086657       0.59377686 </v>
    <v>       0.41663113       0.41808712       0.49918678 </v>
    <v>      -0.00095770       0.75025518       0.59269569 </v>
    <v>       0.58333333       0.58333333       0.40830017 </v>
    <v>       0.16680046       0.16657368       0.49995004 </v>
    <v>       0.33333333       0.33333333       0.40830017 </v>
    <v>       0.66805362       0.91550659       0.50032174 </v>
    <v>       0.33333333       0.58333333       0.40830017 </v>
    <v>       0.24947947       0.50010584       0.59318258 </v>
    <v>       0.33333333       0.83333333       0.40830017 </v>
    <v>       0.91642069       0.91542632       0.50019004 </v>
    <v>       0.24976362       0.24976117       0.59300052 </v>
    <v>       0.08333333       0.83333333       0.40830017 </v>
    <v>       0.08333333       0.08333333       0.40830017 </v>
    <v>       0.08333333       0.58333333       0.40830017 </v>
    <v>       0.08333333       0.33333333       0.40830017 </v>
    <v>       0.58333333       0.33333333       0.40830017 </v>
    <v>       0.75080823      -0.00149556       0.59274940 </v>
    <v>       0.41752650       0.66623163       0.49947085 </v>
    <v>       0.58333333       0.83333333       0.40830017 </v>
    <v>       0.74921962       0.50102819       0.59288790 </v>
    <v>       0.50046500       0.74962403       0.59280358 </v>
    <v>       0.66567127       0.41800332       0.49974285 </v>
    <v>       0.25028668       0.00038342       0.59296031 </v>
    <v>       0.91632954       0.66816510       0.50023037 </v>
    <v>       0.75040642       0.75001949       0.59261545 </v>
   </varray>
  </structure>
  <varray name="forces" >
   <v>       0.03449113      -0.02545664       1.06402468 </v>
   <v>       0.10599898      -0.08995434       0.33727376 </v>
   <v>      -0.08477613      -0.14973318       1.08395452 </v>
   <v>       0.10888244      -0.20186259      -1.19266624 </v>
   <v>       0.04530479       0.04903178       0.40388143 </v>
   <v>       0.17291806      -0.03366101       1.16519920 </v>
   <v>      -0.04457452       0.04837334       0.31625042 </v>
   <v>       0.07405239       0.17304227       1.10212180 </v>
   <v>       0.09625459       0.13897358      -1.50485880 </v>
   <v>       0.03902820       0.06971771       1.09898960 </v>
   <v>      -0.13109682       0.03549573       1.23501568 </v>
   <v>      -0.15165929       0.10267183      -1.63270178 </v>
   <v>      -0.35130250       0.04390625      -1.57440081 </v>
   <v>       0.02039940      -0.05622657       0.43896916 </v>
   <v>      -0.09449716       0.04877095       0.16760815 </v>
   <v>       0.21043879      -0.19018064      -1.62010711 </v>
   <v>      -0.07423805       0.11652461       0.15767656 </v>
   <v>      -0.01057128      -0.14417599       0.28518997 </v>
   <v>       0.01228830      -0.06272310       0.09856209 </v>
   <v>       0.06007433       0.12488160       0.99132590 </v>
   <v>      -0.15087631       0.03178940      -1.55958837 </v>
   <v>      -0.07301630       0.00579288       0.40755484 </v>
   <v>       0.00690966      -0.14313330       1.06380420 </v>
   <v>       0.13598719       0.14272745       0.09764842 </v>
   <v>      -0.10890150       0.01411496       0.61631782 </v>
   <v>      -0.27460489       0.08883588      -0.78816882 </v>
   <v>      -0.03591395      -0.00426521       0.21662420 </v>
   <v>      -0.01798626       0.18342350      -1.03363477 </v>
   <v>       0.02945127      -0.11313488       0.34795681 </v>
   <v>       0.14396357       0.10382131      -0.84875980 </v>
   <v>      -0.05983832       0.01778913       0.70411006 </v>
   <v>      -0.05062968      -0.17186134      -0.92070088 </v>
   <v>      -0.04954442      -0.13336053       0.29811542 </v>
   <v>      -0.04275497      -0.01239408       0.72027016 </v>
   <v>       0.17823574      -0.11061599      -0.86955668 </v>
   <v>       0.17497511      -0.08516211      -0.96487303 </v>
   <v>       0.09791541      -0.04740218      -0.86556025 </v>
   <v>       0.14455671      -0.07906345      -0.93108525 </v>
   <v>      -0.03266052       0.34365787      -0.92396585 </v>
   <v>      -0.01231467      -0.20199043       0.62107481 </v>
   <v>      -0.00685037      -0.06447498       0.02226904 </v>
   <v>      -0.17768780      -0.12718913      -0.88232546 </v>
   <v>       0.02001976       0.14418474       0.65926567 </v>
   <v>       0.04871368      -0.02585214       0.66404953 </v>
   <v>      -0.06182369       0.12358197       0.18144816 </v>
   <v>       0.06250994       0.00907731       0.66561777 </v>
   <v>       0.01639756       0.13206027       0.28825856 </v>
   <v>       0.05835241      -0.01837249       0.59252548 </v>
  </varray>
  <energy>
   <i name="e_fr_energy">   -188.83728929 </i>
   <i name="e_wo_entrp">   -188.71964095 </i>
   <i name="e_0_energy">     -0.23529668 </i>
  </energy>
  <time name="totalsc">   98.42   99.84</time>
 </calculation>
 <calculation>
  <scstep>
   <time name="dav">    9.25    9.28</time>
   <time name="total">    9.62    9.82</time>
   <dipole>
    <v name="dipole">      0.00000000       0.00000000       0.00959827 </v>
    <i name="Tr[quadrupol]"> -10251.82349566 </i>
    <i name="Echarged">      0.00000000 </i>
    <i name="Edipol_quadrupol">      0.00000000 </i>
    <i name="Eion">      0.00000000 </i>
   </dipole>
   <energy>
    <i name="alphaZ">    805.85084378 </i>
    <i name="ewald"> 195335.26654516 </i>
    <i name="hartreedc">-237552.93996321 </i>
    <i name="XCdc">   -346.89127968 </i>
    <i name="pawpsdc">  49201.24504535 </i>
    <i name="pawaedc"> -47277.08389248 </i>
    <i name="eentropy">     -0.22881538 </i>
    <i name="bandstr">  -2013.10192707 </i>
    <i name="atom">  41659.78587232 </i>
    <i name="e_fr_energy">   -188.09757120 </i>
    <i name="e_wo_entrp">   -187.86875583 </i>
    <i name="e_0_energy">   -187.98316352 </i>
   </energy>
  </scstep>
  <scstep>
   <time name="diag">    2.03    2.04</time>
   <time name="diis">    4.59    4.61</time>
   <time name="orth">    0.38    0.38</time>
   <time name="total">    7.37    7.42</time>
   <dipole>
    <v name="dipole">      0.00000000       0.00000000       0.10799933 </v>
    <i name="Tr[quadrupol]"> -10251.41806905 </i>
    <i name="Echarged">      0.00000000 </i>
    <i name="Edipol_quadrupol">      0.00000000 </i>
    <i name="Eion">      0.00000000 </i>
   </dipole>
   <energy>
    <i name="e_fr_energy">   -189.71533152 </i>
    <i name="e_wo_entrp">   -189.49393086 </i>
    <i name="e_0_energy">   -189.60463119 </i>
   </energy>
  </scstep>
  <scstep>
   <time name="diag">    1.61    1.61</time>
   <time name="diis">    4.43    4.44</time>
   <time name="orth">    0.38    0.38</time>
   <time name="total">    6.79    6.80</time>
   <dipole>
    <v name="dipole">      0.00000000       0.00000000      -0.17323283 </v>
    <i name="Tr[quadrupol]"> -10251.95165577 </i>
    <i name="Echarged">      0.00000000 </i>
    <i name="Edipol_quadrupol">      0.00000000 </i>
    <i name="Eion">      0.00000000 </i>
   </dipole>
   <energy>
    <i name="e_fr_energy">   -190.21789638 </i>
    <i name="e_wo_entrp">   -189.99356975 </i>
    <i name="e_0_energy">   -190.10573306 </i>
   </energy>
  </scstep>
  <scstep>
   <time name="diag">    1.61    1.62</time>
   <time name="diis">    4.29    4.38</time>
   <time name="orth">    0.38    0.38</time>
   <time name="total">    6.65    6.74</time>
   <dipole>
    <v name="dipole">      0.00000000       0.00000000       0.09626536 </v>
    <i name="Tr[quadrupol]"> -10251.92086326 </i>
    <i name="Echarged">      0.00000000 </i>
    <i name="Edipol_quadrupol">      0.00000000 </i>
    <i name="Eion">      0.00000000 </i>
   </dipole>
   <energy>
    <i name="e_fr_energy">   -189.72195650 </i>
    <i name="e_wo_entrp">   -189.48994610 </i>
    <i name="e_0_energy">   -189.60595130 </i>
   </energy>
  </scstep>
  <scstep>
   <time name="diag">    1.62    1.62</time>
   <time name="diis">    4.35    4.35</time>
   <time name="orth">    0.38    0.38</time>
   <time name="total">    6.71    6.72</time>
   <dipole>
    <v name="dipole">      0.00000000       0.00000000       0.00931374 </v>
    <i name="Tr[quadrupol]"> -10251.79704627 </i>
    <i name="Echarged">      0.00000000 </i>
    <i name="Edipol_quadrupol">      0.00000000 </i>
    <i name="Eion">      0.00000000 </i>
   </dipole>
   <energy>
    <i name="e_fr_energy">   -189.65719789 </i>
    <i name="e_wo_entrp">   -189.44137448 </i>
    <i name="e_0_energy">   -189.54928619 </i>
   </energy>
  </scstep>
  <scstep>
   <time name="diag">    1.60    1.60</time>
   <time name="diis">    4.33    4.34</time>
   <time name="orth">    0.38    0.38</time>
   <time name="total">    6.68    6.69</time>
   <dipole>
    <v name="dipole">      0.00000000       0.00000000       0.06696556 </v>
    <i name="Tr[quadrupol]"> -10251.86185629 </i>
    <i name="Echarged">      0.00000000 </i>
    <i name="Edipol_quadrupol">      0.00000000 </i>
    <i name="Eion">      0.00000000 </i>
   </dipole>
   <energy>
    <i name="e_fr_energy">   -189.62147447 </i>
    <i name="e_wo_entrp">   -189.39433605 </i>
    <i name="e_0_energy">   -189.50790526 </i>
   </energy>
  </scstep>
  <scstep>
   <time name="diag">    1.62    1.62</time>
   <time name="diis">    4.38    4.38</time>
   <time name="orth">    0.39    0.39</time>
   <time name="total">    6.75    6.76</time>
   <dipole>
    <v name="dipole">      0.00000000       0.00000000       0.05786102 </v>
    <i name="Tr[quadrupol]"> -10251.86206826 </i>
    <i name="Echarged">      0.00000000 </i>
    <i name="Edipol_quadrupol">      0.00000000 </i>
    <i name="Eion">      0.00000000 </i>
   </dipole>
   <energy>
[...]
       <r>    -9.3684     0.0000     0.0000 </r>
       <r>    -9.3145     0.0000     0.0000 </r>
       <r>    -9.2605     0.0000     0.0000 </r>
       <r>    -9.2066     0.0000     0.0000 </r>
       <r>    -9.1526     0.0002     0.0000 </r>
       <r>    -9.0987     0.0037     0.0002 </r>
       <r>    -9.0448     0.0484     0.0028 </r>
       <r>    -8.9908     0.3634     0.0224 </r>
       <r>    -8.9369     1.5625     0.1067 </r>
       <r>    -8.8829     3.8606     0.3150 </r>
       <r>    -8.8290     5.5210     0.6128 </r>
       <r>    -8.7750     4.8132     0.8724 </r>
       <r>    -8.7211     3.5647     1.0647 </r>
       <r>    -8.6671     4.2139     1.2920 </r>
       <r>    -8.6132     5.4081     1.5838 </r>
       <r>    -8.5593     4.5759     1.8306 </r>
       <r>    -8.5053     2.3240     1.9560 </r>
       <r>    -8.4514     0.7777     1.9979 </r>
       <r>    -8.3974     0.5420     2.0272 </r>
       <r>    -8.3435     1.2368     2.0939 </r>
       <r>    -8.2895     2.3234     2.2192 </r>
       <r>    -8.2356     3.4244     2.4039 </r>
       <r>    -8.1817     4.6230     2.6533 </r>
       <r>    -8.1277     5.9935     2.9766 </r>
       <r>    -8.0738     7.8020     3.3975 </r>
       <r>    -8.0198     9.3865     3.9039 </r>
       <r>    -7.9659     8.8728     4.3825 </r>
       <r>    -7.9119     6.5081     4.7336 </r>
       <r>    -7.8580     4.4287     4.9725 </r>
       <r>    -7.8040     3.9859     5.1875 </r>
       <r>    -7.7501     4.9832     5.4563 </r>
       <r>    -7.6962     6.2690     5.7945 </r>
       <r>    -7.6422     7.3053     6.1885 </r>
       <r>    -7.5883     8.3697     6.6400 </r>
       <r>    -7.5343     9.7833     7.1678 </r>
       <r>    -7.4804    11.8509     7.8070 </r>
       <r>    -7.4264    13.3805     8.5288 </r>
       <r>    -7.3725    13.2737     9.2449 </r>
       <r>    -7.3186    12.9088     9.9412 </r>
       <r>    -7.2646    13.1488    10.6505 </r>
       <r>    -7.2107    14.3790    11.4262 </r>
       <r>    -7.1567    17.1465    12.3511 </r>
       <r>    -7.1028    20.0071    13.4304 </r>
       <r>    -7.0488    23.0164    14.6720 </r>
       <r>    -6.9949    28.0439    16.1847 </r>
       <r>    -6.9410    33.0577    17.9680 </r>
       <r>    -6.8870    34.1545    19.8104 </r>
       <r>    -6.8331    32.8913    21.5847 </r>
       <r>    -6.7791    34.4511    23.4431 </r>
       <r>    -6.7252    39.5291    25.5754 </r>
       <r>    -6.6712    43.8295    27.9398 </r>
       <r>    -6.6173    45.3685    30.3871 </r>
       <r>    -6.5633    46.4883    32.8949 </r>
       <r>    -6.5094    48.5070    35.5115 </r>
       <r>    -6.4555    51.4989    38.2895 </r>
       <r>    -6.4015    56.8358    41.3555 </r>
       <r>    -6.3476    65.1810    44.8716 </r>
       <r>    -6.2936    74.7388    48.9032 </r>
       <r>    -6.2397    82.5155    53.3544 </r>
       <r>    -6.1857    85.7411    57.9796 </r>
       <r>    -6.1318    83.7543    62.4976 </r>
       <r>    -6.0779    79.7160    66.7978 </r>
       <r>    -6.0239    76.3008    70.9137 </r>
       <r>    -5.9700    73.2186    74.8634 </r>
       <r>    -5.9160    70.6645    78.6753 </r>
       <r>    -5.8621    69.9431    82.4483 </r>
       <r>    -5.8081    71.7456    86.3185 </r>
       <r>    -5.7542    74.9409    90.3611 </r>
       <r>    -5.7002    76.9298    94.5110 </r>
       <r>    -5.6463    75.8675    98.6035 </r>
       <r>    -5.5924    72.4911   102.5140 </r>
       <r>    -5.5384    69.1802   106.2458 </r>
       <r>    -5.4845    66.9666   109.8582 </r>
       <r>    -5.4305    65.9421   113.4154 </r>
       <r>    -5.3766    66.4601   117.0005 </r>
       <r>    -5.3226    68.4026   120.6904 </r>
       <r>    -5.2687    71.8279   124.5650 </r>
       <r>    -5.2148    76.3598   128.6841 </r>
       <r>    -5.1608    80.0904   133.0045 </r>
       <r>    -5.1069    82.1286   137.4348 </r>
       <r>    -5.0529    83.7111   141.9505 </r>
       <r>    -4.9990    85.4125   146.5580 </r>
       <r>    -4.9450    86.0356   151.1990 </r>
       <r>    -4.8911    84.5783   155.7615 </r>
       <r>    -4.8371    81.3221   160.1483 </r>
       <r>    -4.7832    78.4644   164.3809 </r>
       <r>    -4.7293    78.3927   168.6097 </r>
       <r>    -4.6753    79.9804   172.9242 </r>
       <r>    -4.6214    81.2792   177.3087 </r>
       <r>    -4.5674    82.4583   181.7568 </r>
       <r>    -4.5135    83.8264   186.2787 </r>
       <r>    -4.4595    85.5294   190.8924 </r>
       <r>    -4.4056    86.6515   195.5667 </r>
       <r>    -4.3517    86.5908   200.2377 </r>
       <r>    -4.2977    86.7362   204.9166 </r>
       <r>    -4.2438    87.8126   209.6535 </r>
       <r>    -4.1898    88.9505   214.4518 </r>
       <r>    -4.1359    89.3110   219.2696 </r>
       <r>    -4.0819    89.3962   224.0920 </r>
       <r>    -4.0280    89.9786   228.9457 </r>
       <r>    -3.9741    90.7454   233.8409 </r>
       <r>    -3.9201    90.8641   238.7424 </r>
       <r>    -3.8662    90.7219   243.6363 </r>
       <r>    -3.8122    91.4024   248.5668 </r>
       <r>    -3.7583    92.9416   253.5805 </r>
       <r>    -3.7043    95.2780   258.7201 </r>
       <r>    -3.6504    97.0349   263.9545 </r>
       <r>    -3.5964    95.8523   269.1251 </r>
       <r>    -3.5425    93.7067   274.1800 </r>
       <r>    -3.4886    93.3237   279.2142 </r>
       <r>    -3.4346    92.5298   284.2056 </r>
       <r>    -3.3807    89.0770   289.0108 </r>
       <r>    -3.3267    84.9813   293.5950 </r>
       <r>    -3.2728    83.2713   298.0869 </r>
       <r>    -3.2188    84.3930   302.6394 </r>
       <r>    -3.1649    87.1894   307.3427 </r>
       <r>    -3.1110    90.6464   312.2325 </r>
       <r>    -3.0570    93.4037   317.2710 </r>
       <r>    -3.0031    94.4271   322.3648 </r>
       <r>    -2.9491    94.6991   327.4732 </r>
       <r>    -2.8952    95.9631   332.6498 </r>
       <r>    -2.8412    97.7888   337.9248 </r>
       <r>    -2.7873    99.1199   343.2717 </r>
       <r>    -2.7333   101.1349   348.7273 </r>
       <r>    -2.6794   103.9121   354.3327 </r>
       <r>    -2.6255   104.6884   359.9800 </r>
       <r>    -2.5715   103.1483   365.5442 </r>
       <r>    -2.5176   101.7489   371.0329 </r>
       <r>    -2.4636   100.4803   376.4531 </r>
       <r>    -2.4097    98.4833   381.7657 </r>
       <r>    -2.3557    95.7826   386.9326 </r>
       <r>    -2.3018    91.8160   391.8854 </r>
       <r>    -2.2479    87.7026   396.6164 </r>
       <r>    -2.1939    86.3061   401.2721 </r>
       <r>    -2.1400    88.3572   406.0384 </r>
       <r>    -2.0860    90.9762   410.9460 </r>
       <r>    -2.0321    91.9087   415.9039 </r>
       <r>    -1.9781    92.6143   420.8998 </r>
       <r>    -1.9242    95.0643   426.0279 </r>
       <r>    -1.8703    99.0122   431.3690 </r>
       <r>    -1.8163   102.5678   436.9019 </r>
       <r>    -1.7624   104.7638   442.5532 </r>
       <r>    -1.7084   106.6950   448.3087 </r>
       <r>    -1.6545   108.8055   454.1781 </r>
       <r>    -1.6005   109.7229   460.0970 </r>
       <r>    -1.5466   109.2216   465.9888 </r>
       <r>    -1.4926   107.6516   471.7959 </r>
       <r>    -1.4387   104.0339   477.4078 </r>
       <r>    -1.3848    98.6828   482.7312 </r>
       <r>    -1.3308    93.5688   487.7786 </r>
       <r>    -1.2769    88.4826   492.5517 </r>
       <r>    -1.2229    80.6737   496.9035 </r>
       <r>    -1.1690    67.6212   500.5512 </r>
       <r>    -1.1150    50.9975   503.3022 </r>
       <r>    -1.0611    36.8509   505.2901 </r>
       <r>    -1.0072    28.3332   506.8185 </r>
       <r>    -0.9532    22.8676   508.0521 </r>
       <r>    -0.8993    17.1724   508.9784 </r>
       <r>    -0.8453    11.6724   509.6080 </r>
       <r>    -0.7914     8.7571   510.0804 </r>
       <r>    -0.7374     8.9982   510.5658 </r>
       <r>    -0.6835    10.7047   511.1433 </r>
       <r>    -0.6295    12.4188   511.8132 </r>
       <r>    -0.5756    14.9038   512.6172 </r>
       <r>    -0.5217    19.0206   513.6432 </r>
       <r>    -0.4677    23.2824   514.8991 </r>
       <r>    -0.4138    25.0426   516.2500 </r>
       <r>    -0.3598    23.8475   517.5365 </r>
       <r>    -0.3059    22.1285   518.7301 </r>
       <r>    -0.2519    21.5386   519.8920 </r>
       <r>    -0.1980    20.4255   520.9938 </r>
       <r>    -0.1441    16.5925   521.8889 </r>
       <r>    -0.0901    11.7255   522.5214 </r>
       <r>    -0.0362     8.7029   522.9909 </r>
       <r>     0.0178     7.6653   523.4044 </r>
       <r>     0.0717     8.1479   523.8439 </r>
       <r>     0.1257    10.5445   524.4127 </r>
       <r>     0.1796    14.4410   525.1917 </r>
       <r>     0.2336    17.4416   526.1326 </r>
       <r>     0.2875    18.2092   527.1148 </r>
       <r>     0.3414    18.6308   528.1198 </r>
       <r>     0.3954    19.6984   529.1824 </r>
       <r>     0.4493    19.7049   530.2454 </r>
       <r>     0.5033    18.5902   531.2482 </r>
       <r>     0.5572    18.7465   532.2595 </r>
       <r>     0.6112    21.2424   533.4054 </r>
       <r>     0.6651    24.1527   534.7082 </r>
       <r>     0.7190    25.2064   536.0680 </r>
       <r>     0.7730    24.6660   537.3985 </r>
       <r>     0.8269    22.3484   538.6041 </r>
       <r>     0.8809    16.8856   539.5150 </r>
       <r>     0.9348    11.2969   540.1244 </r>
       <r>     0.9888     9.4731   540.6354 </r>
       <r>     1.0427     9.8070   541.1644 </r>
       <r>     1.0966     9.4626   541.6748 </r>
       <r>     1.1506     8.5434   542.1357 </r>
       <r>     1.2045     8.0971   542.5725 </r>
       <r>     1.2585     7.8057   542.9936 </r>
       <r>     1.3124     6.9031   543.3659 </r>
       <r>     1.3664     6.1719   543.6989 </r>
       <r>     1.4203     6.7656   544.0638 </r>
       <r>     1.4743     9.1166   544.5556 </r>
       <r>     1.5282    12.8380   545.2481 </r>
       <r>     1.5821    15.9613   546.1092 </r>
       <r>     1.6361    16.5163   547.0001 </r>
       <r>     1.6900    15.4661   547.8344 </r>
       <r>     1.7440    15.2158   548.6552 </r>
       <r>     1.7979    15.8575   549.5106 </r>
       <r>     1.8519    15.0204   550.3209 </r>
       <r>     1.9058    12.3731   550.9883 </r>
       <r>     1.9597    11.2030   551.5926 </r>
       <r>     2.0137    13.2950   552.3098 </r>
       <r>     2.0676    16.9145   553.2223 </r>
       <r>     2.1216    19.4542   554.2717 </r>
       <r>     2.1755    19.8249   555.3411 </r>
       <r>     2.2295    19.3172   556.3832 </r>
       <r>     2.2834    19.6754   557.4445 </r>
       <r>     2.3374    20.7322   558.5629 </r>
       <r>     2.3913    21.6188   559.7291 </r>
       <r>     2.4452    21.8911   560.9100 </r>
       <r>     2.4992    21.1238   562.0495 </r>
       <r>     2.5531    20.2025   563.1393 </r>
       <r>     2.6071    20.8711   564.2651 </r>
       <r>     2.6610    22.9287   565.5020 </r>
       <r>     2.7150    23.3987   566.7642 </r>
       <r>     2.7689    19.6352   567.8234 </r>
       <r>     2.8228    13.0663   568.5282 </r>
       <r>     2.8768     7.6420   568.9405 </r>
       <r>     2.9307     5.7846   569.2525 </r>
       <r>     2.9847     5.9468   569.5733 </r>
       <r>     3.0386     4.9747   569.8417 </r>
       <r>     3.0926     3.4610   570.0283 </r>
       <r>     3.1465     4.4773   570.2699 </r>
       <r>     3.2004     8.3060   570.7179 </r>
       <r>     3.2544    11.6163   571.3446 </r>
       <r>     3.3083    11.7143   571.9765 </r>
       <r>     3.3623     9.8195   572.5062 </r>
       <r>     3.4162     8.8450   572.9833 </r>
       <r>     3.4702    10.4250   573.5457 </r>
       <r>     3.5241    13.9505   574.2982 </r>
       <r>     3.5781    17.6780   575.2518 </r>
       <r>     3.6320    20.9976   576.3845 </r>
       <r>     3.6859    22.7702   577.6128 </r>
       <r>     3.7399    20.8717   578.7387 </r>
       <r>     3.7938    16.1915   579.6121 </r>
       <r>     3.8478    12.3931   580.2807 </r>
       <r>     3.9017    11.5693   580.9048 </r>
       <r>     3.9557    13.2947   581.6219 </r>
       <r>     4.0096    15.3499   582.4499 </r>
       <r>     4.0635    14.7319   583.2446 </r>
       <r>     4.1175    11.8615   583.8845 </r>
       <r>     4.1714    10.2408   584.4369 </r>
       <r>     4.2254    10.3867   584.9972 </r>
       <r>     4.2793     9.8197   585.5269 </r>
       <r>     4.3333     8.2741   585.9733 </r>
       <r>     4.3872     8.3301   586.4226 </r>
       <r>     4.4412    10.7218   587.0010 </r>
       <r>     4.4951    14.3255   587.7738 </r>
       <r>     4.5490    19.7633   588.8399 </r>
       <r>     4.6030    26.0929   590.2474 </r>
       <r>     4.6569    28.5643   591.7883 </r>
       <r>     4.7109    25.8420   593.1823 </r>
       <r>     4.7648    22.1944   594.3795 </r>
       <r>     4.8188    21.1534   595.5206 </r>
       <r>     4.8727    23.6510   596.7964 </r>
       <r>     4.9266    28.3392   598.3252 </r>
       <r>     4.9806    33.0301   600.1069 </r>
       <r>     5.0345    36.3703   602.0689 </r>
       <r>     5.0885    36.6265   604.0446 </r>
       <r>     5.1424    33.6428   605.8595 </r>
       <r>     5.1964    31.1477   607.5397 </r>
       <r>     5.2503    29.9911   609.1575 </r>
       <r>     5.3043    25.6593   610.5417 </r>
       <r>     5.3582    16.7103   611.4431 </r>
       <r>     5.4121     7.5847   611.8522 </r>
       <r>     5.4661     2.2627   611.9743 </r>
       <r>     5.5200     0.4247   611.9972 </r>
       <r>     5.5740     0.0486   611.9998 </r>
       <r>     5.6279     0.0033   612.0000 </r>
       <r>     5.6819     0.0001   612.0000 </r>
       <r>     5.7358     0.0000   612.0000 </r>
       <r>     5.7897     0.0000   612.0000 </r>
       <r>     5.8437     0.0000   612.0000 </r>
       <r>     5.8976     0.0000   612.0000 </r>
       <r>     5.9516     0.0000   612.0000 </r>
       <r>     6.0055     0.0000   612.0000 </r>
       <r>     6.0595     0.0000   612.0000 </r>
       <r>     6.1134     0.0000   612.0000 </r>
       <r>     6.1673     0.0000   612.0000 </r>
       <r>     6.2213     0.0000   612.0000 </r>
       <r>     6.2752     0.0000   612.0000 </r>
       <r>     6.3292     0.0000   612.0000 </r>
      </set>
     </set>
    </array>
   </total>
  </dos>
 </calculation>
 <structure name="finalpos" >
  <crystal>
   <varray name="basis" >
    <v>      11.00258152       0.00000000       0.00000000 </v>
    <v>       5.50129076       9.52851510       0.00000000 </v>
    <v>       0.00000000       0.00000000      24.49178509 </v>
   </varray>
   <i name="volume">   2567.67623402 </i>
   <varray name="rec_basis" >
    <v>       0.09088776      -0.05247407       0.00000000 </v>
    <v>       0.00000000       0.10494815       0.00000000 </v>
    <v>       0.00000000       0.00000000       0.04083002 </v>
   </varray>
  </crystal>
  <varray name="positions" >
   <v>       0.25136987       0.74924211       0.61109327 </v>
   <v>       0.91810053       0.16566472       0.51007829 </v>
   <v>       0.00066406      -0.00261194       0.61288276 </v>
   <v>       0.83333333       0.83333333       0.40830017 </v>
   <v>       0.91731068       0.41619968       0.51006902 </v>
   <v>       0.00357973       0.24934666       0.61460073 </v>
   <v>       0.66570457       0.66666712       0.50738438 </v>
   <v>       0.00103664       0.50258639       0.61197361 </v>
   <v>       0.83333333       0.58333333       0.40830017 </v>
   <v>       0.75068205       0.25074834       0.61390067 </v>
   <v>       0.49853916       0.24995135       0.61621848 </v>
   <v>       0.83333333       0.33333333       0.40830017 </v>
   <v>       0.33333333       0.08333333       0.40830017 </v>
   <v>       0.66747474       0.16625485       0.51050834 </v>
   <v>       0.16513228       0.41714041       0.50664535 </v>
   <v>       0.83333333       0.08333333       0.40830017 </v>
   <v>       0.16440037       0.66845715       0.50634389 </v>
   <v>       0.41720010       0.91518406       0.50752107 </v>
   <v>       0.16697191       0.91609360       0.50613789 </v>
   <v>       0.50091859       0.50095902       0.60953270 </v>
   <v>       0.58333333       0.08333333       0.40830017 </v>
   <v>       0.41590057       0.16690730       0.51037460 </v>
   <v>       0.50163868      -0.00282509       0.61171820 </v>
   <v>       0.41775638       0.41796318       0.50590362 </v>
   <v>      -0.00062074       0.75030698       0.60480748 </v>
   <v>       0.58333333       0.58333333       0.40830017 </v>
   <v>       0.16592772       0.16674240       0.50778701 </v>
   <v>       0.33333333       0.33333333       0.40830017 </v>
   <v>       0.66745511       0.91596470       0.50894221 </v>
   <v>       0.33333333       0.58333333       0.40830017 </v>
   <v>       0.25018127       0.49990961       0.60506781 </v>
   <v>       0.33333333       0.83333333       0.40830017 </v>
   <v>       0.91568173       0.91624108       0.50855128 </v>
   <v>       0.24996073       0.24980949       0.60664408 </v>
   <v>       0.08333333       0.83333333       0.40830017 </v>
   <v>       0.08333333       0.08333333       0.40830017 </v>
   <v>       0.08333333       0.58333333       0.40830017 </v>
   <v>       0.08333333       0.33333333       0.40830017 </v>
   <v>       0.58333333       0.33333333       0.40830017 </v>
   <v>       0.75134420      -0.00270500       0.60613042 </v>
   <v>       0.41718743       0.66533484       0.50628029 </v>
   <v>       0.58333333       0.83333333       0.40830017 </v>
   <v>       0.75015361       0.50214682       0.60598230 </v>
   <v>       0.50183658       0.74902268       0.60502163 </v>
   <v>       0.66626068       0.41708706       0.50794564 </v>
   <v>       0.25136581      -0.00043819       0.60506362 </v>
   <v>       0.91525436       0.66884812       0.50814338 </v>
   <v>       0.75136782       0.74926609       0.60492332 </v>
  </varray>
  <varray name="selective"  type="logical" >
   <v type="logical" >  T  T  T </v>
   <v type="logical" >  T  T  T </v>
   <v type="logical" >  T  T  T </v>
   <v type="logical" >  F  F  F </v>
   <v type="logical" >  T  T  T </v>
   <v type="logical" >  T  T  T </v>
   <v type="logical" >  T  T  T </v>
   <v type="logical" >  T  T  T </v>
   <v type="logical" >  F  F  F </v>
   <v type="logical" >  T  T  T </v>
   <v type="logical" >  T  T  T </v>
   <v type="logical" >  F  F  F </v>
   <v type="logical" >  F  F  F </v>
   <v type="logical" >  T  T  T </v>
   <v type="logical" >  T  T  T </v>
   <v type="logical" >  F  F  F </v>
   <v type="logical" >  T  T  T </v>
   <v type="logical" >  T  T  T </v>
   <v type="logical" >  T  T  T </v>
   <v type="logical" >  T  T  T </v>
   <v type="logical" >  F  F  F </v>
   <v type="logical" >  T  T  T </v>
   <v type="logical" >  T  T  T </v>
   <v type="logical" >  T  T  T </v>
   <v type="logical" >  T  T  T </v>
   <v type="logical" >  F  F  F </v>
   <v type="logical" >  T  T  T </v>
   <v type="logical" >  F  F  F </v>
   <v type="logical" >  T  T  T </v>
   <v type="logical" >  F  F  F </v>
   <v type="logical" >  T  T  T </v>
   <v type="logical" >  F  F  F </v>
   <v type="logical" >  T  T  T </v>
   <v type="logical" >  T  T  T </v>
   <v type="logical" >  F  F  F </v>
   <v type="logical" >  F  F  F </v>
   <v type="logical" >  F  F  F </v>
   <v type="logical" >  F  F  F </v>
   <v type="logical" >  F  F  F </v>
   <v type="logical" >  T  T  T </v>
   <v type="logical" >  T  T  T </v>
   <v type="logical" >  F  F  F </v>
   <v type="logical" >  T  T  T </v>
   <v type="logical" >  T  T  T </v>
   <v type="logical" >  T  T  T </v>
   <v type="logical" >  T  T  T </v>
   <v type="logical" >  T  T  T </v>
   <v type="logical" >  T  T  T </v>
  </varray>
  <nose>
   <v>      -3.00000000       0.00000000       0.00010000       0.00010000 </v>
  </nose>
 </structure>
</modeling>
