  56  56   0   0
  0.4903395E+02  0.1100258E-08  0.1100258E-08  0.2619179E-08  0.3500000E-15
  1.000000000000000E-004
  CAR 
 unknown system                          
      6.38206611    -21.72402242  301     -1.25356392      1.00000000
    -21.724  0.0000E+00  0.0000E+00
    -21.630  0.0000E+00  0.0000E+00
    -21.537  0.0000E+00  0.0000E+00
    -21.443  0.0000E+00  0.0000E+00
    -21.349  0.0000E+00  0.0000E+00
    -21.256  0.0000E+00  0.0000E+00
    -21.162  0.0000E+00  0.0000E+00
    -21.068  0.0000E+00  0.0000E+00
    -20.975  0.7663E-15  0.7179E-16
    -20.881  0.8537E-11  0.7999E-12
    -20.787  0.1726E-07  0.1618E-08
    -20.693  0.6461E-05  0.6069E-06
    -20.600  0.4635E-03  0.4403E-04
    -20.506  0.6821E-02  0.6831E-03
    -20.412  0.2441E-01  0.2970E-02
    -20.319  0.3589E-01  0.6333E-02
    -20.225  0.5443E-01  0.1143E-01
    -20.131  0.8036E-01  0.1896E-01
    -20.038  0.6993E-01  0.2551E-01
    -19.944  0.4438E-01  0.2967E-01
    -19.850  0.2097E-01  0.3163E-01
    -19.757  0.3741E-02  0.3199E-01
    -19.663  0.1580E-03  0.3200E-01
    -19.569  0.1337E-05  0.3200E-01
    -19.476  0.2127E-08  0.3200E-01
    -19.382  0.6164E-12  0.3200E-01
    -19.288  0.3160E-16  0.3200E-01
    -19.194  0.0000E+00  0.3200E-01
    -19.101  0.0000E+00  0.3200E-01
    -19.007  0.0000E+00  0.3200E-01
    -18.913  0.0000E+00  0.3200E-01
    -18.820  0.0000E+00  0.3200E-01
    -18.726  0.0000E+00  0.3200E-01
    -18.632  0.0000E+00  0.3200E-01
    -18.539  0.0000E+00  0.3200E-01
    -18.445  0.0000E+00  0.3200E-01
    -18.351  0.0000E+00  0.3200E-01
    -18.258  0.0000E+00  0.3200E-01
    -18.164  0.0000E+00  0.3200E-01
    -18.070  0.0000E+00  0.3200E-01
    -17.977  0.0000E+00  0.3200E-01
    -17.883  0.0000E+00  0.3200E-01
    -17.789  0.0000E+00  0.3200E-01
    -17.695  0.0000E+00  0.3200E-01
    -17.602  0.0000E+00  0.3200E-01
    -17.508  0.0000E+00  0.3200E-01
    -17.414  0.0000E+00  0.3200E-01
    -17.321  0.0000E+00  0.3200E-01
    -17.227  0.0000E+00  0.3200E-01
    -17.133  0.0000E+00  0.3200E-01
    -17.040  0.0000E+00  0.3200E-01
    -16.946  0.0000E+00  0.3200E-01
    -16.852  0.0000E+00  0.3200E-01
    -16.759  0.0000E+00  0.3200E-01
    -16.665  0.0000E+00  0.3200E-01
    -16.571  0.0000E+00  0.3200E-01
    -16.478  0.0000E+00  0.3200E-01
    -16.384  0.0000E+00  0.3200E-01
    -16.290  0.0000E+00  0.3200E-01
    -16.196  0.0000E+00  0.3200E-01
    -16.103  0.0000E+00  0.3200E-01
    -16.009  0.0000E+00  0.3200E-01
    -15.915  0.0000E+00  0.3200E-01
    -15.822  0.0000E+00  0.3200E-01
    -15.728  0.0000E+00  0.3200E-01
    -15.634  0.0000E+00  0.3200E-01
    -15.541  0.0000E+00  0.3200E-01
    -15.447  0.0000E+00  0.3200E-01
    -15.353  0.0000E+00  0.3200E-01
    -15.260  0.0000E+00  0.3200E-01
    -15.166  0.0000E+00  0.3200E-01
    -15.072  0.0000E+00  0.3200E-01
    -14.979  0.0000E+00  0.3200E-01
    -14.885  0.0000E+00  0.3200E-01
    -14.791  0.0000E+00  0.3200E-01
    -14.698  0.0000E+00  0.3200E-01
    -14.604  0.0000E+00  0.3200E-01
    -14.510  0.0000E+00  0.3200E-01
    -14.416  0.0000E+00  0.3200E-01
    -14.323  0.0000E+00  0.3200E-01
    -14.229  0.0000E+00  0.3200E-01
    -14.135  0.0000E+00  0.3200E-01
    -14.042  0.0000E+00  0.3200E-01
    -13.948  0.0000E+00  0.3200E-01
    -13.854  0.0000E+00  0.3200E-01
    -13.761  0.0000E+00  0.3200E-01
    -13.667  0.0000E+00  0.3200E-01
    -13.573  0.0000E+00  0.3200E-01
    -13.480  0.0000E+00  0.3200E-01
    -13.386  0.0000E+00  0.3200E-01
    -13.292  0.0000E+00  0.3200E-01
    -13.199  0.0000E+00  0.3200E-01
    -13.105  0.0000E+00  0.3200E-01
    -13.011  0.0000E+00  0.3200E-01
    -12.917  0.0000E+00  0.3200E-01
    -12.824  0.0000E+00  0.3200E-01
    -12.730  0.0000E+00  0.3200E-01
    -12.636  0.0000E+00  0.3200E-01
    -12.543  0.0000E+00  0.3200E-01
    -12.449  0.0000E+00  0.3200E-01
    -12.355  0.0000E+00  0.3200E-01
    -12.262  0.0000E+00  0.3200E-01
    -12.168  0.0000E+00  0.3200E-01
    -12.074  0.0000E+00  0.3200E-01
    -11.981  0.0000E+00  0.3200E-01
    -11.887  0.0000E+00  0.3200E-01
    -11.793  0.0000E+00  0.3200E-01
    -11.700  0.0000E+00  0.3200E-01
    -11.606  0.0000E+00  0.3200E-01
    -11.512  0.0000E+00  0.3200E-01
    -11.418  0.0000E+00  0.3200E-01
    -11.325  0.0000E+00  0.3200E-01
    -11.231  0.0000E+00  0.3200E-01
    -11.137  0.0000E+00  0.3200E-01
    -11.044  0.0000E+00  0.3200E-01
    -10.950  0.0000E+00  0.3200E-01
    -10.856  0.0000E+00  0.3200E-01
    -10.763  0.0000E+00  0.3200E-01
    -10.669  0.0000E+00  0.3200E-01
    -10.575  0.0000E+00  0.3200E-01
    -10.482  0.0000E+00  0.3200E-01
    -10.388  0.0000E+00  0.3200E-01
    -10.294  0.0000E+00  0.3200E-01
    -10.201  0.0000E+00  0.3200E-01
    -10.107  0.0000E+00  0.3200E-01
    -10.013  0.2394E-15  0.3200E-01
     -9.919  0.2947E-11  0.3200E-01
     -9.826  0.6532E-08  0.3200E-01
     -9.732  0.2654E-05  0.3200E-01
     -9.638  0.2039E-03  0.3202E-01
     -9.545  0.3107E-02  0.3231E-01
     -9.451  0.9987E-02  0.3325E-01
     -9.357  0.7945E-02  0.3399E-01
     -9.264  0.7728E-02  0.3471E-01
     -9.170  0.1011E-01  0.3566E-01
     -9.076  0.3366E-02  0.3598E-01
     -8.983  0.3039E-03  0.3601E-01
     -8.889  0.1501E-02  0.3615E-01
     -8.795  0.8424E-02  0.3694E-01
     -8.702  0.1555E-01  0.3839E-01
     -8.608  0.1977E-01  0.4024E-01
     -8.514  0.1907E-01  0.4203E-01
     -8.420  0.1119E-01  0.4308E-01
     -8.327  0.6882E-02  0.4372E-01
     -8.233  0.1032E-01  0.4469E-01
     -8.139  0.2096E-01  0.4665E-01
     -8.046  0.3716E-01  0.5014E-01
     -7.952  0.4614E-01  0.5446E-01
     -7.858  0.6281E-01  0.6034E-01
     -7.765  0.8934E-01  0.6871E-01
     -7.671  0.1088E+00  0.7891E-01
     -7.577  0.1080E+00  0.8903E-01
     -7.484  0.1061E+00  0.9897E-01
     -7.390  0.1090E+00  0.1092E+00
     -7.296  0.1287E+00  0.1212E+00
     -7.203  0.1386E+00  0.1342E+00
     -7.109  0.1287E+00  0.1463E+00
     -7.015  0.1262E+00  0.1581E+00
     -6.921  0.1371E+00  0.1709E+00
     -6.828  0.1470E+00  0.1847E+00
     -6.734  0.1444E+00  0.1982E+00
     -6.640  0.1458E+00  0.2119E+00
     -6.547  0.1509E+00  0.2260E+00
     -6.453  0.1583E+00  0.2409E+00
     -6.359  0.1692E+00  0.2567E+00
     -6.266  0.1589E+00  0.2716E+00
     -6.172  0.1424E+00  0.2849E+00
     -6.078  0.1401E+00  0.2981E+00
     -5.985  0.1522E+00  0.3123E+00
     -5.891  0.1629E+00  0.3276E+00
     -5.797  0.1717E+00  0.3437E+00
     -5.704  0.1747E+00  0.3600E+00
     -5.610  0.1616E+00  0.3752E+00
     -5.516  0.1691E+00  0.3910E+00
     -5.422  0.1896E+00  0.4088E+00
     -5.329  0.1852E+00  0.4261E+00
     -5.235  0.1781E+00  0.4428E+00
     -5.141  0.1800E+00  0.4597E+00
     -5.048  0.1823E+00  0.4768E+00
     -4.954  0.1804E+00  0.4937E+00
     -4.860  0.1773E+00  0.5103E+00
     -4.767  0.1864E+00  0.5277E+00
     -4.673  0.1941E+00  0.5459E+00
     -4.579  0.1800E+00  0.5628E+00
     -4.486  0.1820E+00  0.5798E+00
     -4.392  0.1971E+00  0.5983E+00
     -4.298  0.2057E+00  0.6176E+00
     -4.205  0.2167E+00  0.6379E+00
     -4.111  0.2191E+00  0.6584E+00
     -4.017  0.2177E+00  0.6788E+00
     -3.923  0.2125E+00  0.6987E+00
     -3.830  0.2052E+00  0.7179E+00
     -3.736  0.2065E+00  0.7373E+00
     -3.642  0.2127E+00  0.7572E+00
     -3.549  0.2124E+00  0.7771E+00
     -3.455  0.2045E+00  0.7963E+00
     -3.361  0.1912E+00  0.8142E+00
     -3.268  0.1760E+00  0.8307E+00
     -3.174  0.1657E+00  0.8462E+00
     -3.080  0.1585E+00  0.8610E+00
     -2.987  0.1521E+00  0.8753E+00
     -2.893  0.1506E+00  0.8894E+00
     -2.799  0.1540E+00  0.9038E+00
     -2.706  0.1544E+00  0.9183E+00
     -2.612  0.1654E+00  0.9338E+00
     -2.518  0.1743E+00  0.9501E+00
     -2.425  0.1716E+00  0.9662E+00
     -2.331  0.1678E+00  0.9819E+00
     -2.237  0.1653E+00  0.9974E+00
     -2.143  0.1646E+00  0.1013E+01
     -2.050  0.1514E+00  0.1027E+01
     -1.956  0.1338E+00  0.1040E+01
     -1.862  0.1134E+00  0.1050E+01
     -1.769  0.1036E+00  0.1060E+01
     -1.675  0.1065E+00  0.1070E+01
     -1.581  0.1058E+00  0.1080E+01
     -1.488  0.9695E-01  0.1089E+01
     -1.394  0.7743E-01  0.1096E+01
     -1.300  0.5722E-01  0.1101E+01
     -1.207  0.5742E-01  0.1107E+01
     -1.113  0.6992E-01  0.1113E+01
     -1.019  0.7936E-01  0.1121E+01
     -0.926  0.8665E-01  0.1129E+01
     -0.832  0.8087E-01  0.1136E+01
     -0.738  0.6742E-01  0.1143E+01
     -0.644  0.5749E-01  0.1148E+01
     -0.551  0.5298E-01  0.1153E+01
     -0.457  0.5282E-01  0.1158E+01
     -0.363  0.4262E-01  0.1162E+01
     -0.270  0.2550E-01  0.1164E+01
     -0.176  0.2009E-01  0.1166E+01
     -0.082  0.2550E-01  0.1169E+01
      0.011  0.3290E-01  0.1172E+01
      0.105  0.3192E-01  0.1175E+01
      0.199  0.3807E-01  0.1178E+01
      0.292  0.4962E-01  0.1183E+01
      0.386  0.4447E-01  0.1187E+01
      0.480  0.3749E-01  0.1191E+01
      0.573  0.3153E-01  0.1194E+01
      0.667  0.2268E-01  0.1196E+01
      0.761  0.1390E-01  0.1197E+01
      0.855  0.1018E-01  0.1198E+01
      0.948  0.1745E-01  0.1200E+01
      1.042  0.2022E-01  0.1202E+01
      1.136  0.1678E-01  0.1203E+01
      1.229  0.2958E-01  0.1206E+01
      1.323  0.3165E-01  0.1209E+01
      1.417  0.2413E-01  0.1211E+01
      1.510  0.2752E-01  0.1214E+01
      1.604  0.4151E-01  0.1218E+01
      1.698  0.4755E-01  0.1222E+01
      1.791  0.4292E-01  0.1226E+01
      1.885  0.3135E-01  0.1229E+01
      1.979  0.2722E-01  0.1232E+01
      2.072  0.2515E-01  0.1234E+01
      2.166  0.1521E-01  0.1235E+01
      2.260  0.1246E-01  0.1237E+01
      2.354  0.1709E-01  0.1238E+01
      2.447  0.2106E-01  0.1240E+01
      2.541  0.2154E-01  0.1242E+01
      2.635  0.1998E-01  0.1244E+01
      2.728  0.2073E-01  0.1246E+01
      2.822  0.2851E-01  0.1249E+01
      2.916  0.4075E-01  0.1252E+01
      3.009  0.4047E-01  0.1256E+01
      3.103  0.2799E-01  0.1259E+01
      3.197  0.2399E-01  0.1261E+01
      3.290  0.2654E-01  0.1264E+01
      3.384  0.2407E-01  0.1266E+01
      3.478  0.2271E-01  0.1268E+01
      3.571  0.2625E-01  0.1270E+01
      3.665  0.3034E-01  0.1273E+01
      3.759  0.3655E-01  0.1277E+01
      3.853  0.4660E-01  0.1281E+01
      3.946  0.4932E-01  0.1286E+01
      4.040  0.4679E-01  0.1290E+01
      4.134  0.4102E-01  0.1294E+01
      4.227  0.3329E-01  0.1297E+01
      4.321  0.3522E-01  0.1300E+01
      4.415  0.4742E-01  0.1305E+01
      4.508  0.5122E-01  0.1310E+01
      4.602  0.4682E-01  0.1314E+01
      4.696  0.5404E-01  0.1319E+01
      4.789  0.5727E-01  0.1324E+01
      4.883  0.5229E-01  0.1329E+01
      4.977  0.5602E-01  0.1335E+01
      5.070  0.5988E-01  0.1340E+01
      5.164  0.3429E-01  0.1343E+01
      5.258  0.6694E-02  0.1344E+01
      5.352  0.3439E-03  0.1344E+01
      5.445  0.4003E-05  0.1344E+01
      5.539  0.9640E-08  0.1344E+01
      5.633  0.4538E-11  0.1344E+01
      5.726  0.4013E-15  0.1344E+01
      5.820  0.0000E+00  0.1344E+01
      5.914  0.0000E+00  0.1344E+01
      6.007  0.0000E+00  0.1344E+01
      6.101  0.0000E+00  0.1344E+01
      6.195  0.0000E+00  0.1344E+01
      6.288  0.0000E+00  0.1344E+01
      6.382  0.0000E+00  0.1344E+01
