unknown system                          
           1
    11.002582    0.000000    0.000000
     5.501291    9.528515    0.000000
     0.000000    0.000000   26.191785
   Au   O    Pd
  24   8  24
Direct configuration=     1
   0.08333333  0.08333333  0.38179910
   0.33333333  0.83333333  0.38179910
   0.08333333  0.83333333  0.38179910
   0.91666667  0.16666667  0.46754708
   0.83333333  0.83333333  0.38179910
   0.83333333  0.58333333  0.38179910
   0.08333333  0.33333333  0.38179910
   0.66666667  0.41666667  0.46754708
   0.83333333  0.33333333  0.38179910
   0.08333333  0.58333333  0.38179910
   0.66666667  0.16666667  0.46754708
   0.16666667  0.66666667  0.46754708
   0.91666667  0.91666667  0.46754708
   0.41666667  0.66666667  0.46754708
   0.33333333  0.08333333  0.38179910
   0.16666667  0.16666667  0.46754708
   0.58333333  0.58333333  0.38179910
   0.41666667  0.41666667  0.46754708
   0.33333333  0.33333333  0.38179910
   0.58333333  0.33333333  0.38179910
   0.58333333  0.08333333  0.38179910
   0.16666667  0.91666667  0.46754708
   0.33333333  0.58333333  0.38179910
   0.58333333  0.83333333  0.38179910
   0.08333333  0.08333333  0.61820090
   0.33333333  0.58333333  0.61820090
   0.08333333  0.83333333  0.61820090
   0.83333333  0.83333333  0.61820090
   0.33333333  0.83333333  0.61820090
   0.83333333  0.33333333  0.61820090
   0.83333333  0.08333333  0.61820090
   0.58333333  0.83333333  0.61820090
   0.50000000  0.00000000  0.55329505
   0.00000000  0.75000000  0.55329505
   0.16666667  0.41666667  0.46754708
   0.75000000  0.75000000  0.55329505
   0.50000000  0.25000000  0.55329505
   0.25000000  0.75000000  0.55329505
   0.25000000  0.00000000  0.55329505
   0.50000000  0.50000000  0.55329505
   0.41666667  0.91666667  0.46754708
   0.25000000  0.50000000  0.55329505
   0.50000000  0.75000000  0.55329505
   0.83333333  0.08333333  0.38179910
   0.00000000  0.50000000  0.55329505
   0.75000000  0.00000000  0.55329505
   0.91666667  0.66666667  0.46754708
   0.00000000  0.25000000  0.55329505
   0.75000000  0.25000000  0.55329505
   0.91666667  0.41666667  0.46754708
   0.66666667  0.66666667  0.46754708
   0.75000000  0.50000000  0.55329505
   0.00000000  0.00000000  0.55329505
   0.66666667  0.91666667  0.46754708
   0.41666667  0.16666667  0.46754708
   0.25000000  0.25000000  0.55329505
Direct configuration=     2
   0.08333333  0.08333333  0.38179910
   0.33333333  0.83333333  0.38179910
   0.08333333  0.83333333  0.38179910
   0.91645081  0.16691357  0.46826745
   0.83333333  0.83333333  0.38179910
   0.83333333  0.58333333  0.38179910
   0.08333333  0.33333333  0.38179910
   0.66739234  0.41741249  0.46911688
   0.83333333  0.33333333  0.38179910
   0.08333333  0.58333333  0.38179910
   0.66665803  0.16512522  0.46872085
   0.16538005  0.66609540  0.46893906
   0.91550481  0.91655602  0.46828725
   0.41758571  0.66795944  0.46895735
   0.33333333  0.08333333  0.38179910
   0.16755097  0.16751607  0.46909372
   0.58333333  0.58333333  0.38179910
   0.41585938  0.41545423  0.46873164
   0.33333333  0.33333333  0.38179910
   0.58333333  0.33333333  0.38179910
   0.58333333  0.08333333  0.38179910
   0.16733269  0.91662882  0.46884573
   0.33333333  0.58333333  0.38179910
   0.58333333  0.83333333  0.38179910
   0.08470894  0.08436813  0.61417408
   0.33425981  0.58086354  0.61393585
   0.08311533  0.83208895  0.61440098
   0.83325050  0.83269322  0.61406306
   0.33404097  0.83401846  0.61419209
   0.83245417  0.33540039  0.61383627
   0.83174307  0.08386080  0.61416510
   0.58321193  0.83384758  0.61391005
   0.50049157 -0.00113039  0.55517639
  -0.00024571  0.74986562  0.55684083
   0.16621965  0.41672236  0.46874083
   0.74938300  0.75052921  0.55634989
   0.49929788  0.24978297  0.55421124
   0.24999425  0.74980640  0.55795667
   0.24996901  0.00030710  0.55694442
   0.49866562  0.50011735  0.55584327
   0.41750952  0.91692721  0.46835808
   0.25083460  0.49949950  0.55565744
   0.50020160  0.75085860  0.55656887
   0.83333333  0.08333333  0.38179910
   0.00036667  0.49977728  0.55371561
   0.74979798  0.00020802  0.55685187
   0.91583500  0.66634064  0.46882980
  -0.00015752  0.25042384  0.55699900
   0.74990893  0.24998556  0.55710720
   0.91705613  0.41752495  0.46845663
   0.66723096  0.66736128  0.46910912
   0.75097904  0.49902100  0.55534096
  -0.00017026 -0.00014900  0.55823842
   0.66631904  0.91638263  0.46829292
   0.41677951  0.16584959  0.46877822
   0.25052576  0.25046645  0.55389976
Direct configuration=     3
   0.08333333  0.08333333  0.38179910
   0.33333333  0.83333333  0.38179910
   0.08333333  0.83333333  0.38179910
   0.91603850  0.16738518  0.46964343
   0.83333333  0.83333333  0.38179910
   0.83333333  0.58333333  0.38179910
   0.08333333  0.33333333  0.38179910
   0.66877844  0.41883706  0.47211532
   0.83333333  0.33333333  0.38179910
   0.08333333  0.58333333  0.38179910
   0.66664152  0.16218093  0.47096285
   0.16292250  0.66500425  0.47159787
   0.91328558  0.91634467  0.46970104
   0.41934115  0.67042873  0.47165109
   0.33333333  0.08333333  0.38179910
   0.16924007  0.16913850  0.47204792
   0.58333333  0.58333333  0.38179910
   0.41431741  0.41313839  0.47099426
   0.33333333  0.33333333  0.38179910
   0.58333333  0.33333333  0.38179910
   0.58333333  0.08333333  0.38179910
   0.16860484  0.91655654  0.47132626
   0.33333333  0.58333333  0.38179910
   0.58333333  0.83333333  0.38179910
   0.08733646  0.08634466  0.60648255
   0.33602944  0.57614603  0.60578929
   0.08269893  0.82971209  0.60714286
   0.83309229  0.83147055  0.60615947
   0.33539261  0.83532711  0.60653495
   0.83077489  0.33934862  0.60549951
   0.82870554  0.08486830  0.60645641
   0.58298003  0.83482983  0.60571421
   0.50143051 -0.00328952  0.55876988
  -0.00071502  0.74960893  0.56361354
   0.16536580  0.41682874  0.47102100
   0.74820447  0.75154005  0.56218486
   0.49795678  0.24936841  0.55596123
   0.24998327  0.74943661  0.56686071
   0.24990980  0.00089367  0.56391499
   0.49611684  0.50034148  0.56071055
   0.41911943  0.91742486  0.46990716
   0.25242875  0.49854350  0.56016977
   0.50058667  0.75249859  0.56282211
   0.83333333  0.08333333  0.38179910
   0.00106704  0.49935188  0.55451890
   0.74941211  0.00060536  0.56364566
   0.91424644  0.66571791  0.47127989
  -0.00045839  0.25123342  0.56407381
   0.74973497  0.24995799  0.56438869
   0.91780003  0.41916434  0.47019395
   0.66830880  0.66868805  0.47209273
   0.75284907  0.49715103  0.55924880
  -0.00049547 -0.00043361  0.56768063
   0.66565505  0.91584010  0.46971754
   0.41699506  0.16428892  0.47112979
   0.25153001  0.25135740  0.55505479
Direct configuration=     4
   0.08333333  0.08333333  0.38179910
   0.33333333  0.83333333  0.38179910
   0.08333333  0.83333333  0.38179910
   0.91614538  0.16726293  0.46928675
   0.83333333  0.83333333  0.38179910
   0.83333333  0.58333333  0.38179910
   0.08333333  0.33333333  0.38179910
   0.66841913  0.41846778  0.47133806
   0.83333333  0.33333333  0.38179910
   0.08333333  0.58333333  0.38179910
   0.66664580  0.16294416  0.47038167
   0.16355956  0.66528710  0.47090864
   0.91386085  0.91639946  0.46933455
   0.41888610  0.66978863  0.47095281
   0.33333333  0.08333333  0.38179910
   0.16880222  0.16871793  0.47128212
   0.58333333  0.58333333  0.38179910
   0.41471713  0.41373871  0.47040774
   0.33333333  0.33333333  0.38179910
   0.58333333  0.33333333  0.38179910
   0.58333333  0.08333333  0.38179910
   0.16827507  0.91657528  0.47068325
   0.33333333  0.58333333  0.38179910
   0.58333333  0.83333333  0.38179910
   0.08665535  0.08583230  0.60847637
   0.33557071  0.57736892  0.60790107
   0.08280687  0.83032823  0.60902433
   0.83313330  0.83178749  0.60820827
   0.33504224  0.83498788  0.60851986
   0.83121020  0.33832515  0.60766059
   0.82949294  0.08460713  0.60845468
   0.58304015  0.83457521  0.60783876
   0.50118711 -0.00272982  0.55783837
  -0.00059336  0.74967547  0.56185789
   0.16558714  0.41680117  0.47042993
   0.74850997  0.75127802  0.56067230
   0.49830442  0.24947587  0.55550759
   0.24998612  0.74953247  0.56455258
   0.24992515  0.00074162  0.56210805
   0.49677754  0.50028338  0.55944884
   0.41870210  0.91729585  0.46950560
   0.25201551  0.49879132  0.55900007
   0.50048685  0.75207347  0.56120112
   0.83333333  0.08333333  0.38179910
   0.00088549  0.49946216  0.55431067
   0.74951214  0.00050236  0.56188456
   0.91465823  0.66587933  0.47064477
  -0.00038040  0.25102356  0.56223986
   0.74978007  0.24996514  0.56250116
   0.91760719  0.41873937  0.46974360
   0.66802940  0.66834412  0.47131931
   0.75236431  0.49763577  0.55823580
  -0.00041116 -0.00035983  0.56523299
   0.66582718  0.91598073  0.46934825
   0.41693919  0.16469348  0.47052021
   0.25126968  0.25112644  0.55475537
Direct configuration=     5
   0.08333333  0.08333333  0.38179910
   0.33333333  0.83333333  0.38179910
   0.08333333  0.83333333  0.38179910
   0.91611256  0.16730047  0.46939629
   0.83333333  0.83333333  0.38179910
   0.83333333  0.58333333  0.38179910
   0.08333333  0.33333333  0.38179910
   0.66852948  0.41858119  0.47157676
   0.83333333  0.33333333  0.38179910
   0.08333333  0.58333333  0.38179910
   0.66664449  0.16270976  0.47056016
   0.16336391  0.66520024  0.47112031
   0.91368418  0.91638263  0.46944710
   0.41902585  0.66998521  0.47116726
   0.33333333  0.08333333  0.38179910
   0.16893669  0.16884709  0.47151731
   0.58333333  0.58333333  0.38179910
   0.41459437  0.41355435  0.47058786
   0.33333333  0.33333333  0.38179910
   0.58333333  0.33333333  0.38179910
   0.58333333  0.08333333  0.38179910
   0.16837635  0.91656952  0.47088073
   0.33333333  0.58333333  0.38179910
   0.58333333  0.83333333  0.38179910
   0.08686453  0.08598965  0.60786405
   0.33571160  0.57699336  0.60725252
   0.08277372  0.83013900  0.60844651
   0.83312070  0.83169015  0.60757906
   0.33514984  0.83509206  0.60791027
   0.83107651  0.33863947  0.60699690
   0.82925112  0.08468734  0.60784099
   0.58302168  0.83465341  0.60718628
   0.50126186 -0.00290171  0.55812445
  -0.00063073  0.74965504  0.56239707
   0.16551916  0.41680964  0.47061145
   0.74841615  0.75135849  0.56113683
   0.49819766  0.24944287  0.55564691
   0.24998525  0.74950303  0.56526143
   0.24992044  0.00078831  0.56266298
   0.49657463  0.50030123  0.55983633
   0.41883027  0.91733547  0.46962892
   0.25214242  0.49871521  0.55935930
   0.50051751  0.75220403  0.56169895
   0.83333333  0.08333333  0.38179910
   0.00094124  0.49942829  0.55437462
   0.74948142  0.00053399  0.56242541
   0.91453177  0.66582976  0.47083982
  -0.00040435  0.25108801  0.56280309
   0.74976622  0.24996294  0.56308085
   0.91766642  0.41886988  0.46988190
   0.66811520  0.66844975  0.47155684
   0.75251319  0.49748690  0.55854690
  -0.00043705 -0.00038249  0.56598469
   0.66577432  0.91593754  0.46946166
   0.41695635  0.16456924  0.47070742
   0.25134963  0.25119737  0.55484733
Direct configuration=     6
   0.08333333  0.08333333  0.38179910
   0.33333333  0.83333333  0.38179910
   0.08333333  0.83333333  0.38179910
   0.91658791  0.16704409  0.47130827
   0.83333333  0.83333333  0.38179910
   0.83333333  0.58333333  0.38179910
   0.08333333  0.33333333  0.38179910
   0.66782922  0.41813701  0.47344041
   0.83333333  0.33333333  0.38179910
   0.08333333  0.58333333  0.38179910
   0.66726984  0.16281384  0.47223058
   0.16312209  0.66592548  0.47312968
   0.91425067  0.91581024  0.47133440
   0.41878670  0.66991736  0.47324590
   0.33333333  0.08333333  0.38179910
   0.16803475  0.16806462  0.47310541
   0.58333333  0.58333333  0.38179910
   0.41499176  0.41436328  0.47162918
   0.33333333  0.33333333  0.38179910
   0.58333333  0.33333333  0.38179910
   0.58333333  0.08333333  0.38179910
   0.16792499  0.91671736  0.47319885
   0.33333333  0.58333333  0.38179910
   0.58333333  0.83333333  0.38179910
   0.08832350  0.08914745  0.60765253
   0.33844638  0.57027788  0.60687646
   0.08243678  0.82738114  0.60841103
   0.83270622  0.82990160  0.60639682
   0.33747586  0.83525556  0.60729719
   0.82899848  0.34324821  0.60623448
   0.82416536  0.08761582  0.60793289
   0.58305456  0.83571045  0.60612588
   0.49839826  0.00308300  0.55865654
   0.00228397  0.74359886  0.56323205
   0.16529746  0.41746561  0.47148027
   0.75104989  0.74639239  0.56192649
   0.49826459  0.24833884  0.55711328
   0.24947745  0.74983130  0.56545725
   0.25250624  0.00464982  0.56328438
   0.50176039  0.49749824  0.56058667
   0.41895054  0.91775264  0.47094679
   0.24930636  0.49630035  0.56032645
   0.50324281  0.74670197  0.56246898
   0.83333333  0.08333333  0.38179910
   0.00215076  0.49900580  0.55540928
   0.74361551  0.00388407  0.56330945
   0.91349717  0.66676523  0.47222147
   0.00340094  0.25343799  0.56363489
   0.74280713  0.25279681  0.56376573
   0.91797072  0.41835128  0.47086805
   0.66842430  0.66884039  0.47350695
   0.75072452  0.50180966  0.55920288
   0.00020244 -0.00096286  0.56615070
   0.66575828  0.91531702  0.47072243
   0.41763933  0.16325994  0.47165179
   0.25215318  0.25176050  0.55634157
Direct configuration=     7
   0.08333333  0.08333333  0.38179910
   0.33333333  0.83333333  0.38179910
   0.08333333  0.83333333  0.38179910
   0.91710993  0.16676254  0.47340793
   0.83333333  0.83333333  0.38179910
   0.83333333  0.58333333  0.38179910
   0.08333333  0.33333333  0.38179910
   0.66706023  0.41764924  0.47548699
   0.83333333  0.33333333  0.38179910
   0.08333333  0.58333333  0.38179910
   0.66795659  0.16292814  0.47406498
   0.16285653  0.66672191  0.47533630
   0.91487277  0.91518166  0.47340695
   0.41852408  0.66984286  0.47552858
   0.33333333  0.08333333  0.38179910
   0.16704429  0.16720534  0.47484941
   0.58333333  0.58333333  0.38179910
   0.41542815  0.41525162  0.47277271
   0.33333333  0.33333333  0.38179910
   0.58333333  0.33333333  0.38179910
   0.58333333  0.08333333  0.38179910
   0.16742932  0.91687970  0.47574452
   0.33333333  0.58333333  0.38179910
   0.58333333  0.83333333  0.38179910
   0.08992569  0.09261523  0.60742025
   0.34144961  0.56290321  0.60646349
   0.08206676  0.82435257  0.60837207
   0.83225104  0.82793747  0.60509854
   0.34003019  0.83543511  0.60662393
   0.82671646  0.34830935  0.60539723
   0.81858038  0.09083175  0.60803382
   0.58309065  0.83687125  0.60496138
   0.49525357  0.00965516  0.55924087
   0.00548477  0.73694821  0.56414899
   0.16505399  0.41818597  0.47243438
   0.75394216  0.74093880  0.56279366
   0.49833810  0.24712645  0.55872359
   0.24891981  0.75019180  0.56567228
   0.25534586  0.00889038  0.56396676
   0.50745517  0.49442011  0.56141067
   0.41908261  0.91821075  0.47239402
   0.24619192  0.49364844  0.56138854
   0.50623563  0.74065984  0.56331460
   0.83333333  0.08333333  0.38179910
   0.00347900  0.49854183  0.55654551
   0.73717381  0.00756299  0.56428027
   0.91236101  0.66779252  0.47373873
   0.00757975  0.25601864  0.56454834
   0.73516494  0.25590885  0.56451783
   0.91830490  0.41778176  0.47195100
   0.66876374  0.66926938  0.47564848
   0.74876029  0.50655676  0.55992326
   0.00090471 -0.00160020  0.56633302
   0.66574067  0.91463560  0.47210696
   0.41838935  0.16182212  0.47268885
   0.25303560  0.25237890  0.55798249
Direct configuration=     8
   0.08333333  0.08333333  0.38179910
   0.33333333  0.83333333  0.38179910
   0.08333333  0.83333333  0.38179910
   0.91663389  0.16704310  0.47485667
   0.83333333  0.83333333  0.38179910
   0.83333333  0.58333333  0.38179910
   0.08333333  0.33333333  0.38179910
   0.66809126  0.41735909  0.47564775
   0.83333333  0.33333333  0.38179910
   0.08333333  0.58333333  0.38179910
   0.66793534  0.16279488  0.47429302
   0.16359003  0.66655110  0.47606218
   0.91467679  0.91520504  0.47477044
   0.41796352  0.67004475  0.47624263
   0.33333333  0.08333333  0.38179910
   0.16725645  0.16748548  0.47512372
   0.58333333  0.58333333  0.38179910
   0.41504642  0.41530737  0.47350170
   0.33333333  0.33333333  0.38179910
   0.58333333  0.33333333  0.38179910
   0.58333333  0.08333333  0.38179910
   0.16774055  0.91668751  0.47692341
   0.33333333  0.58333333  0.38179910
   0.58333333  0.83333333  0.38179910
   0.09088169  0.09324768  0.60885557
   0.34341492  0.55875333  0.60639234
   0.08182296  0.82301432  0.60971768
   0.83220573  0.82849858  0.60571616
   0.34021446  0.83608498  0.60715265
   0.82652571  0.34874321  0.60556537
   0.81732107  0.09223219  0.60898198
   0.58172730  0.83975905  0.60491530
   0.49555851  0.00904749  0.56030699
   0.00572644  0.73537307  0.56468547
   0.16550653  0.41751158  0.47249454
   0.75459747  0.73860448  0.56244222
   0.49472933  0.25051699  0.56020709
   0.25185678  0.74622875  0.56613194
   0.25912227  0.00867980  0.56454987
   0.50644448  0.49364130  0.56280330
   0.41896885  0.91748566  0.47326774
   0.24751424  0.49097639  0.56246859
   0.50654437  0.74024875  0.56376431
   0.83333333  0.08333333  0.38179910
   0.00436688  0.49654612  0.55789958
   0.73597779  0.00497094  0.56502427
   0.91272209  0.66763543  0.47412651
   0.00425705  0.26131905  0.56500352
   0.73603076  0.25755721  0.56553942
   0.91761428  0.41791547  0.47257041
   0.66820621  0.66888027  0.47580335
   0.74996794  0.50796563  0.56005339
  -0.00244474  0.00105805  0.56669713
   0.66615533  0.91463846  0.47297126
   0.41773797  0.16335821  0.47280910
   0.25327739  0.25429064  0.55954408
Direct configuration=     9
   0.08333333  0.08333333  0.38179910
   0.33333333  0.83333333  0.38179910
   0.08333333  0.83333333  0.38179910
   0.91653548  0.16710110  0.47515616
   0.83333333  0.83333333  0.38179910
   0.83333333  0.58333333  0.38179910
   0.08333333  0.33333333  0.38179910
   0.66830441  0.41729911  0.47568098
   0.83333333  0.33333333  0.38179910
   0.08333333  0.58333333  0.38179910
   0.66793095  0.16276733  0.47434016
   0.16374167  0.66651578  0.47621224
   0.91463627  0.91520987  0.47505232
   0.41784763  0.67008649  0.47639025
   0.33333333  0.08333333  0.38179910
   0.16730031  0.16754340  0.47518043
   0.58333333  0.58333333  0.38179910
   0.41496751  0.41531889  0.47365241
   0.33333333  0.33333333  0.38179910
   0.58333333  0.33333333  0.38179910
   0.58333333  0.08333333  0.38179910
   0.16780489  0.91664778  0.47716713
   0.33333333  0.58333333  0.38179910
   0.58333333  0.83333333  0.38179910
   0.09107933  0.09337843  0.60915229
   0.34382121  0.55789542  0.60637763
   0.08177256  0.82273767  0.60999586
   0.83219637  0.82861457  0.60584384
   0.34025256  0.83621933  0.60726195
   0.82648628  0.34883290  0.60560013
   0.81706073  0.09252170  0.60917799
   0.58144546  0.84035605  0.60490577
   0.49562155  0.00892186  0.56052739
   0.00577641  0.73504744  0.56479638
   0.16560008  0.41737216  0.47250697
   0.75473295  0.73812190  0.56236957
   0.49398329  0.25121792  0.56051377
   0.25246394  0.74540946  0.56622697
   0.25990297  0.00863627  0.56467042
   0.50623553  0.49348030  0.56309120
   0.41894533  0.91733576  0.47344836
   0.24778760  0.49042399  0.56269188
   0.50660820  0.74016377  0.56385728
   0.83333333  0.08333333  0.38179910
   0.00455043  0.49613355  0.55817951
   0.73573053  0.00443508  0.56517808
   0.91279674  0.66760296  0.47420668
   0.00357014  0.26241480  0.56509761
   0.73620975  0.25789798  0.56575061
   0.91747151  0.41794312  0.47269846
   0.66809096  0.66879983  0.47583536
   0.75021760  0.50825688  0.56008030
  -0.00313718  0.00160759  0.56677241
   0.66624105  0.91463906  0.47314993
   0.41760331  0.16367577  0.47283396
   0.25332737  0.25468586  0.55986691
Direct configuration=    10
   0.08333333  0.08333333  0.38179910
   0.33333333  0.83333333  0.38179910
   0.08333333  0.83333333  0.38179910
   0.91642316  0.16709066  0.47634672
   0.83333333  0.83333333  0.38179910
   0.83333333  0.58333333  0.38179910
   0.08333333  0.33333333  0.38179910
   0.66850993  0.41746242  0.47565987
   0.83333333  0.33333333  0.38179910
   0.08333333  0.58333333  0.38179910
   0.66712434  0.16296445  0.47479829
   0.16434532  0.66592617  0.47661503
   0.91460816  0.91523035  0.47617842
   0.41791912  0.66937487  0.47660694
   0.33333333  0.08333333  0.38179910
   0.16783018  0.16816903  0.47559435
   0.58333333  0.58333333  0.38179910
   0.41510312  0.41511791  0.47424226
   0.33333333  0.33333333  0.38179910
   0.58333333  0.33333333  0.38179910
   0.58333333  0.08333333  0.38179910
   0.16771153  0.91696814  0.47827409
   0.33333333  0.58333333  0.38179910
   0.58333333  0.83333333  0.38179910
   0.09178564  0.09513071  0.60942727
   0.34443898  0.55480938  0.60781756
   0.08258971  0.82189745  0.61049571
   0.83190688  0.82743845  0.60672674
   0.33990013  0.83625876  0.60796383
   0.82604681  0.34995759  0.60669011
   0.81583393  0.09267532  0.61015658
   0.58092543  0.84235756  0.60524855
   0.49634242  0.00884337  0.56146449
   0.00595497  0.73541151  0.56585996
   0.16558501  0.41673102  0.47260881
   0.75538981  0.73923603  0.56264723
   0.49317788  0.25297051  0.56194890
   0.25223019  0.74402334  0.56776712
   0.25926158  0.00929212  0.56598906
   0.50747632  0.49234964  0.56392957
   0.41890104  0.91700040  0.47408322
   0.24760891  0.48938187  0.56361897
   0.50595854  0.74114563  0.56455164
   0.83333333  0.08333333  0.38179910
   0.00593854  0.49519801  0.55954525
   0.73567112  0.00427549  0.56616437
   0.91396810  0.66647117  0.47436891
   0.00334186  0.26173286  0.56628331
   0.73737470  0.25801696  0.56659791
   0.91715168  0.41829373  0.47300308
   0.66727683  0.66854418  0.47528304
   0.75090244  0.50760687  0.56030177
  -0.00447366  0.00294800  0.56827762
   0.66618096  0.91493940  0.47379354
   0.41697578  0.16511471  0.47316701
   0.25257940  0.25497682  0.56135108
Direct configuration=    11
   0.08333333  0.08333333  0.38179910
   0.33333333  0.83333333  0.38179910
   0.08333333  0.83333333  0.38179910
   0.91629411  0.16707866  0.47771467
   0.83333333  0.83333333  0.38179910
   0.83333333  0.58333333  0.38179910
   0.08333333  0.33333333  0.38179910
   0.66874608  0.41765006  0.47563562
   0.83333333  0.33333333  0.38179910
   0.08333333  0.58333333  0.38179910
   0.66619754  0.16319095  0.47532469
   0.16503892  0.66524870  0.47707784
   0.91457585  0.91525388  0.47747231
   0.41800125  0.66855722  0.47685591
   0.33333333  0.08333333  0.38179910
   0.16843900  0.16888788  0.47606994
   0.58333333  0.58333333  0.38179910
   0.41525894  0.41488698  0.47492000
   0.33333333  0.33333333  0.38179910
   0.58333333  0.33333333  0.38179910
   0.58333333  0.08333333  0.38179910
   0.16760426  0.91733625  0.47954599
   0.33333333  0.58333333  0.38179910
   0.58333333  0.83333333  0.38179910
   0.09259720  0.09714409  0.60974321
   0.34514880  0.55126351  0.60947204
   0.08352862  0.82093204  0.61107003
   0.83157426  0.82608709  0.60774120
   0.33949519  0.83630407  0.60877029
   0.82554187  0.35124986  0.60794250
   0.81442432  0.09285183  0.61128099
   0.58032792  0.84465730  0.60564240
   0.49717069  0.00875319  0.56254123
   0.00616014  0.73582982  0.56708202
   0.16556770  0.41599434  0.47272581
   0.75614454  0.74051616  0.56296626
   0.49225247  0.25498424  0.56359787
   0.25196161  0.74243068  0.56953677
   0.25852462  0.01004569  0.56750418
   0.50890198  0.49105051  0.56489286
   0.41885015  0.91661506  0.47481267
   0.24740359  0.48818446  0.56468419
   0.50521207  0.74227378  0.56534946
   0.83333333  0.08333333  0.38179910
   0.00753348  0.49412307  0.56111448
   0.73560285  0.00409212  0.56729762
   0.91531400  0.66517074  0.47455531
   0.00307955  0.26094931  0.56764567
   0.73871323  0.25815366  0.56757146
   0.91678419  0.41869658  0.47335309
   0.66634140  0.66825043  0.47464843
   0.75168931  0.50686001  0.56055624
  -0.00600929  0.00448813  0.57000711
   0.66611192  0.91528449  0.47453305
   0.41625475  0.16676805  0.47354970
   0.25171998  0.25531114  0.56305638
Direct configuration=    12
   0.08333333  0.08333333  0.38179910
   0.33333333  0.83333333  0.38179910
   0.08333333  0.83333333  0.38179910
   0.91648427  0.16696023  0.47839568
   0.83333333  0.83333333  0.38179910
   0.83333333  0.58333333  0.38179910
   0.08333333  0.33333333  0.38179910
   0.66857012  0.41742983  0.47572626
   0.83333333  0.33333333  0.38179910
   0.08333333  0.58333333  0.38179910
   0.66576270  0.16345117  0.47598274
   0.16512225  0.66501891  0.47747935
   0.91474217  0.91507357  0.47819932
   0.41778545  0.66814559  0.47721204
   0.33333333  0.08333333  0.38179910
   0.16861647  0.16897873  0.47665038
   0.58333333  0.58333333  0.38179910
   0.41547227  0.41482996  0.47544414
   0.33333333  0.33333333  0.38179910
   0.58333333  0.33333333  0.38179910
   0.58333333  0.08333333  0.38179910
   0.16752401  0.91752947  0.48054321
   0.33333333  0.58333333  0.38179910
   0.58333333  0.83333333  0.38179910
   0.09268787  0.09774614  0.61096783
   0.34614744  0.54868035  0.61080078
   0.08339108  0.82171263  0.61202909
   0.83177887  0.82524847  0.60893048
   0.33909827  0.83578761  0.60979886
   0.82487315  0.35270629  0.60936004
   0.81305659  0.09320164  0.61243319
   0.58097472  0.84454761  0.60639986
   0.49609668  0.01122983  0.56279592
   0.00610337  0.73565089  0.56780116
   0.16539713  0.41592327  0.47311726
   0.75572359  0.74052567  0.56299700
   0.49327273  0.25469047  0.56464409
   0.25307899  0.74089908  0.57068543
   0.25849021  0.01022848  0.56814149
   0.50904540  0.49161820  0.56562168
   0.41867053  0.91698965  0.47529139
   0.24674131  0.48871347  0.56542853
   0.50539144  0.74245648  0.56571839
   0.83333333  0.08333333  0.38179910
   0.00771484  0.49426030  0.56197365
   0.73565335  0.00520071  0.56816249
   0.91596031  0.66437611  0.47482763
   0.00315468  0.26125466  0.56817347
   0.73924494  0.25736634  0.56821142
   0.91705430  0.41872351  0.47364835
   0.66620880  0.66845905  0.47452708
   0.75153814  0.50715310  0.56065548
  -0.00558020  0.00405562  0.57147759
   0.66586419  0.91538120  0.47488206
   0.41605207  0.16705307  0.47420448
   0.25149272  0.25418298  0.56405955
Direct configuration=    13
   0.08333333  0.08333333  0.38179910
   0.33333333  0.83333333  0.38179910
   0.08333333  0.83333333  0.38179910
   0.91676944  0.16678264  0.47941694
   0.83333333  0.83333333  0.38179910
   0.83333333  0.58333333  0.38179910
   0.08333333  0.33333333  0.38179910
   0.66830624  0.41709957  0.47586220
   0.83333333  0.33333333  0.38179910
   0.08333333  0.58333333  0.38179910
   0.66511059  0.16384141  0.47696958
   0.16524721  0.66467431  0.47808147
   0.91499158  0.91480316  0.47928958
   0.41746183  0.66752830  0.47774610
   0.33333333  0.08333333  0.38179910
   0.16888262  0.16911497  0.47752083
   0.58333333  0.58333333  0.38179910
   0.41579219  0.41474447  0.47623018
   0.33333333  0.33333333  0.38179910
   0.58333333  0.33333333  0.38179910
   0.58333333  0.08333333  0.38179910
   0.16740365  0.91781923  0.48203868
   0.33333333  0.58333333  0.38179910
   0.58333333  0.83333333  0.38179910
   0.09282384  0.09864901  0.61280433
   0.34764506  0.54480654  0.61279341
   0.08318481  0.82288324  0.61346732
   0.83208571  0.82399084  0.61071397
   0.33850303  0.83501310  0.61134134
   0.82387031  0.35489041  0.61148584
   0.81100550  0.09372624  0.61416109
   0.58194468  0.84438311  0.60753577
   0.49448604  0.01494391  0.56317785
   0.00601824  0.73538255  0.56887960
   0.16514135  0.41581670  0.47370428
   0.75509232  0.74053993  0.56304309
   0.49480276  0.25424992  0.56621306
   0.25475467  0.73860224  0.57240801
   0.25843861  0.01050258  0.56909724
   0.50926046  0.49246953  0.56671465
   0.41840116  0.91755139  0.47600929
   0.24574812  0.48950679  0.56654476
   0.50566042  0.74273047  0.56627165
   0.83333333  0.08333333  0.38179910
   0.00798682  0.49446608  0.56326210
   0.73572908  0.00686320  0.56945949
   0.91692954  0.66318445  0.47523600
   0.00326735  0.26171256  0.56896499
   0.74004230  0.25618565  0.56917114
   0.91745936  0.41876391  0.47409114
   0.66600994  0.66877190  0.47434509
   0.75131143  0.50759264  0.56080431
  -0.00493673  0.00340700  0.57368280
   0.66549269  0.91552623  0.47540546
   0.41574814  0.16748050  0.47518641
   0.25115191  0.25249115  0.56556395
Direct configuration=    14
   0.08333333  0.08333333  0.38179910
   0.33333333  0.83333333  0.38179910
   0.08333333  0.83333333  0.38179910
   0.91712490  0.16653426  0.47976063
   0.83333333  0.83333333  0.38179910
   0.83333333  0.58333333  0.38179910
   0.08333333  0.33333333  0.38179910
   0.66821931  0.41652370  0.47626261
   0.83333333  0.33333333  0.38179910
   0.08333333  0.58333333  0.38179910
   0.66564698  0.16361047  0.47773501
   0.16479542  0.66504585  0.47865227
   0.91508480  0.91457524  0.47975910
   0.41694441  0.66806696  0.47833812
   0.33333333  0.08333333  0.38179910
   0.16848760  0.16861765  0.47817747
   0.58333333  0.58333333  0.38179910
   0.41559251  0.41477979  0.47690691
   0.33333333  0.33333333  0.38179910
   0.58333333  0.33333333  0.38179910
   0.58333333  0.08333333  0.38179910
   0.16755533  0.91742293  0.48308737
   0.33333333  0.58333333  0.38179910
   0.58333333  0.83333333  0.38179910
   0.09276229  0.09884598  0.61438626
   0.34944664  0.54227920  0.61383797
   0.08274693  0.82346554  0.61472479
   0.83182374  0.82334649  0.61125897
   0.33959619  0.83412562  0.61212826
   0.82309006  0.35689354  0.61199968
   0.81005004  0.09469186  0.61585295
   0.58255206  0.84407111  0.60766256
   0.49429893  0.01532530  0.56370379
   0.00536352  0.73612440  0.56990954
   0.16534975  0.41610631  0.47454185
   0.75394912  0.74197291  0.56370182
   0.49548455  0.25401164  0.56703216
   0.25608494  0.73720647  0.57363608
   0.25865023  0.00881381  0.56999246
   0.50862703  0.49349832  0.56756162
   0.41801229  0.91817955  0.47634394
   0.24601916  0.48974245  0.56726636
   0.50498220  0.74417970  0.56707044
   0.83333333  0.08333333  0.38179910
   0.00691163  0.49532646  0.56365528