<?xml version="1.0" encoding="ISO-8859-1"?>
<modeling>
 <generator>
  <i name="program" type="string">vasp </i>
  <i name="version" type="string">5.4.1  </i>
  <i name="subversion" type="string">24Jun15 (build Mar 14 2019 10:18:33) complex                          parallel </i>
  <i name="platform" type="string">INTEL-19.0.2+OPENMPI-3.1.3 </i>
  <i name="date" type="string">2022 07 15 </i>
  <i name="time" type="string">18:53:15 </i>
 </generator>
 <incar>
  <i type="int" name="ISTART">     0</i>
  <i type="string" name="PREC">normal</i>
  <i type="string" name="ALGO"> Fast</i>
  <i type="int" name="NELM">   500</i>
  <i type="int" name="IBRION">     2</i>
  <i type="int" name="NFREE">     2</i>
  <i name="EDIFF">      0.00000100</i>
  <i name="EDIFFG">     -0.02000000</i>
  <i type="int" name="NSW">   500</i>
  <i type="int" name="ISIF">     0</i>
  <i type="int" name="ISYM">     2</i>
  <i name="ENCUT">    400.00000000</i>
  <i name="POTIM">      0.35000000</i>
  <i type="string" name="LREAL"> Auto</i>
  <i type="logical" name="LPLANE"> T  </i>
  <i type="int" name="ISMEAR">     0</i>
  <i name="SIGMA">      0.10000000</i>
  <i type="int" name="NWRITE">     1</i>
  <i type="logical" name="LWAVE"> F  </i>
  <i type="logical" name="LCHARG"> F  </i>
  <i type="logical" name="LVTOT"> F  </i>
  <i type="logical" name="LORBIT"> F  </i>
  <i type="logical" name="LAECHG"> F  </i>
  <v type="int" name="KPOINT_BSE">    -1     0     0     0</v>
  <i type="int" name="NELM">   500</i>
  <i type="string" name="GGA"> PE          ! optPBE-vdW XC-functional</i>
  <i type="int" name="VOSKOWN">     1</i>
  <i type="logical" name="LDIPOL"> T  </i>
  <i type="logical" name="LMONO"> F  </i>
  <i type="int" name="IDIPOL">     3</i>
  <v name="DIPOL">      0.00000000      0.00000000      0.50000000</v>
 </incar>
 <kpoints>
  <generation param="Monkhorst-Pack">
   <v type="int" name="divisions">       2        2        1 </v>
   <v name="usershift">      0.00000000       0.00000000       0.00000000 </v>
   <v name="genvec1">      0.50000000      -0.00000000       0.00000000 </v>
   <v name="genvec2">      0.00000000       0.50000000       0.00000000 </v>
   <v name="genvec3">      0.00000000       0.00000000       1.00000000 </v>
   <v name="shift">      0.50000000       0.50000000       0.00000000 </v>
  </generation>
  <varray name="kpointlist" >
   <v>       0.25000000       0.25000000       0.00000000 </v>
   <v>       0.00000000       0.25000000       0.00000000 </v>
   <v>      -0.25000000       0.00000000       0.00000000 </v>
   <v>      -0.25000000       0.25000000       0.00000000 </v>
   <v>       0.50000000      -0.25000000       0.00000000 </v>
   <v>      -0.25000000       0.50000000       0.00000000 </v>
  </varray>
  <varray name="weights" >
   <v>       0.16666667 </v>
   <v>       0.16666667 </v>
   <v>       0.16666667 </v>
   <v>       0.16666667 </v>
   <v>       0.16666667 </v>
   <v>       0.16666667 </v>
  </varray>
 </kpoints>
 <parameters>
  <separator name="general" >
   <i type="string" name="SYSTEM">unknown system</i>
   <i type="logical" name="LCOMPAT"> F  </i>
  </separator>
  <separator name="electronic" >
   <i type="string" name="PREC">normal</i>
   <i name="ENMAX">    400.00000000</i>
   <i name="ENAUG">    416.23000000</i>
   <i name="EDIFF">      0.00000100</i>
   <i type="int" name="IALGO">    68</i>
   <i type="int" name="IWAVPR">    11</i>
   <i type="int" name="NBANDS">   306</i>
   <i name="NELECT">    504.00000000</i>
   <i type="int" name="TURBO">     0</i>
   <i type="int" name="IRESTART">     0</i>
   <i type="int" name="NREBOOT">     0</i>
   <i type="int" name="NMIN">     0</i>
   <i name="EREF">      0.00000000</i>
   <separator name="electronic smearing" >
    <i type="int" name="ISMEAR">     0</i>
    <i name="SIGMA">      0.10000000</i>
    <i name="KSPACING">      0.50000000</i>
    <i type="logical" name="KGAMMA"> T  </i>
   </separator>
   <separator name="electronic projectors" >
    <i type="logical" name="LREAL"> T  </i>
    <v name="ROPT">     -0.00050000     -0.00050000</v>
    <i type="int" name="LMAXPAW">  -100</i>
    <i type="int" name="LMAXMIX">     2</i>
    <i type="logical" name="NLSPLINE"> F  </i>
   </separator>
   <separator name="electronic startup" >
    <i type="int" name="ISTART">     0</i>
    <i type="int" name="ICHARG">     2</i>
    <i type="int" name="INIWAV">     1</i>
   </separator>
   <separator name="electronic spin" >
    <i type="int" name="ISPIN">     1</i>
    <i type="logical" name="LNONCOLLINEAR"> F  </i>
    <v name="MAGMOM">      1.00000000      1.00000000      1.00000000      1.00000000      1.00000000      1.00000000      1.00000000      1.00000000      1.00000000      1.00000000      1.00000000      1.00000000      1.00000000      1.00000000      1.00000000      1.00000000      1.00000000      1.00000000      1.00000000      1.00000000
      1.00000000      1.00000000      1.00000000      1.00000000      1.00000000      1.00000000      1.00000000      1.00000000      1.00000000      1.00000000      1.00000000      1.00000000      1.00000000      1.00000000      1.00000000      1.00000000      1.00000000      1.00000000      1.00000000      1.00000000
      1.00000000      1.00000000      1.00000000      1.00000000      1.00000000      1.00000000      1.00000000      1.00000000</v>
    <i name="NUPDOWN">     -1.00000000</i>
    <i type="logical" name="LSORBIT"> F  </i>
    <v name="SAXIS">      0.00000000      0.00000000      1.00000000</v>
    <i type="logical" name="LSPIRAL"> F  </i>
    <v name="QSPIRAL">      0.00000000      0.00000000      0.00000000</v>
    <i type="logical" name="LZEROZ"> F  </i>
   </separator>
   <separator name="electronic exchange-correlation" >
    <i type="logical" name="LASPH"> F  </i>
    <i type="logical" name="LMETAGGA"> F  </i>
   </separator>
   <separator name="electronic convergence" >
    <i type="int" name="NELM">   500</i>
    <i type="int" name="NELMDL">    -5</i>
    <i type="int" name="NELMIN">     2</i>
    <i name="ENINI">    400.00000000</i>
    <separator name="electronic convergence detail" >
     <i type="logical" name="LDIAG"> T  </i>
     <i type="logical" name="LSUBROT"> F  </i>
     <i name="WEIMIN">      0.00100000</i>
     <i name="EBREAK">      0.00000000</i>
     <i name="DEPER">      0.30000000</i>
     <i type="int" name="NRMM">     4</i>
     <i name="TIME">      0.40000000</i>
    </separator>
   </separator>
   <separator name="electronic mixer" >
    <i name="AMIX">      0.40000000</i>
    <i name="BMIX">      1.00000000</i>
    <i name="AMIN">      0.10000000</i>
    <i name="AMIX_MAG">      1.60000000</i>
    <i name="BMIX_MAG">      1.00000000</i>
    <separator name="electronic mixer details" >
     <i type="int" name="IMIX">     4</i>
     <i type="logical" name="MIXFIRST"> F  </i>
     <i type="int" name="MAXMIX">   -45</i>
     <i name="WC">    100.00000000</i>
     <i type="int" name="INIMIX">     1</i>
     <i type="int" name="MIXPRE">     1</i>
     <i type="int" name="MREMOVE">     5</i>
    </separator>
   </separator>
   <separator name="electronic dipolcorrection" >
    <i type="logical" name="LDIPOL"> T  </i>
    <i type="logical" name="LMONO"> F  </i>
    <i type="int" name="IDIPOL">     3</i>
    <i name="EPSILON">      1.00000000</i>
    <v name="DIPOL">      0.00000000      0.00000000      0.50000000</v>
    <i name="EFIELD">      0.00000000</i>
   </separator>
  </separator>
  <separator name="grids" >
   <i type="int" name="NGX">    54</i>
   <i type="int" name="NGY">    54</i>
   <i type="int" name="NGZ">   120</i>
   <i type="int" name="NGXF">   108</i>
   <i type="int" name="NGYF">   108</i>
   <i type="int" name="NGZF">   240</i>
   <i type="logical" name="ADDGRID"> F  </i>
  </separator>
  <separator name="ionic" >
   <i type="int" name="NSW">   500</i>
   <i type="int" name="IBRION">     2</i>
   <i type="int" name="ISIF">     0</i>
   <i name="PSTRESS">      0.00000000</i>
   <i name="EDIFFG">     -0.02000000</i>
   <i type="int" name="NFREE">     2</i>
   <i name="POTIM">      0.35000000</i>
   <i name="SMASS">     -3.00000000</i>
   <i name="SCALEE">      1.00000000</i>
  </separator>
  <separator name="ionic md" >
   <i name="TEBEG">      0.00010000</i>
   <i name="TEEND">      0.00010000</i>
   <i type="int" name="NBLOCK">     1</i>
   <i type="int" name="KBLOCK">   500</i>
   <i type="int" name="NPACO">   256</i>
   <i name="APACO">     16.00000000</i>
  </separator>
  <separator name="symmetry" >
   <i type="int" name="ISYM">     2</i>
   <i name="SYMPREC">      0.00001000</i>
  </separator>
  <separator name="dos" >
   <i type="logical" name="LORBIT"> F  </i>
   <v name="RWIGS">     -1.00000000     -1.00000000</v>
   <i type="int" name="NEDOS">   301</i>
   <i name="EMIN">     10.00000000</i>
   <i name="EMAX">    -10.00000000</i>
   <i name="EFERMI">      0.00000000</i>
  </separator>
  <separator name="writing" >
   <i type="int" name="NWRITE">     1</i>
   <i type="logical" name="LWAVE"> F  </i>
   <i type="logical" name="LCHARG"> F  </i>
   <i type="logical" name="LPARD"> F  </i>
   <i type="logical" name="LVTOT"> F  </i>
   <i type="logical" name="LVHAR"> F  </i>
   <i type="logical" name="LELF"> F  </i>
   <i type="logical" name="LOPTICS"> F  </i>
   <v name="STM">      0.00000000      0.00000000      0.00000000      0.00000000      0.00000000      0.00000000      0.00000000</v>
  </separator>
  <separator name="performance" >
   <i type="int" name="NPAR">     6</i>
   <i type="int" name="NSIM">     4</i>
   <i type="int" name="NBLK">    -1</i>
   <i type="logical" name="LPLANE"> T  </i>
   <i type="logical" name="LSCALAPACK"> T  </i>
   <i type="logical" name="LSCAAWARE"> F  </i>
   <i type="logical" name="LSCALU"> F  </i>
   <i type="logical" name="LASYNC"> F  </i>
   <i type="logical" name="LORBITALREAL"> F  </i>
  </separator>
  <separator name="miscellaneous" >
   <i type="int" name="IDIOT">     3</i>
   <i type="logical" name="LMUSIC"> F  </i>
   <v name="POMASS">    196.96600000    106.42000000</v>
   <v name="DARWINR">      0.00000000      0.00000000</v>
   <v name="DARWINV">      1.00000000      1.00000000</v>
   <i type="logical" name="LCORR"> T  </i>
  </separator>
  <i type="logical" name="GGA_COMPAT"> T  </i>
  <i type="logical" name="LBERRY"> F  </i>
  <i type="int" name="ICORELEVEL">     0</i>
  <i type="logical" name="LDAU"> F  </i>
  <i type="int" name="I_CONSTRAINED_M">     0</i>
  <separator name="electronic exchange-correlation" >
   <i type="string" name="GGA">PE</i>
   <i type="int" name="VOSKOWN">     1</i>
   <i type="logical" name="LHFCALC"> F  </i>
   <i type="string" name="PRECFOCK"></i>
   <i type="logical" name="LSYMGRAD"> F  </i>
   <i type="logical" name="LHFONE"> F  </i>
   <i type="logical" name="LRHFCALC"> F  </i>
   <i type="logical" name="LTHOMAS"> F  </i>
   <i type="logical" name="LMODELHF"> F  </i>
   <i name="ENCUT4O">     -1.00000000</i>
   <i type="int" name="EXXOEP">     0</i>
   <i type="int" name="FOURORBIT">     0</i>
   <i name="AEXX">      0.00000000</i>
   <i name="HFALPHA">      0.00000000</i>
   <i name="MCALPHA">      0.00000000</i>
   <i name="ALDAX">      1.00000000</i>
   <i name="AGGAX">      1.00000000</i>
   <i name="ALDAC">      1.00000000</i>
   <i name="AGGAC">      1.00000000</i>
   <i type="int" name="NKREDX">     1</i>
   <i type="int" name="NKREDY">     1</i>
   <i type="int" name="NKREDZ">     1</i>
   <i type="logical" name="SHIFTRED"> F  </i>
   <i type="logical" name="ODDONLY"> F  </i>
   <i type="logical" name="EVENONLY"> F  </i>
   <i type="int" name="LMAXFOCK">     0</i>
   <i type="int" name="NMAXFOCKAE">     0</i>
   <i type="logical" name="LFOCKAEDFT"> F  </i>
   <i name="HFSCREEN">      0.00000000</i>
   <i name="HFSCREENC">      0.00000000</i>
   <i type="int" name="NBANDSGWLOW">     0</i>
  </separator>
  <separator name="vdW DFT" >
   <i type="logical" name="LUSE_VDW"> F  </i>
   <i name="Zab_VDW">     -0.84910000</i>
   <i name="PARAM1">      0.12340000</i>
   <i name="PARAM2">      1.00000000</i>
   <i name="PARAM3">      0.00000000</i>
  </separator>
  <separator name="model GW" >
   <i type="int" name="MODEL_GW">     0</i>
   <i name="MODEL_EPS0">     32.09595293</i>
   <i name="MODEL_ALPHA">      1.00000000</i>
  </separator>
  <separator name="linear response parameters" >
   <i type="logical" name="LEPSILON"> F  </i>
   <i type="logical" name="LRPA"> F  </i>
   <i type="logical" name="LNABLA"> F  </i>
   <i type="logical" name="LVEL"> F  </i>
   <i type="int" name="KINTER">     0</i>
   <i name="CSHIFT">      0.10000000</i>
   <i name="OMEGAMAX">     -1.00000000</i>
   <i name="DEG_THRESHOLD">      0.00200000</i>
  </separator>
  <separator name="orbital magnetization" >
   <i type="logical" name="NUCIND"> F  </i>
   <v name="MAGPOS">      0.00000000      0.00000000      0.00000000</v>
   <i type="logical" name="LNICSALL"> T  </i>
   <i type="logical" name="ORBITALMAG"> F  </i>
   <i type="logical" name="LMAGBLOCH"> F  </i>
   <i type="logical" name="LCHIMAG"> F  </i>
   <i type="logical" name="LGAUGE"> T  </i>
   <i type="int" name="MAGATOM">     0</i>
   <v name="MAGDIPOL">      0.00000000      0.00000000      0.00000000</v>
   <v name="AVECCONST">      0.00000000      0.00000000      0.00000000</v>
  </separator>
  <separator name="response functions" >
   <i type="logical" name="LADDER"> F  </i>
   <i type="logical" name="LFXC"> F  </i>
   <i type="logical" name="LHARTREE"> T  </i>
   <i type="int" name="IBSE">     0</i>
   <v type="int" name="KPOINT">    -1     0     0     0</v>
   <i type="logical" name="LTCTE"> F  </i>
   <i type="logical" name="LTETE"> F  </i>
   <i type="logical" name="LTRIPLET"> F  </i>
   <i type="logical" name="LFXCEPS"> F  </i>
   <i type="logical" name="LFXHEG"> F  </i>
   <i type="int" name="NATURALO">     0</i>
   <i type="logical" name="L2ORDER"> F  </i>
   <i type="logical" name="LUSEW"> F  </i>
   <i name="ENCUTGW">     -2.00000000</i>
   <i name="ENCUTGWSOFT">     -2.00000000</i>
   <i name="ENCUTLF">     -1.00000000</i>
   <i type="int" name="LMAXMP2">    -1</i>
   <i name="SCISSOR">      0.00000000</i>
   <i type="int" name="NOMEGA">     0</i>
   <i type="int" name="NOMEGAR">     0</i>
   <i type="int" name="NBANDSGW">    -1</i>
   <i type="int" name="NBANDSO">    -1</i>
   <i type="int" name="NBANDSV">    -1</i>
   <i type="int" name="NELM">   500</i>
   <i type="int" name="NELMHF">     1</i>
   <i type="int" name="DIM">     3</i>
   <i type="int" name="ANTIRES">     0</i>
   <i name="OMEGAMAX">    -30.00000000</i>
   <i name="OMEGAMIN">    -30.00000000</i>
   <i name="OMEGATL">   -200.00000000</i>
   <i type="int" name="OMEGAGRID">     0</i>
   <i name="CSHIFT">     -0.10000000</i>
   <i type="logical" name="SELFENERGY"> F  </i>
   <i type="logical" name="LSPECTRAL"> F  </i>
   <i type="logical" name="LSPECTRALGW"> F  </i>
   <i type="logical" name="LSINGLES"> F  </i>
   <i type="logical" name="LFERMIGW"> F  </i>
   <i type="logical" name="ODDONLYGW"> F  </i>
   <i type="logical" name="EVENONLYGW"> F  </i>
   <i type="int" name="NKREDLFX">     1</i>
   <i type="int" name="NKREDLFY">     1</i>
   <i type="int" name="NKREDLFZ">     1</i>
   <i type="int" name="MAXMEM">  1800</i>
   <i type="int" name="TELESCOPE">     0</i>
   <i type="int" name="TAUPAR">     1</i>
   <i type="int" name="OMEGAPAR">    -1</i>
   <i name="LAMBDA">      1.00000000</i>
  </separator>
  <separator name="External order field" >
   <i name="OFIELD_KAPPA">      0.00000000</i>
   <v name="OFIELD_K">      0.00000000      0.00000000      0.00000000</v>
   <i name="OFIELD_Q6_NEAR">      0.00000000</i>
   <i name="OFIELD_Q6_FAR">      0.00000000</i>
   <i name="OFIELD_A">      0.00000000</i>
  </separator>
 </parameters>
 <atominfo>
  <atoms>      48 </atoms>
  <types>       2 </types>
  <array name="atoms" >
   <dimension dim="1">ion</dimension>
   <field type="string">element</field>
   <field type="int">atomtype</field>
   <set>
    <rc><c>Au</c><c>   1</c></rc>
    <rc><c>Au</c><c>   1</c></rc>
    <rc><c>Au</c><c>   1</c></rc>
    <rc><c>Au</c><c>   1</c></rc>
    <rc><c>Au</c><c>   1</c></rc>
    <rc><c>Au</c><c>   1</c></rc>
    <rc><c>Au</c><c>   1</c></rc>
    <rc><c>Au</c><c>   1</c></rc>
    <rc><c>Au</c><c>   1</c></rc>
    <rc><c>Au</c><c>   1</c></rc>
    <rc><c>Au</c><c>   1</c></rc>
    <rc><c>Au</c><c>   1</c></rc>
    <rc><c>Au</c><c>   1</c></rc>
    <rc><c>Au</c><c>   1</c></rc>
    <rc><c>Au</c><c>   1</c></rc>
    <rc><c>Au</c><c>   1</c></rc>
    <rc><c>Au</c><c>   1</c></rc>
    <rc><c>Au</c><c>   1</c></rc>
    <rc><c>Au</c><c>   1</c></rc>
    <rc><c>Au</c><c>   1</c></rc>
    <rc><c>Au</c><c>   1</c></rc>
    <rc><c>Au</c><c>   1</c></rc>
    <rc><c>Au</c><c>   1</c></rc>
    <rc><c>Au</c><c>   1</c></rc>
    <rc><c>Pd</c><c>   2</c></rc>
    <rc><c>Pd</c><c>   2</c></rc>
    <rc><c>Pd</c><c>   2</c></rc>
    <rc><c>Pd</c><c>   2</c></rc>
    <rc><c>Pd</c><c>   2</c></rc>
    <rc><c>Pd</c><c>   2</c></rc>
    <rc><c>Pd</c><c>   2</c></rc>
    <rc><c>Pd</c><c>   2</c></rc>
    <rc><c>Pd</c><c>   2</c></rc>
    <rc><c>Pd</c><c>   2</c></rc>
    <rc><c>Pd</c><c>   2</c></rc>
    <rc><c>Pd</c><c>   2</c></rc>
    <rc><c>Pd</c><c>   2</c></rc>
    <rc><c>Pd</c><c>   2</c></rc>
    <rc><c>Pd</c><c>   2</c></rc>
    <rc><c>Pd</c><c>   2</c></rc>
    <rc><c>Pd</c><c>   2</c></rc>
    <rc><c>Pd</c><c>   2</c></rc>
    <rc><c>Pd</c><c>   2</c></rc>
    <rc><c>Pd</c><c>   2</c></rc>
    <rc><c>Pd</c><c>   2</c></rc>
    <rc><c>Pd</c><c>   2</c></rc>
    <rc><c>Pd</c><c>   2</c></rc>
    <rc><c>Pd</c><c>   2</c></rc>
   </set>
  </array>
  <array name="atomtypes" >
   <dimension dim="1">type</dimension>
   <field type="int">atomspertype</field>
   <field type="string">element</field>
   <field>mass</field>
   <field>valence</field>
   <field type="string">pseudopotential</field>
   <set>
    <rc><c>  24</c><c>Au</c><c>    196.96600000</c><c>     11.00000000</c><c>  PAW_PBE Au 04Oct2007                  </c></rc>
    <rc><c>  24</c><c>Pd</c><c>    106.42000000</c><c>     10.00000000</c><c>  PAW_PBE Pd 04Jan2005                  </c></rc>
   </set>
  </array>
 </atominfo>
 <structure name="initialpos" >
  <crystal>
   <varray name="basis" >
    <v>      11.00258152       0.00000000       0.00000000 </v>
    <v>       5.50129076       9.52851510       0.00000000 </v>
    <v>       0.00000000       0.00000000      24.49178509 </v>
   </varray>
   <i name="volume">   2567.67623402 </i>
   <varray name="rec_basis" >
    <v>       0.09088776      -0.05247407       0.00000000 </v>
    <v>       0.00000000       0.10494815       0.00000000 </v>
    <v>       0.00000000       0.00000000       0.04083002 </v>
   </varray>
  </crystal>
  <varray name="positions" >
   <v>       0.08333333       0.08333333       0.40830017 </v>
   <v>       0.58333333       0.33333333       0.40830017 </v>
   <v>       0.50000000       0.00000000       0.59169983 </v>
   <v>       0.41666667       0.16666667       0.50000000 </v>
   <v>       0.41666667       0.91666667       0.50000000 </v>
   <v>       0.16666667       0.91666667       0.50000000 </v>
   <v>       0.83333333       0.08333333       0.40830017 </v>
   <v>       0.25000000       0.50000000       0.59169983 </v>
   <v>       0.16666667       0.66666667       0.50000000 </v>
   <v>       0.25000000       0.25000000       0.59169983 </v>
   <v>       0.75000000       0.00000000       0.59169983 </v>
   <v>       0.50000000       0.50000000       0.59169983 </v>
   <v>       0.16666667       0.16666667       0.50000000 </v>
   <v>       0.83333333       0.33333333       0.40830017 </v>
   <v>       0.75000000       0.50000000       0.59169983 </v>
   <v>       0.91666667       0.16666667       0.50000000 </v>
   <v>       0.00000000       0.00000000       0.59169983 </v>
   <v>       0.91666667       0.41666667       0.50000000 </v>
   <v>       0.75000000       0.25000000       0.59169983 </v>
   <v>       0.91666667       0.66666667       0.50000000 </v>
   <v>       0.41666667       0.66666667       0.50000000 </v>
   <v>       0.08333333       0.83333333       0.40830017 </v>
   <v>       0.00000000       0.75000000       0.59169983 </v>
   <v>       0.00000000       0.50000000       0.59169983 </v>
   <v>       0.66666667       0.66666667       0.50000000 </v>
   <v>       0.66666667       0.16666667       0.50000000 </v>
   <v>       0.50000000       0.75000000       0.59169983 </v>
   <v>       0.83333333       0.83333333       0.40830017 </v>
   <v>       0.83333333       0.58333333       0.40830017 </v>
   <v>       0.58333333       0.83333333       0.40830017 </v>
   <v>       0.66666667       0.41666667       0.50000000 </v>
   <v>       0.25000000       0.75000000       0.59169983 </v>
   <v>       0.50000000       0.25000000       0.59169983 </v>
   <v>       0.41666667       0.41666667       0.50000000 </v>
   <v>       0.58333333       0.08333333       0.40830017 </v>
   <v>       0.66666667       0.91666667       0.50000000 </v>
   <v>       0.33333333       0.83333333       0.40830017 </v>
   <v>       0.33333333       0.58333333       0.40830017 </v>
   <v>       0.16666667       0.41666667       0.50000000 </v>
   <v>       0.33333333       0.33333333       0.40830017 </v>
   <v>       0.25000000       0.00000000       0.59169983 </v>
   <v>       0.33333333       0.08333333       0.40830017 </v>
   <v>       0.91666667       0.91666667       0.50000000 </v>
   <v>       0.08333333       0.58333333       0.40830017 </v>
   <v>       0.00000000       0.25000000       0.59169983 </v>
   <v>       0.08333333       0.33333333       0.40830017 </v>
   <v>       0.58333333       0.58333333       0.40830017 </v>
   <v>       0.75000000       0.75000000       0.59169983 </v>
  </varray>
 </structure>
 <calculation>
  <scstep>
   <time name="dav">    7.25    7.36</time>
   <time name="total">    7.31    7.42</time>
   <dipole>
    <v name="dipole">      0.00000000       0.00000000      -0.00000370 </v>
    <i name="Tr[quadrupol]"> -10232.76648443 </i>
    <i name="Echarged">      0.00000000 </i>
    <i name="Edipol_quadrupol">      0.00000000 </i>
    <i name="Eion">      0.00000000 </i>
   </dipole>
   <energy>
    <i name="alphaZ">    805.86936721 </i>
    <i name="ewald"> 200412.85601911 </i>
    <i name="hartreedc">-242828.35320029 </i>
    <i name="XCdc">   -327.56335931 </i>
    <i name="pawpsdc">  40340.05962942 </i>
    <i name="pawaedc"> -38292.62782345 </i>
    <i name="eentropy">     -0.13762517 </i>
    <i name="bandstr">   1431.07255241 </i>
    <i name="atom">  41659.78587232 </i>
    <i name="e_fr_energy">   3200.96143226 </i>
    <i name="e_wo_entrp">   3201.09905743 </i>
    <i name="e_0_energy">   3201.03024485 </i>
   </energy>
  </scstep>
  <scstep>
   <time name="dav">    8.70    8.78</time>
   <time name="total">    8.71    8.78</time>
   <dipole>
    <v name="dipole">      0.00000000       0.00000000      -0.00000370 </v>
    <i name="Tr[quadrupol]"> -10232.76648443 </i>
    <i name="Echarged">      0.00000000 </i>
    <i name="Edipol_quadrupol">      0.00000000 </i>
    <i name="Eion">      0.00000000 </i>
   </dipole>
   <energy>
    <i name="e_fr_energy">     15.60735434 </i>
    <i name="e_wo_entrp">     15.75238843 </i>
    <i name="e_0_energy">     15.67987138 </i>
   </energy>
  </scstep>
  <scstep>
   <time name="dav">    8.40    8.49</time>
   <time name="total">    8.40    8.49</time>
   <dipole>
    <v name="dipole">      0.00000000       0.00000000      -0.00000370 </v>
    <i name="Tr[quadrupol]"> -10232.76648443 </i>
    <i name="Echarged">      0.00000000 </i>
    <i name="Edipol_quadrupol">      0.00000000 </i>
    <i name="Eion">      0.00000000 </i>
   </dipole>
   <energy>
    <i name="e_fr_energy">   -200.24444996 </i>
    <i name="e_wo_entrp">   -200.05007467 </i>
    <i name="e_0_energy">   -200.14726232 </i>
   </energy>
  </scstep>
  <scstep>
   <time name="dav">    8.69    8.74</time>
   <time name="total">    8.69    8.75</time>
   <dipole>
    <v name="dipole">      0.00000000       0.00000000      -0.00000370 </v>
    <i name="Tr[quadrupol]"> -10232.76648443 </i>
    <i name="Echarged">      0.00000000 </i>
    <i name="Edipol_quadrupol">      0.00000000 </i>
    <i name="Eion">      0.00000000 </i>
   </dipole>
   <energy>
    <i name="e_fr_energy">   -206.15089375 </i>
    <i name="e_wo_entrp">   -205.94313310 </i>
    <i name="e_0_energy">   -206.04701342 </i>
   </energy>
  </scstep>
  <scstep>
   <time name="dav">    8.97    9.07</time>
   <time name="total">    9.20    9.33</time>
   <dipole>
    <v name="dipole">      0.00000000       0.00000000      -0.00000370 </v>
    <i name="Tr[quadrupol]"> -10232.76648443 </i>
    <i name="Echarged">      0.00000000 </i>
    <i name="Edipol_quadrupol">      0.00000000 </i>
    <i name="Eion">      0.00000000 </i>
   </dipole>
   <energy>
    <i name="e_fr_energy">   -206.32505933 </i>
    <i name="e_wo_entrp">   -206.11763334 </i>
    <i name="e_0_energy">   -206.22134633 </i>
   </energy>
  </scstep>
  <scstep>
   <time name="diag">    1.34    1.35</time>
   <time name="diis">    3.58    3.60</time>
   <time name="orth">    0.38    0.38</time>
   <time name="total">    5.59    5.62</time>
   <dipole>
    <v name="dipole">      0.00000000       0.00000000      -1.66643826 </v>
    <i name="Tr[quadrupol]"> -10233.47582321 </i>
    <i name="Echarged">      0.00000000 </i>
    <i name="Edipol_quadrupol">      0.00000000 </i>
    <i name="Eion">      0.00000000 </i>
   </dipole>
   <energy>
    <i name="e_fr_energy">   -214.65267913 </i>
    <i name="e_wo_entrp">   -214.35996973 </i>
    <i name="e_0_energy">   -214.50632443 </i>
   </energy>
  </scstep>
  <scstep>
   <time name="diag">    1.34    1.35</time>
   <time name="diis">    3.51    3.52</time>
   <time name="orth">    0.38    0.38</time>
   <time name="total">    5.52    5.55</time>
   <dipole>
    <v name="dipole">      0.00000000       0.00000000       1.29891320 </v>
    <i name="Tr[quadrupol]"> -10233.52656685 </i>
    <i name="Echarged">      0.00000000 </i>
    <i name="Edipol_quadrupol">      0.00000000 </i>
    <i name="Eion">      0.00000000 </i>
   </dipole>
   <energy>
    <i name="e_fr_energy">   -213.77777292 </i>
    <i name="e_wo_entrp">   -213.54834471 </i>
    <i name="e_0_energy">   -213.66305881 </i>
   </energy>
  </scstep>
  <scstep>
   <time name="diag">    1.33    1.34</time>
   <time name="diis">    3.55    3.57</time>
   <time name="orth">    0.37    0.38</time>
   <time name="total">    5.55    5.58</time>
   <dipole>
    <v name="dipole">      0.00000000       0.00000000      -1.32046915 </v>
    <i name="Tr[quadrupol]"> -10233.74827631 </i>
    <i name="Echarged">      0.00000000 </i>
    <i name="Edipol_quadrupol">      0.00000000 </i>
    <i name="Eion">      0.00000000 </i>
   </dipole>
   <energy>
    <i name="e_fr_energy">   -214.41776200 </i>
    <i name="e_wo_entrp">   -214.20544820 </i>
    <i name="e_0_energy">   -214.31160510 </i>
   </energy>
  </scstep>
  <scstep>
   <time name="diag">    1.33    1.34</time>
   <time name="diis">    3.54    3.56</time>
   <time name="orth">    0.38    0.38</time>
   <time name="total">    5.54    5.57</time>
   <dipole>
    <v name="dipole">      0.00000000       0.00000000      -0.09394059 </v>
    <i name="Tr[quadrupol]"> -10233.76189531 </i>
    <i name="Echarged">      0.00000000 </i>
    <i name="Edipol_quadrupol">      0.00000000 </i>
    <i name="Eion">      0.00000000 </i>
   </dipole>
   <energy>
    <i name="e_fr_energy">   -207.28539937 </i>
    <i name="e_wo_entrp">   -207.08048718 </i>
    <i name="e_0_energy">   -207.18294327 </i>
   </energy>
  </scstep>
  <scstep>
   <time name="diag">    1.33    1.34</time>
   <time name="diis">    3.56    3.60</time>
   <time name="orth">    0.44    0.45</time>
   <time name="total">    5.69    5.74</time>
   <dipole>
    <v name="dipole">      0.00000000       0.00000000      -0.54017392 </v>
    <i name="Tr[quadrupol]"> -10234.18045590 </i>
    <i name="Echarged">      0.00000000 </i>
    <i name="Edipol_quadrupol">      0.00000000 </i>
    <i name="Eion">      0.00000000 </i>
   </dipole>
   <energy>
    <i name="e_fr_energy">   -198.36797785 </i>
    <i name="e_wo_entrp">   -198.15341133 </i>
    <i name="e_0_energy">   -198.26069459 </i>
   </energy>
  </scstep>
  <scstep>
   <time name="diag">    1.41    1.41</time>
   <time name="diis">    3.55    3.56</time>
   <time name="orth">    0.38    0.38</time>
   <time name="total">    5.62    5.65</time>
   <dipole>
    <v name="dipole">      0.00000000       0.00000000      -0.36070463 </v>
    <i name="Tr[quadrupol]"> -10234.67261487 </i>
    <i name="Echarged">      0.00000000 </i>
    <i name="Edipol_quadrupol">      0.00000000 </i>
    <i name="Eion">      0.00000000 </i>
   </dipole>
   <energy>
    <i name="e_fr_energy">   -193.50208523 </i>
    <i name="e_wo_entrp">   -193.31600284 </i>
    <i name="e_0_energy">   -193.40904404 </i>
   </energy>
  </scstep>
  <scstep>
   <time name="diag">    1.33    1.34</time>
   <time name="diis">    3.57    3.59</time>
   <time name="orth">    0.37    0.38</time>
   <time name="total">    5.56    5.63</time>
   <dipole>
    <v name="dipole">      0.00000000       0.00000000      -0.18152364 </v>
    <i name="Tr[quadrupol]"> -10234.99055783 </i>
    <i name="Echarged">      0.00000000 </i>
    <i name="Edipol_quadrupol">      0.00000000 </i>
    <i name="Eion">      0.00000000 </i>
   </dipole>
   <energy>
    <i name="e_fr_energy">   -189.35707375 </i>
    <i name="e_wo_entrp">   -189.14196589 </i>
    <i name="e_0_energy">   -189.24951982 </i>
   </energy>
  </scstep>
  <scstep>
   <time name="diag">    1.31    1.37</time>
   <time name="diis">    3.51    3.53</time>
   <time name="orth">    0.38    0.38</time>
   <time name="total">    5.49    5.56</time>
   <dipole>
    <v name="dipole">      0.00000000       0.00000000      -0.17564791 </v>
    <i name="Tr[quadrupol]"> -10234.93311955 </i>
    <i name="Echarged">      0.00000000 </i>
    <i name="Edipol_quadrupol">      0.00000000 </i>
    <i name="Eion">      0.00000000 </i>
   </dipole>
   <energy>
    <i name="e_fr_energy">   -188.56107390 </i>
    <i name="e_wo_entrp">   -188.35041488 </i>
    <i name="e_0_energy">   -188.45574439 </i>
   </energy>
  </scstep>
  <scstep>
   <time name="diag">    1.33    1.33</time>
   <time name="diis">    3.56    3.57</time>
   <time name="orth">    0.37    0.37</time>
   <time name="total">    5.54    5.57</time>
   <dipole>
    <v name="dipole">      0.00000000       0.00000000      -0.16421308 </v>
    <i name="Tr[quadrupol]"> -10235.37189777 </i>
    <i name="Echarged">      0.00000000 </i>
    <i name="Edipol_quadrupol">      0.00000000 </i>
    <i name="Eion">      0.00000000 </i>
   </dipole>
   <energy>
    <i name="e_fr_energy">   -188.59560378 </i>
    <i name="e_wo_entrp">   -188.39163103 </i>
    <i name="e_0_energy">   -188.49361741 </i>
   </energy>
  </scstep>
  <scstep>
   <time name="diag">    1.33    1.34</time>
   <time name="diis">    3.56    3.57</time>
   <time name="orth">    0.37    0.38</time>
   <time name="total">    5.55    5.58</time>
   <dipole>
    <v name="dipole">      0.00000000       0.00000000      -0.21240911 </v>
    <i name="Tr[quadrupol]"> -10235.56208922 </i>
    <i name="Echarged">      0.00000000 </i>
    <i name="Edipol_quadrupol">      0.00000000 </i>
    <i name="Eion">      0.00000000 </i>
   </dipole>
   <energy>
    <i name="e_fr_energy">   -188.54232744 </i>
    <i name="e_wo_entrp">   -188.34031563 </i>
    <i name="e_0_energy">   -188.44132154 </i>
   </energy>
  </scstep>
  <scstep>
   <time name="diag">    1.33    1.34</time>
   <time name="diis">    3.56    3.57</time>
   <time name="orth">    0.37    0.37</time>
   <time name="total">    5.53    5.58</time>
   <dipole>
    <v name="dipole">      0.00000000       0.00000000      -0.21432565 </v>
    <i name="Tr[quadrupol]"> -10236.09381849 </i>
    <i name="Echarged">      0.00000000 </i>
    <i name="Edipol_quadrupol">      0.00000000 </i>
    <i name="Eion">      0.00000000 </i>
   </dipole>
   <energy>
    <i name="e_fr_energy">   -188.60034742 </i>
    <i name="e_wo_entrp">   -188.39692722 </i>
    <i name="e_0_energy">   -188.49863732 </i>
   </energy>
  </scstep>
  <scstep>
   <time name="diag">    1.32    1.34</time>
   <time name="diis">    3.57    3.59</time>
   <time name="orth">    0.38    0.38</time>
   <time name="total">    5.55    5.59</time>
   <dipole>
    <v name="dipole">      0.00000000       0.00000000      -0.16728209 </v>
    <i name="Tr[quadrupol]"> -10236.37340475 </i>
    <i name="Echarged">      0.00000000 </i>
    <i name="Edipol_quadrupol">      0.00000000 </i>
    <i name="Eion">      0.00000000 </i>
   </dipole>
   <energy>
    <i name="e_fr_energy">   -188.29857812 </i>
    <i name="e_wo_entrp">   -188.07359755 </i>
    <i name="e_0_energy">   -188.18608783 </i>
   </energy>
  </scstep>
  <scstep>
   <time name="diag">    1.34    1.34</time>
   <time name="diis">    3.55    3.57</time>
   <time name="orth">    0.37    0.37</time>
   <time name="total">    5.54    5.57</time>
   <dipole>
    <v name="dipole">      0.00000000       0.00000000      -0.12127690 </v>
    <i name="Tr[quadrupol]"> -10236.56632169 </i>
    <i name="Echarged">      0.00000000 </i>
    <i name="Edipol_quadrupol">      0.00000000 </i>
    <i name="Eion">      0.00000000 </i>
   </dipole>
   <energy>
    <i name="e_fr_energy">   -188.21592388 </i>
    <i name="e_wo_entrp">   -187.98576786 </i>
    <i name="e_0_energy">   -188.10084587 </i>
   </energy>
  </scstep>
  <scstep>
   <time name="diag">    1.33    1.34</time>
   <time name="diis">    3.53    3.54</time>
   <time name="orth">    0.37    0.37</time>
   <time name="total">    5.52    5.54</time>
   <dipole>
    <v name="dipole">      0.00000000       0.00000000      -0.09972920 </v>
    <i name="Tr[quadrupol]"> -10236.68462060 </i>
    <i name="Echarged">      0.00000000 </i>
    <i name="Edipol_quadrupol">      0.00000000 </i>
    <i name="Eion">      0.00000000 </i>
   </dipole>
   <energy>
    <i name="e_fr_energy">   -188.19355816 </i>
    <i name="e_wo_entrp">   -187.96522995 </i>
    <i name="e_0_energy">   -188.07939405 </i>
   </energy>
  </scstep>
  <scstep>
   <time name="diag">    1.30    1.37</time>
   <time name="diis">    3.52    3.55</time>
   <time name="orth">    0.37    0.37</time>
   <time name="total">    5.47    5.58</time>
   <dipole>
    <v name="dipole">      0.00000000       0.00000000      -0.09133808 </v>
    <i name="Tr[quadrupol]"> -10236.79438381 </i>
    <i name="Echarged">      0.00000000 </i>
    <i name="Edipol_quadrupol">      0.00000000 </i>
    <i name="Eion">      0.00000000 </i>
   </dipole>
   <energy>
    <i name="e_fr_energy">   -188.19115834 </i>
    <i name="e_wo_entrp">   -187.96199391 </i>
    <i name="e_0_energy">   -188.07657613 </i>
   </energy>
  </scstep>
  <scstep>
   <time name="diag">    1.32    1.33</time>
   <time name="diis">    3.50    3.54</time>
   <time name="orth">    0.47    0.49</time>
   <time name="total">    5.71    5.79</time>
   <dipole>
    <v name="dipole">      0.00000000       0.00000000      -0.08104299 </v>
    <i name="Tr[quadrupol]"> -10236.96972180 </i>
    <i name="Echarged">      0.00000000 </i>
    <i name="Edipol_quadrupol">      0.00000000 </i>
    <i name="Eion">      0.00000000 </i>
   </dipole>
   <energy>
    <i name="e_fr_energy">   -188.18880239 </i>
    <i name="e_wo_entrp">   -187.96061513 </i>
    <i name="e_0_energy">   -188.07470876 </i>
   </energy>
  </scstep>
  <scstep>
   <time name="diag">    1.55    1.55</time>
   <time name="diis">    3.53    3.55</time>
   <time name="orth">    0.38    0.39</time>
   <time name="total">    5.77    5.80</time>
   <dipole>
    <v name="dipole">      0.00000000       0.00000000      -0.07581969 </v>
    <i name="Tr[quadrupol]"> -10237.09610314 </i>
    <i name="Echarged">      0.00000000 </i>
    <i name="Edipol_quadrupol">      0.00000000 </i>
    <i name="Eion">      0.00000000 </i>
   </dipole>
   <energy>
    <i name="e_fr_energy">   -188.18624213 </i>
    <i name="e_wo_entrp">   -187.95993931 </i>
    <i name="e_0_energy">   -188.07309072 </i>
   </energy>
  </scstep>
  <scstep>
   <time name="diag">    1.33    1.33</time>
   <time name="diis">    3.57    3.59</time>
   <time name="orth">    0.37    0.37</time>
   <time name="total">    5.56    5.59</time>
   <dipole>
    <v name="dipole">      0.00000000       0.00000000      -0.07140652 </v>
    <i name="Tr[quadrupol]"> -10237.19320350 </i>
    <i name="Echarged">      0.00000000 </i>
    <i name="Edipol_quadrupol">      0.00000000 </i>
    <i name="Eion">      0.00000000 </i>
   </dipole>
   <energy>
    <i name="e_fr_energy">   -188.18453549 </i>
    <i name="e_wo_entrp">   -187.95694242 </i>
    <i name="e_0_energy">   -188.07073896 </i>
   </energy>
  </scstep>
  <scstep>
   <time name="diag">    1.32    1.33</time>
   <time name="diis">    3.56    3.58</time>
   <time name="orth">    0.37    0.37</time>
   <time name="total">    5.54    5.57</time>
   <dipole>
    <v name="dipole">      0.00000000       0.00000000      -0.06395916 </v>
    <i name="Tr[quadrupol]"> -10237.32485295 </i>
    <i name="Echarged">      0.00000000 </i>
    <i name="Edipol_quadrupol">      0.00000000 </i>
    <i name="Eion">      0.00000000 </i>
   </dipole>
   <energy>
    <i name="e_fr_energy">   -188.18368446 </i>
    <i name="e_wo_entrp">   -187.95705893 </i>
    <i name="e_0_energy">   -188.07037169 </i>
   </energy>
  </scstep>
  <scstep>
   <time name="diag">    1.32    1.33</time>
   <time name="diis">    3.54    3.56</time>
   <time name="orth">    0.37    0.37</time>
   <time name="total">    5.52    5.55</time>
   <dipole>
    <v name="dipole">      0.00000000       0.00000000      -0.05894556 </v>
    <i name="Tr[quadrupol]"> -10237.39493042 </i>
    <i name="Echarged">      0.00000000 </i>
    <i name="Edipol_quadrupol">      0.00000000 </i>
    <i name="Eion">      0.00000000 </i>
   </dipole>
   <energy>
    <i name="e_fr_energy">   -188.18371595 </i>
    <i name="e_wo_entrp">   -187.95596761 </i>
    <i name="e_0_energy">   -188.06984178 </i>
   </energy>
  </scstep>
  <scstep>
   <time name="diag">    1.32    1.33</time>
   <time name="diis">    3.54    3.56</time>
   <time name="orth">    0.37    0.37</time>
   <time name="total">    5.52    5.55</time>
   <dipole>
    <v name="dipole">      0.00000000       0.00000000      -0.05224326 </v>
    <i name="Tr[quadrupol]"> -10237.49530692 </i>
    <i name="Echarged">      0.00000000 </i>
    <i name="Edipol_quadrupol">      0.00000000 </i>
    <i name="Eion">      0.00000000 </i>
   </dipole>
   <energy>
    <i name="e_fr_energy">   -188.18397513 </i>
    <i name="e_wo_entrp">   -187.95620810 </i>
    <i name="e_0_energy">   -188.07009162 </i>
   </energy>
  </scstep>
  <scstep>
   <time name="diag">    1.33    1.34</time>
   <time name="diis">    3.45    3.54</time>
   <time name="orth">    0.37    0.37</time>
   <time name="total">    5.43    5.55</time>
   <dipole>
    <v name="dipole">      0.00000000       0.00000000      -0.04826622 </v>
    <i name="Tr[quadrupol]"> -10237.58453067 </i>
    <i name="Echarged">      0.00000000 </i>
    <i name="Edipol_quadrupol">      0.00000000 </i>
    <i name="Eion">      0.00000000 </i>
   </dipole>
   <energy>
    <i name="e_fr_energy">   -188.18432552 </i>
    <i name="e_wo_entrp">   -187.95681713 </i>
    <i name="e_0_energy">   -188.07057132 </i>
   </energy>
  </scstep>
  <scstep>
   <time name="diag">    1.32    1.33</time>
   <time name="diis">    3.57    3.59</time>
   <time name="orth">    0.37    0.37</time>
   <time name="total">    5.55    5.58</time>
   <dipole>
    <v name="dipole">      0.00000000       0.00000000      -0.04542195 </v>
    <i name="Tr[quadrupol]"> -10237.64674806 </i>
    <i name="Echarged">      0.00000000 </i>
    <i name="Edipol_quadrupol">      0.00000000 </i>
    <i name="Eion">      0.00000000 </i>
   </dipole>
   <energy>
    <i name="e_fr_energy">   -188.18466085 </i>
    <i name="e_wo_entrp">   -187.95744070 </i>
    <i name="e_0_energy">   -188.07105078 </i>
   </energy>
  </scstep>
  <scstep>
   <time name="diag">    1.32    1.33</time>
   <time name="diis">    3.57    3.59</time>
   <time name="orth">    0.37    0.37</time>
   <time name="total">    5.54    5.58</time>
   <dipole>
    <v name="dipole">      0.00000000       0.00000000      -0.04223572 </v>
    <i name="Tr[quadrupol]"> -10237.70754503 </i>
    <i name="Echarged">      0.00000000 </i>
    <i name="Edipol_quadrupol">      0.00000000 </i>
    <i name="Eion">      0.00000000 </i>
   </dipole>
   <energy>
    <i name="e_fr_energy">   -188.18511243 </i>
    <i name="e_wo_entrp">   -187.95788317 </i>
    <i name="e_0_energy">   -188.07149780 </i>
   </energy>
  </scstep>
  <scstep>
   <time name="diag">    1.32    1.33</time>
   <time name="diis">    3.60    3.62</time>
   <time name="orth">    0.37    0.37</time>
   <time name="total">    5.58    5.61</time>
   <dipole>
    <v name="dipole">      0.00000000       0.00000000      -0.03738503 </v>
    <i name="Tr[quadrupol]"> -10237.78680773 </i>
    <i name="Echarged">      0.00000000 </i>
    <i name="Edipol_quadrupol">      0.00000000 </i>
    <i name="Eion">      0.00000000 </i>
   </dipole>
   <energy>
    <i name="e_fr_energy">   -188.18579710 </i>
    <i name="e_wo_entrp">   -187.95843551 </i>
    <i name="e_0_energy">   -188.07211631 </i>
   </energy>
  </scstep>
  <scstep>
   <time name="diag">    1.33    1.34</time>
   <time name="diis">    3.53    3.55</time>
   <time name="orth">    0.37    0.37</time>
   <time name="total">    5.52    5.55</time>
   <dipole>
    <v name="dipole">      0.00000000       0.00000000      -0.03211319 </v>
    <i name="Tr[quadrupol]"> -10237.86491471 </i>
    <i name="Echarged">      0.00000000 </i>
    <i name="Edipol_quadrupol">      0.00000000 </i>
    <i name="Eion">      0.00000000 </i>
   </dipole>
   <energy>
    <i name="e_fr_energy">   -188.18648888 </i>
    <i name="e_wo_entrp">   -187.95917732 </i>
    <i name="e_0_energy">   -188.07283310 </i>
   </energy>
  </scstep>
  <scstep>
   <time name="diag">    1.43    1.44</time>
   <time name="diis">    4.01    4.05</time>
   <time name="orth">    0.37    0.37</time>
   <time name="total">    6.09    6.16</time>
   <dipole>
    <v name="dipole">      0.00000000       0.00000000      -0.02918241 </v>
    <i name="Tr[quadrupol]"> -10237.90515619 </i>
    <i name="Echarged">      0.00000000 </i>
    <i name="Edipol_quadrupol">      0.00000000 </i>
    <i name="Eion">      0.00000000 </i>
   </dipole>
   <energy>
    <i name="e_fr_energy">   -188.18678568 </i>
    <i name="e_wo_entrp">   -187.95941379 </i>
    <i name="e_0_energy">   -188.07309974 </i>
   </energy>
  </scstep>
  <scstep>
   <time name="diag">    1.32    1.33</time>
   <time name="diis">    2.68    2.70</time>
   <time name="orth">    0.37    0.37</time>
   <time name="total">    4.66    4.69</time>
   <dipole>
    <v name="dipole">      0.00000000       0.00000000      -0.02770986 </v>
    <i name="Tr[quadrupol]"> -10237.92085085 </i>
    <i name="Echarged">      0.00000000 </i>
    <i name="Edipol_quadrupol">      0.00000000 </i>
    <i name="Eion">      0.00000000 </i>
   </dipole>
   <energy>
    <i name="e_fr_energy">   -188.18693199 </i>
    <i name="e_wo_entrp">   -187.95963204 </i>
    <i name="e_0_energy">   -188.07328202 </i>
   </energy>
  </scstep>
  <scstep>
   <time name="diag">    1.32    1.33</time>
   <time name="diis">    2.55    2.65</time>
   <time name="orth">    0.37    0.37</time>
   <time name="total">    4.53    4.64</time>
   <dipole>
    <v name="dipole">      0.00000000       0.00000000      -0.02584901 </v>
    <i name="Tr[quadrupol]"> -10237.94023798 </i>
    <i name="Echarged">      0.00000000 </i>
    <i name="Edipol_quadrupol">      0.00000000 </i>
    <i name="Eion">      0.00000000 </i>
   </dipole>
   <energy>
    <i name="e_fr_energy">   -188.18708629 </i>
    <i name="e_wo_entrp">   -187.95981163 </i>
    <i name="e_0_energy">   -188.07344896 </i>
   </energy>
  </scstep>
  <scstep>
   <time name="diag">    1.33    1.33</time>
   <time name="diis">    2.34    2.35</time>
   <time name="orth">    0.37    0.37</time>
   <time name="total">    4.32    4.35</time>
   <dipole>
    <v name="dipole">      0.00000000       0.00000000      -0.02462632 </v>
    <i name="Tr[quadrupol]"> -10237.95070220 </i>
    <i name="Echarged">      0.00000000 </i>
    <i name="Edipol_quadrupol">      0.00000000 </i>
    <i name="Eion">      0.00000000 </i>
   </dipole>
   <energy>
    <i name="e_fr_energy">   -188.18716286 </i>
    <i name="e_wo_entrp">   -187.95988576 </i>
    <i name="e_0_energy">   -188.07352431 </i>
   </energy>
  </scstep>
  <scstep>
   <time name="diag">    1.32    1.33</time>
   <time name="diis">    2.18    2.19</time>
   <time name="orth">    0.37    0.37</time>
   <time name="total">    4.16    4.18</time>
   <dipole>
    <v name="dipole">      0.00000000       0.00000000      -0.02381764 </v>
    <i name="Tr[quadrupol]"> -10237.95659709 </i>
    <i name="Echarged">      0.00000000 </i>
    <i name="Edipol_quadrupol">      0.00000000 </i>
    <i name="Eion">      0.00000000 </i>
   </dipole>
   <energy>
    <i name="e_fr_energy">   -188.18720618 </i>
    <i name="e_wo_entrp">   -187.95992422 </i>
    <i name="e_0_energy">   -188.07356520 </i>
   </energy>
  </scstep>
  <scstep>
   <time name="diag">    1.32    1.33</time>
   <time name="diis">    2.22    2.23</time>
   <time name="orth">    0.37    0.37</time>
   <time name="total">    4.20    4.22</time>
   <dipole>
    <v name="dipole">      0.00000000       0.00000000      -0.02246671 </v>
    <i name="Tr[quadrupol]"> -10237.96526269 </i>
    <i name="Echarged">      0.00000000 </i>
    <i name="Edipol_quadrupol">      0.00000000 </i>
    <i name="Eion">      0.00000000 </i>
   </dipole>
   <energy>
    <i name="e_fr_energy">   -188.18726023 </i>
    <i name="e_wo_entrp">   -187.95998195 </i>
    <i name="e_0_energy">   -188.07362109 </i>
   </energy>
  </scstep>
  <scstep>
   <time name="diag">    1.32    1.33</time>
   <time name="diis">    2.02    2.03</time>
   <time name="orth">    0.37    0.37</time>
   <time name="total">    4.00    4.03</time>
   <dipole>
    <v name="dipole">      0.00000000       0.00000000      -0.02191488 </v>
    <i name="Tr[quadrupol]"> -10237.96905515 </i>
    <i name="Echarged">      0.00000000 </i>
    <i name="Edipol_quadrupol">      0.00000000 </i>
    <i name="Eion">      0.00000000 </i>
   </dipole>
   <energy>
    <i name="e_fr_energy">   -188.18727379 </i>
    <i name="e_wo_entrp">   -187.95999899 </i>
    <i name="e_0_energy">   -188.07363639 </i>
   </energy>
  </scstep>
  <scstep>
   <time name="diag">    1.32    1.33</time>
   <time name="diis">    2.01    2.02</time>
   <time name="orth">    0.37    0.37</time>
   <time name="total">    4.00    4.02</time>
   <dipole>
    <v name="dipole">      0.00000000       0.00000000      -0.02119107 </v>
    <i name="Tr[quadrupol]"> -10237.97421391 </i>
    <i name="Echarged">      0.00000000 </i>
    <i name="Edipol_quadrupol">      0.00000000 </i>
    <i name="Eion">      0.00000000 </i>
   </dipole>
   <energy>
    <i name="e_fr_energy">   -188.18728415 </i>
    <i name="e_wo_entrp">   -187.96001883 </i>
    <i name="e_0_energy">   -188.07365149 </i>
   </energy>
  </scstep>
  <scstep>
   <time name="diag">    1.32    1.32</time>
   <time name="diis">    1.78    1.79</time>
   <time name="orth">    0.37    0.37</time>
   <time name="total">    3.75    3.77</time>
   <dipole>
    <v name="dipole">      0.00000000       0.00000000      -0.02080401 </v>
    <i name="Tr[quadrupol]"> -10237.97700150 </i>
    <i name="Echarged">      0.00000000 </i>
    <i name="Edipol_quadrupol">      0.00000000 </i>
    <i name="Eion">      0.00000000 </i>
   </dipole>
   <energy>
    <i name="e_fr_energy">   -188.18728735 </i>
    <i name="e_wo_entrp">   -187.96001969 </i>
    <i name="e_0_energy">   -188.07365352 </i>
   </energy>
  </scstep>
  <scstep>
   <time name="diag">    1.31    1.32</time>
   <time name="diis">    1.60    1.61</time>
   <time name="orth">    0.37    0.37</time>
   <time name="total">    3.57    3.59</time>
   <dipole>
    <v name="dipole">      0.00000000       0.00000000      -0.02052769 </v>
    <i name="Tr[quadrupol]"> -10237.97917653 </i>
    <i name="Echarged">      0.00000000 </i>
    <i name="Edipol_quadrupol">      0.00000000 </i>
    <i name="Eion">      0.00000000 </i>
   </dipole>
   <energy>
    <i name="e_fr_energy">   -188.18728936 </i>
    <i name="e_wo_entrp">   -187.96002126 </i>
    <i name="e_0_energy">   -188.07365531 </i>
   </energy>
  </scstep>
  <scstep>
   <time name="diag">    1.32    1.33</time>
   <time name="diis">    1.70    1.71</time>
   <time name="orth">    0.37    0.37</time>
   <time name="total">    3.68    3.70</time>
   <dipole>
    <v name="dipole">      0.00000000       0.00000000      -0.02022806 </v>
    <i name="Tr[quadrupol]"> -10237.98174743 </i>
    <i name="Echarged">      0.00000000 </i>
    <i name="Edipol_quadrupol">      0.00000000 </i>
    <i name="Eion">      0.00000000 </i>
   </dipole>
   <energy>
    <i name="e_fr_energy">   -188.18729165 </i>
    <i name="e_wo_entrp">   -187.96002361 </i>
    <i name="e_0_energy">   -188.07365763 </i>
   </energy>
  </scstep>
  <scstep>
   <time name="diag">    1.32    1.33</time>
   <time name="diis">    1.48    1.48</time>
   <time name="orth">    0.37    0.37</time>
   <time name="total">    3.46    3.48</time>
   <dipole>
    <v name="dipole">      0.00000000       0.00000000      -0.02005144 </v>
    <i name="Tr[quadrupol]"> -10237.98335112 </i>
    <i name="Echarged">      0.00000000 </i>
    <i name="Edipol_quadrupol">      0.00000000 </i>
    <i name="Eion">      0.00000000 </i>
   </dipole>
   <energy>
    <i name="e_fr_energy">   -188.18729289 </i>
    <i name="e_wo_entrp">   -187.96002533 </i>
    <i name="e_0_energy">   -188.07365911 </i>
   </energy>
  </scstep>
  <scstep>
   <time name="diag">    1.33    1.34</time>
   <time name="diis">    1.43    1.46</time>
   <time name="orth">    0.36    0.39</time>
   <time name="total">    3.42    3.52</time>
   <dipole>
    <v name="dipole">      0.00000000       0.00000000      -0.01986525 </v>
    <i name="Tr[quadrupol]"> -10237.98518465 </i>
    <i name="Echarged">      0.00000000 </i>
    <i name="Edipol_quadrupol">      0.00000000 </i>
    <i name="Eion">      0.00000000 </i>
   </dipole>
   <energy>
    <i name="e_fr_energy">   -188.18729392 </i>
    <i name="e_wo_entrp">   -187.96002798 </i>
    <i name="e_0_energy">   -188.07366095 </i>
   </energy>
  </scstep>
  <scstep>
   <time name="diag">    1.32    1.32</time>
   <time name="diis">    1.42    1.43</time>
   <time name="orth">    0.37    0.38</time>
   <time name="total">    3.16    3.18</time>
   <dipole>
    <v name="dipole">      0.00000000       0.00000000      -0.01974843 </v>
    <i name="Tr[quadrupol]"> -10237.98644262 </i>
    <i name="Echarged">      0.00000000 </i>
    <i name="Edipol_quadrupol">      0.00000000 </i>
    <i name="Eion">      0.00000000 </i>
   </dipole>
   <energy>
    <i name="alphaZ">    805.88497930 </i>
    <i name="ewald"> 200412.85601911 </i>
    <i name="hartreedc">-242594.41273203 </i>
    <i name="XCdc">   -343.26448366 </i>
    <i name="pawpsdc">  49420.90748242 </i>
    <i name="pawaedc"> -47498.81970369 </i>
    <i name="eentropy">     -0.22726462 </i>
    <i name="bandstr">  -2050.89746357 </i>
    <i name="atom">  41659.78587232 </i>
    <i name="e_fr_energy">   -188.18729441 </i>
    <i name="e_wo_entrp">   -187.96002978 </i>
    <i name="e_0_energy">   -188.07366210 </i>
   </energy>
  </scstep>
  <structure>
   <crystal>
    <varray name="basis" >
     <v>      11.00258152       0.00000000       0.00000000 </v>
     <v>       5.50129076       9.52851510       0.00000000 </v>
     <v>       0.00000000       0.00000000      24.49178509 </v>
    </varray>
    <i name="volume">   2567.67623402 </i>
    <varray name="rec_basis" >
     <v>       0.09088776      -0.05247407       0.00000000 </v>
     <v>       0.00000000       0.10494815       0.00000000 </v>
     <v>       0.00000000       0.00000000       0.04083002 </v>
    </varray>
   </crystal>
   <varray name="positions" >
    <v>       0.08333333       0.08333333       0.40830017 </v>
    <v>       0.58333333       0.33333333       0.40830017 </v>
    <v>       0.50000000       0.00000000       0.59169983 </v>
    <v>       0.41666667       0.16666667       0.50000000 </v>
    <v>       0.41666667       0.91666667       0.50000000 </v>
    <v>       0.16666667       0.91666667       0.50000000 </v>
    <v>       0.83333333       0.08333333       0.40830017 </v>
    <v>       0.25000000       0.50000000       0.59169983 </v>
    <v>       0.16666667       0.66666667       0.50000000 </v>
    <v>       0.25000000       0.25000000       0.59169983 </v>
    <v>       0.75000000       0.00000000       0.59169983 </v>
    <v>       0.50000000       0.50000000       0.59169983 </v>
    <v>       0.16666667       0.16666667       0.50000000 </v>
    <v>       0.83333333       0.33333333       0.40830017 </v>
    <v>       0.75000000       0.50000000       0.59169983 </v>
    <v>       0.91666667       0.16666667       0.50000000 </v>
    <v>       0.00000000       0.00000000       0.59169983 </v>
    <v>       0.91666667       0.41666667       0.50000000 </v>
    <v>       0.75000000       0.25000000       0.59169983 </v>
    <v>       0.91666667       0.66666667       0.50000000 </v>
    <v>       0.41666667       0.66666667       0.50000000 </v>
    <v>       0.08333333       0.83333333       0.40830017 </v>
    <v>       0.00000000       0.75000000       0.59169983 </v>
    <v>       0.00000000       0.50000000       0.59169983 </v>
    <v>       0.66666667       0.66666667       0.50000000 </v>
    <v>       0.66666667       0.16666667       0.50000000 </v>
    <v>       0.50000000       0.75000000       0.59169983 </v>
    <v>       0.83333333       0.83333333       0.40830017 </v>
    <v>       0.83333333       0.58333333       0.40830017 </v>
    <v>       0.58333333       0.83333333       0.40830017 </v>
    <v>       0.66666667       0.41666667       0.50000000 </v>
    <v>       0.25000000       0.75000000       0.59169983 </v>
    <v>       0.50000000       0.25000000       0.59169983 </v>
    <v>       0.41666667       0.41666667       0.50000000 </v>
    <v>       0.58333333       0.08333333       0.40830017 </v>
    <v>       0.66666667       0.91666667       0.50000000 </v>
    <v>       0.33333333       0.83333333       0.40830017 </v>
    <v>       0.33333333       0.58333333       0.40830017 </v>
    <v>       0.16666667       0.41666667       0.50000000 </v>
    <v>       0.33333333       0.33333333       0.40830017 </v>
    <v>       0.25000000       0.00000000       0.59169983 </v>
    <v>       0.33333333       0.08333333       0.40830017 </v>
    <v>       0.91666667       0.91666667       0.50000000 </v>
    <v>       0.08333333       0.58333333       0.40830017 </v>
    <v>       0.00000000       0.25000000       0.59169983 </v>
    <v>       0.08333333       0.33333333       0.40830017 </v>
    <v>       0.58333333       0.58333333       0.40830017 </v>
    <v>       0.75000000       0.75000000       0.59169983 </v>
   </varray>
  </structure>
  <varray name="forces" >
   <v>       0.52198396      -0.01155140      -1.92112453 </v>
   <v>      -0.35455917       0.20681962      -1.14449583 </v>
   <v>       0.02199238      -0.30825464       1.53391077 </v>
   <v>       0.57118111       0.31805783      -0.58719309 </v>
   <v>       0.31322576      -0.39918452      -0.29187354 </v>
   <v>       0.15822659      -0.24569479       0.28025632 </v>
   <v>      -0.55810439      -0.29253722      -1.40990338 </v>
   <v>       0.24491459      -0.15438944       1.42714943 </v>
   <v>       0.04162709      -0.37594217      -0.36371673 </v>
   <v>      -0.10371313      -0.03663449       1.62069273 </v>
   <v>      -0.22596507      -0.01933533       1.13676297 </v>
   <v>      -0.10917307       0.06749947       1.31851014 </v>
   <v>       0.20758004       0.23789513      -0.05548254 </v>
   <v>       0.11290259       0.55581545      -1.61539630 </v>
   <v>      -0.01993182       0.30125805       1.36440828 </v>
   <v>      -0.37481580       0.13257824       0.31454332 </v>
   <v>       0.31849008      -0.08834176       1.59941988 </v>
   <v>       0.05359435       0.22059704      -0.31430400 </v>
   <v>      -0.16421009       0.07589782       1.34047620 </v>
   <v>      -0.35223215       0.37098899      -0.60682896 </v>
   <v>       0.33270920      -0.26568569      -0.27882909 </v>
   <v>      -0.13362494      -0.33559119      -1.63205341 </v>
   <v>      -0.01878784       0.16737047       1.62461697 </v>
   <v>      -0.11210934      -0.07488075       1.65419054 </v>
   <v>      -0.00518237       0.15396407      -0.21071213 </v>
   <v>      -0.31121775      -0.01679673      -0.06542672 </v>
   <v>       0.08912215       0.05303382       0.83485659 </v>
   <v>      -0.26318028       0.00265349      -0.62474179 </v>
   <v>      -0.03774485       0.20055128      -0.77093148 </v>
   <v>       0.05941090       0.00048873      -0.65463320 </v>
   <v>      -0.22842829       0.20821644      -0.17648309 </v>
   <v>       0.20088545       0.10717114       1.04872209 </v>
   <v>       0.05617527       0.05341424       0.76352188 </v>
   <v>      -0.03145345      -0.23022555      -0.28685512 </v>
   <v>      -0.13011351      -0.23664400      -0.64805248 </v>
   <v>       0.16823683      -0.14486617      -0.38869675 </v>
   <v>       0.24537708      -0.11951378      -1.00803232 </v>
   <v>      -0.01297298      -0.14391087      -0.85646862 </v>
   <v>       0.25231859      -0.01970166      -0.58362497 </v>
   <v>      -0.15036200       0.07782543      -0.67335946 </v>
   <v>      -0.09353674      -0.10838907       1.05016865 </v>
   <v>       0.17017097       0.02732257      -1.01730942 </v>
   <v>      -0.47729594       0.04916586      -0.18092616 </v>
   <v>      -0.04541633      -0.22946571      -0.81380068 </v>
   <v>       0.06178041      -0.13560588       1.06088470 </v>
   <v>       0.28452184       0.13580350      -0.88081737 </v>
   <v>       0.07158379       0.22387113      -0.66432634 </v>
   <v>      -0.24387971       0.04488302       0.75330804 </v>
  </varray>
  <energy>
   <i name="e_fr_energy">   -188.18729441 </i>
   <i name="e_wo_entrp">   -188.07366210 </i>
   <i name="e_0_energy">     -0.22726462 </i>
  </energy>
  <time name="totalsc">  246.38  248.54</time>
 </calculation>
 <calculation>
  <scstep>
   <time name="dav">    8.34    8.41</time>
   <time name="total">    8.62    8.70</time>
   <dipole>
    <v name="dipole">      0.00000000       0.00000000      -0.01970149 </v>
    <i name="Tr[quadrupol]"> -10253.91976285 </i>
    <i name="Echarged">      0.00000000 </i>
    <i name="Edipol_quadrupol">      0.00000000 </i>
    <i name="Eion">      0.00000000 </i>
   </dipole>
   <energy>
    <i name="alphaZ">    805.88517637 </i>
    <i name="ewald"> 197667.84437945 </i>
    <i name="hartreedc">-239866.07789622 </i>
    <i name="XCdc">   -345.52831446 </i>
    <i name="pawpsdc">  49420.90753125 </i>
    <i name="pawaedc"> -47498.81979204 </i>
    <i name="eentropy">     -0.22090107 </i>
    <i name="bandstr">  -2033.08065600 </i>
    <i name="atom">  41659.78587232 </i>
    <i name="e_fr_energy">   -189.30460039 </i>
    <i name="e_wo_entrp">   -189.08369933 </i>
    <i name="e_0_energy">   -189.19414986 </i>
   </energy>
  </scstep>
  <scstep>
   <time name="diag">    1.32    1.33</time>
   <time name="diis">    3.58    3.60</time>
   <time name="orth">    0.37    0.37</time>
   <time name="total">    5.56    5.59</time>
   <dipole>
    <v name="dipole">      0.00000000       0.00000000      -0.00575734 </v>
    <i name="Tr[quadrupol]"> -10253.66958456 </i>
    <i name="Echarged">      0.00000000 </i>
    <i name="Edipol_quadrupol">      0.00000000 </i>
    <i name="Eion">      0.00000000 </i>
   </dipole>
   <energy>
    <i name="e_fr_energy">   -189.70304114 </i>
    <i name="e_wo_entrp">   -189.47838568 </i>
    <i name="e_0_energy">   -189.59071341 </i>
   </energy>
  </scstep>
  <scstep>
   <time name="diag">    1.33    1.34</time>
   <time name="diis">    3.62    3.64</time>
   <time name="orth">    0.37    0.37</time>
   <time name="total">    5.59    5.63</time>
   <dipole>
    <v name="dipole">      0.00000000       0.00000000      -0.08336726 </v>
    <i name="Tr[quadrupol]"> -10254.10909777 </i>
    <i name="Echarged">      0.00000000 </i>
    <i name="Edipol_quadrupol">      0.00000000 </i>
    <i name="Eion">      0.00000000 </i>
   </dipole>
   <energy>
    <i name="e_fr_energy">   -189.83422781 </i>
    <i name="e_wo_entrp">   -189.62551467 </i>
    <i name="e_0_energy">   -189.72987124 </i>
   </energy>
  </scstep>
  <scstep>
   <time name="diag">    1.33    1.33</time>
   <time name="diis">    3.57    3.59</time>
   <time name="orth">    0.37    0.37</time>
   <time name="total">    5.54    5.58</time>
   <dipole>
    <v name="dipole">      0.00000000       0.00000000       0.00875821 </v>
    <i name="Tr[quadrupol]"> -10254.05669251 </i>
    <i name="Echarged">      0.00000000 </i>
    <i name="Edipol_quadrupol">      0.00000000 </i>
    <i name="Eion">      0.00000000 </i>
   </dipole>
   <energy>
    <i name="e_fr_energy">   -189.69731458 </i>
    <i name="e_wo_entrp">   -189.46192493 </i>
    <i name="e_0_energy">   -189.57961975 </i>
   </energy>
  </scstep>
  <scstep>
   <time name="diag">    1.32    1.33</time>
   <time name="diis">    3.55    3.57</time>
   <time name="orth">    0.37    0.37</time>
   <time name="total">    5.53    5.56</time>
   <dipole>
    <v name="dipole">      0.00000000       0.00000000      -0.06579007 </v>
    <i name="Tr[quadrupol]"> -10253.97607013 </i>
    <i name="Echarged">      0.00000000 </i>
    <i name="Edipol_quadrupol">      0.00000000 </i>
    <i name="Eion">      0.00000000 </i>
   </dipole>
   <energy>
    <i name="e_fr_energy">   -189.73877327 </i>
    <i name="e_wo_entrp">   -189.53992651 </i>
    <i name="e_0_energy">   -189.63934989 </i>
   </energy>
  </scstep>
  <scstep>
   <time name="diag">    1.32    1.33</time>
   <time name="diis">    3.49    3.60</time>
   <time name="orth">    0.37    0.37</time>
   <time name="total">    5.47    5.59</time>
   <dipole>
    <v name="dipole">      0.00000000       0.00000000       0.00360678 </v>
    <i name="Tr[quadrupol]"> -10254.02068232 </i>
    <i name="Echarged">      0.00000000 </i>
    <i name="Edipol_quadrupol">      0.00000000 </i>
    <i name="Eion">      0.00000000 </i>
   </dipole>
   <energy>
    <i name="e_fr_energy">   -189.68416692 </i>
    <i name="e_wo_entrp">   -189.45707827 </i>
    <i name="e_0_energy">   -189.57062259 </i>
   </energy>
  </scstep>
  <scstep>
   <time name="diag">    1.33    1.33</time>
   <time name="diis">    3.58    3.60</time>
   <time name="orth">    0.37    0.37</time>
   <time name="total">    5.56    5.59</time>
   <dipole>
    <v name="dipole">      0.00000000       0.00000000      -0.02786201 </v>
    <i name="Tr[quadrupol]"> -10253.99127586 </i>
    <i name="Echarged">      0.00000000 </i>
    <i name="Edipol_quadrupol">      0.00000000 </i>
    <i name="Eion">      0.00000000 </i>
   </dipole>
   <energy>
    <i name="e_fr_energy">   -189.67551626 </i>
    <i name="e_wo_entrp">   -189.45355639 </i>
    <i name="e_0_energy">   -189.56453633 </i>
   </energy>
  </scstep>
  <scstep>
   <time name="diag">    1.32    1.33</time>
   <time name="diis">    3.54    3.55</time>
   <time name="orth">    0.37    0.37</time>
   <time name="total">    5.51    5.54</time>
   <dipole>
    <v name="dipole">      0.00000000       0.00000000      -0.01406597 </v>
    <i name="Tr[quadrupol]"> -10253.96612607 </i>
    <i name="Echarged">      0.00000000 </i>
    <i name="Edipol_quadrupol">      0.00000000 </i>
    <i name="Eion">      0.00000000 </i>
   </dipole>
   <energy>
    <i name="e_fr_energy">   -189.67284875 </i>
    <i name="e_wo_entrp">   -189.44963534 </i>
    <i name="e_0_energy">   -189.56124205 </i>
   </energy>
  </scstep>
  <scstep>
   <time name="diag">    1.33    1.33</time>
   <time name="diis">    3.52    3.54</time>
   <time name="orth">    0.37    0.37</time>
   <time name="total">    5.50    5.53</time>
   <dipole>
    <v name="dipole">      0.00000000       0.00000000      -0.01911157 </v>
    <i name="Tr[quadrupol]"> -10253.95617089 </i>
    <i name="Echarged">      0.00000000 </i>
    <i name="Edipol_quadrupol">      0.00000000 </i>
    <i name="Eion">      0.00000000 </i>
   </dipole>
   <energy>
    <i name="e_fr_energy">   -189.67177020 </i>
    <i name="e_wo_entrp">   -189.44792232 </i>
    <i name="e_0_energy">   -189.55984626 </i>
   </energy>
  </scstep>
  <scstep>
   <time name="diag">    1.32    1.33</time>
   <time name="diis">    3.56    3.58</time>
   <time name="orth">    0.37    0.37</time>
   <time name="total">    5.53    5.57</time>
   <dipole>
    <v name="dipole">      0.00000000       0.00000000      -0.01677610 </v>
    <i name="Tr[quadrupol]"> -10253.95363963 </i>
    <i name="Echarged">      0.00000000 </i>
    <i name="Edipol_quadrupol">      0.00000000 </i>
    <i name="Eion">      0.00000000 </i>
   </dipole>
   <energy>
    <i name="e_fr_energy">   -189.67175615 </i>
    <i name="e_wo_entrp">   -189.44785639 </i>
    <i name="e_0_energy">   -189.55980627 </i>
   </energy>
  </scstep>
  <scstep>
   <time name="diag">    1.32    1.33</time>
   <time name="diis">    4.35    4.40</time>
   <time name="orth">    0.65    0.65</time>
   <time name="total">    6.75    6.81</time>
   <dipole>
    <v name="dipole">      0.00000000       0.00000000      -0.01662907 </v>
    <i name="Tr[quadrupol]"> -10253.95401391 </i>
    <i name="Echarged">      0.00000000 </i>
    <i name="Edipol_quadrupol">      0.00000000 </i>
    <i name="Eion">      0.00000000 </i>
   </dipole>
   <energy>
    <i name="e_fr_energy">   -189.67165503 </i>
    <i name="e_wo_entrp">   -189.44734310 </i>
    <i name="e_0_energy">   -189.55949907 </i>
   </energy>
  </scstep>
  <scstep>
   <time name="diag">    1.33    1.33</time>
   <time name="diis">    3.55    3.57</time>
   <time name="orth">    0.37    0.37</time>
   <time name="total">    5.53    5.56</time>
   <dipole>
    <v name="dipole">      0.00000000       0.00000000      -0.01710680 </v>
    <i name="Tr[quadrupol]"> -10253.95754573 </i>
    <i name="Echarged">      0.00000000 </i>
    <i name="Edipol_quadrupol">      0.00000000 </i>
    <i name="Eion">      0.00000000 </i>
   </dipole>
   <energy>
    <i name="e_fr_energy">   -189.67164785 </i>
    <i name="e_wo_entrp">   -189.44757825 </i>
    <i name="e_0_energy">   -189.55961305 </i>
   </energy>
  </scstep>
  <scstep>
   <time name="diag">    1.33    1.34</time>
   <time name="diis">    3.49    3.60</time>
   <time name="orth">    0.37    0.37</time>
   <time name="total">    5.47    5.59</time>
   <dipole>
    <v name="dipole">      0.00000000       0.00000000      -0.01728524 </v>
    <i name="Tr[quadrupol]"> -10253.96319525 </i>
    <i name="Echarged">      0.00000000 </i>
    <i name="Edipol_quadrupol">      0.00000000 </i>
    <i name="Eion">      0.00000000 </i>
   </dipole>
   <energy>
    <i name="e_fr_energy">   -189.67163721 </i>
    <i name="e_wo_entrp">   -189.44756554 </i>
    <i name="e_0_energy">   -189.55960137 </i>
   </energy>
  </scstep>
  <scstep>
   <time name="diag">    1.32    1.33</time>
   <time name="diis">    3.28    3.30</time>
   <time name="orth">    0.37    0.37</time>
   <time name="total">    5.26    5.29</time>
   <dipole>
    <v name="dipole">      0.00000000       0.00000000      -0.01741325 </v>
    <i name="Tr[quadrupol]"> -10253.96656826 </i>
    <i name="Echarged">      0.00000000 </i>
    <i name="Edipol_quadrupol">      0.00000000 </i>
    <i name="Eion">      0.00000000 </i>
   </dipole>
   <energy>
    <i name="e_fr_energy">   -189.67163560 </i>
    <i name="e_wo_entrp">   -189.44764721 </i>
    <i name="e_0_energy">   -189.55964140 </i>
   </energy>
  </scstep>
  <scstep>
   <time name="diag">    1.32    1.33</time>
   <time name="diis">    2.37    2.38</time>
   <time name="orth">    0.37    0.37</time>
   <time name="total">    4.10    4.13</time>
   <dipole>
    <v name="dipole">      0.00000000       0.00000000      -0.01729718 </v>
    <i name="Tr[quadrupol]"> -10253.96903166 </i>
    <i name="Echarged">      0.00000000 </i>
    <i name="Edipol_quadrupol">      0.00000000 </i>
    <i name="Eion">      0.00000000 </i>
   </dipole>
   <energy>
    <i name="alphaZ">    805.88324817 </i>
    <i name="ewald"> 197667.84437945 </i>
    <i name="hartreedc">-239868.66115287 </i>
    <i name="XCdc">   -345.46120722 </i>
    <i name="pawpsdc">  48962.68966777 </i>
    <i name="pawaedc"> -47037.39644467 </i>
    <i name="eentropy">     -0.22400083 </i>
    <i name="bandstr">  -2034.13199821 </i>
    <i name="atom">  41659.78587232 </i>
    <i name="e_fr_energy">   -189.67163610 </i>
    <i name="e_wo_entrp">   -189.44763527 </i>
    <i name="e_0_energy">   -189.55963569 </i>
   </energy>
  </scstep>
  <structure>
   <crystal>
    <varray name="basis" >
     <v>      11.00258152       0.00000000       0.00000000 </v>
     <v>       5.50129076       9.52851510       0.00000000 </v>
     <v>       0.00000000       0.00000000      24.49178509 </v>
    </varray>
    <i name="volume">   2567.67623402 </i>
    <varray name="rec_basis" >
     <v>       0.09088776      -0.05247407       0.00000000 </v>
     <v>       0.00000000       0.10494815       0.00000000 </v>
     <v>       0.00000000       0.00000000       0.04083002 </v>
    </varray>
   </crystal>
   <varray name="positions" >
    <v>       0.08495591       0.08329239       0.40565128 </v>
    <v>       0.58187860       0.33406632       0.40672211 </v>
    <v>       0.50061374      -0.00109248       0.59381482 </v>
    <v>       0.41785616       0.16779389       0.49919036 </v>
    <v>       0.41833541       0.91525192       0.49959756 </v>
    <v>       0.16758769       0.91579590       0.50038642 </v>
    <v>       0.83213875       0.08229656       0.40635616 </v>
    <v>       0.25102529       0.49945283       0.59366762 </v>
    <v>       0.16746062       0.66533430       0.49949850 </v>
    <v>       0.24974659       0.24987016       0.59393448 </v>
    <v>       0.74934072      -0.00006853       0.59326723 </v>
    <v>       0.49954531       0.50023922       0.59351782 </v>
    <v>       0.16688223       0.16750979       0.49992350 </v>
    <v>       0.83269493       0.33530319       0.40607282 </v>
    <v>       0.74940498       0.50106768       0.59358111 </v>
    <v>       0.91528132       0.16713654       0.50043370 </v>
    <v>       0.00113408      -0.00031309       0.59390515 </v>
    <v>       0.91644025       0.41744848       0.49956663 </v>
    <v>       0.74936150       0.25026899       0.59354811 </v>
    <v>       0.91492816       0.66798148       0.49916329 </v>
    <v>       0.41815865       0.66572505       0.49961554 </v>
    <v>       0.08351788       0.83214397       0.40604986 </v>
    <v>      -0.00035425       0.75059318       0.59393989 </v>
    <v>      -0.00021140       0.49973462       0.59398067 </v>
    <v>       0.66637793       0.66721233       0.49970947 </v>
    <v>       0.66574122       0.16660714       0.49990979 </v>
    <v>       0.50017956       0.75018796       0.59285095 </v>
    <v>       0.83252086       0.83334274       0.40743876 </v>
    <v>       0.83286210       0.58404410       0.40723719 </v>
    <v>       0.58351482       0.83333507       0.40739755 </v>
    <v>       0.66559659       0.41740460       0.49975666 </v>
    <v>       0.25042666       0.75037982       0.59314583 </v>
    <v>       0.50007776       0.25018930       0.59275259 </v>
    <v>       0.41697810       0.41585073       0.49960448 </v>
    <v>       0.58335332       0.08249465       0.40740662 </v>
    <v>       0.66743974       0.91615325       0.49946406 </v>
    <v>       0.33429824       0.83290977       0.40691027 </v>
    <v>       0.33354853       0.58282330       0.40711925 </v>
    <v>       0.16747601       0.41659684       0.49919528 </v>
    <v>       0.33273392       0.33360915       0.40737173 </v>
    <v>       0.24990498      -0.00038414       0.59314783 </v>
    <v>       0.33380722       0.08343017       0.40689748 </v>
    <v>       0.91511459       0.91684091       0.49975053 </v>
    <v>       0.08360056       0.58252009       0.40717808 </v>
    <v>       0.00042992       0.24951940       0.59316260 </v>
    <v>       0.08396596       0.33381463       0.40708568 </v>
    <v>       0.58315633       0.58412675       0.40738418 </v>
    <v>       0.74917193       0.75015907       0.59273851 </v>
   </varray>
  </structure>
  <varray name="forces" >
   <v>       0.19797506      -0.00659892      -1.26488382 </v>
   <v>      -0.17617212       0.09070682      -0.91044809 </v>
   <v>      -0.05415971      -0.10084353       1.00066805 </v>
   <v>       0.20180898       0.04858484      -0.12305329 </v>
   <v>       0.23683523      -0.05567590      -0.08474592 </v>
   <v>      -0.02071229      -0.05993745       0.02125929 </v>
   <v>      -0.20033462      -0.08531860      -1.00782371 </v>
   <v>       0.08623196      -0.04856501       0.99597526 </v>
   <v>      -0.03232402      -0.15740336      -0.07258763 </v>
   <v>      -0.00564228      -0.08405664       1.10327756 </v>
   <v>      -0.11619760      -0.00789134       0.83787105 </v>
   <v>      -0.05196098       0.07942628       0.95199866 </v>
   <v>       0.13381991       0.06207635      -0.02216979 </v>
   <v>       0.04186847       0.20625306      -1.14951616 </v>
   <v>      -0.00863781       0.14519862       0.95100115 </v>
   <v>      -0.20441216       0.02660515      -0.00492199 </v>
   <v>       0.14283445      -0.04682507       1.13773885 </v>
   <v>       0.00016716       0.13082724      -0.07345725 </v>
   <v>      -0.08796420       0.06098325       0.99357099 </v>
   <v>      -0.08599233       0.12231068      -0.11848145 </v>
   <v>       0.12574626      -0.20745958      -0.08582537 </v>
   <v>      -0.03639003      -0.15326344      -1.14777612 </v>
   <v>      -0.00812936       0.02288368       1.06866676 </v>
   <v>      -0.02121741       0.01557417       1.06282363 </v>
   <v>       0.02014096       0.01534565      -0.06166578 </v>
   <v>      -0.08981459       0.00488399      -0.04082761 </v>
   <v>       0.00883313       0.04472595       0.63285383 </v>
   <v>      -0.16726691      -0.02874203      -0.62356140 </v>
   <v>      -0.01241751       0.14437596      -0.70301791 </v>
   <v>       0.02921240       0.00731120      -0.62094510 </v>
   <v>      -0.09785000       0.05437593      -0.06183920 </v>
   <v>       0.12868253       0.00118569       0.73539391 </v>
   <v>      -0.02664552      -0.00925850       0.58226051 </v>
   <v>       0.03986960      -0.06890016      -0.08439224 </v>
   <v>      -0.11397663      -0.15763686      -0.61146546 </v>
   <v>       0.03457225       0.00462082      -0.10305559 </v>
   <v>       0.11356017      -0.06796125      -0.76829007 </v>
   <v>      -0.00284749      -0.06633040      -0.71892544 </v>
   <v>       0.10544862       0.04048736      -0.10956065 </v>
   <v>      -0.10699026       0.04764097      -0.67271325 </v>
   <v>       0.02290819      -0.05626834       0.73660081 </v>
   <v>       0.13194010       0.01083019      -0.76792534 </v>
   <v>      -0.13356947       0.03332121      -0.03491933 </v>
   <v>      -0.05140762      -0.13810875      -0.71397613 </v>
   <v>       0.00742888      -0.04966504       0.73603378 </v>
   <v>       0.15910273       0.07735999      -0.73457834 </v>
   <v>       0.04538160       0.16248327      -0.59692742 </v>
   <v>      -0.10133570      -0.00366815       0.54628280 </v>
  </varray>
  <energy>
   <i name="e_fr_energy">   -189.67163610 </i>
   <i name="e_wo_entrp">   -189.55963569 </i>
   <i name="e_0_energy">     -0.22400083 </i>
  </energy>
  <time name="totalsc">   88.12   88.87</time>
 </calculation>
 <calculation>
  <scstep>
   <time name="dav">    8.27    8.32</time>
   <time name="total">    8.55    8.61</time>
   <dipole>
    <v name="dipole">      0.00000000       0.00000000      -0.01736182 </v>
    <i name="Tr[quadrupol]"> -10302.70087611 </i>
    <i name="Echarged">      0.00000000 </i>
    <i name="Edipol_quadrupol">      0.00000000 </i>
    <i name="Eion">      0.00000000 </i>
   </dipole>
   <energy>
    <i name="alphaZ">    805.88391904 </i>
    <i name="ewald"> 189563.95001696 </i>
    <i name="hartreedc">-231807.89094745 </i>
    <i name="XCdc">   -351.09591716 </i>
    <i name="pawpsdc">  48962.59584574 </i>
    <i name="pawaedc"> -47037.30243295 </i>
    <i name="eentropy">     -0.20973620 </i>
    <i name="bandstr">  -1983.82060143 </i>
    <i name="atom">  41659.78587232 </i>
    <i name="e_fr_energy">   -188.10398114 </i>
    <i name="e_wo_entrp">   -187.89424494 </i>
    <i name="e_0_energy">   -187.99911304 </i>
   </energy>
  </scstep>
  <scstep>
   <time name="diag">    1.32    1.33</time>
   <time name="diis">    3.60    3.61</time>
   <time name="orth">    0.37    0.37</time>
   <time name="total">    5.57    5.60</time>
   <dipole>
    <v name="dipole">      0.00000000       0.00000000       0.02047626 </v>
    <i name="Tr[quadrupol]"> -10301.90903485 </i>
    <i name="Echarged">      0.00000000 </i>
    <i name="Edipol_quadrupol">      0.00000000 </i>
    <i name="Eion">      0.00000000 </i>
   </dipole>
   <energy>
    <i name="e_fr_energy">   -191.60913079 </i>
    <i name="e_wo_entrp">   -191.39504418 </i>
    <i name="e_0_energy">   -191.50208749 </i>
   </energy>
  </scstep>
  <scstep>
   <time name="diag">    1.32    1.33</time>
   <time name="diis">    3.61    3.63</time>
   <time name="orth">    0.36    0.37</time>
   <time name="total">    5.58    5.61</time>
   <dipole>
    <v name="dipole">      0.00000000       0.00000000      -0.12834814 </v>
    <i name="Tr[quadrupol]"> -10303.00258019 </i>
    <i name="Echarged">      0.00000000 </i>
    <i name="Edipol_quadrupol">      0.00000000 </i>
    <i name="Eion">      0.00000000 </i>
   </dipole>
   <energy>
    <i name="e_fr_energy">   -192.04482047 </i>
    <i name="e_wo_entrp">   -191.82849887 </i>
    <i name="e_0_energy">   -191.93665967 </i>
   </energy>
  </scstep>
  <scstep>
   <time name="diag">    1.32    1.33</time>
   <time name="diis">    3.57    3.59</time>
   <time name="orth">    0.37    0.37</time>
   <time name="total">    5.54    5.57</time>
   <dipole>
    <v name="dipole">      0.00000000       0.00000000       0.02376308 </v>
    <i name="Tr[quadrupol]"> -10302.79880261 </i>
    <i name="Echarged">      0.00000000 </i>
    <i name="Edipol_quadrupol">      0.00000000 </i>
    <i name="Eion">      0.00000000 </i>
   </dipole>
   <energy>
    <i name="e_fr_energy">   -191.43191225 </i>
    <i name="e_wo_entrp">   -191.21389270 </i>
    <i name="e_0_energy">   -191.32290247 </i>
   </energy>
  </scstep>
  <scstep>
   <time name="diag">    1.30    1.38</time>
   <time name="diis">    3.50    3.52</time>
   <time name="orth">    0.37    0.37</time>
   <time name="total">    5.45    5.56</time>
   <dipole>
    <v name="dipole">      0.00000000       0.00000000      -0.08912762 </v>
    <i name="Tr[quadrupol]"> -10302.94133942 </i>
    <i name="Echarged">      0.00000000 </i>
    <i name="Edipol_quadrupol">      0.00000000 </i>
    <i name="Eion">      0.00000000 </i>
[...]
       <r>    2.2886    0.0000 </r>
       <r>    2.3899    0.0000 </r>
       <r>    2.4079    0.0000 </r>
       <r>    2.5044    0.0000 </r>
       <r>    2.7258    0.0000 </r>
       <r>    3.0226    0.0000 </r>
       <r>    3.1285    0.0000 </r>
       <r>    3.2472    0.0000 </r>
       <r>    3.5449    0.0000 </r>
       <r>    3.5876    0.0000 </r>
       <r>    3.6915    0.0000 </r>
       <r>    3.9955    0.0000 </r>
       <r>    4.0640    0.0000 </r>
       <r>    4.1763    0.0000 </r>
       <r>    4.3861    0.0000 </r>
       <r>    4.5514    0.0000 </r>
       <r>    4.6119    0.0000 </r>
       <r>    4.6404    0.0000 </r>
       <r>    4.6858    0.0000 </r>
       <r>    4.7713    0.0000 </r>
       <r>    4.8732    0.0000 </r>
       <r>    4.9278    0.0000 </r>
       <r>    4.9776    0.0000 </r>
       <r>    5.0177    0.0000 </r>
       <r>    5.0613    0.0000 </r>
       <r>    5.0910    0.0000 </r>
       <r>    5.1997    0.0000 </r>
       <r>    5.2197    0.0000 </r>
      </set>
     </set>
    </set>
   </array>
  </eigenvalues>
  <separator name="orbital magnetization" >
   <v name="MAGDIPOLOUT">      0.00000000      0.00000000      0.00000000</v>
  </separator>
  <dos>
   <i name="efermi">     -1.08501411 </i>
   <total>
    <array>
     <dimension dim="1">gridpoints</dimension>
     <dimension dim="2">spin</dimension>
     <field>energy</field>
     <field>total</field>
     <field>integrated</field>
     <set>
      <set comment="spin 1">
       <r>    -9.8491     0.0000     0.0000 </r>
       <r>    -9.7949     0.0000     0.0000 </r>
       <r>    -9.7408     0.0000     0.0000 </r>
       <r>    -9.6867     0.0000     0.0000 </r>
       <r>    -9.6325     0.0000     0.0000 </r>
       <r>    -9.5784     0.0000     0.0000 </r>
       <r>    -9.5243     0.0000     0.0000 </r>
       <r>    -9.4701     0.0000     0.0000 </r>
       <r>    -9.4160     0.0000     0.0000 </r>
       <r>    -9.3619     0.0000     0.0000 </r>
       <r>    -9.3077     0.0000     0.0000 </r>
       <r>    -9.2536     0.0000     0.0000 </r>
       <r>    -9.1994     0.0000     0.0000 </r>
       <r>    -9.1453     0.0002     0.0000 </r>
       <r>    -9.0912     0.0041     0.0002 </r>
       <r>    -9.0370     0.0535     0.0031 </r>
       <r>    -8.9829     0.3935     0.0244 </r>
       <r>    -8.9288     1.6548     0.1140 </r>
       <r>    -8.8746     3.9943     0.3303 </r>
       <r>    -8.8205     5.6300     0.6350 </r>
       <r>    -8.7664     5.1323     0.9129 </r>
       <r>    -8.7122     4.5278     1.1580 </r>
       <r>    -8.6581     5.3172     1.4459 </r>
       <r>    -8.6039     5.3299     1.7344 </r>
       <r>    -8.5498     3.3554     1.9161 </r>
       <r>    -8.4957     1.2456     1.9835 </r>
       <r>    -8.4415     0.2798     1.9986 </r>
       <r>    -8.3874     0.1244     2.0054 </r>
       <r>    -8.3333     0.4579     2.0302 </r>
       <r>    -8.2791     1.3875     2.1053 </r>
       <r>    -8.2250     2.7413     2.2537 </r>
       <r>    -8.1708     3.9971     2.4701 </r>
       <r>    -8.1167     5.2295     2.7532 </r>
       <r>    -8.0626     7.0945     3.1373 </r>
       <r>    -8.0084     9.2881     3.6401 </r>
       <r>    -7.9543    10.0073     4.1818 </r>
       <r>    -7.9002     8.1856     4.6250 </r>
       <r>    -7.8460     5.3065     4.9123 </r>
       <r>    -7.7919     4.1000     5.1342 </r>
       <r>    -7.7378     5.3683     5.4248 </r>
       <r>    -7.6836     7.1500     5.8119 </r>
       <r>    -7.6295     8.2352     6.2577 </r>
       <r>    -7.5753     9.2238     6.7571 </r>
       <r>    -7.5212    10.1435     7.3062 </r>
       <r>    -7.4671    10.3999     7.8692 </r>
       <r>    -7.4129     9.6828     8.3934 </r>
       <r>    -7.3588     9.2988     8.8968 </r>
       <r>    -7.3047    11.4502     9.5167 </r>
       <r>    -7.2505    16.1575    10.3914 </r>
       <r>    -7.1964    20.9547    11.5258 </r>
       <r>    -7.1423    24.4546    12.8497 </r>
       <r>    -7.0881    27.4558    14.3361 </r>
       <r>    -7.0340    29.7180    15.9449 </r>
       <r>    -6.9798    29.5350    17.5439 </r>
       <r>    -6.9257    27.4388    19.0293 </r>
       <r>    -6.8716    26.4307    20.4602 </r>
       <r>    -6.8174    29.1090    22.0360 </r>
       <r>    -6.7633    35.1420    23.9385 </r>
       <r>    -6.7092    40.6806    26.1408 </r>
       <r>    -6.6550    43.3119    28.4856 </r>
       <r>    -6.6009    44.7365    30.9075 </r>
       <r>    -6.5467    46.9396    33.4486 </r>
       <r>    -6.4926    50.5823    36.1870 </r>
       <r>    -6.4385    56.2829    39.2340 </r>
       <r>    -6.3843    63.1834    42.6545 </r>
       <r>    -6.3302    68.2785    46.3509 </r>
       <r>    -6.2761    70.5266    50.1689 </r>
       <r>    -6.2219    71.7229    54.0518 </r>
       <r>    -6.1678    72.2996    57.9658 </r>
       <r>    -6.1137    71.4490    61.8339 </r>
       <r>    -6.0595    70.8375    65.6688 </r>
       <r>    -6.0054    72.7293    69.6061 </r>
       <r>    -5.9512    75.0790    73.6706 </r>
       <r>    -5.8971    74.8076    77.7204 </r>
       <r>    -5.8430    73.2717    81.6871 </r>
       <r>    -5.7888    73.6413    85.6738 </r>
       <r>    -5.7347    75.4932    89.7608 </r>
       <r>    -5.6806    76.1605    93.8839 </r>
       <r>    -5.6264    74.9354    97.9406 </r>
       <r>    -5.5723    71.6377   101.8188 </r>
       <r>    -5.5182    66.8856   105.4398 </r>
       <r>    -5.4640    64.2285   108.9169 </r>
       <r>    -5.4099    66.5090   112.5175 </r>
       <r>    -5.3557    72.2305   116.4278 </r>
       <r>    -5.3016    78.0487   120.6531 </r>
       <r>    -5.2475    82.2947   125.1083 </r>
       <r>    -5.1933    83.9198   129.6514 </r>
       <r>    -5.1392    82.8520   134.1367 </r>
       <r>    -5.0851    80.5715   138.4986 </r>
       <r>    -5.0309    78.2161   142.7330 </r>
       <r>    -4.9768    78.0700   146.9594 </r>
       <r>    -4.9226    82.2288   151.4110 </r>
       <r>    -4.8685    87.7387   156.1609 </r>
       <r>    -4.8144    90.2667   161.0476 </r>
       <r>    -4.7602    90.1135   165.9261 </r>
       <r>    -4.7061    90.2020   170.8093 </r>
       <r>    -4.6520    91.0563   175.7388 </r>
       <r>    -4.5978    90.2014   180.6220 </r>
       <r>    -4.5437    87.0033   185.3321 </r>
       <r>    -4.4896    84.4742   189.9052 </r>
       <r>    -4.4354    83.7492   194.4391 </r>
       <r>    -4.3813    82.9000   198.9271 </r>
       <r>    -4.3271    81.8496   203.3581 </r>
       <r>    -4.2730    83.3483   207.8703 </r>
       <r>    -4.2189    87.6201   212.6138 </r>
       <r>    -4.1647    90.6203   217.5197 </r>
       <r>    -4.1106    91.0712   222.4500 </r>
       <r>    -4.0565    91.9209   227.4262 </r>
       <r>    -4.0023    93.5029   232.4882 </r>
       <r>    -3.9482    93.6547   237.5583 </r>
       <r>    -3.8941    92.6417   242.5736 </r>
       <r>    -3.8399    92.1562   247.5627 </r>
       <r>    -3.7858    92.8870   252.5913 </r>
       <r>    -3.7316    94.6625   257.7160 </r>
       <r>    -3.6775    96.7658   262.9545 </r>
       <r>    -3.6234    98.9457   268.3111 </r>
       <r>    -3.5692   101.6716   273.8153 </r>
       <r>    -3.5151   104.3952   279.4669 </r>
       <r>    -3.4610   105.1486   285.1593 </r>
       <r>    -3.4068   103.7581   290.7764 </r>
       <r>    -3.3527   101.0825   296.2487 </r>
       <r>    -3.2985    96.9750   301.4986 </r>
       <r>    -3.2444    93.2302   306.5458 </r>
       <r>    -3.1903    92.8573   311.5728 </r>
       <r>    -3.1361    94.7839   316.7040 </r>
       <r>    -3.0820    94.6763   321.8295 </r>
       <r>    -3.0279    92.3770   326.8305 </r>
       <r>    -2.9737    90.6049   331.7355 </r>
       <r>    -2.9196    89.4713   336.5792 </r>
       <r>    -2.8655    88.3641   341.3629 </r>
       <r>    -2.8113    87.8935   346.1212 </r>
       <r>    -2.7572    88.4463   350.9094 </r>
       <r>    -2.7030    89.4754   355.7533 </r>
       <r>    -2.6489    90.2978   360.6417 </r>
       <r>    -2.5948    90.7079   365.5523 </r>
       <r>    -2.5406    91.9589   370.5307 </r>
       <r>    -2.4865    94.7956   375.6626 </r>
       <r>    -2.4324    97.5434   380.9433 </r>
       <r>    -2.3782    98.4175   386.2713 </r>
       <r>    -2.3241    96.3581   391.4878 </r>
       <r>    -2.2700    92.1899   396.4786 </r>
       <r>    -2.2158    89.0376   401.2988 </r>
       <r>    -2.1617    88.3727   406.0830 </r>
       <r>    -2.1075    89.3935   410.9225 </r>
       <r>    -2.0534    91.6031   415.8816 </r>
       <r>    -1.9993    93.5669   420.9470 </r>
       <r>    -1.9451    93.3072   425.9983 </r>
       <r>    -1.8910    92.0637   430.9823 </r>
       <r>    -1.8369    92.9479   436.0142 </r>
       <r>    -1.7827    96.4624   441.2364 </r>
       <r>    -1.7286   100.7804   446.6923 </r>
       <r>    -1.6744   104.9093   452.3717 </r>
       <r>    -1.6203   108.0303   458.2201 </r>
       <r>    -1.5662   108.9109   464.1162 </r>
       <r>    -1.5120   107.6285   469.9429 </r>
       <r>    -1.4579   104.5710   475.6040 </r>
       <r>    -1.4038    99.9372   481.0143 </r>
       <r>    -1.3496    93.9873   486.1024 </r>
       <r>    -1.2955    86.7542   490.7990 </r>
       <r>    -1.2414    78.1868   495.0318 </r>
       <r>    -1.1872    67.9329   498.7094 </r>
       <r>    -1.1331    56.6088   501.7740 </r>
       <r>    -1.0789    45.7430   504.2504 </r>
       <r>    -1.0248    36.1417   506.2070 </r>
       <r>    -0.9707    27.4910   507.6953 </r>
       <r>    -0.9165    19.6493   508.7590 </r>
       <r>    -0.8624    13.5211   509.4910 </r>
       <r>    -0.8083    10.1312   510.0395 </r>
       <r>    -0.7541     9.7565   510.5677 </r>
       <r>    -0.7000    11.2933   511.1790 </r>
       <r>    -0.6459    13.5317   511.9116 </r>
       <r>    -0.5917    16.7577   512.8188 </r>
       <r>    -0.5376    20.3091   513.9183 </r>
       <r>    -0.4834    21.9374   515.1059 </r>
       <r>    -0.4293    21.4476   516.2670 </r>
       <r>    -0.3752    20.5900   517.3817 </r>
       <r>    -0.3210    20.8025   518.5079 </r>
       <r>    -0.2669    21.6089   519.6777 </r>
       <r>    -0.2128    20.3483   520.7793 </r>
       <r>    -0.1586    16.3534   521.6646 </r>
       <r>    -0.1045    12.4545   522.3388 </r>
       <r>    -0.0503    10.2980   522.8963 </r>
       <r>     0.0038     9.2053   523.3947 </r>
       <r>     0.0579     9.2245   523.8941 </r>
       <r>     0.1121    11.1872   524.4997 </r>
       <r>     0.1662    14.2576   525.2716 </r>
       <r>     0.2203    15.7145   526.1223 </r>
       <r>     0.2745    15.3472   526.9531 </r>
       <r>     0.3286    16.4084   527.8414 </r>
       <r>     0.3827    19.4230   528.8929 </r>
       <r>     0.4369    21.4605   530.0547 </r>
       <r>     0.4910    22.0800   531.2501 </r>
       <r>     0.5452    23.3170   532.5124 </r>
       <r>     0.5993    25.4065   533.8878 </r>
       <r>     0.6534    26.0908   535.3003 </r>
       <r>     0.7076    24.3383   536.6179 </r>
       <r>     0.7617    21.5684   537.7855 </r>
       <r>     0.8158    18.1701   538.7692 </r>
       <r>     0.8700    13.6481   539.5080 </r>
       <r>     0.9241     9.3584   540.0147 </r>
       <r>     0.9782     7.3139   540.4106 </r>
       <r>     1.0324     7.6198   540.8231 </r>
       <r>     1.0865     9.3845   541.3312 </r>
       <r>     1.1407    11.2308   541.9392 </r>
       <r>     1.1948    10.8774   542.5280 </r>
       <r>     1.2489     8.6463   542.9961 </r>
       <r>     1.3031     7.1775   543.3847 </r>
       <r>     1.3572     6.5943   543.7417 </r>
       <r>     1.4113     6.3466   544.0853 </r>
       <r>     1.4655     8.4531   544.5429 </r>
       <r>     1.5196    13.6555   545.2822 </r>
       <r>     1.5738    18.2582   546.2706 </r>
       <r>     1.6279    18.3310   547.2630 </r>
       <r>     1.6820    15.6954   548.1127 </r>
       <r>     1.7362    15.2776   548.9397 </r>
       <r>     1.7903    17.1901   549.8704 </r>
       <r>     1.8444    17.5541   550.8207 </r>
       <r>     1.8986    15.3606   551.6523 </r>
       <r>     1.9527    12.1249   552.3087 </r>
       <r>     2.0068     8.7843   552.7842 </r>
       <r>     2.0610     7.5495   553.1929 </r>
       <r>     2.1151    10.5332   553.7631 </r>
       <r>     2.1693    15.5359   554.6042 </r>
       <r>     2.2234    19.5012   555.6599 </r>
       <r>     2.2775    23.0598   556.9083 </r>
       <r>     2.3317    26.4403   558.3397 </r>
       <r>     2.3858    26.8722   559.7945 </r>
       <r>     2.4399    23.2052   561.0507 </r>
       <r>     2.4941    18.9276   562.0754 </r>
       <r>     2.5482    18.0034   563.0501 </r>
       <r>     2.6023    19.7997   564.1219 </r>
       <r>     2.6565    21.6910   565.2962 </r>
       <r>     2.7106    22.2343   566.4999 </r>
       <r>     2.7648    20.0464   567.5852 </r>
       <r>     2.8189    14.7185   568.3820 </r>
       <r>     2.8730     8.6962   568.8528 </r>
       <r>     2.9272     5.4406   569.1473 </r>
       <r>     2.9813     5.3900   569.4391 </r>
       <r>     3.0354     5.8708   569.7569 </r>
       <r>     3.0896     5.8062   570.0713 </r>
       <r>     3.1437     6.9112   570.4454 </r>
       <r>     3.1978     9.8289   570.9775 </r>
       <r>     3.2520    12.5345   571.6561 </r>
       <r>     3.3061    12.4920   572.3324 </r>
       <r>     3.3603    10.2814   572.8890 </r>
       <r>     3.4144     9.3809   573.3968 </r>
       <r>     3.4685    10.8321   573.9832 </r>
       <r>     3.5227    13.0553   574.6900 </r>
       <r>     3.5768    15.9678   575.5544 </r>
       <r>     3.6309    19.5099   576.6106 </r>
       <r>     3.6851    21.3785   577.7680 </r>
       <r>     3.7392    19.7013   578.8346 </r>
       <r>     3.7934    15.4162   579.6691 </r>
       <r>     3.8475    11.3369   580.2829 </r>
       <r>     3.9016     9.7310   580.8097 </r>
       <r>     3.9558    11.4173   581.4278 </r>
       <r>     4.0099    14.9308   582.2361 </r>
       <r>     4.0640    16.1780   583.1119 </r>
       <r>     4.1182    13.9149   583.8652 </r>
       <r>     4.1723    11.8059   584.5043 </r>
       <r>     4.2264    11.2051   585.1110 </r>
       <r>     4.2806     9.9506   585.6496 </r>
       <r>     4.3347     8.7863   586.1253 </r>
       <r>     4.3889    10.4993   586.6937 </r>
       <r>     4.4430    13.9205   587.4473 </r>
       <r>     4.4971    16.6250   588.3473 </r>
       <r>     4.5513    20.1436   589.4378 </r>
       <r>     4.6054    25.4740   590.8169 </r>
       <r>     4.6595    29.2967   592.4030 </r>
       <r>     4.7137    28.5621   593.9492 </r>
       <r>     4.7678    24.7168   595.2873 </r>
       <r>     4.8219    21.5444   596.4536 </r>
       <r>     4.8761    21.0594   597.5937 </r>
       <r>     4.9302    23.1363   598.8462 </r>
       <r>     4.9844    27.3983   600.3295 </r>
       <r>     5.0385    33.4361   602.1396 </r>
       <r>     5.0926    38.1474   604.2048 </r>
       <r>     5.1468    37.5758   606.2390 </r>
       <r>     5.2009    32.7544   608.0122 </r>
       <r>     5.2550    26.6124   609.4529 </r>
       <r>     5.3092    19.9448   610.5327 </r>
       <r>     5.3633    13.5750   611.2676 </r>
       <r>     5.4175     8.1326   611.7079 </r>
       <r>     5.4716     3.8423   611.9159 </r>
       <r>     5.5257     1.2575   611.9839 </r>
       <r>     5.5799     0.2612   611.9981 </r>
       <r>     5.6340     0.0328   611.9999 </r>
       <r>     5.6881     0.0024   612.0000 </r>
       <r>     5.7423     0.0001   612.0000 </r>
       <r>     5.7964     0.0000   612.0000 </r>
       <r>     5.8505     0.0000   612.0000 </r>
       <r>     5.9047     0.0000   612.0000 </r>
       <r>     5.9588     0.0000   612.0000 </r>
       <r>     6.0130     0.0000   612.0000 </r>
       <r>     6.0671     0.0000   612.0000 </r>
       <r>     6.1212     0.0000   612.0000 </r>
       <r>     6.1754     0.0000   612.0000 </r>
       <r>     6.2295     0.0000   612.0000 </r>
       <r>     6.2836     0.0000   612.0000 </r>
       <r>     6.3378     0.0000   612.0000 </r>
       <r>     6.3919     0.0000   612.0000 </r>
      </set>
     </set>
    </array>
   </total>
  </dos>
 </calculation>
 <structure name="finalpos" >
  <crystal>
   <varray name="basis" >
    <v>      11.00258152       0.00000000       0.00000000 </v>
    <v>       5.50129076       9.52851510       0.00000000 </v>
    <v>       0.00000000       0.00000000      24.49178509 </v>
   </varray>
   <i name="volume">   2567.67623402 </i>
   <varray name="rec_basis" >
    <v>       0.09088776      -0.05247407       0.00000000 </v>
    <v>       0.00000000       0.10494815       0.00000000 </v>
    <v>       0.00000000       0.00000000       0.04083002 </v>
   </varray>
  </crystal>
  <varray name="positions" >
   <v>       0.08705807       0.08405273       0.38904598 </v>
   <v>       0.57935050       0.33550317       0.39857310 </v>
   <v>       0.49997392      -0.00323841       0.60375889 </v>
   <v>       0.41846416       0.16808146       0.50042422 </v>
   <v>       0.42090612       0.91507209       0.49867645 </v>
   <v>       0.16650087       0.91633041       0.49631260 </v>
   <v>       0.83165601       0.08208673       0.39587816 </v>
   <v>       0.25128591       0.49866824       0.60445178 </v>
   <v>       0.16769565       0.66462063       0.49971489 </v>
   <v>       0.24955397       0.24710457       0.60654987 </v>
   <v>       0.74881376      -0.00056866       0.60020722 </v>
   <v>       0.49845334       0.50082548       0.60087290 </v>
   <v>       0.16746126       0.16772667       0.49793526 </v>
   <v>       0.83238934       0.33811296       0.39282438 </v>
   <v>       0.74888750       0.50139114       0.60135804 </v>
   <v>       0.91429982       0.16719730       0.49650700 </v>
   <v>       0.00254902      -0.00072714       0.60094431 </v>
   <v>       0.91575076       0.41848409       0.49848857 </v>
   <v>       0.74866017       0.25014292       0.59972967 </v>
   <v>       0.91539494       0.66851450       0.50166726 </v>
   <v>       0.42034575       0.66393182       0.49854464 </v>
   <v>       0.08393230       0.83046778       0.39420780 </v>
   <v>      -0.00001229       0.75009469       0.60538383 </v>
   <v>      -0.00081047       0.49884617       0.60722746 </v>
   <v>       0.66795717       0.66637454       0.50043851 </v>
   <v>       0.66688455       0.16659407       0.49848167 </v>
   <v>       0.49903461       0.75024744       0.59692643 </v>
   <v>       0.83142893       0.83347378       0.40474571 </v>
   <v>       0.83202948       0.58662308       0.40272366 </v>
   <v>       0.58348905       0.83416015       0.40293377 </v>
   <v>       0.66643068       0.41639729       0.49815113 </v>
   <v>       0.25065090       0.75016265       0.59631066 </v>
   <v>       0.49905855       0.24891311       0.59716510 </v>
   <v>       0.41872245       0.41546965       0.49976827 </v>
   <v>       0.58249923       0.08189271       0.40351690 </v>
   <v>       0.66793875       0.91716359       0.50117691 </v>
   <v>       0.33540415       0.83308346       0.39956982 </v>
   <v>       0.33290653       0.58326896       0.40162981 </v>
   <v>       0.16805023       0.41646336       0.50362824 </v>
   <v>       0.32992458       0.33492069       0.40481484 </v>
   <v>       0.24975418      -0.00135484       0.59559586 </v>
   <v>       0.33485442       0.08431899       0.40091979 </v>
   <v>       0.91528106       0.91747144       0.49943979 </v>
   <v>       0.08278873       0.58179302       0.40452011 </v>
   <v>       0.00006096       0.24900178       0.59524843 </v>
   <v>       0.08421900       0.33535493       0.40200392 </v>
   <v>       0.58295355       0.58641596       0.40244352 </v>
   <v>       0.74911788       0.74906884       0.59856285 </v>
  </varray>
 </structure>
</modeling>
