  48  48   0   0
  0.5349325E+02  0.1100258E-08  0.1100258E-08  0.2449179E-08  0.3500000E-15
  1.000000000000000E-004
  CAR 
 unknown system                          
      6.35322088     -9.96204780  301     -1.10923424      1.00000000
     -9.962  0.0000E+00  0.0000E+00
     -9.908  0.0000E+00  0.0000E+00
     -9.853  0.0000E+00  0.0000E+00
     -9.799  0.0000E+00  0.0000E+00
     -9.745  0.0000E+00  0.0000E+00
     -9.690  0.0000E+00  0.0000E+00
     -9.636  0.0000E+00  0.0000E+00
     -9.581  0.0000E+00  0.0000E+00
     -9.527  0.1361E-16  0.7401E-18
     -9.473  0.5471E-14  0.2983E-15
     -9.418  0.1214E-11  0.6632E-13
     -9.364  0.1512E-09  0.8290E-11
     -9.309  0.1059E-07  0.5844E-09
     -9.255  0.4184E-06  0.2334E-07
     -9.201  0.9343E-05  0.5315E-06
     -9.146  0.1183E-03  0.6964E-05
     -9.092  0.8512E-03  0.5326E-04
     -9.038  0.3494E-02  0.2433E-03
     -8.983  0.8232E-02  0.6910E-03
     -8.929  0.1141E-01  0.1312E-02
     -8.874  0.1060E-01  0.1888E-02
     -8.820  0.9873E-02  0.2425E-02
     -8.766  0.1112E-01  0.3030E-02
     -8.711  0.9995E-02  0.3574E-02
     -8.657  0.5594E-02  0.3878E-02
     -8.602  0.1846E-02  0.3978E-02
     -8.548  0.3611E-03  0.3998E-02
     -8.494  0.1193E-03  0.4005E-02
     -8.439  0.5542E-03  0.4035E-02
     -8.385  0.2280E-02  0.4159E-02
     -8.331  0.5788E-02  0.4473E-02
     -8.276  0.9262E-02  0.4977E-02
     -8.222  0.9555E-02  0.5497E-02
     -8.167  0.6898E-02  0.5872E-02
     -8.113  0.5698E-02  0.6182E-02
     -8.059  0.8812E-02  0.6661E-02
     -8.004  0.1359E-01  0.7400E-02
     -7.950  0.1608E-01  0.8274E-02
     -7.895  0.1527E-01  0.9105E-02
     -7.841  0.1185E-01  0.9749E-02
     -7.787  0.8795E-02  0.1023E-01
     -7.732  0.8718E-02  0.1070E-01
     -7.678  0.1020E-01  0.1126E-01
     -7.624  0.1134E-01  0.1187E-01
     -7.569  0.1275E-01  0.1257E-01
     -7.515  0.1520E-01  0.1339E-01
     -7.460  0.1876E-01  0.1441E-01
     -7.406  0.2530E-01  0.1579E-01
     -7.352  0.3556E-01  0.1772E-01
     -7.297  0.4477E-01  0.2016E-01
     -7.243  0.4893E-01  0.2282E-01
     -7.188  0.5157E-01  0.2562E-01
     -7.134  0.5419E-01  0.2857E-01
     -7.080  0.5393E-01  0.3150E-01
     -7.025  0.5212E-01  0.3434E-01
     -6.971  0.5185E-01  0.3716E-01
     -6.917  0.5416E-01  0.4010E-01
     -6.862  0.5784E-01  0.4325E-01
     -6.808  0.5996E-01  0.4651E-01
     -6.753  0.6146E-01  0.4985E-01
     -6.699  0.6819E-01  0.5356E-01
     -6.645  0.7987E-01  0.5790E-01
     -6.590  0.8889E-01  0.6274E-01
     -6.536  0.9290E-01  0.6779E-01
     -6.481  0.9811E-01  0.7313E-01
     -6.427  0.1099E+00  0.7910E-01
     -6.373  0.1275E+00  0.8603E-01
     -6.318  0.1457E+00  0.9396E-01
     -6.264  0.1593E+00  0.1026E+00
     -6.210  0.1656E+00  0.1116E+00
     -6.155  0.1635E+00  0.1205E+00
     -6.101  0.1561E+00  0.1290E+00
     -6.046  0.1500E+00  0.1372E+00
     -5.992  0.1482E+00  0.1452E+00
     -5.938  0.1484E+00  0.1533E+00
     -5.883  0.1469E+00  0.1613E+00
     -5.829  0.1434E+00  0.1691E+00
     -5.774  0.1396E+00  0.1767E+00
     -5.720  0.1357E+00  0.1840E+00
     -5.666  0.1340E+00  0.1913E+00
     -5.611  0.1361E+00  0.1987E+00
     -5.557  0.1385E+00  0.2063E+00
     -5.503  0.1377E+00  0.2138E+00
     -5.448  0.1356E+00  0.2211E+00
     -5.394  0.1369E+00  0.2286E+00
     -5.339  0.1426E+00  0.2363E+00
     -5.285  0.1511E+00  0.2446E+00
     -5.231  0.1619E+00  0.2534E+00
     -5.176  0.1717E+00  0.2627E+00
     -5.122  0.1756E+00  0.2722E+00
     -5.067  0.1751E+00  0.2818E+00
     -5.013  0.1737E+00  0.2912E+00
     -4.959  0.1712E+00  0.3005E+00
     -4.904  0.1688E+00  0.3097E+00
     -4.850  0.1690E+00  0.3189E+00
     -4.796  0.1705E+00  0.3282E+00
     -4.741  0.1706E+00  0.3374E+00
     -4.687  0.1707E+00  0.3467E+00
     -4.632  0.1735E+00  0.3562E+00
     -4.578  0.1763E+00  0.3658E+00
     -4.524  0.1734E+00  0.3752E+00
     -4.469  0.1678E+00  0.3843E+00
     -4.415  0.1670E+00  0.3934E+00
     -4.360  0.1715E+00  0.4027E+00
     -4.306  0.1762E+00  0.4123E+00
     -4.252  0.1769E+00  0.4219E+00
     -4.197  0.1724E+00  0.4313E+00
     -4.143  0.1664E+00  0.4404E+00
     -4.089  0.1647E+00  0.4493E+00
     -4.034  0.1693E+00  0.4585E+00
     -3.980  0.1762E+00  0.4681E+00
     -3.925  0.1816E+00  0.4780E+00
     -3.871  0.1860E+00  0.4881E+00
     -3.817  0.1900E+00  0.4984E+00
     -3.762  0.1913E+00  0.5088E+00
     -3.708  0.1898E+00  0.5191E+00
     -3.653  0.1890E+00  0.5294E+00
     -3.599  0.1935E+00  0.5399E+00
     -3.545  0.2039E+00  0.5510E+00
     -3.490  0.2128E+00  0.5626E+00
     -3.436  0.2138E+00  0.5742E+00
     -3.382  0.2080E+00  0.5856E+00
     -3.327  0.1982E+00  0.5963E+00
     -3.273  0.1891E+00  0.6066E+00
     -3.218  0.1868E+00  0.6168E+00
     -3.164  0.1893E+00  0.6271E+00
     -3.110  0.1917E+00  0.6375E+00
     -3.055  0.1916E+00  0.6479E+00
     -3.001  0.1894E+00  0.6582E+00
     -2.946  0.1878E+00  0.6684E+00
     -2.892  0.1856E+00  0.6785E+00
     -2.838  0.1817E+00  0.6884E+00
     -2.783  0.1808E+00  0.6982E+00
     -2.729  0.1869E+00  0.7084E+00
     -2.675  0.1953E+00  0.7190E+00
     -2.620  0.2003E+00  0.7299E+00
     -2.566  0.2019E+00  0.7409E+00
     -2.511  0.2021E+00  0.7519E+00
     -2.457  0.2005E+00  0.7628E+00
     -2.403  0.1950E+00  0.7734E+00
     -2.348  0.1869E+00  0.7836E+00
     -2.294  0.1802E+00  0.7934E+00
     -2.239  0.1770E+00  0.8030E+00
     -2.185  0.1768E+00  0.8126E+00
     -2.131  0.1804E+00  0.8224E+00
     -2.076  0.1872E+00  0.8326E+00
     -2.022  0.1916E+00  0.8430E+00
     -1.968  0.1925E+00  0.8535E+00
     -1.913  0.1934E+00  0.8640E+00
     -1.859  0.1960E+00  0.8747E+00
     -1.804  0.1994E+00  0.8855E+00
     -1.750  0.2027E+00  0.8965E+00
     -1.696  0.2016E+00  0.9075E+00
     -1.641  0.1940E+00  0.9180E+00
     -1.587  0.1863E+00  0.9282E+00
     -1.532  0.1844E+00  0.9382E+00
     -1.478  0.1869E+00  0.9484E+00
     -1.424  0.1899E+00  0.9587E+00
     -1.369  0.1907E+00  0.9691E+00
     -1.315  0.1857E+00  0.9792E+00
     -1.261  0.1723E+00  0.9885E+00
     -1.206  0.1516E+00  0.9968E+00
     -1.152  0.1259E+00  0.1004E+01
     -1.097  0.1000E+00  0.1009E+01
     -1.043  0.7601E-01  0.1013E+01
     -0.989  0.5227E-01  0.1016E+01
     -0.934  0.3214E-01  0.1018E+01
     -0.880  0.2115E-01  0.1019E+01
     -0.825  0.1861E-01  0.1020E+01
     -0.771  0.2050E-01  0.1021E+01
     -0.717  0.2421E-01  0.1022E+01
     -0.662  0.2962E-01  0.1024E+01
     -0.608  0.3778E-01  0.1026E+01
     -0.554  0.4614E-01  0.1029E+01
     -0.499  0.4859E-01  0.1031E+01
     -0.445  0.4216E-01  0.1033E+01
     -0.390  0.3069E-01  0.1035E+01
     -0.336  0.2422E-01  0.1036E+01
     -0.282  0.3018E-01  0.1038E+01
     -0.227  0.4098E-01  0.1040E+01
     -0.173  0.4339E-01  0.1043E+01
     -0.119  0.3595E-01  0.1045E+01
     -0.064  0.2579E-01  0.1046E+01
     -0.010  0.1855E-01  0.1047E+01
      0.045  0.1644E-01  0.1048E+01
      0.099  0.2069E-01  0.1049E+01
      0.153  0.2824E-01  0.1051E+01
      0.208  0.3284E-01  0.1052E+01
      0.262  0.3473E-01  0.1054E+01
      0.317  0.3697E-01  0.1056E+01
      0.371  0.3917E-01  0.1058E+01
      0.425  0.4063E-01  0.1061E+01
      0.480  0.4246E-01  0.1063E+01
      0.534  0.4573E-01  0.1065E+01
      0.588  0.4893E-01  0.1068E+01
      0.643  0.4834E-01  0.1071E+01
      0.697  0.4351E-01  0.1073E+01
      0.752  0.3791E-01  0.1075E+01
      0.806  0.3083E-01  0.1077E+01
      0.860  0.2334E-01  0.1078E+01
      0.915  0.2222E-01  0.1079E+01
      0.969  0.2672E-01  0.1081E+01
      1.024  0.2894E-01  0.1082E+01
      1.078  0.2589E-01  0.1084E+01
      1.132  0.2140E-01  0.1085E+01
      1.187  0.1856E-01  0.1086E+01
      1.241  0.1597E-01  0.1087E+01
      1.295  0.1191E-01  0.1087E+01
      1.350  0.7154E-02  0.1088E+01
      1.404  0.5465E-02  0.1088E+01
      1.459  0.1229E-01  0.1089E+01
      1.513  0.2827E-01  0.1090E+01
      1.567  0.4136E-01  0.1093E+01
      1.622  0.3926E-01  0.1095E+01
      1.676  0.2956E-01  0.1096E+01
      1.731  0.2616E-01  0.1098E+01
      1.785  0.2931E-01  0.1099E+01
      1.839  0.3206E-01  0.1101E+01
      1.894  0.3172E-01  0.1103E+01
      1.948  0.2997E-01  0.1104E+01
      2.002  0.2889E-01  0.1106E+01
      2.057  0.3107E-01  0.1108E+01
      2.111  0.3650E-01  0.1110E+01
      2.166  0.4213E-01  0.1112E+01
      2.220  0.4547E-01  0.1114E+01
      2.274  0.4376E-01  0.1117E+01
      2.329  0.3692E-01  0.1119E+01
      2.383  0.3065E-01  0.1121E+01
      2.438  0.3030E-01  0.1122E+01
      2.492  0.3527E-01  0.1124E+01
      2.546  0.4150E-01  0.1126E+01
      2.601  0.4543E-01  0.1129E+01
      2.655  0.4739E-01  0.1131E+01
      2.709  0.4631E-01  0.1134E+01
      2.764  0.3791E-01  0.1136E+01
      2.818  0.2457E-01  0.1137E+01
      2.873  0.1475E-01  0.1138E+01
      2.927  0.1200E-01  0.1139E+01
      2.981  0.1130E-01  0.1139E+01
      3.036  0.8349E-02  0.1140E+01
      3.090  0.6662E-02  0.1140E+01
      3.145  0.1072E-01  0.1141E+01
      3.199  0.1869E-01  0.1142E+01
      3.253  0.2452E-01  0.1143E+01
      3.308  0.2416E-01  0.1144E+01
      3.362  0.1975E-01  0.1146E+01
      3.416  0.1872E-01  0.1147E+01
      3.471  0.2496E-01  0.1148E+01
      3.525  0.3373E-01  0.1150E+01
      3.580  0.4105E-01  0.1152E+01
      3.634  0.4626E-01  0.1154E+01
      3.688  0.4479E-01  0.1157E+01
      3.743  0.3552E-01  0.1159E+01
      3.797  0.2649E-01  0.1160E+01
      3.852  0.2315E-01  0.1162E+01
      3.906  0.2245E-01  0.1163E+01
      3.960  0.2224E-01  0.1164E+01
      4.015  0.2434E-01  0.1165E+01
      4.069  0.2632E-01  0.1167E+01
      4.123  0.2509E-01  0.1168E+01
      4.178  0.2334E-01  0.1169E+01
      4.232  0.2164E-01  0.1171E+01
      4.287  0.1750E-01  0.1171E+01
      4.341  0.1470E-01  0.1172E+01
      4.395  0.1920E-01  0.1173E+01
      4.450  0.2734E-01  0.1175E+01
      4.504  0.3336E-01  0.1177E+01
      4.559  0.4062E-01  0.1179E+01
      4.613  0.5025E-01  0.1182E+01
      4.667  0.5530E-01  0.1185E+01
      4.722  0.5265E-01  0.1187E+01
      4.776  0.4696E-01  0.1190E+01
      4.830  0.4502E-01  0.1192E+01
      4.885  0.4910E-01  0.1195E+01
      4.939  0.5512E-01  0.1198E+01
      4.994  0.6041E-01  0.1201E+01
      5.048  0.6574E-01  0.1205E+01
      5.102  0.6933E-01  0.1209E+01
      5.157  0.6950E-01  0.1213E+01
      5.211  0.6655E-01  0.1216E+01
      5.266  0.5832E-01  0.1219E+01
      5.320  0.4371E-01  0.1222E+01
      5.374  0.2631E-01  0.1223E+01
      5.429  0.1175E-01  0.1224E+01
      5.483  0.3593E-02  0.1224E+01
      5.537  0.7055E-03  0.1224E+01
      5.592  0.8537E-04  0.1224E+01
      5.646  0.6192E-05  0.1224E+01
      5.701  0.2640E-06  0.1224E+01
      5.755  0.6525E-08  0.1224E+01
      5.809  0.9248E-10  0.1224E+01
      5.864  0.7458E-12  0.1224E+01
      5.918  0.3401E-14  0.1224E+01
      5.973  0.8166E-17  0.1224E+01
      6.027  0.0000E+00  0.1224E+01
      6.081  0.0000E+00  0.1224E+01
      6.136  0.0000E+00  0.1224E+01
      6.190  0.0000E+00  0.1224E+01
      6.244  0.0000E+00  0.1224E+01
      6.299  0.0000E+00  0.1224E+01
      6.353  0.0000E+00  0.1224E+01
