<?xml version="1.0" encoding="ISO-8859-1"?>
<modeling>
 <generator>
  <i name="program" type="string">vasp </i>
  <i name="version" type="string">5.4.1  </i>
  <i name="subversion" type="string">24Jun15 (build Mar 14 2019 10:18:33) complex                          parallel </i>
  <i name="platform" type="string">INTEL-19.0.2+OPENMPI-3.1.3 </i>
  <i name="date" type="string">2022 07 11 </i>
  <i name="time" type="string">19:57:17 </i>
 </generator>
 <incar>
  <i type="int" name="ISTART">     0</i>
  <i type="string" name="PREC">normal</i>
  <i type="string" name="ALGO"> Fast</i>
  <i type="int" name="NELM">   500</i>
  <i type="int" name="IBRION">     2</i>
  <i type="int" name="NFREE">     2</i>
  <i name="EDIFF">      0.00000100</i>
  <i name="EDIFFG">     -0.02000000</i>
  <i type="int" name="NSW">   500</i>
  <i type="int" name="ISIF">     0</i>
  <i type="int" name="ISYM">     2</i>
  <i name="ENCUT">    400.00000000</i>
  <i name="POTIM">      0.35000000</i>
  <i type="string" name="LREAL"> Auto</i>
  <i type="logical" name="LPLANE"> T  </i>
  <i type="int" name="ISMEAR">     0</i>
  <i name="SIGMA">      0.10000000</i>
  <i type="int" name="NWRITE">     1</i>
  <i type="logical" name="LWAVE"> F  </i>
  <i type="logical" name="LCHARG"> F  </i>
  <i type="logical" name="LVTOT"> F  </i>
  <i type="logical" name="LORBIT"> F  </i>
  <i type="logical" name="LAECHG"> F  </i>
  <v type="int" name="KPOINT_BSE">    -1     0     0     0</v>
  <i type="int" name="NELM">   500</i>
  <i type="string" name="GGA"> PE          ! optPBE-vdW XC-functional</i>
  <i type="int" name="VOSKOWN">     1</i>
  <i type="logical" name="LDIPOL"> T  </i>
  <i type="logical" name="LMONO"> F  </i>
  <i type="int" name="IDIPOL">     3</i>
  <v name="DIPOL">      0.00000000      0.00000000      0.50000000</v>
 </incar>
 <kpoints>
  <generation param="Monkhorst-Pack">
   <v type="int" name="divisions">       2        2        1 </v>
   <v name="usershift">      0.00000000       0.00000000       0.00000000 </v>
   <v name="genvec1">      0.50000000      -0.00000000       0.00000000 </v>
   <v name="genvec2">      0.00000000       0.50000000       0.00000000 </v>
   <v name="genvec3">      0.00000000       0.00000000       1.00000000 </v>
   <v name="shift">      0.50000000       0.50000000       0.00000000 </v>
  </generation>
  <varray name="kpointlist" >
   <v>       0.25000000       0.25000000       0.00000000 </v>
   <v>       0.00000000       0.25000000       0.00000000 </v>
   <v>      -0.25000000       0.00000000       0.00000000 </v>
   <v>      -0.25000000       0.25000000       0.00000000 </v>
   <v>       0.50000000      -0.25000000       0.00000000 </v>
   <v>      -0.25000000       0.50000000       0.00000000 </v>
  </varray>
  <varray name="weights" >
   <v>       0.16666667 </v>
   <v>       0.16666667 </v>
   <v>       0.16666667 </v>
   <v>       0.16666667 </v>
   <v>       0.16666667 </v>
   <v>       0.16666667 </v>
  </varray>
 </kpoints>
 <parameters>
  <separator name="general" >
   <i type="string" name="SYSTEM">unknown system</i>
   <i type="logical" name="LCOMPAT"> F  </i>
  </separator>
  <separator name="electronic" >
   <i type="string" name="PREC">normal</i>
   <i name="ENMAX">    400.00000000</i>
   <i name="ENAUG">    416.23000000</i>
   <i name="EDIFF">      0.00000100</i>
   <i type="int" name="IALGO">    68</i>
   <i type="int" name="IWAVPR">    11</i>
   <i type="int" name="NBANDS">   306</i>
   <i name="NELECT">    504.00000000</i>
   <i type="int" name="TURBO">     0</i>
   <i type="int" name="IRESTART">     0</i>
   <i type="int" name="NREBOOT">     0</i>
   <i type="int" name="NMIN">     0</i>
   <i name="EREF">      0.00000000</i>
   <separator name="electronic smearing" >
    <i type="int" name="ISMEAR">     0</i>
    <i name="SIGMA">      0.10000000</i>
    <i name="KSPACING">      0.50000000</i>
    <i type="logical" name="KGAMMA"> T  </i>
   </separator>
   <separator name="electronic projectors" >
    <i type="logical" name="LREAL"> T  </i>
    <v name="ROPT">     -0.00050000     -0.00050000</v>
    <i type="int" name="LMAXPAW">  -100</i>
    <i type="int" name="LMAXMIX">     2</i>
    <i type="logical" name="NLSPLINE"> F  </i>
   </separator>
   <separator name="electronic startup" >
    <i type="int" name="ISTART">     0</i>
    <i type="int" name="ICHARG">     2</i>
    <i type="int" name="INIWAV">     1</i>
   </separator>
   <separator name="electronic spin" >
    <i type="int" name="ISPIN">     1</i>
    <i type="logical" name="LNONCOLLINEAR"> F  </i>
    <v name="MAGMOM">      1.00000000      1.00000000      1.00000000      1.00000000      1.00000000      1.00000000      1.00000000      1.00000000      1.00000000      1.00000000      1.00000000      1.00000000      1.00000000      1.00000000      1.00000000      1.00000000      1.00000000      1.00000000      1.00000000      1.00000000
      1.00000000      1.00000000      1.00000000      1.00000000      1.00000000      1.00000000      1.00000000      1.00000000      1.00000000      1.00000000      1.00000000      1.00000000      1.00000000      1.00000000      1.00000000      1.00000000      1.00000000      1.00000000      1.00000000      1.00000000
      1.00000000      1.00000000      1.00000000      1.00000000      1.00000000      1.00000000      1.00000000      1.00000000</v>
    <i name="NUPDOWN">     -1.00000000</i>
    <i type="logical" name="LSORBIT"> F  </i>
    <v name="SAXIS">      0.00000000      0.00000000      1.00000000</v>
    <i type="logical" name="LSPIRAL"> F  </i>
    <v name="QSPIRAL">      0.00000000      0.00000000      0.00000000</v>
    <i type="logical" name="LZEROZ"> F  </i>
   </separator>
   <separator name="electronic exchange-correlation" >
    <i type="logical" name="LASPH"> F  </i>
    <i type="logical" name="LMETAGGA"> F  </i>
   </separator>
   <separator name="electronic convergence" >
    <i type="int" name="NELM">   500</i>
    <i type="int" name="NELMDL">    -5</i>
    <i type="int" name="NELMIN">     2</i>
    <i name="ENINI">    400.00000000</i>
    <separator name="electronic convergence detail" >
     <i type="logical" name="LDIAG"> T  </i>
     <i type="logical" name="LSUBROT"> F  </i>
     <i name="WEIMIN">      0.00100000</i>
     <i name="EBREAK">      0.00000000</i>
     <i name="DEPER">      0.30000000</i>
     <i type="int" name="NRMM">     4</i>
     <i name="TIME">      0.40000000</i>
    </separator>
   </separator>
   <separator name="electronic mixer" >
    <i name="AMIX">      0.40000000</i>
    <i name="BMIX">      1.00000000</i>
    <i name="AMIN">      0.10000000</i>
    <i name="AMIX_MAG">      1.60000000</i>
    <i name="BMIX_MAG">      1.00000000</i>
    <separator name="electronic mixer details" >
     <i type="int" name="IMIX">     4</i>
     <i type="logical" name="MIXFIRST"> F  </i>
     <i type="int" name="MAXMIX">   -45</i>
     <i name="WC">    100.00000000</i>
     <i type="int" name="INIMIX">     1</i>
     <i type="int" name="MIXPRE">     1</i>
     <i type="int" name="MREMOVE">     5</i>
    </separator>
   </separator>
   <separator name="electronic dipolcorrection" >
    <i type="logical" name="LDIPOL"> T  </i>
    <i type="logical" name="LMONO"> F  </i>
    <i type="int" name="IDIPOL">     3</i>
    <i name="EPSILON">      1.00000000</i>
    <v name="DIPOL">      0.00000000      0.00000000      0.50000000</v>
    <i name="EFIELD">      0.00000000</i>
   </separator>
  </separator>
  <separator name="grids" >
   <i type="int" name="NGX">    54</i>
   <i type="int" name="NGY">    54</i>
   <i type="int" name="NGZ">   120</i>
   <i type="int" name="NGXF">   108</i>
   <i type="int" name="NGYF">   108</i>
   <i type="int" name="NGZF">   240</i>
   <i type="logical" name="ADDGRID"> F  </i>
  </separator>
  <separator name="ionic" >
   <i type="int" name="NSW">   500</i>
   <i type="int" name="IBRION">     2</i>
   <i type="int" name="ISIF">     0</i>
   <i name="PSTRESS">      0.00000000</i>
   <i name="EDIFFG">     -0.02000000</i>
   <i type="int" name="NFREE">     2</i>
   <i name="POTIM">      0.35000000</i>
   <i name="SMASS">     -3.00000000</i>
   <i name="SCALEE">      1.00000000</i>
  </separator>
  <separator name="ionic md" >
   <i name="TEBEG">      0.00010000</i>
   <i name="TEEND">      0.00010000</i>
   <i type="int" name="NBLOCK">     1</i>
   <i type="int" name="KBLOCK">   500</i>
   <i type="int" name="NPACO">   256</i>
   <i name="APACO">     16.00000000</i>
  </separator>
  <separator name="symmetry" >
   <i type="int" name="ISYM">     2</i>
   <i name="SYMPREC">      0.00001000</i>
  </separator>
  <separator name="dos" >
   <i type="logical" name="LORBIT"> F  </i>
   <v name="RWIGS">     -1.00000000     -1.00000000</v>
   <i type="int" name="NEDOS">   301</i>
   <i name="EMIN">     10.00000000</i>
   <i name="EMAX">    -10.00000000</i>
   <i name="EFERMI">      0.00000000</i>
  </separator>
  <separator name="writing" >
   <i type="int" name="NWRITE">     1</i>
   <i type="logical" name="LWAVE"> F  </i>
   <i type="logical" name="LCHARG"> F  </i>
   <i type="logical" name="LPARD"> F  </i>
   <i type="logical" name="LVTOT"> F  </i>
   <i type="logical" name="LVHAR"> F  </i>
   <i type="logical" name="LELF"> F  </i>
   <i type="logical" name="LOPTICS"> F  </i>
   <v name="STM">      0.00000000      0.00000000      0.00000000      0.00000000      0.00000000      0.00000000      0.00000000</v>
  </separator>
  <separator name="performance" >
   <i type="int" name="NPAR">     6</i>
   <i type="int" name="NSIM">     4</i>
   <i type="int" name="NBLK">    -1</i>
   <i type="logical" name="LPLANE"> T  </i>
   <i type="logical" name="LSCALAPACK"> T  </i>
   <i type="logical" name="LSCAAWARE"> F  </i>
   <i type="logical" name="LSCALU"> F  </i>
   <i type="logical" name="LASYNC"> F  </i>
   <i type="logical" name="LORBITALREAL"> F  </i>
  </separator>
  <separator name="miscellaneous" >
   <i type="int" name="IDIOT">     3</i>
   <i type="logical" name="LMUSIC"> F  </i>
   <v name="POMASS">    196.96600000    106.42000000</v>
   <v name="DARWINR">      0.00000000      0.00000000</v>
   <v name="DARWINV">      1.00000000      1.00000000</v>
   <i type="logical" name="LCORR"> T  </i>
  </separator>
  <i type="logical" name="GGA_COMPAT"> T  </i>
  <i type="logical" name="LBERRY"> F  </i>
  <i type="int" name="ICORELEVEL">     0</i>
  <i type="logical" name="LDAU"> F  </i>
  <i type="int" name="I_CONSTRAINED_M">     0</i>
  <separator name="electronic exchange-correlation" >
   <i type="string" name="GGA">PE</i>
   <i type="int" name="VOSKOWN">     1</i>
   <i type="logical" name="LHFCALC"> F  </i>
   <i type="string" name="PRECFOCK"></i>
   <i type="logical" name="LSYMGRAD"> F  </i>
   <i type="logical" name="LHFONE"> F  </i>
   <i type="logical" name="LRHFCALC"> F  </i>
   <i type="logical" name="LTHOMAS"> F  </i>
   <i type="logical" name="LMODELHF"> F  </i>
   <i name="ENCUT4O">     -1.00000000</i>
   <i type="int" name="EXXOEP">     0</i>
   <i type="int" name="FOURORBIT">     0</i>
   <i name="AEXX">      0.00000000</i>
   <i name="HFALPHA">      0.00000000</i>
   <i name="MCALPHA">      0.00000000</i>
   <i name="ALDAX">      1.00000000</i>
   <i name="AGGAX">      1.00000000</i>
   <i name="ALDAC">      1.00000000</i>
   <i name="AGGAC">      1.00000000</i>
   <i type="int" name="NKREDX">     1</i>
   <i type="int" name="NKREDY">     1</i>
   <i type="int" name="NKREDZ">     1</i>
   <i type="logical" name="SHIFTRED"> F  </i>
   <i type="logical" name="ODDONLY"> F  </i>
   <i type="logical" name="EVENONLY"> F  </i>
   <i type="int" name="LMAXFOCK">     0</i>
   <i type="int" name="NMAXFOCKAE">     0</i>
   <i type="logical" name="LFOCKAEDFT"> F  </i>
   <i name="HFSCREEN">      0.00000000</i>
   <i name="HFSCREENC">      0.00000000</i>
   <i type="int" name="NBANDSGWLOW">     0</i>
  </separator>
  <separator name="vdW DFT" >
   <i type="logical" name="LUSE_VDW"> F  </i>
   <i name="Zab_VDW">     -0.84910000</i>
   <i name="PARAM1">      0.12340000</i>
   <i name="PARAM2">      1.00000000</i>
   <i name="PARAM3">      0.00000000</i>
  </separator>
  <separator name="model GW" >
   <i type="int" name="MODEL_GW">     0</i>
   <i name="MODEL_EPS0">     32.09595293</i>
   <i name="MODEL_ALPHA">      1.00000000</i>
  </separator>
  <separator name="linear response parameters" >
   <i type="logical" name="LEPSILON"> F  </i>
   <i type="logical" name="LRPA"> F  </i>
   <i type="logical" name="LNABLA"> F  </i>
   <i type="logical" name="LVEL"> F  </i>
   <i type="int" name="KINTER">     0</i>
   <i name="CSHIFT">      0.10000000</i>
   <i name="OMEGAMAX">     -1.00000000</i>
   <i name="DEG_THRESHOLD">      0.00200000</i>
  </separator>
  <separator name="orbital magnetization" >
   <i type="logical" name="NUCIND"> F  </i>
   <v name="MAGPOS">      0.00000000      0.00000000      0.00000000</v>
   <i type="logical" name="LNICSALL"> T  </i>
   <i type="logical" name="ORBITALMAG"> F  </i>
   <i type="logical" name="LMAGBLOCH"> F  </i>
   <i type="logical" name="LCHIMAG"> F  </i>
   <i type="logical" name="LGAUGE"> T  </i>
   <i type="int" name="MAGATOM">     0</i>
   <v name="MAGDIPOL">      0.00000000      0.00000000      0.00000000</v>
   <v name="AVECCONST">      0.00000000      0.00000000      0.00000000</v>
  </separator>
  <separator name="response functions" >
   <i type="logical" name="LADDER"> F  </i>
   <i type="logical" name="LFXC"> F  </i>
   <i type="logical" name="LHARTREE"> T  </i>
   <i type="int" name="IBSE">     0</i>
   <v type="int" name="KPOINT">    -1     0     0     0</v>
   <i type="logical" name="LTCTE"> F  </i>
   <i type="logical" name="LTETE"> F  </i>
   <i type="logical" name="LTRIPLET"> F  </i>
   <i type="logical" name="LFXCEPS"> F  </i>
   <i type="logical" name="LFXHEG"> F  </i>
   <i type="int" name="NATURALO">     0</i>
   <i type="logical" name="L2ORDER"> F  </i>
   <i type="logical" name="LUSEW"> F  </i>
   <i name="ENCUTGW">     -2.00000000</i>
   <i name="ENCUTGWSOFT">     -2.00000000</i>
   <i name="ENCUTLF">     -1.00000000</i>
   <i type="int" name="LMAXMP2">    -1</i>
   <i name="SCISSOR">      0.00000000</i>
   <i type="int" name="NOMEGA">     0</i>
   <i type="int" name="NOMEGAR">     0</i>
   <i type="int" name="NBANDSGW">    -1</i>
   <i type="int" name="NBANDSO">    -1</i>
   <i type="int" name="NBANDSV">    -1</i>
   <i type="int" name="NELM">   500</i>
   <i type="int" name="NELMHF">     1</i>
   <i type="int" name="DIM">     3</i>
   <i type="int" name="ANTIRES">     0</i>
   <i name="OMEGAMAX">    -30.00000000</i>
   <i name="OMEGAMIN">    -30.00000000</i>
   <i name="OMEGATL">   -200.00000000</i>
   <i type="int" name="OMEGAGRID">     0</i>
   <i name="CSHIFT">     -0.10000000</i>
   <i type="logical" name="SELFENERGY"> F  </i>
   <i type="logical" name="LSPECTRAL"> F  </i>
   <i type="logical" name="LSPECTRALGW"> F  </i>
   <i type="logical" name="LSINGLES"> F  </i>
   <i type="logical" name="LFERMIGW"> F  </i>
   <i type="logical" name="ODDONLYGW"> F  </i>
   <i type="logical" name="EVENONLYGW"> F  </i>
   <i type="int" name="NKREDLFX">     1</i>
   <i type="int" name="NKREDLFY">     1</i>
   <i type="int" name="NKREDLFZ">     1</i>
   <i type="int" name="MAXMEM">  1800</i>
   <i type="int" name="TELESCOPE">     0</i>
   <i type="int" name="TAUPAR">     1</i>
   <i type="int" name="OMEGAPAR">    -1</i>
   <i name="LAMBDA">      1.00000000</i>
  </separator>
  <separator name="External order field" >
   <i name="OFIELD_KAPPA">      0.00000000</i>
   <v name="OFIELD_K">      0.00000000      0.00000000      0.00000000</v>
   <i name="OFIELD_Q6_NEAR">      0.00000000</i>
   <i name="OFIELD_Q6_FAR">      0.00000000</i>
   <i name="OFIELD_A">      0.00000000</i>
  </separator>
 </parameters>
 <atominfo>
  <atoms>      48 </atoms>
  <types>       2 </types>
  <array name="atoms" >
   <dimension dim="1">ion</dimension>
   <field type="string">element</field>
   <field type="int">atomtype</field>
   <set>
    <rc><c>Au</c><c>   1</c></rc>
    <rc><c>Au</c><c>   1</c></rc>
    <rc><c>Au</c><c>   1</c></rc>
    <rc><c>Au</c><c>   1</c></rc>
    <rc><c>Au</c><c>   1</c></rc>
    <rc><c>Au</c><c>   1</c></rc>
    <rc><c>Au</c><c>   1</c></rc>
    <rc><c>Au</c><c>   1</c></rc>
    <rc><c>Au</c><c>   1</c></rc>
    <rc><c>Au</c><c>   1</c></rc>
    <rc><c>Au</c><c>   1</c></rc>
    <rc><c>Au</c><c>   1</c></rc>
    <rc><c>Au</c><c>   1</c></rc>
    <rc><c>Au</c><c>   1</c></rc>
    <rc><c>Au</c><c>   1</c></rc>
    <rc><c>Au</c><c>   1</c></rc>
    <rc><c>Au</c><c>   1</c></rc>
    <rc><c>Au</c><c>   1</c></rc>
    <rc><c>Au</c><c>   1</c></rc>
    <rc><c>Au</c><c>   1</c></rc>
    <rc><c>Au</c><c>   1</c></rc>
    <rc><c>Au</c><c>   1</c></rc>
    <rc><c>Au</c><c>   1</c></rc>
    <rc><c>Au</c><c>   1</c></rc>
    <rc><c>Pd</c><c>   2</c></rc>
    <rc><c>Pd</c><c>   2</c></rc>
    <rc><c>Pd</c><c>   2</c></rc>
    <rc><c>Pd</c><c>   2</c></rc>
    <rc><c>Pd</c><c>   2</c></rc>
    <rc><c>Pd</c><c>   2</c></rc>
    <rc><c>Pd</c><c>   2</c></rc>
    <rc><c>Pd</c><c>   2</c></rc>
    <rc><c>Pd</c><c>   2</c></rc>
    <rc><c>Pd</c><c>   2</c></rc>
    <rc><c>Pd</c><c>   2</c></rc>
    <rc><c>Pd</c><c>   2</c></rc>
    <rc><c>Pd</c><c>   2</c></rc>
    <rc><c>Pd</c><c>   2</c></rc>
    <rc><c>Pd</c><c>   2</c></rc>
    <rc><c>Pd</c><c>   2</c></rc>
    <rc><c>Pd</c><c>   2</c></rc>
    <rc><c>Pd</c><c>   2</c></rc>
    <rc><c>Pd</c><c>   2</c></rc>
    <rc><c>Pd</c><c>   2</c></rc>
    <rc><c>Pd</c><c>   2</c></rc>
    <rc><c>Pd</c><c>   2</c></rc>
    <rc><c>Pd</c><c>   2</c></rc>
    <rc><c>Pd</c><c>   2</c></rc>
   </set>
  </array>
  <array name="atomtypes" >
   <dimension dim="1">type</dimension>
   <field type="int">atomspertype</field>
   <field type="string">element</field>
   <field>mass</field>
   <field>valence</field>
   <field type="string">pseudopotential</field>
   <set>
    <rc><c>  24</c><c>Au</c><c>    196.96600000</c><c>     11.00000000</c><c>  PAW_PBE Au 04Oct2007                  </c></rc>
    <rc><c>  24</c><c>Pd</c><c>    106.42000000</c><c>     10.00000000</c><c>  PAW_PBE Pd 04Jan2005                  </c></rc>
   </set>
  </array>
 </atominfo>
 <structure name="initialpos" >
  <crystal>
   <varray name="basis" >
    <v>      11.00258152       0.00000000       0.00000000 </v>
    <v>       5.50129076       9.52851510       0.00000000 </v>
    <v>       0.00000000       0.00000000      24.49178509 </v>
   </varray>
   <i name="volume">   2567.67623402 </i>
   <varray name="rec_basis" >
    <v>       0.09088776      -0.05247407       0.00000000 </v>
    <v>       0.00000000       0.10494815       0.00000000 </v>
    <v>       0.00000000       0.00000000       0.04083002 </v>
   </varray>
  </crystal>
  <varray name="positions" >
   <v>       0.08333333       0.08333333       0.40830017 </v>
   <v>       0.66666667       0.66666667       0.50000000 </v>
   <v>       0.75000000       0.25000000       0.59169983 </v>
   <v>       0.66666667       0.41666667       0.50000000 </v>
   <v>       0.83333333       0.33333333       0.40830017 </v>
   <v>       0.41666667       0.91666667       0.50000000 </v>
   <v>       0.58333333       0.83333333       0.40830017 </v>
   <v>       0.58333333       0.58333333       0.40830017 </v>
   <v>       0.41666667       0.16666667       0.50000000 </v>
   <v>       0.58333333       0.08333333       0.40830017 </v>
   <v>       0.16666667       0.91666667       0.50000000 </v>
   <v>       0.25000000       0.50000000       0.59169983 </v>
   <v>       0.16666667       0.66666667       0.50000000 </v>
   <v>       0.33333333       0.58333333       0.40830017 </v>
   <v>       0.25000000       0.25000000       0.59169983 </v>
   <v>       0.16666667       0.41666667       0.50000000 </v>
   <v>       0.25000000       0.75000000       0.59169983 </v>
   <v>       0.00000000       0.50000000       0.59169983 </v>
   <v>       0.91666667       0.66666667       0.50000000 </v>
   <v>       0.91666667       0.41666667       0.50000000 </v>
   <v>       0.08333333       0.33333333       0.40830017 </v>
   <v>       0.08333333       0.83333333       0.40830017 </v>
   <v>       0.00000000       0.25000000       0.59169983 </v>
   <v>       0.16666667       0.16666667       0.50000000 </v>
   <v>       0.00000000       0.00000000       0.59169983 </v>
   <v>       0.91666667       0.16666667       0.50000000 </v>
   <v>       0.50000000       0.75000000       0.59169983 </v>
   <v>       0.75000000       0.50000000       0.59169983 </v>
   <v>       0.83333333       0.83333333       0.40830017 </v>
   <v>       0.75000000       0.00000000       0.59169983 </v>
   <v>       0.66666667       0.16666667       0.50000000 </v>
   <v>       0.83333333       0.08333333       0.40830017 </v>
   <v>       0.83333333       0.58333333       0.40830017 </v>
   <v>       0.25000000       0.00000000       0.59169983 </v>
   <v>       0.50000000       0.50000000       0.59169983 </v>
   <v>       0.33333333       0.33333333       0.40830017 </v>
   <v>       0.41666667       0.66666667       0.50000000 </v>
   <v>       0.50000000       0.25000000       0.59169983 </v>
   <v>       0.41666667       0.41666667       0.50000000 </v>
   <v>       0.58333333       0.33333333       0.40830017 </v>
   <v>       0.50000000       0.00000000       0.59169983 </v>
   <v>       0.66666667       0.91666667       0.50000000 </v>
   <v>       0.91666667       0.91666667       0.50000000 </v>
   <v>       0.33333333       0.83333333       0.40830017 </v>
   <v>       0.00000000       0.75000000       0.59169983 </v>
   <v>       0.33333333       0.08333333       0.40830017 </v>
   <v>       0.08333333       0.58333333       0.40830017 </v>
   <v>       0.75000000       0.75000000       0.59169983 </v>
  </varray>
 </structure>
 <calculation>
  <scstep>
   <time name="dav">   10.13   10.23</time>
   <time name="total">   10.20   10.30</time>
   <dipole>
    <v name="dipole">      0.00000000       0.00000000       0.00000148 </v>
    <i name="Tr[quadrupol]"> -10257.14597423 </i>
    <i name="Echarged">      0.00000000 </i>
    <i name="Edipol_quadrupol">      0.00000000 </i>
    <i name="Eion">      0.00000000 </i>
   </dipole>
   <energy>
    <i name="alphaZ">    805.86936475 </i>
    <i name="ewald"> 200642.13408883 </i>
    <i name="hartreedc">-243058.62391431 </i>
    <i name="XCdc">   -327.49680200 </i>
    <i name="pawpsdc">  40340.05962942 </i>
    <i name="pawaedc"> -38292.62782345 </i>
    <i name="eentropy">     -0.12774860 </i>
    <i name="bandstr">   1432.35249994 </i>
    <i name="atom">  41659.78587232 </i>
    <i name="e_fr_energy">   3201.32516691 </i>
    <i name="e_wo_entrp">   3201.45291550 </i>
    <i name="e_0_energy">   3201.38904120 </i>
   </energy>
  </scstep>
  <scstep>
   <time name="dav">   11.31   11.31</time>
   <time name="total">   11.31   11.32</time>
   <dipole>
    <v name="dipole">      0.00000000       0.00000000       0.00000148 </v>
    <i name="Tr[quadrupol]"> -10257.14597423 </i>
    <i name="Echarged">      0.00000000 </i>
    <i name="Edipol_quadrupol">      0.00000000 </i>
    <i name="Eion">      0.00000000 </i>
   </dipole>
   <energy>
    <i name="e_fr_energy">     15.54608471 </i>
    <i name="e_wo_entrp">     15.68194874 </i>
    <i name="e_0_energy">     15.61401673 </i>
   </energy>
  </scstep>
  <scstep>
   <time name="dav">   10.96   10.97</time>
   <time name="total">   10.96   10.97</time>
   <dipole>
    <v name="dipole">      0.00000000       0.00000000       0.00000148 </v>
    <i name="Tr[quadrupol]"> -10257.14597423 </i>
    <i name="Echarged">      0.00000000 </i>
    <i name="Edipol_quadrupol">      0.00000000 </i>
    <i name="Eion">      0.00000000 </i>
   </dipole>
   <energy>
    <i name="e_fr_energy">   -199.84736849 </i>
    <i name="e_wo_entrp">   -199.63816976 </i>
    <i name="e_0_energy">   -199.74276912 </i>
   </energy>
  </scstep>
  <scstep>
   <time name="dav">   11.30   11.37</time>
   <time name="total">   11.30   11.37</time>
   <dipole>
    <v name="dipole">      0.00000000       0.00000000       0.00000148 </v>
    <i name="Tr[quadrupol]"> -10257.14597423 </i>
    <i name="Echarged">      0.00000000 </i>
    <i name="Edipol_quadrupol">      0.00000000 </i>
    <i name="Eion">      0.00000000 </i>
   </dipole>
   <energy>
    <i name="e_fr_energy">   -205.59971324 </i>
    <i name="e_wo_entrp">   -205.37606775 </i>
    <i name="e_0_energy">   -205.48789050 </i>
   </energy>
  </scstep>
  <scstep>
   <time name="dav">   11.55   11.56</time>
   <time name="total">   11.86   11.88</time>
   <dipole>
    <v name="dipole">      0.00000000       0.00000000       0.00000148 </v>
    <i name="Tr[quadrupol]"> -10257.14597423 </i>
    <i name="Echarged">      0.00000000 </i>
    <i name="Edipol_quadrupol">      0.00000000 </i>
    <i name="Eion">      0.00000000 </i>
   </dipole>
   <energy>
    <i name="e_fr_energy">   -205.78225896 </i>
    <i name="e_wo_entrp">   -205.55873484 </i>
    <i name="e_0_energy">   -205.67049690 </i>
   </energy>
  </scstep>
  <scstep>
   <time name="diag">    1.70    1.70</time>
   <time name="diis">    4.51    4.51</time>
   <time name="orth">    0.43    0.43</time>
   <time name="total">    7.00    7.01</time>
   <dipole>
    <v name="dipole">      0.00000000       0.00000000       0.66652291 </v>
    <i name="Tr[quadrupol]"> -10257.11636463 </i>
    <i name="Echarged">      0.00000000 </i>
    <i name="Edipol_quadrupol">      0.00000000 </i>
    <i name="Eion">      0.00000000 </i>
   </dipole>
   <energy>
    <i name="e_fr_energy">   -202.60854997 </i>
    <i name="e_wo_entrp">   -202.39032188 </i>
    <i name="e_0_energy">   -202.49943593 </i>
   </energy>
  </scstep>
  <scstep>
   <time name="diag">    1.71    1.72</time>
   <time name="diis">    5.06    5.08</time>
   <time name="orth">    0.43    0.43</time>
   <time name="total">    7.56    7.59</time>
   <dipole>
    <v name="dipole">      0.00000000       0.00000000      -1.30347680 </v>
    <i name="Tr[quadrupol]"> -10257.00512561 </i>
    <i name="Echarged">      0.00000000 </i>
    <i name="Edipol_quadrupol">      0.00000000 </i>
    <i name="Eion">      0.00000000 </i>
   </dipole>
   <energy>
    <i name="e_fr_energy">   -213.57011335 </i>
    <i name="e_wo_entrp">   -213.36097179 </i>
    <i name="e_0_energy">   -213.46554257 </i>
   </energy>
  </scstep>
  <scstep>
   <time name="diag">    1.69    1.69</time>
   <time name="diis">    4.57    4.57</time>
   <time name="orth">    0.43    0.43</time>
   <time name="total">    7.06    7.06</time>
   <dipole>
    <v name="dipole">      0.00000000       0.00000000       1.86320357 </v>
    <i name="Tr[quadrupol]"> -10258.27481591 </i>
    <i name="Echarged">      0.00000000 </i>
    <i name="Edipol_quadrupol">      0.00000000 </i>
    <i name="Eion">      0.00000000 </i>
   </dipole>
   <energy>
    <i name="e_fr_energy">   -224.66951361 </i>
    <i name="e_wo_entrp">   -224.40487651 </i>
    <i name="e_0_energy">   -224.53719506 </i>
   </energy>
  </scstep>
  <scstep>
   <time name="diag">    1.70    1.70</time>
   <time name="diis">    4.53    4.54</time>
   <time name="orth">    0.41    0.44</time>
   <time name="total">    7.00    7.06</time>
   <dipole>
    <v name="dipole">      0.00000000       0.00000000      -0.50949977 </v>
    <i name="Tr[quadrupol]"> -10259.25818931 </i>
    <i name="Echarged">      0.00000000 </i>
    <i name="Edipol_quadrupol">      0.00000000 </i>
    <i name="Eion">      0.00000000 </i>
   </dipole>
   <energy>
    <i name="e_fr_energy">   -213.28454405 </i>
    <i name="e_wo_entrp">   -213.07577336 </i>
    <i name="e_0_energy">   -213.18015871 </i>
   </energy>
  </scstep>
  <scstep>
   <time name="diag">    1.70    1.71</time>
   <time name="diis">    4.51    4.51</time>
   <time name="orth">    0.42    0.42</time>
   <time name="total">    6.99    7.01</time>
   <dipole>
    <v name="dipole">      0.00000000       0.00000000       0.27894268 </v>
    <i name="Tr[quadrupol]"> -10257.73026557 </i>
    <i name="Echarged">      0.00000000 </i>
    <i name="Edipol_quadrupol">      0.00000000 </i>
    <i name="Eion">      0.00000000 </i>
   </dipole>
   <energy>
    <i name="e_fr_energy">   -198.66472476 </i>
    <i name="e_wo_entrp">   -198.52699642 </i>
    <i name="e_0_energy">   -198.59586059 </i>
   </energy>
  </scstep>
  <scstep>
   <time name="diag">    1.70    1.70</time>
   <time name="diis">    4.51    4.52</time>
   <time name="orth">    0.42    0.42</time>
   <time name="total">    6.99    7.00</time>
   <dipole>
    <v name="dipole">      0.00000000       0.00000000      -0.03590331 </v>
    <i name="Tr[quadrupol]"> -10258.97777088 </i>
    <i name="Echarged">      0.00000000 </i>
    <i name="Edipol_quadrupol">      0.00000000 </i>
    <i name="Eion">      0.00000000 </i>
   </dipole>
   <energy>
    <i name="e_fr_energy">   -190.77818611 </i>
    <i name="e_wo_entrp">   -190.54152126 </i>
    <i name="e_0_energy">   -190.65985369 </i>
   </energy>
  </scstep>
  <scstep>
   <time name="diag">    1.68    1.68</time>
   <time name="diis">    4.58    4.58</time>
   <time name="orth">    0.42    0.42</time>
   <time name="total">    7.04    7.05</time>
   <dipole>
    <v name="dipole">      0.00000000       0.00000000       0.06686344 </v>
    <i name="Tr[quadrupol]"> -10259.13634615 </i>
    <i name="Echarged">      0.00000000 </i>
    <i name="Edipol_quadrupol">      0.00000000 </i>
    <i name="Eion">      0.00000000 </i>
   </dipole>
   <energy>
    <i name="e_fr_energy">   -188.73907837 </i>
    <i name="e_wo_entrp">   -188.52915517 </i>
    <i name="e_0_energy">   -188.63411677 </i>
   </energy>
  </scstep>
  <scstep>
   <time name="diag">    1.69    1.69</time>
   <time name="diis">    4.45    4.47</time>
   <time name="orth">    0.42    0.42</time>
   <time name="total">    6.92    6.94</time>
   <dipole>
    <v name="dipole">      0.00000000       0.00000000       0.05188501 </v>
    <i name="Tr[quadrupol]"> -10259.40147664 </i>
    <i name="Echarged">      0.00000000 </i>
    <i name="Edipol_quadrupol">      0.00000000 </i>
    <i name="Eion">      0.00000000 </i>
   </dipole>
   <energy>
    <i name="e_fr_energy">   -188.14548770 </i>
    <i name="e_wo_entrp">   -187.91304646 </i>
    <i name="e_0_energy">   -188.02926708 </i>
   </energy>
  </scstep>
  <scstep>
   <time name="diag">    1.69    1.69</time>
   <time name="diis">    4.52    4.52</time>
   <time name="orth">    0.42    0.42</time>
   <time name="total">    6.99    6.99</time>
   <dipole>
    <v name="dipole">      0.00000000       0.00000000       0.06832367 </v>
    <i name="Tr[quadrupol]"> -10259.66117172 </i>
    <i name="Echarged">      0.00000000 </i>
    <i name="Edipol_quadrupol">      0.00000000 </i>
    <i name="Eion">      0.00000000 </i>
   </dipole>
   <energy>
    <i name="e_fr_energy">   -188.31281407 </i>
    <i name="e_wo_entrp">   -188.07560216 </i>
    <i name="e_0_energy">   -188.19420812 </i>
   </energy>
  </scstep>
  <scstep>
   <time name="diag">    1.70    1.70</time>
   <time name="diis">    4.43    4.50</time>
   <time name="orth">    0.42    0.42</time>
   <time name="total">    6.91    6.98</time>
   <dipole>
    <v name="dipole">      0.00000000       0.00000000       0.08269109 </v>
    <i name="Tr[quadrupol]"> -10260.02586742 </i>
    <i name="Echarged">      0.00000000 </i>
    <i name="Edipol_quadrupol">      0.00000000 </i>
    <i name="Eion">      0.00000000 </i>
   </dipole>
   <energy>
    <i name="e_fr_energy">   -188.36098550 </i>
    <i name="e_wo_entrp">   -188.12472902 </i>
    <i name="e_0_energy">   -188.24285726 </i>
   </energy>
  </scstep>
  <scstep>
   <time name="diag">    1.95    1.97</time>
   <time name="diis">    4.64    4.66</time>
   <time name="orth">    0.42    0.42</time>
   <time name="total">    7.39    7.42</time>
   <dipole>
    <v name="dipole">      0.00000000       0.00000000       0.05855853 </v>
    <i name="Tr[quadrupol]"> -10260.32171807 </i>
    <i name="Echarged">      0.00000000 </i>
    <i name="Edipol_quadrupol">      0.00000000 </i>
    <i name="Eion">      0.00000000 </i>
   </dipole>
   <energy>
    <i name="e_fr_energy">   -188.08256917 </i>
    <i name="e_wo_entrp">   -187.83891614 </i>
    <i name="e_0_energy">   -187.96074265 </i>
   </energy>
  </scstep>
  <scstep>
   <time name="diag">    1.69    1.69</time>
   <time name="diis">    4.57    4.57</time>
   <time name="orth">    0.41    0.42</time>
   <time name="total">    7.03    7.05</time>
   <dipole>
    <v name="dipole">      0.00000000       0.00000000       0.04122323 </v>
    <i name="Tr[quadrupol]"> -10260.54031969 </i>
    <i name="Echarged">      0.00000000 </i>
    <i name="Edipol_quadrupol">      0.00000000 </i>
    <i name="Eion">      0.00000000 </i>
   </dipole>
   <energy>
    <i name="e_fr_energy">   -187.88919766 </i>
    <i name="e_wo_entrp">   -187.64287058 </i>
    <i name="e_0_energy">   -187.76603412 </i>
   </energy>
  </scstep>
  <scstep>
   <time name="diag">    1.68    1.69</time>
   <time name="diis">    4.58    4.58</time>
   <time name="orth">    0.41    0.41</time>
   <time name="total">    7.04    7.05</time>
   <dipole>
    <v name="dipole">      0.00000000       0.00000000       0.04349966 </v>
    <i name="Tr[quadrupol]"> -10260.87050167 </i>
    <i name="Echarged">      0.00000000 </i>
    <i name="Edipol_quadrupol">      0.00000000 </i>
    <i name="Eion">      0.00000000 </i>
   </dipole>
   <energy>
    <i name="e_fr_energy">   -187.79197329 </i>
    <i name="e_wo_entrp">   -187.54174773 </i>
    <i name="e_0_energy">   -187.66686051 </i>
   </energy>
  </scstep>
  <scstep>
   <time name="diag">    1.71    1.71</time>
   <time name="diis">    4.54    4.54</time>
   <time name="orth">    0.41    0.41</time>
   <time name="total">    7.02    7.03</time>
   <dipole>
    <v name="dipole">      0.00000000       0.00000000       0.03626924 </v>
    <i name="Tr[quadrupol]"> -10260.99948486 </i>
    <i name="Echarged">      0.00000000 </i>
    <i name="Edipol_quadrupol">      0.00000000 </i>
    <i name="Eion">      0.00000000 </i>
   </dipole>
   <energy>
    <i name="e_fr_energy">   -187.76145005 </i>
    <i name="e_wo_entrp">   -187.51525504 </i>
    <i name="e_0_energy">   -187.63835255 </i>
   </energy>
  </scstep>
  <scstep>
   <time name="diag">    1.68    1.68</time>
   <time name="diis">    4.35    4.46</time>
   <time name="orth">    0.41    0.41</time>
   <time name="total">    6.81    6.93</time>
   <dipole>
    <v name="dipole">      0.00000000       0.00000000       0.02575164 </v>
    <i name="Tr[quadrupol]"> -10261.13296279 </i>
    <i name="Echarged">      0.00000000 </i>
    <i name="Edipol_quadrupol">      0.00000000 </i>
    <i name="Eion">      0.00000000 </i>
   </dipole>
   <energy>
    <i name="e_fr_energy">   -187.75435914 </i>
    <i name="e_wo_entrp">   -187.50625522 </i>
    <i name="e_0_energy">   -187.63030718 </i>
   </energy>
  </scstep>
  <scstep>
   <time name="diag">    1.69    1.73</time>
   <time name="diis">    4.50    4.56</time>
   <time name="orth">    0.41    0.41</time>
   <time name="total">    6.97    7.07</time>
   <dipole>
    <v name="dipole">      0.00000000       0.00000000       0.02048615 </v>
    <i name="Tr[quadrupol]"> -10261.20984285 </i>
    <i name="Echarged">      0.00000000 </i>
    <i name="Edipol_quadrupol">      0.00000000 </i>
    <i name="Eion">      0.00000000 </i>
   </dipole>
   <energy>
    <i name="e_fr_energy">   -187.75253161 </i>
    <i name="e_wo_entrp">   -187.50387933 </i>
    <i name="e_0_energy">   -187.62820547 </i>
   </energy>
  </scstep>
  <scstep>
   <time name="diag">    1.68    1.69</time>
   <time name="diis">    4.58    4.58</time>
   <time name="orth">    0.41    0.41</time>
   <time name="total">    7.04    7.05</time>
   <dipole>
    <v name="dipole">      0.00000000       0.00000000       0.02217835 </v>
    <i name="Tr[quadrupol]"> -10261.38717779 </i>
    <i name="Echarged">      0.00000000 </i>
    <i name="Edipol_quadrupol">      0.00000000 </i>
    <i name="Eion">      0.00000000 </i>
   </dipole>
   <energy>
    <i name="e_fr_energy">   -187.75318809 </i>
    <i name="e_wo_entrp">   -187.50512083 </i>
    <i name="e_0_energy">   -187.62915446 </i>
   </energy>
  </scstep>
  <scstep>
   <time name="diag">    1.70    1.70</time>
   <time name="diis">    4.55    4.55</time>
   <time name="orth">    0.41    0.41</time>
   <time name="total">    7.02    7.03</time>
   <dipole>
    <v name="dipole">      0.00000000       0.00000000       0.02120286 </v>
    <i name="Tr[quadrupol]"> -10261.58550959 </i>
    <i name="Echarged">      0.00000000 </i>
    <i name="Edipol_quadrupol">      0.00000000 </i>
    <i name="Eion">      0.00000000 </i>
   </dipole>
   <energy>
    <i name="e_fr_energy">   -187.75004468 </i>
    <i name="e_wo_entrp">   -187.50311216 </i>
    <i name="e_0_energy">   -187.62657842 </i>
   </energy>
  </scstep>
  <scstep>
   <time name="diag">    1.68    1.68</time>
   <time name="diis">    4.95    4.97</time>
   <time name="orth">    0.50    0.50</time>
   <time name="total">    7.56    7.59</time>
   <dipole>
    <v name="dipole">      0.00000000       0.00000000       0.01993508 </v>
    <i name="Tr[quadrupol]"> -10261.66711326 </i>
    <i name="Echarged">      0.00000000 </i>
    <i name="Edipol_quadrupol">      0.00000000 </i>
    <i name="Eion">      0.00000000 </i>
   </dipole>
   <energy>
    <i name="e_fr_energy">   -187.74975255 </i>
    <i name="e_wo_entrp">   -187.50219285 </i>
    <i name="e_0_energy">   -187.62597270 </i>
   </energy>
  </scstep>
  <scstep>
   <time name="diag">    1.68    1.68</time>
   <time name="diis">    4.58    4.59</time>
   <time name="orth">    0.42    0.42</time>
   <time name="total">    7.06    7.06</time>
   <dipole>
    <v name="dipole">      0.00000000       0.00000000       0.01711759 </v>
    <i name="Tr[quadrupol]"> -10261.73621398 </i>
    <i name="Echarged">      0.00000000 </i>
    <i name="Edipol_quadrupol">      0.00000000 </i>
    <i name="Eion">      0.00000000 </i>
   </dipole>
   <energy>
    <i name="e_fr_energy">   -187.74979720 </i>
    <i name="e_wo_entrp">   -187.50214590 </i>
    <i name="e_0_energy">   -187.62597155 </i>
   </energy>
  </scstep>
  <scstep>
   <time name="diag">    1.69    1.70</time>
   <time name="diis">    4.53    4.57</time>
   <time name="orth">    0.40    0.43</time>
   <time name="total">    6.98    7.06</time>
   <dipole>
    <v name="dipole">      0.00000000       0.00000000       0.01400239 </v>
    <i name="Tr[quadrupol]"> -10261.84317358 </i>
    <i name="Echarged">      0.00000000 </i>
    <i name="Edipol_quadrupol">      0.00000000 </i>
    <i name="Eion">      0.00000000 </i>
   </dipole>
   <energy>
    <i name="e_fr_energy">   -187.75011996 </i>
    <i name="e_wo_entrp">   -187.50257563 </i>
    <i name="e_0_energy">   -187.62634779 </i>
   </energy>
  </scstep>
  <scstep>
   <time name="diag">    1.71    1.71</time>
   <time name="diis">    4.54    4.54</time>
   <time name="orth">    0.42    0.42</time>
   <time name="total">    7.04    7.05</time>
   <dipole>
    <v name="dipole">      0.00000000       0.00000000       0.01305811 </v>
    <i name="Tr[quadrupol]"> -10261.90217041 </i>
    <i name="Echarged">      0.00000000 </i>
    <i name="Edipol_quadrupol">      0.00000000 </i>
    <i name="Eion">      0.00000000 </i>
   </dipole>
   <energy>
    <i name="e_fr_energy">   -187.75046185 </i>
    <i name="e_wo_entrp">   -187.50271635 </i>
    <i name="e_0_energy">   -187.62658910 </i>
   </energy>
  </scstep>
  <scstep>
   <time name="diag">    1.68    1.74</time>
   <time name="diis">    4.21    4.59</time>
   <time name="orth">    0.42    0.42</time>
   <time name="total">    6.68    7.13</time>
   <dipole>
    <v name="dipole">      0.00000000       0.00000000       0.01218830 </v>
    <i name="Tr[quadrupol]"> -10261.96067628 </i>
    <i name="Echarged">      0.00000000 </i>
    <i name="Edipol_quadrupol">      0.00000000 </i>
    <i name="Eion">      0.00000000 </i>
   </dipole>
   <energy>
    <i name="e_fr_energy">   -187.75086053 </i>
    <i name="e_wo_entrp">   -187.50324303 </i>
    <i name="e_0_energy">   -187.62705178 </i>
   </energy>
  </scstep>
  <scstep>
   <time name="diag">    1.69    1.69</time>
   <time name="diis">    4.58    4.59</time>
   <time name="orth">    0.42    0.42</time>
   <time name="total">    7.06    7.07</time>
   <dipole>
    <v name="dipole">      0.00000000       0.00000000       0.01023234 </v>
    <i name="Tr[quadrupol]"> -10262.05247320 </i>
    <i name="Echarged">      0.00000000 </i>
    <i name="Edipol_quadrupol">      0.00000000 </i>
    <i name="Eion">      0.00000000 </i>
   </dipole>
   <energy>
    <i name="e_fr_energy">   -187.75155329 </i>
    <i name="e_wo_entrp">   -187.50382596 </i>
    <i name="e_0_energy">   -187.62768963 </i>
   </energy>
  </scstep>
  <scstep>
   <time name="diag">    1.70    1.70</time>
   <time name="diis">    4.60    4.61</time>
   <time name="orth">    0.42    0.42</time>
   <time name="total">    7.08    7.10</time>
   <dipole>
    <v name="dipole">      0.00000000       0.00000000       0.00865844 </v>
    <i name="Tr[quadrupol]"> -10262.12482065 </i>
    <i name="Echarged">      0.00000000 </i>
    <i name="Edipol_quadrupol">      0.00000000 </i>
    <i name="Eion">      0.00000000 </i>
   </dipole>
   <energy>
    <i name="e_fr_energy">   -187.75214341 </i>
    <i name="e_wo_entrp">   -187.50452689 </i>
    <i name="e_0_energy">   -187.62833515 </i>
   </energy>
  </scstep>
  <scstep>
   <time name="diag">    1.71    1.71</time>
   <time name="diis">    4.40    4.40</time>
   <time name="orth">    0.42    0.42</time>
   <time name="total">    6.90    6.91</time>
   <dipole>
    <v name="dipole">      0.00000000       0.00000000       0.00664875 </v>
    <i name="Tr[quadrupol]"> -10262.20031462 </i>
    <i name="Echarged">      0.00000000 </i>
    <i name="Edipol_quadrupol">      0.00000000 </i>
    <i name="Eion">      0.00000000 </i>
   </dipole>
   <energy>
    <i name="e_fr_energy">   -187.75278151 </i>
    <i name="e_wo_entrp">   -187.50509457 </i>
    <i name="e_0_energy">   -187.62893804 </i>
   </energy>
  </scstep>
  <scstep>
   <time name="diag">    1.69    1.69</time>
   <time name="diis">    3.77    3.84</time>
   <time name="orth">    0.42    0.42</time>
   <time name="total">    6.25    6.33</time>
   <dipole>
    <v name="dipole">      0.00000000       0.00000000       0.00568167 </v>
    <i name="Tr[quadrupol]"> -10262.23380445 </i>
    <i name="Echarged">      0.00000000 </i>
    <i name="Edipol_quadrupol">      0.00000000 </i>
    <i name="Eion">      0.00000000 </i>
   </dipole>
   <energy>
    <i name="e_fr_energy">   -187.75304790 </i>
    <i name="e_wo_entrp">   -187.50536949 </i>
    <i name="e_0_energy">   -187.62920869 </i>
   </energy>
  </scstep>
  <scstep>
   <time name="diag">    1.74    1.75</time>
   <time name="diis">    3.90    3.92</time>
   <time name="orth">    0.42    0.42</time>
   <time name="total">    6.43    6.47</time>
   <dipole>
    <v name="dipole">      0.00000000       0.00000000       0.00481658 </v>
    <i name="Tr[quadrupol]"> -10262.25965951 </i>
    <i name="Echarged">      0.00000000 </i>
    <i name="Edipol_quadrupol">      0.00000000 </i>
    <i name="Eion">      0.00000000 </i>
   </dipole>
   <energy>
    <i name="e_fr_energy">   -187.75322794 </i>
    <i name="e_wo_entrp">   -187.50552949 </i>
    <i name="e_0_energy">   -187.62937872 </i>
   </energy>
  </scstep>
  <scstep>
   <time name="diag">    1.69    1.70</time>
   <time name="diis">    3.14    3.14</time>
   <time name="orth">    0.42    0.42</time>
   <time name="total">    5.61    5.63</time>
   <dipole>
    <v name="dipole">      0.00000000       0.00000000       0.00432939 </v>
    <i name="Tr[quadrupol]"> -10262.27228454 </i>
    <i name="Echarged">      0.00000000 </i>
    <i name="Edipol_quadrupol">      0.00000000 </i>
    <i name="Eion">      0.00000000 </i>
   </dipole>
   <energy>
    <i name="e_fr_energy">   -187.75331602 </i>
    <i name="e_wo_entrp">   -187.50564296 </i>
    <i name="e_0_energy">   -187.62947949 </i>
   </energy>
  </scstep>
  <scstep>
   <time name="diag">    1.70    1.70</time>
   <time name="diis">    2.94    2.95</time>
   <time name="orth">    0.42    0.42</time>
   <time name="total">    5.42    5.44</time>
   <dipole>
    <v name="dipole">      0.00000000       0.00000000       0.00375818 </v>
    <i name="Tr[quadrupol]"> -10262.28700752 </i>
    <i name="Echarged">      0.00000000 </i>
    <i name="Edipol_quadrupol">      0.00000000 </i>
    <i name="Eion">      0.00000000 </i>
   </dipole>
   <energy>
    <i name="e_fr_energy">   -187.75340875 </i>
    <i name="e_wo_entrp">   -187.50574209 </i>
    <i name="e_0_energy">   -187.62957542 </i>
   </energy>
  </scstep>
  <scstep>
   <time name="diag">    1.68    1.69</time>
   <time name="diis">    2.74    2.75</time>
   <time name="orth">    0.41    0.41</time>
   <time name="total">    5.21    5.22</time>
   <dipole>
    <v name="dipole">      0.00000000       0.00000000       0.00347660 </v>
    <i name="Tr[quadrupol]"> -10262.29303065 </i>
    <i name="Echarged">      0.00000000 </i>
    <i name="Edipol_quadrupol">      0.00000000 </i>
    <i name="Eion">      0.00000000 </i>
   </dipole>
   <energy>
    <i name="e_fr_energy">   -187.75344154 </i>
    <i name="e_wo_entrp">   -187.50577631 </i>
    <i name="e_0_energy">   -187.62960893 </i>
   </energy>
  </scstep>
  <scstep>
   <time name="diag">    1.67    1.67</time>
   <time name="diis">    2.77    2.77</time>
   <time name="orth">    0.41    0.41</time>
   <time name="total">    5.22    5.22</time>
   <dipole>
    <v name="dipole">      0.00000000       0.00000000       0.00300388 </v>
    <i name="Tr[quadrupol]"> -10262.30109976 </i>
    <i name="Echarged">      0.00000000 </i>
    <i name="Edipol_quadrupol">      0.00000000 </i>
    <i name="Eion">      0.00000000 </i>
   </dipole>
   <energy>
    <i name="e_fr_energy">   -187.75347761 </i>
    <i name="e_wo_entrp">   -187.50581112 </i>
    <i name="e_0_energy">   -187.62964437 </i>
   </energy>
  </scstep>
  <scstep>
   <time name="diag">    1.68    1.68</time>
   <time name="diis">    2.35    2.35</time>
   <time name="orth">    0.41    0.41</time>
   <time name="total">    4.81    4.82</time>
   <dipole>
    <v name="dipole">      0.00000000       0.00000000       0.00284658 </v>
    <i name="Tr[quadrupol]"> -10262.30407222 </i>
    <i name="Echarged">      0.00000000 </i>
    <i name="Edipol_quadrupol">      0.00000000 </i>
    <i name="Eion">      0.00000000 </i>
   </dipole>
   <energy>
    <i name="e_fr_energy">   -187.75348546 </i>
    <i name="e_wo_entrp">   -187.50581886 </i>
    <i name="e_0_energy">   -187.62965216 </i>
   </energy>
  </scstep>
  <scstep>
   <time name="diag">    1.69    1.69</time>
   <time name="diis">    2.72    2.72</time>
   <time name="orth">    0.40    0.42</time>
   <time name="total">    5.18    5.23</time>
   <dipole>
    <v name="dipole">      0.00000000       0.00000000       0.00256741 </v>
    <i name="Tr[quadrupol]"> -10262.30957212 </i>
    <i name="Echarged">      0.00000000 </i>
    <i name="Edipol_quadrupol">      0.00000000 </i>
    <i name="Eion">      0.00000000 </i>
   </dipole>
   <energy>
    <i name="e_fr_energy">   -187.75349404 </i>
    <i name="e_wo_entrp">   -187.50582940 </i>
    <i name="e_0_energy">   -187.62966172 </i>
   </energy>
  </scstep>
  <scstep>
   <time name="diag">    1.67    1.68</time>
   <time name="diis">    2.15    2.15</time>
   <time name="orth">    0.41    0.41</time>
   <time name="total">    4.61    4.63</time>
   <dipole>
    <v name="dipole">      0.00000000       0.00000000       0.00241981 </v>
    <i name="Tr[quadrupol]"> -10262.31264338 </i>
    <i name="Echarged">      0.00000000 </i>
    <i name="Edipol_quadrupol">      0.00000000 </i>
    <i name="Eion">      0.00000000 </i>
   </dipole>
   <energy>
    <i name="e_fr_energy">   -187.75349604 </i>
    <i name="e_wo_entrp">   -187.50583076 </i>
    <i name="e_0_energy">   -187.62966340 </i>
   </energy>
  </scstep>
  <scstep>
   <time name="diag">    1.67    1.69</time>
   <time name="diis">    2.00    2.00</time>
   <time name="orth">    0.41    0.41</time>
   <time name="total">    4.14    4.16</time>
   <dipole>
    <v name="dipole">      0.00000000       0.00000000       0.00232052 </v>
    <i name="Tr[quadrupol]"> -10262.31472308 </i>
    <i name="Echarged">      0.00000000 </i>
    <i name="Edipol_quadrupol">      0.00000000 </i>
    <i name="Eion">      0.00000000 </i>
   </dipole>
   <energy>
    <i name="alphaZ">    805.87009867 </i>
    <i name="ewald"> 200642.13408883 </i>
    <i name="hartreedc">-242820.83412467 </i>
    <i name="XCdc">   -343.08606683 </i>
    <i name="pawpsdc">  49472.61106971 </i>
    <i name="pawaedc"> -47550.47519742 </i>
    <i name="eentropy">     -0.24766489 </i>
    <i name="bandstr">  -2053.51157264 </i>
    <i name="atom">  41659.78587232 </i>
    <i name="e_fr_energy">   -187.75349690 </i>
    <i name="e_wo_entrp">   -187.50583202 </i>
    <i name="e_0_energy">   -187.62966446 </i>
   </energy>
  </scstep>
  <structure>
   <crystal>
    <varray name="basis" >
     <v>      11.00258152       0.00000000       0.00000000 </v>
     <v>       5.50129076       9.52851510       0.00000000 </v>
     <v>       0.00000000       0.00000000      24.49178509 </v>
    </varray>
    <i name="volume">   2567.67623402 </i>
    <varray name="rec_basis" >
     <v>       0.09088776      -0.05247407       0.00000000 </v>
     <v>       0.00000000       0.10494815       0.00000000 </v>
     <v>       0.00000000       0.00000000       0.04083002 </v>
    </varray>
   </crystal>
   <varray name="positions" >
    <v>       0.08333333       0.08333333       0.40830017 </v>
    <v>       0.66666667       0.66666667       0.50000000 </v>
    <v>       0.75000000       0.25000000       0.59169983 </v>
    <v>       0.66666667       0.41666667       0.50000000 </v>
    <v>       0.83333333       0.33333333       0.40830017 </v>
    <v>       0.41666667       0.91666667       0.50000000 </v>
    <v>       0.58333333       0.83333333       0.40830017 </v>
    <v>       0.58333333       0.58333333       0.40830017 </v>
    <v>       0.41666667       0.16666667       0.50000000 </v>
    <v>       0.58333333       0.08333333       0.40830017 </v>
    <v>       0.16666667       0.91666667       0.50000000 </v>
    <v>       0.25000000       0.50000000       0.59169983 </v>
    <v>       0.16666667       0.66666667       0.50000000 </v>
    <v>       0.33333333       0.58333333       0.40830017 </v>
    <v>       0.25000000       0.25000000       0.59169983 </v>
    <v>       0.16666667       0.41666667       0.50000000 </v>
    <v>       0.25000000       0.75000000       0.59169983 </v>
    <v>       0.00000000       0.50000000       0.59169983 </v>
    <v>       0.91666667       0.66666667       0.50000000 </v>
    <v>       0.91666667       0.41666667       0.50000000 </v>
    <v>       0.08333333       0.33333333       0.40830017 </v>
    <v>       0.08333333       0.83333333       0.40830017 </v>
    <v>       0.00000000       0.25000000       0.59169983 </v>
    <v>       0.16666667       0.16666667       0.50000000 </v>
    <v>       0.00000000       0.00000000       0.59169983 </v>
    <v>       0.91666667       0.16666667       0.50000000 </v>
    <v>       0.50000000       0.75000000       0.59169983 </v>
    <v>       0.75000000       0.50000000       0.59169983 </v>
    <v>       0.83333333       0.83333333       0.40830017 </v>
    <v>       0.75000000       0.00000000       0.59169983 </v>
    <v>       0.66666667       0.16666667       0.50000000 </v>
    <v>       0.83333333       0.08333333       0.40830017 </v>
    <v>       0.83333333       0.58333333       0.40830017 </v>
    <v>       0.25000000       0.00000000       0.59169983 </v>
    <v>       0.50000000       0.50000000       0.59169983 </v>
    <v>       0.33333333       0.33333333       0.40830017 </v>
    <v>       0.41666667       0.66666667       0.50000000 </v>
    <v>       0.50000000       0.25000000       0.59169983 </v>
    <v>       0.41666667       0.41666667       0.50000000 </v>
    <v>       0.58333333       0.33333333       0.40830017 </v>
    <v>       0.50000000       0.00000000       0.59169983 </v>
    <v>       0.66666667       0.91666667       0.50000000 </v>
    <v>       0.91666667       0.91666667       0.50000000 </v>
    <v>       0.33333333       0.83333333       0.40830017 </v>
    <v>       0.00000000       0.75000000       0.59169983 </v>
    <v>       0.33333333       0.08333333       0.40830017 </v>
    <v>       0.08333333       0.58333333       0.40830017 </v>
    <v>       0.75000000       0.75000000       0.59169983 </v>
   </varray>
  </structure>
  <varray name="forces" >
   <v>      -0.04060618      -0.12896206      -1.63632087 </v>
   <v>       0.02052629       0.23296155       0.57057317 </v>
   <v>      -0.23580542      -0.16043058       1.29658439 </v>
   <v>      -0.65688313      -0.16007903       0.30424751 </v>
   <v>      -0.27723848      -0.18243384      -1.61743121 </v>
   <v>      -0.00212958      -0.18412648       0.30721288 </v>
   <v>       0.11035190       0.07046651      -1.59508852 </v>
   <v>      -0.15683512       0.06240116      -1.62862485 </v>
   <v>       0.63039263      -0.02311530       0.01341783 </v>
   <v>       0.25336288       0.13683597      -1.28605900 </v>
   <v>      -0.11293373       0.10685632       0.29302117 </v>
   <v>       0.41207499      -0.06843330       1.63912243 </v>
   <v>      -0.08135231       0.04806371      -0.04572118 </v>
   <v>       0.02083081      -0.30416787      -1.35140457 </v>
   <v>       0.26018269      -0.41021491       1.88766093 </v>
   <v>       0.53589905       0.12985019      -0.61367790 </v>
   <v>       0.23848167       0.09328418       1.53068788 </v>
   <v>      -0.25719355       0.46603323       1.92028455 </v>
   <v>      -0.03142830       0.74041032      -0.23092390 </v>
   <v>      -0.37625659       0.14190369      -0.00158147 </v>
   <v>       0.34866157       0.19564872      -1.81970961 </v>
   <v>      -0.36334805       0.10439214      -1.56160868 </v>
   <v>      -0.27860976      -0.29892323       1.62633588 </v>
   <v>      -0.07271126      -0.44816671      -0.00227919 </v>
   <v>      -0.23149890      -0.08258429       0.70763288 </v>
   <v>      -0.48413429      -0.39114758       0.05703698 </v>
   <v>       0.13564430      -0.02937140       0.82220359 </v>
   <v>      -0.15700769       0.28048315       1.02566217 </v>
   <v>       0.09678509      -0.01500924      -0.65512984 </v>
   <v>      -0.01806676      -0.12639182       0.47932348 </v>
   <v>       0.08476077      -0.23881984       0.02764703 </v>
   <v>      -0.20441276      -0.05240813      -0.51405314 </v>
   <v>       0.24563454       0.15941357      -1.06068720 </v>
   <v>       0.07268719      -0.13464260       1.00637437 </v>
   <v>       0.06210791       0.02117328       0.69937131 </v>
   <v>       0.10209921       0.03787703      -0.85380305 </v>
   <v>       0.02869581      -0.12914876       0.20736801 </v>
   <v>       0.18293752      -0.16711871       0.69309449 </v>
   <v>       0.32575306      -0.18607820      -0.03003172 </v>
   <v>      -0.12476839      -0.18115356      -0.69341716 </v>
   <v>       0.20921646      -0.16945766       0.80355885 </v>
   <v>       0.43008080       0.13203476       0.38976334 </v>
   <v>      -0.34176029       0.43230095       0.18233809 </v>
   <v>       0.06942744       0.03567174      -0.94790954 </v>
   <v>      -0.21074224       0.42642156       0.87083122 </v>
   <v>       0.00133204       0.03582976      -1.05100854 </v>
   <v>      -0.13354363      -0.00880606      -0.98043247 </v>
   <v>      -0.02866021       0.19087767       0.81554914 </v>
  </varray>
  <energy>
   <i name="e_fr_energy">   -187.75349690 </i>
   <i name="e_wo_entrp">   -187.62966446 </i>
   <i name="e_0_energy">     -0.24766489 </i>
  </energy>
  <time name="totalsc">  294.71  296.32</time>
 </calculation>
 <calculation>
  <scstep>
   <time name="dav">    9.76    9.77</time>
   <time name="total">   10.13   10.13</time>
   <dipole>
    <v name="dipole">      0.00000000       0.00000000       0.00217939 </v>
    <i name="Tr[quadrupol]"> -10256.99883543 </i>
    <i name="Echarged">      0.00000000 </i>
    <i name="Edipol_quadrupol">      0.00000000 </i>
    <i name="Eion">      0.00000000 </i>
   </dipole>
   <energy>
    <i name="alphaZ">    805.87006440 </i>
    <i name="ewald"> 197845.53560581 </i>
    <i name="hartreedc">-240041.67310481 </i>
    <i name="XCdc">   -345.41781509 </i>
    <i name="pawpsdc">  49472.60758097 </i>
    <i name="pawaedc"> -47550.47172600 </i>
    <i name="eentropy">     -0.24253795 </i>
    <i name="bandstr">  -2034.93368964 </i>
    <i name="atom">  41659.78587232 </i>
    <i name="e_fr_energy">   -188.93974999 </i>
    <i name="e_wo_entrp">   -188.69721205 </i>
    <i name="e_0_energy">   -188.81848102 </i>
   </energy>
  </scstep>
  <scstep>
   <time name="diag">    1.72    1.73</time>
   <time name="diis">    4.86    4.89</time>
   <time name="orth">    0.41    0.41</time>
   <time name="total">    7.37    7.40</time>
   <dipole>
    <v name="dipole">      0.00000000       0.00000000      -0.00335528 </v>
    <i name="Tr[quadrupol]"> -10256.73741872 </i>
    <i name="Echarged">      0.00000000 </i>
    <i name="Edipol_quadrupol">      0.00000000 </i>
    <i name="Eion">      0.00000000 </i>
   </dipole>
   <energy>
    <i name="e_fr_energy">   -189.35538494 </i>
    <i name="e_wo_entrp">   -189.11521341 </i>
    <i name="e_0_energy">   -189.23529917 </i>
   </energy>
  </scstep>
  <scstep>
   <time name="diag">    1.68    1.68</time>
   <time name="diis">    4.47    4.47</time>
   <time name="orth">    0.41    0.41</time>
   <time name="total">    6.92    6.94</time>
   <dipole>
    <v name="dipole">      0.00000000       0.00000000       0.03717710 </v>
    <i name="Tr[quadrupol]"> -10257.21012511 </i>
    <i name="Echarged">      0.00000000 </i>
    <i name="Edipol_quadrupol">      0.00000000 </i>
    <i name="Eion">      0.00000000 </i>
   </dipole>
   <energy>
    <i name="e_fr_energy">   -189.42375681 </i>
    <i name="e_wo_entrp">   -189.16877256 </i>
    <i name="e_0_energy">   -189.29626469 </i>
   </energy>
  </scstep>
  <scstep>
   <time name="diag">    1.67    1.67</time>
   <time name="diis">    4.49    4.56</time>
   <time name="orth">    0.41    0.41</time>
   <time name="total">    6.94    7.01</time>
   <dipole>
    <v name="dipole">      0.00000000       0.00000000      -0.03595728 </v>
    <i name="Tr[quadrupol]"> -10257.08800834 </i>
    <i name="Echarged">      0.00000000 </i>
    <i name="Edipol_quadrupol">      0.00000000 </i>
    <i name="Eion">      0.00000000 </i>
   </dipole>
   <energy>
    <i name="e_fr_energy">   -189.36602254 </i>
    <i name="e_wo_entrp">   -189.12810503 </i>
    <i name="e_0_energy">   -189.24706378 </i>
   </energy>
  </scstep>
  <scstep>
   <time name="diag">    1.65    1.66</time>
   <time name="diis">    4.45    4.45</time>
   <time name="orth">    0.41    0.41</time>
   <time name="total">    6.88    6.88</time>
   <dipole>
    <v name="dipole">      0.00000000       0.00000000       0.07797911 </v>
    <i name="Tr[quadrupol]"> -10257.07097617 </i>
    <i name="Echarged">      0.00000000 </i>
    <i name="Edipol_quadrupol">      0.00000000 </i>
    <i name="Eion">      0.00000000 </i>
   </dipole>
   <energy>
    <i name="e_fr_energy">   -189.43410034 </i>
    <i name="e_wo_entrp">   -189.20634415 </i>
    <i name="e_0_energy">   -189.32022224 </i>
   </energy>
  </scstep>
  <scstep>
   <time name="diag">    1.67    1.67</time>
   <time name="diis">    4.46    4.46</time>
   <time name="orth">    0.41    0.41</time>
   <time name="total">    6.90    6.91</time>
   <dipole>
    <v name="dipole">      0.00000000       0.00000000      -0.01483006 </v>
    <i name="Tr[quadrupol]"> -10257.09417798 </i>
    <i name="Echarged">      0.00000000 </i>
    <i name="Edipol_quadrupol">      0.00000000 </i>
    <i name="Eion">      0.00000000 </i>
   </dipole>
   <energy>
    <i name="e_fr_energy">   -189.33946144 </i>
    <i name="e_wo_entrp">   -189.09329067 </i>
    <i name="e_0_energy">   -189.21637606 </i>
   </energy>
  </scstep>
  <scstep>
   <time name="diag">    1.67    1.67</time>
   <time name="diis">    4.57    4.58</time>
   <time name="orth">    0.41    0.41</time>
   <time name="total">    7.01    7.01</time>
   <dipole>
    <v name="dipole">      0.00000000       0.00000000       0.00533799 </v>
    <i name="Tr[quadrupol]"> -10257.05714349 </i>
    <i name="Echarged">      0.00000000 </i>
    <i name="Edipol_quadrupol">      0.00000000 </i>
    <i name="Eion">      0.00000000 </i>
   </dipole>
   <energy>
    <i name="e_fr_energy">   -189.32891016 </i>
    <i name="e_wo_entrp">   -189.08496316 </i>
    <i name="e_0_energy">   -189.20693666 </i>
   </energy>
  </scstep>
  <scstep>
   <time name="diag">    1.67    1.67</time>
   <time name="diis">    4.57    4.59</time>
   <time name="orth">    0.41    0.41</time>
   <time name="total">    7.02    7.03</time>
   <dipole>
    <v name="dipole">      0.00000000       0.00000000       0.00040968 </v>
    <i name="Tr[quadrupol]"> -10257.03339956 </i>
    <i name="Echarged">      0.00000000 </i>
    <i name="Edipol_quadrupol">      0.00000000 </i>
    <i name="Eion">      0.00000000 </i>
   </dipole>
   <energy>
    <i name="e_fr_energy">   -189.32678378 </i>
    <i name="e_wo_entrp">   -189.08207053 </i>
    <i name="e_0_energy">   -189.20442716 </i>
   </energy>
  </scstep>
  <scstep>
   <time name="diag">    1.65    1.65</time>
   <time name="diis">    4.57    4.57</time>
   <time name="orth">    0.41    0.41</time>
   <time name="total">    6.99    7.00</time>
   <dipole>
    <v name="dipole">      0.00000000       0.00000000       0.00281797 </v>
    <i name="Tr[quadrupol]"> -10257.02601076 </i>
    <i name="Echarged">      0.00000000 </i>
    <i name="Edipol_quadrupol">      0.00000000 </i>
    <i name="Eion">      0.00000000 </i>
   </dipole>
   <energy>
    <i name="e_fr_energy">   -189.32527054 </i>
    <i name="e_wo_entrp">   -189.08093505 </i>
    <i name="e_0_energy">   -189.20310280 </i>
   </energy>
  </scstep>
  <scstep>
   <time name="diag">    1.65    1.69</time>
   <time name="diis">    4.49    4.52</time>
   <time name="orth">    0.48    0.48</time>
   <time name="total">    7.10    7.18</time>
   <dipole>
    <v name="dipole">      0.00000000       0.00000000       0.00089058 </v>
    <i name="Tr[quadrupol]"> -10257.02215817 </i>
    <i name="Echarged">      0.00000000 </i>
    <i name="Edipol_quadrupol">      0.00000000 </i>
    <i name="Eion">      0.00000000 </i>
   </dipole>
   <energy>
    <i name="e_fr_energy">   -189.32530366 </i>
    <i name="e_wo_entrp">   -189.08019000 </i>
    <i name="e_0_energy">   -189.20274683 </i>
   </energy>
  </scstep>
  <scstep>
   <time name="diag">    2.00    2.02</time>
   <time name="diis">    4.58    4.58</time>
   <time name="orth">    0.41    0.41</time>
   <time name="total">    7.38    7.40</time>
   <dipole>
    <v name="dipole">      0.00000000       0.00000000       0.00076628 </v>
    <i name="Tr[quadrupol]"> -10257.02371712 </i>
    <i name="Echarged">      0.00000000 </i>
    <i name="Edipol_quadrupol">      0.00000000 </i>
    <i name="Eion">      0.00000000 </i>
   </dipole>
   <energy>
    <i name="e_fr_energy">   -189.32515524 </i>
    <i name="e_wo_entrp">   -189.08017469 </i>
    <i name="e_0_energy">   -189.20266497 </i>
   </energy>
  </scstep>
  <scstep>
   <time name="diag">    1.66    1.67</time>
   <time name="diis">    4.58    4.59</time>
   <time name="orth">    0.41    0.41</time>
   <time name="total">    7.02    7.03</time>
   <dipole>
    <v name="dipole">      0.00000000       0.00000000       0.00128118 </v>
    <i name="Tr[quadrupol]"> -10257.02685099 </i>
    <i name="Echarged">      0.00000000 </i>
    <i name="Edipol_quadrupol">      0.00000000 </i>
    <i name="Eion">      0.00000000 </i>
   </dipole>
   <energy>
    <i name="e_fr_energy">   -189.32514585 </i>
    <i name="e_wo_entrp">   -189.08031807 </i>
    <i name="e_0_energy">   -189.20273196 </i>
   </energy>
  </scstep>
  <scstep>
   <time name="diag">    1.66    1.66</time>
   <time name="diis">    4.49    4.49</time>
   <time name="orth">    0.41    0.41</time>
   <time name="total">    6.92    6.93</time>
   <dipole>
    <v name="dipole">      0.00000000       0.00000000       0.00127401 </v>
    <i name="Tr[quadrupol]"> -10257.03227444 </i>
    <i name="Echarged">      0.00000000 </i>
    <i name="Edipol_quadrupol">      0.00000000 </i>
    <i name="Eion">      0.00000000 </i>
   </dipole>
   <energy>
    <i name="e_fr_energy">   -189.32513359 </i>
    <i name="e_wo_entrp">   -189.08025950 </i>
    <i name="e_0_energy">   -189.20269654 </i>
   </energy>
  </scstep>
  <scstep>
   <time name="diag">    1.67    1.67</time>
   <time name="diis">    4.37    4.37</time>
   <time name="orth">    0.41    0.41</time>
   <time name="total">    6.81    6.82</time>
   <dipole>
    <v name="dipole">      0.00000000       0.00000000       0.00133453 </v>
    <i name="Tr[quadrupol]"> -10257.03574331 </i>
    <i name="Echarged">      0.00000000 </i>
    <i name="Edipol_quadrupol">      0.00000000 </i>
    <i name="Eion">      0.00000000 </i>
   </dipole>
   <energy>
    <i name="e_fr_energy">   -189.32513112 </i>
    <i name="e_wo_entrp">   -189.08035438 </i>
    <i name="e_0_energy">   -189.20274275 </i>
   </energy>
  </scstep>
  <scstep>
   <time name="diag">    1.67    1.67</time>
   <time name="diis">    3.46    3.47</time>
   <time name="orth">    0.41    0.41</time>
   <time name="total">    5.60    5.61</time>
   <dipole>
    <v name="dipole">      0.00000000       0.00000000       0.00141243 </v>
    <i name="Tr[quadrupol]"> -10257.03859719 </i>
    <i name="Echarged">      0.00000000 </i>
    <i name="Edipol_quadrupol">      0.00000000 </i>
    <i name="Eion">      0.00000000 </i>
   </dipole>
   <energy>
    <i name="alphaZ">    805.86981806 </i>
    <i name="ewald"> 197845.53560581 </i>
    <i name="hartreedc">-240043.62955465 </i>
    <i name="XCdc">   -345.34954703 </i>
    <i name="pawpsdc">  48994.96700993 </i>
    <i name="pawaedc"> -47069.58945396 </i>
    <i name="eentropy">     -0.24476931 </i>
    <i name="bandstr">  -2036.67011173 </i>
    <i name="atom">  41659.78587232 </i>
    <i name="e_fr_energy">   -189.32513057 </i>
    <i name="e_wo_entrp">   -189.08036126 </i>
    <i name="e_0_energy">   -189.20274592 </i>
   </energy>
  </scstep>
  <structure>
   <crystal>
    <varray name="basis" >
     <v>      11.00258152       0.00000000       0.00000000 </v>
     <v>       5.50129076       9.52851510       0.00000000 </v>
     <v>       0.00000000       0.00000000      24.49178509 </v>
    </varray>
    <i name="volume">   2567.67623402 </i>
    <varray name="rec_basis" >
     <v>       0.09088776      -0.05247407       0.00000000 </v>
     <v>       0.00000000       0.10494815       0.00000000 </v>
     <v>       0.00000000       0.00000000       0.04083002 </v>
    </varray>
   </crystal>
   <varray name="positions" >
    <v>       0.08343723       0.08287628       0.40604397 </v>
    <v>       0.66631685       0.66749230       0.50078672 </v>
    <v>       0.74956054       0.24943142       0.59348759 </v>
    <v>       0.66493418       0.41609933       0.50041950 </v>
    <v>       0.83280569       0.33268677       0.40607002 </v>
    <v>       0.41698641       0.91601411       0.50042359 </v>
    <v>       0.58354716       0.83358307       0.40610082 </v>
    <v>       0.58274139       0.58355449       0.40605458 </v>
    <v>       0.41864247       0.16658474       0.50001850 </v>
    <v>       0.58386849       0.08381829       0.40652692 </v>
    <v>       0.16613069       0.91704537       0.50040402 </v>
    <v>       0.25138603       0.49975747       0.59395989 </v>
    <v>       0.16633180       0.66683701       0.49993696 </v>
    <v>       0.33393627       0.58225534       0.40643682 </v>
    <v>       0.25152549       0.24854616       0.59430258 </v>
    <v>       0.16808138       0.41712687       0.49915385 </v>
    <v>       0.25056666       0.75033061       0.59381038 </v>
    <v>      -0.00161523       0.50165166       0.59434756 </v>
    <v>       0.91525817       0.66929074       0.49968160 </v>
    <v>       0.91526038       0.41716959       0.49999782 </v>
    <v>       0.08405677       0.33402673       0.40579111 </v>
    <v>       0.08203313       0.83370331       0.40614699 </v>
    <v>      -0.00032542       0.24894059       0.59394226 </v>
    <v>       0.16723767       0.16507833       0.49999686 </v>
    <v>      -0.00056419      -0.00029269       0.59267553 </v>
    <v>       0.91587386       0.16528041       0.50007864 </v>
    <v>       0.50046838       0.74989591       0.59283350 </v>
    <v>       0.74902107       0.50099406       0.59311404 </v>
    <v>       0.83365699       0.83328014       0.40739686 </v>
    <v>       0.75016852      -0.00044794       0.59236073 </v>
    <v>       0.66735002       0.16582027       0.50003812 </v>
    <v>       0.83279881       0.08314759       0.40759138 </v>
    <v>       0.83380476       0.58389831       0.40683767 </v>
    <v>       0.25046169      -0.00047718       0.59308744 </v>
    <v>       0.50015311       0.50007504       0.59266414 </v>
    <v>       0.33357958       0.33346757       0.40712293 </v>
    <v>       0.41698360       0.66620895       0.50028592 </v>
    <v>       0.50085763       0.24940772       0.59265549 </v>
    <v>       0.41799623       0.41600719       0.49995859 </v>
    <v>       0.58327140       0.33269131       0.40734407 </v>
    <v>       0.50094243      -0.00060057       0.59280780 </v>
    <v>       0.66775273       0.91713461       0.50053741 </v>
    <v>       0.91485166       0.91819878       0.50025141 </v>
    <v>       0.33348321       0.83345976       0.40699317 </v>
    <v>      -0.00140246       0.75151127       0.59290055 </v>
    <v>       0.33327393       0.08346032       0.40685101 </v>
    <v>       0.08293906       0.58330212       0.40694833 </v>
    <v>       0.74957379       0.75067649       0.59282433 </v>
   </varray>
  </structure>
  <varray name="forces" >
   <v>      -0.01505283      -0.05508825      -1.18038101 </v>
   <v>      -0.04454003       0.11406998       0.13119657 </v>
   <v>      -0.14181264      -0.08721979       1.02577069 </v>
   <v>      -0.25888004      -0.09865850       0.06640592 </v>
   <v>      -0.14161810      -0.06944119      -1.09276616 </v>
   <v>       0.09757849      -0.10023383       0.06512430 </v>
   <v>       0.08567114       0.05584857      -1.07145353 </v>
   <v>      -0.00863683       0.02913932      -1.09670188 </v>
   <v>       0.27451214      -0.03967395       0.01360922 </v>
   <v>       0.11595967       0.03961947      -0.99056059 </v>
   <v>      -0.16671881      -0.04847570       0.06912268 </v>
   <v>       0.16340466      -0.04589275       1.13891789 </v>
   <v>       0.03691046       0.10032136       0.00982174 </v>
   <v>      -0.03343105      -0.13621790      -0.97731297 </v>
   <v>       0.10448621      -0.15155025       1.23578288 </v>
   <v>       0.12482527       0.00864195      -0.08309496 </v>
   <v>       0.11409202       0.04861490       1.13795925 </v>
   <v>      -0.05881661       0.20294951       1.19884426 </v>
   <v>       0.00900280       0.24935121      -0.03965159 </v>
   <v>      -0.11097939      -0.02499431       0.00067356 </v>
   <v>       0.12805470       0.07680179      -1.25038302 </v>
   <v>      -0.19225701       0.03519515      -1.09374339 </v>
   <v>      -0.11827242      -0.12913000       1.10157462 </v>
   <v>      -0.01967870      -0.00897167       0.00111990 </v>
   <v>      -0.14213958      -0.08013059       0.60715227 </v>
   <v>      -0.23263963      -0.11256012      -0.00084531 </v>
   <v>       0.08409584      -0.00782496       0.73524561 </v>
   <v>      -0.11130180       0.11949965       0.79718813 </v>
   <v>       0.03263829       0.02009308      -0.57750990 </v>
   <v>      -0.02238138      -0.07348310       0.49467194 </v>
   <v>       0.07014964      -0.17081469       0.01505794 </v>
   <v>      -0.11648137      -0.04193267      -0.44606848 </v>
   <v>       0.08232251       0.08465026      -0.74129364 </v>
   <v>       0.06071070      -0.08249532       0.81394107 </v>
   <v>       0.05772534       0.02502792       0.63106643 </v>
   <v>       0.08889366      -0.02247134      -0.71231368 </v>
   <v>      -0.05594903      -0.06372872       0.04326842 </v>
   <v>       0.12118767      -0.12803046       0.57739576 </v>
   <v>       0.13548041      -0.04099163       0.00273882 </v>
   <v>      -0.05223920      -0.10871090      -0.56153099 </v>
   <v>       0.13666933      -0.11070221       0.64247524 </v>
   <v>       0.14518232       0.14288613       0.09502341 </v>
   <v>      -0.09798538       0.23846248       0.04255651 </v>
   <v>      -0.01185235       0.01851456      -0.64575456 </v>
   <v>      -0.08532543       0.23507965       0.65899727 </v>
   <v>       0.03487592       0.01903531      -0.72302243 </v>
   <v>      -0.05532814       0.04383083      -0.78360195 </v>
   <v>      -0.01011147       0.13179169       0.71528772 </v>
  </varray>
  <energy>
   <i name="e_fr_energy">   -189.32513057 </i>
   <i name="e_wo_entrp">   -189.20274592 </i>
   <i name="e_0_energy">     -0.24476931 </i>
  </energy>
  <time name="totalsc">  109.99  110.37</time>
 </calculation>
 <calculation>
  <scstep>
   <time name="dav">    9.70    9.71</time>
   <time name="total">   10.06   10.08</time>
   <dipole>
    <v name="dipole">      0.00000000       0.00000000       0.00136140 </v>
    <i name="Tr[quadrupol]"> -10242.18146524 </i>
    <i name="Echarged">      0.00000000 </i>
    <i name="Edipol_quadrupol">      0.00000000 </i>
    <i name="Eion">      0.00000000 </i>
   </dipole>
   <energy>
    <i name="alphaZ">    805.86982112 </i>
    <i name="ewald"> 189595.69089890 </i>
    <i name="hartreedc">-231838.78513744 </i>
    <i name="XCdc">   -351.14337463 </i>
    <i name="pawpsdc">  48994.84339010 </i>
    <i name="pawaedc"> -47069.46596450 </i>
    <i name="eentropy">     -0.23239236 </i>
    <i name="bandstr">  -1984.26030158 </i>
    <i name="atom">  41659.78587232 </i>
    <i name="e_fr_energy">   -187.69718809 </i>
    <i name="e_wo_entrp">   -187.46479573 </i>
    <i name="e_0_energy">   -187.58099191 </i>
   </energy>
  </scstep>
  <scstep>
   <time name="diag">    1.67    1.67</time>
   <time name="diis">    4.55    4.55</time>
   <time name="orth">    0.41    0.41</time>
   <time name="total">    6.99    7.00</time>
   <dipole>
    <v name="dipole">      0.00000000       0.00000000      -0.00418677 </v>
    <i name="Tr[quadrupol]"> -10241.33133251 </i>
    <i name="Echarged">      0.00000000 </i>
    <i name="Edipol_quadrupol">      0.00000000 </i>
    <i name="Eion">      0.00000000 </i>
   </dipole>
   <energy>
    <i name="e_fr_energy">   -191.38714429 </i>
    <i name="e_wo_entrp">   -191.16718371 </i>
    <i name="e_0_energy">   -191.27716400 </i>
   </energy>
  </scstep>
  <scstep>
   <time name="diag">    1.65    1.65</time>
   <time name="diis">    4.74    4.76</time>
   <time name="orth">    0.49    0.49</time>
   <time name="total">    7.38    7.40</time>
   <dipole>
    <v name="dipole">      0.00000000       0.00000000      -0.00023493 </v>
    <i name="Tr[quadrupol]"> -10242.48189128 </i>
    <i name="Echarged">      0.00000000 </i>
    <i name="Edipol_quadrupol">      0.00000000 </i>
    <i name="Eion">      0.00000000 </i>
   </dipole>
   <energy>
    <i name="e_fr_energy">   -191.68120287 </i>
    <i name="e_wo_entrp">   -191.41838069 </i>
    <i name="e_0_energy">   -191.54979178 </i>
   </energy>
  </scstep>
  <scstep>
   <time name="diag">    1.79    1.80</time>
   <time name="diis">    4.60    4.61</time>
   <time name="orth">    0.41    0.41</time>
   <time name="total">    7.18    7.20</time>
   <dipole>
    <v name="dipole">      0.00000000       0.00000000       0.01952588 </v>
    <i name="Tr[quadrupol]"> -10242.16897285 </i>
    <i name="Echarged">      0.00000000 </i>
    <i name="Edipol_quadrupol">      0.00000000 </i>
    <i name="Eion">      0.00000000 </i>
   </dipole>
   <energy>
    <i name="e_fr_energy">   -191.26397128 </i>
    <i name="e_wo_entrp">   -191.06008231 </i>
    <i name="e_0_energy">   -191.16202679 </i>
   </energy>
  </scstep>
  <scstep>
   <time name="diag">    1.67    1.68</time>
   <time name="diis">    4.46    4.53</time>
   <time name="orth">    0.40    0.41</time>
   <time name="total">    6.90    6.98</time>
   <dipole>
    <v name="dipole">      0.00000000       0.00000000      -0.09062164 </v>
    <i name="Tr[quadrupol]"> -10242.37480701 </i>
    <i name="Echarged">      0.00000000 </i>
    <i name="Edipol_quadrupol">      0.00000000 </i>
    <i name="Eion">      0.00000000 </i>
   </dipole>
   <energy>
    <i name="e_fr_energy">   -191.44821863 </i>
    <i name="e_wo_entrp">   -191.19943190 </i>
    <i name="e_0_energy">   -191.32382526 </i>
   </energy>
  </scstep>
  <scstep>
   <time name="diag">    1.68    1.68</time>
   <time name="diis">    4.48    4.48</time>
   <time name="orth">    0.41    0.41</time>
   <time name="total">    6.93    6.94</time>
   <dipole>
    <v name="dipole">      0.00000000       0.00000000       0.11590889 </v>
    <i name="Tr[quadrupol]"> -10242.33701227 </i>
    <i name="Echarged">      0.00000000 </i>
    <i name="Edipol_quadrupol">      0.00000000 </i>
    <i name="Eion">      0.00000000 </i>
   </dipole>
   <energy>
    <i name="e_fr_energy">   -191.34133031 </i>
    <i name="e_wo_entrp">   -191.12056924 </i>
    <i name="e_0_energy">   -191.23094978 </i>
   </energy>
  </scstep>
  <scstep>
   <time name="diag">    1.66    1.66</time>
   <time name="diis">    4.50    4.51</time>
   <time name="orth">    0.41    0.41</time>
   <time name="total">    6.94    6.96</time>
   <dipole>
    <v name="dipole">      0.00000000       0.00000000      -0.05176321 </v>
    <i name="Tr[quadrupol]"> -10242.26468934 </i>
    <i name="Echarged">      0.00000000 </i>
    <i name="Edipol_quadrupol">      0.00000000 </i>
    <i name="Eion">      0.00000000 </i>
   </dipole>
   <energy>
    <i name="e_fr_energy">   -191.17423602 </i>
    <i name="e_wo_entrp">   -190.95185821 </i>
    <i name="e_0_energy">   -191.06304711 </i>
   </energy>
  </scstep>
  <scstep>
   <time name="diag">    1.68    1.68</time>
   <time name="diis">    4.60    4.60</time>
   <time name="orth">    0.41    0.41</time>
   <time name="total">    7.05    7.06</time>
   <dipole>
    <v name="dipole">      0.00000000       0.00000000       0.00697975 </v>
    <i name="Tr[quadrupol]"> -10242.18890737 </i>
    <i name="Echarged">      0.00000000 </i>
    <i name="Edipol_quadrupol">      0.00000000 </i>
    <i name="Eion">      0.00000000 </i>
   </dipole>
   <energy>
    <i name="e_fr_energy">   -191.11457128 </i>
    <i name="e_wo_entrp">   -190.87956446 </i>
    <i name="e_0_energy">   -190.99706787 </i>
   </energy>
  </scstep>
  <scstep>
   <time name="diag">    1.68    1.68</time>
   <time name="diis">    4.54    4.55</time>
   <time name="orth">    0.41    0.41</time>
   <time name="total">    6.99    7.01</time>
   <dipole>
    <v name="dipole">      0.00000000       0.00000000      -0.00196174 </v>
    <i name="Tr[quadrupol]"> -10242.16769140 </i>
    <i name="Echarged">      0.00000000 </i>
    <i name="Edipol_quadrupol">      0.00000000 </i>
    <i name="Eion">      0.00000000 </i>
[...]
       <r>    2.2177    0.0000 </r>
       <r>    2.2921    0.0000 </r>
       <r>    2.4814    0.0000 </r>
       <r>    2.5402    0.0000 </r>
       <r>    2.6901    0.0000 </r>
       <r>    2.9193    0.0000 </r>
       <r>    3.1843    0.0000 </r>
       <r>    3.2600    0.0000 </r>
       <r>    3.4646    0.0000 </r>
       <r>    3.6314    0.0000 </r>
       <r>    3.6531    0.0000 </r>
       <r>    3.8965    0.0000 </r>
       <r>    4.0751    0.0000 </r>
       <r>    4.1510    0.0000 </r>
       <r>    4.4226    0.0000 </r>
       <r>    4.5304    0.0000 </r>
       <r>    4.5793    0.0000 </r>
       <r>    4.6312    0.0000 </r>
       <r>    4.7359    0.0000 </r>
       <r>    4.8068    0.0000 </r>
       <r>    4.8818    0.0000 </r>
       <r>    4.8958    0.0000 </r>
       <r>    5.0065    0.0000 </r>
       <r>    5.0590    0.0000 </r>
       <r>    5.0906    0.0000 </r>
       <r>    5.1400    0.0000 </r>
       <r>    5.1981    0.0000 </r>
       <r>    5.2452    0.0000 </r>
      </set>
     </set>
    </set>
   </array>
  </eigenvalues>
  <separator name="orbital magnetization" >
   <v name="MAGDIPOLOUT">      0.00000000      0.00000000      0.00000000</v>
  </separator>
  <dos>
   <i name="efermi">     -1.10923424 </i>
   <total>
    <array>
     <dimension dim="1">gridpoints</dimension>
     <dimension dim="2">spin</dimension>
     <field>energy</field>
     <field>total</field>
     <field>integrated</field>
     <set>
      <set comment="spin 1">
       <r>    -9.9620     0.0000     0.0000 </r>
       <r>    -9.9077     0.0000     0.0000 </r>
       <r>    -9.8533     0.0000     0.0000 </r>
       <r>    -9.7989     0.0000     0.0000 </r>
       <r>    -9.7445     0.0000     0.0000 </r>
       <r>    -9.6901     0.0000     0.0000 </r>
       <r>    -9.6357     0.0000     0.0000 </r>
       <r>    -9.5814     0.0000     0.0000 </r>
       <r>    -9.5270     0.0000     0.0000 </r>
       <r>    -9.4726     0.0000     0.0000 </r>
       <r>    -9.4182     0.0000     0.0000 </r>
       <r>    -9.3638     0.0000     0.0000 </r>
       <r>    -9.3094     0.0000     0.0000 </r>
       <r>    -9.2551     0.0002     0.0000 </r>
       <r>    -9.2007     0.0047     0.0003 </r>
       <r>    -9.1463     0.0591     0.0035 </r>
       <r>    -9.0919     0.4256     0.0266 </r>
       <r>    -9.0375     1.7471     0.1216 </r>
       <r>    -8.9831     4.1160     0.3455 </r>
       <r>    -8.9287     5.7072     0.6559 </r>
       <r>    -8.8744     5.3013     0.9442 </r>
       <r>    -8.8200     4.9364     1.2126 </r>
       <r>    -8.7656     5.5623     1.5151 </r>
       <r>    -8.7112     4.9975     1.7869 </r>
       <r>    -8.6568     2.7972     1.9390 </r>
       <r>    -8.6024     0.9229     1.9892 </r>
       <r>    -8.5481     0.1805     1.9991 </r>
       <r>    -8.4937     0.0597     2.0023 </r>
       <r>    -8.4393     0.2771     2.0174 </r>
       <r>    -8.3849     1.1398     2.0794 </r>
       <r>    -8.3305     2.8940     2.2367 </r>
       <r>    -8.2761     4.6311     2.4886 </r>
       <r>    -8.2218     4.7775     2.7484 </r>
       <r>    -8.1674     3.4492     2.9360 </r>
       <r>    -8.1130     2.8492     3.0910 </r>
       <r>    -8.0586     4.4059     3.3306 </r>
       <r>    -8.0042     6.7930     3.7000 </r>
       <r>    -7.9498     8.0386     4.1372 </r>
       <r>    -7.8954     7.6370     4.5525 </r>
       <r>    -7.8411     5.9247     4.8747 </r>
       <r>    -7.7867     4.3973     5.1139 </r>
       <r>    -7.7323     4.3592     5.3509 </r>
       <r>    -7.6779     5.0992     5.6283 </r>
       <r>    -7.6235     5.6675     5.9365 </r>
       <r>    -7.5691     6.3763     6.2833 </r>
       <r>    -7.5148     7.5978     6.6965 </r>
       <r>    -7.4604     9.3807     7.2066 </r>
       <r>    -7.4060    12.6514     7.8947 </r>
       <r>    -7.3516    17.7804     8.8616 </r>
       <r>    -7.2972    22.3875    10.0792 </r>
       <r>    -7.2428    24.4664    11.4097 </r>
       <r>    -7.1885    25.7851    12.8120 </r>
       <r>    -7.1341    27.0944    14.2855 </r>
       <r>    -7.0797    26.9651    15.7520 </r>
       <r>    -7.0253    26.0594    17.1692 </r>
       <r>    -6.9709    25.9239    18.5791 </r>
       <r>    -6.9165    27.0787    20.0517 </r>
       <r>    -6.8621    28.9215    21.6246 </r>
       <r>    -6.8078    29.9795    23.2550 </r>
       <r>    -6.7534    30.7292    24.9262 </r>
       <r>    -6.6990    34.0945    26.7804 </r>
       <r>    -6.6446    39.9342    28.9522 </r>
       <r>    -6.5902    44.4461    31.3694 </r>
       <r>    -6.5358    46.4522    33.8956 </r>
       <r>    -6.4815    49.0572    36.5636 </r>
       <r>    -6.4271    54.9342    39.5511 </r>
       <r>    -6.3727    63.7274    43.0169 </r>
       <r>    -6.3183    72.8368    46.9781 </r>
       <r>    -6.2639    79.6429    51.3094 </r>
       <r>    -6.2095    82.8234    55.8137 </r>
       <r>    -6.1552    81.7644    60.2604 </r>
       <r>    -6.1008    78.0251    64.5037 </r>
       <r>    -6.0464    74.9822    68.5816 </r>
       <r>    -5.9920    74.0868    72.6107 </r>
       <r>    -5.9376    74.1866    76.6453 </r>
       <r>    -5.8832    73.4304    80.6387 </r>
       <r>    -5.8288    71.7130    84.5388 </r>
       <r>    -5.7745    69.7832    88.3339 </r>
       <r>    -5.7201    67.8627    92.0246 </r>
       <r>    -5.6657    67.0129    95.6690 </r>
       <r>    -5.6113    68.0365    99.3691 </r>
       <r>    -5.5569    69.2490   103.1352 </r>
       <r>    -5.5025    68.8439   106.8792 </r>
       <r>    -5.4482    67.7851   110.5656 </r>
       <r>    -5.3938    68.4515   114.2883 </r>
       <r>    -5.3394    71.3071   118.1663 </r>
       <r>    -5.2850    75.5660   122.2759 </r>
       <r>    -5.2306    80.9566   126.6787 </r>
       <r>    -5.1762    85.8431   131.3472 </r>
       <r>    -5.1219    87.8166   136.1230 </r>
       <r>    -5.0675    87.5740   140.8857 </r>
       <r>    -5.0131    86.8732   145.6102 </r>
       <r>    -4.9587    85.5990   150.2654 </r>
       <r>    -4.9043    84.3965   154.8553 </r>
       <r>    -4.8499    84.4870   159.4500 </r>
       <r>    -4.7955    85.2347   164.0855 </r>
       <r>    -4.7412    85.3062   168.7248 </r>
       <r>    -4.6868    85.3369   173.3657 </r>
       <r>    -4.6324    86.7712   178.0847 </r>
       <r>    -4.5780    88.1595   182.8792 </r>
       <r>    -4.5236    86.6991   187.5943 </r>
       <r>    -4.4692    83.8782   192.1559 </r>
       <r>    -4.4149    83.5030   196.6972 </r>
       <r>    -4.3605    85.7527   201.3608 </r>
       <r>    -4.3061    88.0941   206.1517 </r>
       <r>    -4.2517    88.4475   210.9619 </r>
       <r>    -4.1973    86.2094   215.6503 </r>
       <r>    -4.1429    83.2195   220.1761 </r>
       <r>    -4.0886    82.3627   224.6553 </r>
       <r>    -4.0342    84.6403   229.2584 </r>
       <r>    -3.9798    88.1136   234.0504 </r>
       <r>    -3.9254    90.7787   238.9874 </r>
       <r>    -3.8710    93.0109   244.0457 </r>
       <r>    -3.8166    94.9901   249.2117 </r>
       <r>    -3.7622    95.6323   254.4125 </r>
       <r>    -3.7079    94.9199   259.5747 </r>
       <r>    -3.6535    94.5009   264.7141 </r>
       <r>    -3.5991    96.7344   269.9749 </r>
       <r>    -3.5447   101.9725   275.5206 </r>
       <r>    -3.4903   106.4193   281.3081 </r>
       <r>    -3.4359   106.8848   287.1210 </r>
       <r>    -3.3816   104.0126   292.7776 </r>
       <r>    -3.3272    99.1016   298.1672 </r>
       <r>    -3.2728    94.5723   303.3104 </r>
       <r>    -3.2184    93.3786   308.3887 </r>
       <r>    -3.1640    94.6742   313.5375 </r>
       <r>    -3.1096    95.8574   318.7506 </r>
       <r>    -3.0553    95.7965   323.9605 </r>
       <r>    -3.0009    94.7221   329.1119 </r>
       <r>    -2.9465    93.8832   334.2176 </r>
       <r>    -2.8921    92.8160   339.2653 </r>
       <r>    -2.8377    90.8251   344.2048 </r>
       <r>    -2.7833    90.4101   349.1217 </r>
       <r>    -2.7289    93.4390   354.2033 </r>
       <r>    -2.6746    97.6386   359.5133 </r>
       <r>    -2.6202   100.1515   364.9600 </r>
       <r>    -2.5658   100.9398   370.4495 </r>
       <r>    -2.5114   101.0612   375.9456 </r>
       <r>    -2.4570   100.2420   381.3972 </r>
       <r>    -2.4026    97.4915   386.6992 </r>
       <r>    -2.3483    93.4709   391.7826 </r>
       <r>    -2.2939    90.0845   396.6817 </r>
       <r>    -2.2395    88.4806   401.4937 </r>
       <r>    -2.1851    88.4204   406.3024 </r>
       <r>    -2.1307    90.2215   411.2090 </r>
       <r>    -2.0763    93.5918   416.2989 </r>
       <r>    -2.0220    95.8219   421.5101 </r>
       <r>    -1.9676    96.2334   426.7437 </r>
       <r>    -1.9132    96.7062   432.0030 </r>
       <r>    -1.8588    97.9773   437.3314 </r>
       <r>    -1.8044    99.7209   442.7546 </r>
       <r>    -1.7500   101.3725   448.2677 </r>
       <r>    -1.6956   100.7945   453.7493 </r>
       <r>    -1.6413    96.9986   459.0245 </r>
       <r>    -1.5869    93.1311   464.0894 </r>
       <r>    -1.5325    92.1866   469.1029 </r>
       <r>    -1.4781    93.4486   474.1850 </r>
       <r>    -1.4237    94.9291   479.3477 </r>
       <r>    -1.3693    95.3341   484.5323 </r>
       <r>    -1.3150    92.8433   489.5815 </r>
       <r>    -1.2606    86.1735   494.2680 </r>
       <r>    -1.2062    75.7999   498.3903 </r>
       <r>    -1.1518    62.9655   501.8147 </r>
       <r>    -1.0974    50.0073   504.5343 </r>
       <r>    -1.0430    38.0062   506.6012 </r>
       <r>    -0.9887    26.1328   508.0224 </r>
       <r>    -0.9343    16.0689   508.8963 </r>
       <r>    -0.8799    10.5749   509.4714 </r>
       <r>    -0.8255     9.3071   509.9776 </r>
       <r>    -0.7711    10.2508   510.5351 </r>
       <r>    -0.7167    12.1054   511.1934 </r>
       <r>    -0.6623    14.8083   511.9988 </r>
       <r>    -0.6080    18.8905   513.0261 </r>
       <r>    -0.5536    23.0699   514.2807 </r>
       <r>    -0.4992    24.2957   515.6020 </r>
       <r>    -0.4448    21.0783   516.7484 </r>
       <r>    -0.3904    15.3435   517.5828 </r>
       <r>    -0.3360    12.1108   518.2415 </r>
       <r>    -0.2817    15.0903   519.0621 </r>
       <r>    -0.2273    20.4886   520.1764 </r>
       <r>    -0.1729    21.6965   521.3563 </r>
       <r>    -0.1185    17.9762   522.3340 </r>
       <r>    -0.0641    12.8970   523.0354 </r>
       <r>    -0.0097     9.2739   523.5397 </r>
       <r>     0.0447     8.2222   523.9869 </r>
       <r>     0.0990    10.3470   524.5496 </r>
       <r>     0.1534    14.1175   525.3173 </r>
       <r>     0.2078    16.4220   526.2104 </r>
       <r>     0.2622    17.3650   527.1548 </r>
       <r>     0.3166    18.4869   528.1602 </r>
       <r>     0.3710    19.5861   529.2254 </r>
       <r>     0.4253    20.3169   530.3303 </r>
       <r>     0.4797    21.2320   531.4850 </r>
       <r>     0.5341    22.8646   532.7285 </r>
       <r>     0.5885    24.4667   534.0591 </r>
       <r>     0.6429    24.1710   535.3736 </r>
       <r>     0.6973    21.7569   536.5568 </r>
       <r>     0.7516    18.9548   537.5877 </r>
       <r>     0.8060    15.4140   538.4260 </r>
       <r>     0.8604    11.6719   539.0607 </r>
       <r>     0.9148    11.1079   539.6648 </r>
       <r>     0.9692    13.3614   540.3915 </r>
       <r>     1.0236    14.4698   541.1784 </r>
       <r>     1.0780    12.9426   541.8823 </r>
       <r>     1.1323    10.7024   542.4643 </r>
       <r>     1.1867     9.2819   542.9691 </r>
       <r>     1.2411     7.9861   543.4034 </r>
       <r>     1.2955     5.9564   543.7274 </r>
       <r>     1.3499     3.5772   543.9219 </r>
       <r>     1.4043     2.7323   544.0705 </r>
       <r>     1.4586     6.1473   544.4048 </r>
       <r>     1.5130    14.1367   545.1736 </r>
       <r>     1.5674    20.6794   546.2983 </r>
       <r>     1.6218    19.6283   547.3657 </r>
       <r>     1.6762    14.7779   548.1694 </r>
       <r>     1.7306    13.0796   548.8808 </r>
       <r>     1.7849    14.6540   549.6777 </r>
       <r>     1.8393    16.0302   550.5495 </r>
       <r>     1.8937    15.8590   551.4120 </r>
       <r>     1.9481    14.9842   552.2269 </r>
       <r>     2.0025    14.4462   553.0125 </r>
       <r>     2.0569    15.5343   553.8573 </r>
       <r>     2.1113    18.2483   554.8498 </r>
       <r>     2.1656    21.0641   555.9953 </r>
       <r>     2.2200    22.7332   557.2316 </r>
       <r>     2.2744    21.8809   558.4216 </r>
       <r>     2.3288    18.4618   559.4257 </r>
       <r>     2.3832    15.3259   560.2591 </r>
       <r>     2.4376    15.1493   561.0830 </r>
       <r>     2.4919    17.6366   562.0422 </r>
       <r>     2.5463    20.7498   563.1706 </r>
       <r>     2.6007    22.7143   564.4059 </r>
       <r>     2.6551    23.6948   565.6946 </r>
       <r>     2.7095    23.1565   566.9539 </r>
       <r>     2.7639    18.9536   567.9847 </r>
       <r>     2.8182    12.2871   568.6529 </r>
       <r>     2.8726     7.3765   569.0541 </r>
       <r>     2.9270     5.9997   569.3804 </r>
       <r>     2.9814     5.6490   569.6876 </r>
       <r>     3.0358     4.1747   569.9146 </r>
       <r>     3.0902     3.3308   570.0958 </r>
       <r>     3.1446     5.3611   570.3873 </r>
       <r>     3.1989     9.3432   570.8954 </r>
       <r>     3.2533    12.2612   571.5623 </r>
       <r>     3.3077    12.0810   572.2193 </r>
       <r>     3.3621     9.8748   572.7563 </r>
       <r>     3.4165     9.3597   573.2653 </r>
       <r>     3.4709    12.4813   573.9441 </r>
       <r>     3.5252    16.8667   574.8614 </r>
       <r>     3.5796    20.5238   575.9776 </r>
       <r>     3.6340    23.1296   577.2355 </r>
       <r>     3.6884    22.3939   578.4533 </r>
       <r>     3.7428    17.7591   579.4191 </r>
       <r>     3.7972    13.2430   580.1394 </r>
       <r>     3.8515    11.5757   580.7689 </r>
       <r>     3.9059    11.2230   581.3792 </r>
       <r>     3.9603    11.1217   581.9841 </r>
       <r>     4.0147    12.1682   582.6459 </r>
       <r>     4.0691    13.1605   583.3616 </r>
       <r>     4.1235    12.5457   584.0439 </r>
       <r>     4.1779    11.6683   584.6784 </r>
       <r>     4.2322    10.8178   585.2668 </r>
       <r>     4.2866     8.7491   585.7426 </r>
       <r>     4.3410     7.3502   586.1423 </r>
       <r>     4.3954     9.6015   586.6645 </r>
       <r>     4.4498    13.6712   587.4080 </r>
       <r>     4.5042    16.6795   588.3151 </r>
       <r>     4.5585    20.3098   589.4196 </r>
       <r>     4.6129    25.1256   590.7860 </r>
       <r>     4.6673    27.6509   592.2898 </r>
       <r>     4.7217    26.3238   593.7214 </r>
       <r>     4.7761    23.4808   594.9984 </r>
       <r>     4.8305    22.5088   596.2225 </r>
       <r>     4.8848    24.5497   597.5576 </r>
       <r>     4.9392    27.5601   599.0565 </r>
       <r>     4.9936    30.2034   600.6991 </r>
       <r>     5.0480    32.8687   602.4866 </r>
       <r>     5.1024    34.6627   604.3717 </r>
       <r>     5.1568    34.7485   606.2615 </r>
       <r>     5.2112    33.2758   608.0712 </r>
       <r>     5.2655    29.1603   609.6570 </r>
       <r>     5.3199    21.8565   610.8457 </r>
       <r>     5.3743    13.1534   611.5610 </r>
       <r>     5.4287     5.8770   611.8806 </r>
       <r>     5.4831     1.7964   611.9783 </r>
       <r>     5.5375     0.3527   611.9975 </r>
       <r>     5.5918     0.0427   611.9998 </r>
       <r>     5.6462     0.0031   612.0000 </r>
       <r>     5.7006     0.0001   612.0000 </r>
       <r>     5.7550     0.0000   612.0000 </r>
       <r>     5.8094     0.0000   612.0000 </r>
       <r>     5.8638     0.0000   612.0000 </r>
       <r>     5.9181     0.0000   612.0000 </r>
       <r>     5.9725     0.0000   612.0000 </r>
       <r>     6.0269     0.0000   612.0000 </r>
       <r>     6.0813     0.0000   612.0000 </r>
       <r>     6.1357     0.0000   612.0000 </r>
       <r>     6.1901     0.0000   612.0000 </r>
       <r>     6.2445     0.0000   612.0000 </r>
       <r>     6.2988     0.0000   612.0000 </r>
       <r>     6.3532     0.0000   612.0000 </r>
      </set>
     </set>
    </array>
   </total>
  </dos>
 </calculation>
 <structure name="finalpos" >
  <crystal>
   <varray name="basis" >
    <v>      11.00258152       0.00000000       0.00000000 </v>
    <v>       5.50129076       9.52851510       0.00000000 </v>
    <v>       0.00000000       0.00000000      24.49178509 </v>
   </varray>
   <i name="volume">   2567.67623402 </i>
   <varray name="rec_basis" >
    <v>       0.09088776      -0.05247407       0.00000000 </v>
    <v>       0.00000000       0.10494815       0.00000000 </v>
    <v>       0.00000000       0.00000000       0.04083002 </v>
   </varray>
  </crystal>
  <varray name="positions" >
   <v>       0.08313361       0.08349190       0.39480006 </v>
   <v>       0.66439677       0.66819371       0.49940483 </v>
   <v>       0.74995358       0.24766317       0.60247871 </v>
   <v>       0.66349410       0.41519352       0.50055557 </v>
   <v>       0.83134237       0.33290873       0.39596867 </v>
   <v>       0.41729259       0.91586989       0.49907777 </v>
   <v>       0.58251887       0.83499861       0.39430299 </v>
   <v>       0.58193557       0.58452155       0.39516199 </v>
   <v>       0.41891373       0.16742678       0.50062762 </v>
   <v>       0.58328001       0.08553708       0.39697164 </v>
   <v>       0.16405925       0.91750389       0.49943055 </v>
   <v>       0.25434619       0.49827476       0.60714340 </v>
   <v>       0.16644684       0.66768197       0.50162575 </v>
   <v>       0.33284105       0.58154855       0.39913073 </v>
   <v>       0.25471518       0.24587848       0.60826088 </v>
   <v>       0.16706926       0.41724945       0.50225782 </v>
   <v>       0.25298634       0.75022989       0.60353261 </v>
   <v>      -0.00158892       0.50276651       0.60864698 </v>
   <v>       0.91432643       0.67012599       0.50121015 </v>
   <v>       0.91483282       0.41638599       0.50028983 </v>
   <v>       0.08377518       0.33569224       0.39492107 </v>
   <v>       0.08010454       0.83401993       0.39578759 </v>
   <v>       0.00111632       0.24735976       0.60403240 </v>
   <v>       0.16536027       0.16660820       0.50010641 </v>
   <v>       0.00075611      -0.00220161       0.59669256 </v>
   <v>       0.91414859       0.16620318       0.50040126 </v>
   <v>       0.50319060       0.74925419       0.59693130 </v>
   <v>       0.74983409       0.50085291       0.59810391 </v>
   <v>       0.83320710       0.83320996       0.40228162 </v>
   <v>       0.75201512      -0.00321501       0.59521234 </v>
   <v>       0.66803799       0.16448612       0.50021932 </v>
   <v>       0.83213167       0.08334923       0.40399371 </v>
   <v>       0.83332662       0.58493129       0.40189230 </v>
   <v>       0.25316727      -0.00185053       0.59787241 </v>
   <v>       0.50194559       0.50002214       0.59786623 </v>
   <v>       0.33266966       0.33403991       0.40384372 </v>
   <v>       0.41557121       0.66605000       0.49962160 </v>
   <v>       0.50344283       0.24683567       0.59775861 </v>
   <v>       0.41616648       0.41753223       0.50162483 </v>
   <v>       0.58245910       0.33318774       0.40383224 </v>
   <v>       0.50413631      -0.00280253       0.59638885 </v>
   <v>       0.66679388       0.91855293       0.49779882 </v>
   <v>       0.91443751       0.91903655       0.49921485 </v>
   <v>       0.33193968       0.83431815       0.40131492 </v>
   <v>      -0.00061847       0.75189730       0.59865968 </v>
   <v>       0.33236283       0.08476593       0.40160750 </v>
   <v>       0.08177238       0.58387762       0.40388184 </v>
   <v>       0.75045393       0.75053606       0.59725954 </v>
  </varray>
 </structure>
</modeling>
