unknown system                          
           1
    11.002582    0.000000    0.000000
     5.501291    9.528515    0.000000
     0.000000    0.000000   24.491785
   Au   Pd
  24  24
Direct configuration=     1
   0.08333333  0.08333333  0.40830017
   0.66666667  0.66666667  0.50000000
   0.75000000  0.25000000  0.59169983
   0.66666667  0.41666667  0.50000000
   0.83333333  0.33333333  0.40830017
   0.41666667  0.91666667  0.50000000
   0.58333333  0.83333333  0.40830017
   0.58333333  0.58333333  0.40830017
   0.41666667  0.16666667  0.50000000
   0.58333333  0.08333333  0.40830017
   0.16666667  0.91666667  0.50000000
   0.25000000  0.50000000  0.59169983
   0.16666667  0.66666667  0.50000000
   0.33333333  0.58333333  0.40830017
   0.25000000  0.25000000  0.59169983
   0.16666667  0.41666667  0.50000000
   0.25000000  0.75000000  0.59169983
   0.00000000  0.50000000  0.59169983
   0.91666667  0.66666667  0.50000000
   0.91666667  0.41666667  0.50000000
   0.08333333  0.33333333  0.40830017
   0.08333333  0.83333333  0.40830017
   0.00000000  0.25000000  0.59169983
   0.16666667  0.16666667  0.50000000
   0.00000000  0.00000000  0.59169983
   0.91666667  0.16666667  0.50000000
   0.50000000  0.75000000  0.59169983
   0.75000000  0.50000000  0.59169983
   0.83333333  0.83333333  0.40830017
   0.75000000  0.00000000  0.59169983
   0.66666667  0.16666667  0.50000000
   0.83333333  0.08333333  0.40830017
   0.83333333  0.58333333  0.40830017
   0.25000000  0.00000000  0.59169983
   0.50000000  0.50000000  0.59169983
   0.33333333  0.33333333  0.40830017
   0.41666667  0.66666667  0.50000000
   0.50000000  0.25000000  0.59169983
   0.41666667  0.41666667  0.50000000
   0.58333333  0.33333333  0.40830017
   0.50000000  0.00000000  0.59169983
   0.66666667  0.91666667  0.50000000
   0.91666667  0.91666667  0.50000000
   0.33333333  0.83333333  0.40830017
   0.00000000  0.75000000  0.59169983
   0.33333333  0.08333333  0.40830017
   0.08333333  0.58333333  0.40830017
   0.75000000  0.75000000  0.59169983
Direct configuration=     2
   0.08343723  0.08287628  0.40604397
   0.66631685  0.66749230  0.50078672
   0.74956054  0.24943142  0.59348759
   0.66493418  0.41609933  0.50041950
   0.83280569  0.33268677  0.40607002
   0.41698641  0.91601411  0.50042359
   0.58354716  0.83358307  0.40610082
   0.58274139  0.58355449  0.40605458
   0.41864247  0.16658474  0.50001850
   0.58386849  0.08381829  0.40652692
   0.16613069  0.91704537  0.50040402
   0.25138603  0.49975747  0.59395989
   0.16633180  0.66683701  0.49993696
   0.33393627  0.58225534  0.40643682
   0.25152549  0.24854616  0.59430258
   0.16808138  0.41712687  0.49915385
   0.25056666  0.75033061  0.59381038
  -0.00161523  0.50165166  0.59434756
   0.91525817  0.66929074  0.49968160
   0.91526038  0.41716959  0.49999782
   0.08405677  0.33402673  0.40579111
   0.08203313  0.83370331  0.40614699
  -0.00032542  0.24894059  0.59394226
   0.16723767  0.16507833  0.49999686
  -0.00056419 -0.00029269  0.59267553
   0.91587386  0.16528041  0.50007864
   0.50046838  0.74989591  0.59283350
   0.74902107  0.50099406  0.59311404
   0.83365699  0.83328014  0.40739686
   0.75016852 -0.00044794  0.59236073
   0.66735002  0.16582027  0.50003812
   0.83279881  0.08314759  0.40759138
   0.83380476  0.58389831  0.40683767
   0.25046169 -0.00047718  0.59308744
   0.50015311  0.50007504  0.59266414
   0.33357958  0.33346757  0.40712293
   0.41698360  0.66620895  0.50028592
   0.50085763  0.24940772  0.59265549
   0.41799623  0.41600719  0.49995859
   0.58327140  0.33269131  0.40734407
   0.50094243 -0.00060057  0.59280780
   0.66775273  0.91713461  0.50053741
   0.91485166  0.91819878  0.50025141
   0.33348321  0.83345976  0.40699317
  -0.00140246  0.75151127  0.59290055
   0.33327393  0.08346032  0.40685101
   0.08293906  0.58330212  0.40694833
   0.74957379  0.75067649  0.59282433
Direct configuration=     3
   0.08374891  0.08150512  0.39927538
   0.66526740  0.66996921  0.50314688
   0.74824216  0.24772568  0.59885088
   0.65973674  0.41439733  0.50167801
   0.83122278  0.33074709  0.39937956
   0.41794564  0.91405643  0.50169437
   0.58418865  0.83433229  0.39950278
   0.58096555  0.58421795  0.39931782
   0.42456988  0.16633898  0.50007400
   0.58547397  0.08527317  0.40120717
   0.16452276  0.91818150  0.50161610
   0.25554414  0.49902987  0.60074008
   0.16532722  0.66734803  0.49974783
   0.33574507  0.57902135  0.40084677
   0.25610195  0.24418466  0.60211084
   0.17232554  0.41850747  0.49661539
   0.25226664  0.75132243  0.60014203
  -0.00646090  0.50660664  0.60229077
   0.91103267  0.67716297  0.49872639
   0.91104150  0.41867834  0.49999128
   0.08622708  0.33610692  0.39826393
   0.07813254  0.83481323  0.39968744
  -0.00130169  0.24576236  0.60066955
   0.16895067  0.16031330  0.49998743
  -0.00225676 -0.00117074  0.59560264
   0.91349544  0.16112163  0.50031458
   0.50187350  0.74958362  0.59623453
   0.74608429  0.50397622  0.59735666
   0.83462796  0.83312056  0.40468693
   0.75067408 -0.00179177  0.59434344
   0.66940008  0.16328108  0.50015248
   0.83119522  0.08259038  0.40546501
   0.83521905  0.58559323  0.40245017
   0.25184675 -0.00190874  0.59725028
   0.50061242  0.50030016  0.59555707
   0.33431833  0.33387029  0.40359119
   0.41793440  0.66483581  0.50114370
   0.50343050  0.24763087  0.59552245
   0.42198491  0.41402876  0.49983437
   0.58308559  0.33076524  0.40447577
   0.50376971 -0.00240229  0.59613170
   0.67101091  0.91853844  0.50214966
   0.90940663  0.92279511  0.50100565
   0.33393285  0.83383903  0.40307217
  -0.00560984  0.75604510  0.59650272
   0.33309572  0.08384127  0.40250355
   0.08175623  0.58320850  0.40289279
   0.74829516  0.75270595  0.59619783
Direct configuration=     4
   0.08367706  0.08216164  0.39795162
   0.66520648  0.66910090  0.50208830
   0.74836040  0.24814640  0.60035371
   0.66319072  0.41430046  0.50119916
   0.83157251  0.33160149  0.39835245
   0.41900315  0.91469418  0.50102201
   0.58423626  0.83451487  0.39855726
   0.58248523  0.58395307  0.39830698
   0.42242754  0.16570907  0.50003355
   0.58483780  0.08422247  0.39985264
   0.16438333  0.91559630  0.50115185
   0.25386910  0.49897166  0.60189659
   0.16588161  0.66884280  0.49995443
   0.33424775  0.58042062  0.39980145
   0.25446397  0.24582977  0.60323557
   0.17011429  0.41702240  0.49762218
   0.25167333  0.75109167  0.60150988
  -0.00434740  0.50500828  0.60331214
   0.91376556  0.67282009  0.49916981
   0.91323959  0.41700951  0.49996561
   0.08518335  0.33510551  0.39697097
   0.07956155  0.83399599  0.39856063
  -0.00094746  0.24700333  0.60165255
   0.16725350  0.16490442  0.49995188
  -0.00177187 -0.00167438  0.59665139
   0.91357389  0.16399864  0.50020533
   0.50146763  0.74992711  0.59766546
   0.74684738  0.50261320  0.59834741
   0.83357812  0.83371891  0.40361896
   0.75024733 -0.00139514  0.59571864
   0.66923824  0.16376941  0.50009162
   0.83185062  0.08245240  0.40469707
   0.83425961  0.58497220  0.40188784
   0.25196754 -0.00168996  0.59841825
   0.50082775  0.50053704  0.59678742
   0.33519858  0.33289969  0.40239263
   0.41633584  0.66556020  0.50067352
   0.50334045  0.24732077  0.59643417
   0.41935295  0.41543857  0.49991751
   0.58344876  0.33129237  0.40371251
   0.50366425 -0.00239622  0.59704631
   0.66767018  0.91975537  0.50137645
   0.91248111  0.92143452  0.50061185
   0.33318038  0.83379007  0.40264400
  -0.00411148  0.75484044  0.59726101
   0.33355913  0.08382175  0.40203976
   0.08203417  0.58421258  0.40180401
   0.74842021  0.75277358  0.59752365
Direct configuration=     5
   0.08363933  0.08250642  0.39725642
   0.66517448  0.66864489  0.50153237
   0.74842249  0.24836735  0.60114295
   0.66500466  0.41424958  0.50094769
   0.83175618  0.33205020  0.39781305
   0.41955853  0.91502911  0.50066891
   0.58426126  0.83461075  0.39806069
   0.58328333  0.58381396  0.39777612
   0.42130243  0.16537826  0.50001230
   0.58450370  0.08367068  0.39914128
   0.16431011  0.91423862  0.50090803
   0.25298941  0.49894110  0.60250395
   0.16617277  0.66962781  0.50006293
   0.33346139  0.58115548  0.39925248
   0.25360375  0.24669373  0.60382626
   0.16895301  0.41624248  0.49815092
   0.25136174  0.75097049  0.60222824
  -0.00323744  0.50416886  0.60384854
   0.91520080  0.67053933  0.49940268
   0.91439396  0.41613309  0.49995213
   0.08463521  0.33457959  0.39629195
   0.08031203  0.83356680  0.39796886
  -0.00076143  0.24765505  0.60216879
   0.16636219  0.16731555  0.49993321
  -0.00151723 -0.00193888  0.59720216
   0.91361510  0.16550956  0.50014796
   0.50125447  0.75010750  0.59841694
   0.74724813  0.50189738  0.59886772
   0.83302677  0.83403315  0.40305809
   0.75002321 -0.00118685  0.59644086
   0.66915326  0.16402587  0.50005966
   0.83219482  0.08237993  0.40429377
   0.83375574  0.58464606  0.40159252
   0.25203098 -0.00157507  0.59903164
   0.50094083  0.50066145  0.59743356
   0.33566086  0.33238996  0.40176317
   0.41549632  0.66594063  0.50042660
   0.50329316  0.24715791  0.59691298
   0.41797072  0.41617896  0.49996118
   0.58363949  0.33156921  0.40331167
   0.50360887 -0.00239303  0.59752665
   0.66591572  0.92039446  0.50097038
   0.91409575  0.92071997  0.50040503
   0.33278520  0.83376435  0.40241914
  -0.00332458  0.75420779  0.59765924
   0.33380250  0.08381149  0.40179619
   0.08218013  0.58473989  0.40123221
   0.74848588  0.75280910  0.59821994
Direct configuration=     6
   0.08380461  0.08257104  0.39676471
   0.66556580  0.66780101  0.50115659
   0.74871755  0.24855516  0.60182369
   0.66470903  0.41509152  0.50076877
   0.83211777  0.33227991  0.39730136
   0.41757808  0.91567978  0.50046042
   0.58387256  0.83423207  0.39756499
   0.58319675  0.58396055  0.39736650
   0.41968962  0.16672592  0.50005058
   0.58431186  0.08383537  0.39846113
   0.16483992  0.91699079  0.50070156
   0.25251215  0.49899970  0.60298289
   0.16638379  0.66741205  0.50021176
   0.33359510  0.58132107  0.39880455
   0.25294698  0.24730620  0.60440953
   0.16815456  0.41697434  0.49855534
   0.25133496  0.75065239  0.60294791
  -0.00264565  0.50355251  0.60432982
   0.91549477  0.66966989  0.49974661
   0.91513391  0.41622976  0.50002928
   0.08437440  0.33463249  0.39563403
   0.08061928  0.83381403  0.39730646
  -0.00043393  0.24797402  0.60256409
   0.16612129  0.16628883  0.50001302
  -0.00111672 -0.00150835  0.59756884
   0.91500945  0.16594123  0.50021179
   0.50133543  0.75012340  0.59878321
   0.74794377  0.50151688  0.59908860
   0.83310538  0.83374067  0.40276671
   0.75022166 -0.00139650  0.59690180
   0.66865050  0.16450476  0.50009535
   0.83264007  0.08241326  0.40398834
   0.83380760  0.58433862  0.40154527
   0.25186528 -0.00125845  0.59910879
   0.50079672  0.50067153  0.59778906
   0.33514232  0.33244631  0.40147679
   0.41620335  0.66559233  0.50025220
   0.50269269  0.24737685  0.59716832
   0.41703824  0.41679085  0.50006759
   0.58363334  0.33214853  0.40314957
   0.50290974 -0.00199573  0.59793916
   0.66717271  0.91906493  0.50046327
   0.91405575  0.91982476  0.50018110
   0.33268030  0.83379035  0.40237809
  -0.00259561  0.75322386  0.59786684
   0.33355151  0.08377542  0.40170634
   0.08225232  0.58425228  0.40105934
   0.74900904  0.75207179  0.59848803
Direct configuration=     7
   0.08383119  0.08258143  0.39668563
   0.66562873  0.66766529  0.50109615
   0.74876501  0.24858537  0.60193317
   0.66466149  0.41522692  0.50073999
   0.83217592  0.33231686  0.39721906
   0.41725956  0.91578442  0.50042689
   0.58381005  0.83417116  0.39748527
   0.58318283  0.58398413  0.39730062
   0.41943023  0.16694266  0.50005674
   0.58428101  0.08386186  0.39835174
   0.16492513  0.91743342  0.50066835
   0.25243539  0.49900913  0.60305992
   0.16641773  0.66705569  0.50023570
   0.33361660  0.58134771  0.39873250
   0.25284136  0.24740470  0.60450334
   0.16802615  0.41709205  0.49862038
   0.25133066  0.75060123  0.60306365
  -0.00255047  0.50345338  0.60440722
   0.91554205  0.66953006  0.49980192
   0.91525291  0.41624531  0.50004169
   0.08433245  0.33464100  0.39552822
   0.08066869  0.83385379  0.39719993
  -0.00038126  0.24802532  0.60262766
   0.16608255  0.16612370  0.50002585
  -0.00105231 -0.00143911  0.59762782
   0.91523371  0.16601065  0.50022206
   0.50134845  0.75012595  0.59884211
   0.74805565  0.50145568  0.59912413
   0.83311802  0.83369363  0.40271985
   0.75025358 -0.00143021  0.59697593
   0.66856964  0.16458178  0.50010109
   0.83271168  0.08241862  0.40393922
   0.83381594  0.58428918  0.40153767
   0.25183863 -0.00120753  0.59912119
   0.50077354  0.50067315  0.59784624
   0.33505893  0.33245537  0.40143074
   0.41631707  0.66553631  0.50022415
   0.50259612  0.24741206  0.59720939
   0.41688826  0.41688926  0.50008470
   0.58363235  0.33224170  0.40312350
   0.50279730 -0.00193183  0.59800551
   0.66737488  0.91885110  0.50038172
   0.91404932  0.91968079  0.50014509
   0.33266343  0.83379453  0.40237149
  -0.00247837  0.75306562  0.59790023
   0.33351114  0.08376962  0.40169189
   0.08226393  0.58417386  0.40103154
   0.74909318  0.75195320  0.59853114
Direct configuration=     8
   0.08389724  0.08259831  0.39635221
   0.66533935  0.66806747  0.50111483
   0.74880692  0.24859006  0.60213076
   0.66408160  0.41512209  0.50077375
   0.83229051  0.33224241  0.39696159
   0.41749874  0.91555171  0.50051699
   0.58351771  0.83408570  0.39720216
   0.58282330  0.58406332  0.39701745
   0.41940799  0.16720997  0.50010541
   0.58431610  0.08424715  0.39808346
   0.16471106  0.91743627  0.50066919
   0.25270269  0.49902180  0.60342946
   0.16655921  0.66744229  0.50030017
   0.33382539  0.58120862  0.39855816
   0.25292344  0.24728165  0.60489519
   0.16796941  0.41692109  0.49867119
   0.25138087  0.75065377  0.60330831
  -0.00276567  0.50347204  0.60481195
   0.91484080  0.67001185  0.49998682
   0.91538875  0.41634533  0.50009386
   0.08452022  0.33481956  0.39517562
   0.08063661  0.83389323  0.39691977
  -0.00026590  0.24798415  0.60287109
   0.16611658  0.16597554  0.50006681
  -0.00081086 -0.00125893  0.59761387
   0.91512535  0.16591254  0.50031042
   0.50160170  0.75002000  0.59872574
   0.74825559  0.50153428  0.59907114
   0.83349580  0.83324554  0.40267110
   0.75051350 -0.00171727  0.59695212
   0.66847017  0.16471851  0.50018489
   0.83272781  0.08259251  0.40392845
   0.83407360  0.58429368  0.40159981
   0.25182338 -0.00121921  0.59908634
   0.50070220  0.50056363  0.59785868
   0.33442596  0.33280581  0.40149490
   0.41624651  0.66560587  0.50025254
   0.50237800  0.24756879  0.59720655
   0.41716606  0.41687605  0.50015716
   0.58361388  0.33235240  0.40318694
   0.50251307 -0.00175861  0.59796063
   0.66777369  0.91833930  0.50018560
   0.91419672  0.91949874  0.50008955
   0.33269820  0.83375378  0.40232709
  -0.00234281  0.75293467  0.59792341
   0.33329501  0.08382830  0.40167803
   0.08226336  0.58373794  0.40111752
   0.74927118  0.75152629  0.59840132
Direct configuration=     9
   0.08395425  0.08261289  0.39606439
   0.66508955  0.66841466  0.50113095
   0.74884310  0.24859411  0.60230133
   0.66358102  0.41503159  0.50080289
   0.83238942  0.33217815  0.39673932
   0.41770520  0.91535081  0.50059477
   0.58326535  0.83401192  0.39695777
   0.58251294  0.58413168  0.39677300
   0.41938879  0.16744072  0.50014743
   0.58434640  0.08457974  0.39785186
   0.16452627  0.91743873  0.50066991
   0.25293343  0.49903275  0.60374847
   0.16668135  0.66777602  0.50035582
   0.33400563  0.58108856  0.39840765
   0.25299431  0.24717543  0.60523345
   0.16792044  0.41677351  0.49871506
   0.25142421  0.75069912  0.60351951
  -0.00295144  0.50348815  0.60516134
   0.91423545  0.67042776  0.50014643
   0.91550601  0.41643166  0.50013889
   0.08468231  0.33497369  0.39487124
   0.08060891  0.83392728  0.39667792
  -0.00016632  0.24794861  0.60308123
   0.16614597  0.16584764  0.50010216
  -0.00060243 -0.00110339  0.59760184
   0.91503181  0.16582784  0.50038670
   0.50182031  0.74992853  0.59862527
   0.74842819  0.50160213  0.59902539
   0.83382192  0.83285874  0.40262902
   0.75073787 -0.00196506  0.59693157
   0.66838431  0.16483654  0.50025724
   0.83274172  0.08274261  0.40391915
   0.83429603  0.58429756  0.40165344
   0.25181022 -0.00122929  0.59905626
   0.50064062  0.50046909  0.59786943
   0.33387956  0.33310832  0.40155030
   0.41618560  0.66566592  0.50027705
   0.50218972  0.24770409  0.59720409
   0.41740587  0.41686464  0.50021971
   0.58359794  0.33244797  0.40324171
   0.50226770 -0.00160908  0.59792189
   0.66811795  0.91789750  0.50001630
   0.91432397  0.91934159  0.50004161
   0.33272821  0.83371859  0.40228877
  -0.00222579  0.75282164  0.59794341
   0.33310843  0.08387895  0.40166606
   0.08226287  0.58336164  0.40119175
   0.74942484  0.75115776  0.59828925
Direct configuration=    10
   0.08397939  0.08271931  0.39567553
   0.66480666  0.66811875  0.50104061
   0.74884238  0.24852081  0.60249523
   0.66380446  0.41499984  0.50086466
   0.83240786  0.33231516  0.39650148
   0.41793459  0.91552784  0.50064308
   0.58315409  0.83424471  0.39658863
   0.58259167  0.58398802  0.39642458
   0.41987698  0.16703391  0.50015888
   0.58431811  0.08474812  0.39762705
   0.16434163  0.91716629  0.50062092
   0.25298101  0.49903582  0.60420753
   0.16665740  0.66790014  0.50037735
   0.33379703  0.58102958  0.39827003
   0.25303461  0.24717361  0.60576637
   0.16779297  0.41714053  0.49887842
   0.25157729  0.75077742  0.60377470
  -0.00273135  0.50333748  0.60574871
   0.91454164  0.67041003  0.50033448
   0.91500558  0.41647785  0.50016713
   0.08466795  0.33490236  0.39443228
   0.08067362  0.83373526  0.39636377
  -0.00012497  0.24798841  0.60339645
   0.16624035  0.16581525  0.50011683
  -0.00044253 -0.00109891  0.59751577
   0.91454237  0.16594002  0.50047865
   0.50198550  0.74977133  0.59845338
   0.74848298  0.50148539  0.59886875
   0.83396489  0.83263757  0.40258160
   0.75094406 -0.00224914  0.59673908
   0.66852765  0.16438088  0.50037792
   0.83276099  0.08284252  0.40399337
   0.83421962  0.58428831  0.40178242
   0.25192377 -0.00136245  0.59899965
   0.50070629  0.50045035  0.59787773
   0.33363518  0.33334141  0.40171605
   0.41594679  0.66592335  0.50031686
   0.50227979  0.24762383  0.59719228
   0.41705140  0.41704866  0.50028838
   0.58354953  0.33246733  0.40333353
   0.50239404 -0.00163045  0.59773826
   0.66768485  0.91850679  0.49974075
   0.91434721  0.91948745  0.49996378
   0.33254544  0.83377216  0.40225607
  -0.00202270  0.75277453  0.59796949
   0.33309542  0.08392854  0.40172514
   0.08232596  0.58338922  0.40145474
   0.74938057  0.75117479  0.59816165
Direct configuration=    11
   0.08399748  0.08279589  0.39539571
   0.66460309  0.66790581  0.50097560
   0.74884185  0.24846805  0.60263476
   0.66396524  0.41497700  0.50090911
   0.83242114  0.33241376  0.39633032
   0.41809965  0.91565522  0.50067785
   0.58307403  0.83441222  0.39632300
   0.58264833  0.58388463  0.39617386
   0.42022828  0.16674118  0.50016713
   0.58429776  0.08486929  0.39746528
   0.16420878  0.91697024  0.50058566
   0.25301524  0.49903804  0.60453787
   0.16664017  0.66798945  0.50039284
   0.33364693  0.58098714  0.39817101
   0.25306361  0.24717231  0.60614985
   0.16770124  0.41740464  0.49899598
   0.25168744  0.75083376  0.60395833
  -0.00257297  0.50322907  0.60617138
   0.91476197  0.67039727  0.50046979
   0.91464548  0.41651108  0.50018746
   0.08465762  0.33485103  0.39411641
   0.08072018  0.83359709  0.39613771
  -0.00009522  0.24801704  0.60362327
   0.16630827  0.16579194  0.50012738
  -0.00032748 -0.00109569  0.59745383
   0.91419017  0.16602074  0.50054482
   0.50210436  0.74965821  0.59832969
   0.74852241  0.50140139  0.59875604
   0.83406776  0.83247842  0.40254748
   0.75109243 -0.00245355  0.59660057
   0.66863080  0.16405299  0.50046477
   0.83277485  0.08291442  0.40404679
   0.83416464  0.58428166  0.40187523
   0.25200549 -0.00145827  0.59895891
   0.50075354  0.50043687  0.59788370
   0.33345933  0.33350913  0.40183533
   0.41577495  0.66610859  0.50034550
   0.50234460  0.24756608  0.59718378
   0.41679632  0.41718108  0.50033779
   0.58351470  0.33248126  0.40339960
   0.50248495 -0.00164582  0.59760613
   0.66737320  0.91894524  0.49954247
   0.91436392  0.91959240  0.49990776
   0.33241391  0.83381070  0.40223254
  -0.00187656  0.75274063  0.59798826
   0.33308606  0.08396422  0.40176765
   0.08237136  0.58340908  0.40164399
   0.74934872  0.75118705  0.59806983
Direct configuration=    12
   0.08393092  0.08279860  0.39512233
   0.66475267  0.66788525  0.50067600
   0.74888718  0.24828017  0.60277554
   0.66382743  0.41486888  0.50087998
   0.83232192  0.33248478  0.39617692
   0.41781571  0.91580525  0.50052328
   0.58317573  0.83452415  0.39602096
   0.58270837  0.58391838  0.39591912
   0.41973366  0.16720175  0.50013316
   0.58424642  0.08483286  0.39730750
   0.16425769  0.91731131  0.50043299
   0.25297470  0.49902597  0.60494539
   0.16661429  0.66778167  0.50045880
   0.33353301  0.58107142  0.39813348
   0.25324815  0.24709195  0.60660326
   0.16761239  0.41715053  0.49931131
   0.25182874  0.75073498  0.60414729
  -0.00226663  0.50315878  0.60672507
   0.91477178  0.67027883  0.50062284
   0.91493602  0.41618367  0.50018894
   0.08449918  0.33482331  0.39381548
   0.08068992  0.83365771  0.39588926
  -0.00003762  0.24805112  0.60384776
   0.16593860  0.16620422  0.50012436
  -0.00033287 -0.00120772  0.59737199
   0.91420945  0.16611668  0.50059065
   0.50216089  0.74954757  0.59822733
   0.74863378  0.50114423  0.59866276
   0.83381802  0.83267945  0.40255885
   0.75119289 -0.00255677  0.59639046
   0.66867813  0.16413307  0.50050627
   0.83287939  0.08282349  0.40413929
   0.83386719  0.58435034  0.40203182
   0.25212328 -0.00138769  0.59887613
   0.50079739  0.50044523  0.59786783
   0.33378974  0.33328050  0.40206965
   0.41563666  0.66610943  0.50029468
   0.50251408  0.24743542  0.59720027
   0.41654534  0.41731805  0.50042992
   0.58345614  0.33249650  0.40355745
   0.50283157 -0.00178956  0.59746124
   0.66743494  0.91881606  0.49920229
   0.91428322  0.91959096  0.49976104
   0.33237272  0.83380054  0.40226669
  -0.00163350  0.75266815  0.59805381
   0.33318474  0.08405441  0.40185229
   0.08221507  0.58365003  0.40192295
   0.74934149  0.75135610  0.59792333
Direct configuration=    13
   0.08388363  0.08280052  0.39492811
   0.66485894  0.66787064  0.50046314
   0.74891939  0.24814669  0.60287557
   0.66372952  0.41479207  0.50085928
   0.83225143  0.33253523  0.39606793
   0.41761398  0.91591184  0.50041347
   0.58324799  0.83460366  0.39580638
   0.58275103  0.58394235  0.39573814
   0.41938227  0.16752897  0.50010902
   0.58420995  0.08480698  0.39719540
   0.16429244  0.91755363  0.50032453
   0.25294590  0.49901739  0.60523492
   0.16659591  0.66763405  0.50050566
   0.33345207  0.58113129  0.39810682
   0.25337927  0.24703485  0.60692538
   0.16754926  0.41696999  0.49953535
   0.25192913  0.75066480  0.60428153
  -0.00204899  0.50310885  0.60711844
   0.91477876  0.67019469  0.50073157
   0.91514244  0.41595106  0.50018999
   0.08438661  0.33480361  0.39360169
   0.08066841  0.83370078  0.39571275
   0.00000330  0.24807534  0.60400725
   0.16567596  0.16649712  0.50012222
  -0.00033669 -0.00128731  0.59731385
   0.91422315  0.16618484  0.50062320
   0.50220106  0.74946896  0.59815460
   0.74871291  0.50096154  0.59859648
   0.83364059  0.83282228  0.40256693
   0.75126426 -0.00263011  0.59624119
   0.66871175  0.16418996  0.50053575
   0.83295367  0.08275890  0.40420500
   0.83365587  0.58439914  0.40214307
   0.25220696 -0.00133756  0.59881731
   0.50082854  0.50045116  0.59785655
   0.33402448  0.33311807  0.40223612
   0.41553841  0.66611003  0.50025857
   0.50263449  0.24734259  0.59721198
   0.41636703  0.41741537  0.50049538
   0.58341454  0.33250733  0.40366959
   0.50307782 -0.00189167  0.59735831
   0.66747881  0.91872428  0.49896061
   0.91422588  0.91958993  0.49965680
   0.33234345  0.83379333  0.40229096
  -0.00146081  0.75261665  0.59810038
   0.33325485  0.08411848  0.40191243
   0.08210404  0.58382122  0.40212114
   0.74933635  0.75147620  0.59781925
Direct configuration=    14
   0.08387753  0.08279283  0.39485023
   0.66474961  0.66802716  0.50025928
   0.74909927  0.24809312  0.60292110
   0.66356832  0.41500290  0.50080117
   0.83211898  0.33239164  0.39601077
   0.41759534  0.91591213  0.50023146
   0.58308260  0.83453540  0.39561874
   0.58250557  0.58412125  0.39563783
   0.41928330  0.16752289  0.50019846
   0.58426083  0.08486785  0.39712839
   0.16414797  0.91763802  0.50019540
   0.25319804  0.49890672  0.60548125
   0.16648278  0.66785235  0.50064076
   0.33353477  0.58119710  0.39818100
   0.25373995  0.24675856  0.60719547
   0.16723695  0.41696617  0.49986060
   0.25191641  0.75068443  0.60424921
  -0.00227695  0.50325308  0.60743729
   0.91477128  0.66990459  0.50086798
   0.91519341  0.41602103  0.50021549
   0.08440212  0.33505427  0.39355208
   0.08055905  0.83385937  0.39564099
   0.00013114  0.24795143  0.60410144
   0.16547205  0.16658521  0.50011788
  -0.00019348 -0.00145566  0.59722694
   0.91449183  0.16613646  0.50063657
   0.50232303  0.74946455  0.59801421
   0.74891139  0.50098489  0.59850122
   0.83363590  0.83295122  0.40255609
   0.75133448 -0.00263694  0.59605611
   0.66837264  0.16444960  0.50049262
   0.83290407  0.08280485  0.40424756
   0.83375401  0.58445262  0.40219213
   0.25228518 -0.00126354  0.59872034
   0.50083636  0.50035633  0.59783814
   0.33384947  0.33314405  0.40238877
   0.41561651  0.66599503  0.50017833
   0.50256996  0.24736218  0.59724267
   0.41636407  0.41747146  0.50063935
   0.58342941  0.33257250  0.40377002
   0.50317657 -0.00194458  0.59719229
   0.66725365  0.91862765  0.49873631
   0.91458402  0.91928599  0.49956526
   0.33252368  0.83376787  0.40227705
  -0.00133057  0.75251961  0.59816726
   0.33309843  0.08421151  0.40193123
   0.08195465  0.58367804  0.40233650
   0.74960439  0.75116482  0.59769876
Direct configuration=    15
   0.08387519  0.08278989  0.39482045
   0.66470780  0.66808702  0.50018133
   0.74916805  0.24807263  0.60293851
   0.66350668  0.41508352  0.50077894
   0.83206833  0.33233674  0.39598891
   0.41758822  0.91591224  0.50016186
   0.58301936  0.83450929  0.39554699
   0.58241172  0.58418965  0.39559948
   0.41924545  0.16752056  0.50023266
   0.58428029  0.08489113  0.39710277
   0.16409273  0.91767030  0.50014602
   0.25329445  0.49886440  0.60557544
   0.16643952  0.66793582  0.50069242
   0.33356639  0.58122227  0.39820936
   0.25387786  0.24665291  0.60729874
   0.16711753  0.41696471  0.49998497
   0.25191155  0.75069194  0.60423685
  -0.00236411  0.50330823  0.60755921
   0.91476843  0.66979366  0.50092014
   0.91521291  0.41604779  0.50022524
   0.08440805  0.33515011  0.39353311
   0.08051724  0.83392001  0.39561355
   0.00018003  0.24790405  0.60413745
   0.16539408  0.16661889  0.50011622
  -0.00013872 -0.00152003  0.59719370
   0.91459457  0.16611796  0.50064169
   0.50236967  0.74946287  0.59796053
   0.74898728  0.50099382  0.59846479
   0.83363410  0.83300053  0.40255195
   0.75136134 -0.00263955  0.59598534
   0.66824297  0.16454888  0.50047613
   0.83288511  0.08282242  0.40426383
   0.83379153  0.58447307  0.40221089
   0.25231509 -0.00123524  0.59868326
   0.50083935  0.50032007  0.59783109
   0.33378255  0.33315398  0.40244714
   0.41564637  0.66595106  0.50014765
   0.50254528  0.24736967  0.59725441
   0.41636294  0.41749290  0.50069441
   0.58343509  0.33259742  0.40380842
   0.50321433 -0.00196481  0.59712881
   0.66716756  0.91859070  0.49865055
   0.91472096  0.91916976  0.49953025
   0.33259259  0.83375813  0.40227173
  -0.00128077  0.75248251  0.59819284
   0.33303862  0.08424708  0.40193843
   0.08189753  0.58362329  0.40241885
   0.74970689  0.75104575  0.59765269
Direct configuration=    16
   0.08387616  0.08292208  0.39478803
   0.66452666  0.66813154  0.50001617
   0.74930524  0.24810482  0.60290896
   0.66370645  0.41517254  0.50074554
   0.83201760  0.33231901  0.39597078
   0.41744976  0.91591233  0.49999753
   0.58290623  0.83454420  0.39534439
   0.58237044  0.58419654  0.39551501
   0.41911426  0.16750009  0.50033815
   0.58418440  0.08496867  0.39706518
   0.16421323  0.91755365  0.50001747
   0.25347178  0.49871662  0.60580818
   0.16647655  0.66789333  0.50084893
   0.33340680  0.58128645  0.39836552
   0.25399618  0.24655461  0.60753719
   0.16715880  0.41708633  0.50037144
   0.25199042  0.75075788  0.60411123
  -0.00234562  0.50321976  0.60784245
   0.91467152  0.66982677  0.50103659
   0.91489013  0.41619299  0.50025595
   0.08435423  0.33527115  0.39359234
   0.08054468  0.83386394  0.39559331
   0.00040485  0.24775899  0.60418652
   0.16546411  0.16651091  0.50011103
   0.00002802 -0.00164128  0.59710210
   0.91445837  0.16621981  0.50063759
   0.50247296  0.74946687  0.59776662
   0.74907961  0.50105314  0.59834848
   0.83367574  0.83298883  0.40253721
   0.75143023 -0.00267487  0.59575371
   0.66819061  0.16458256  0.50043521
   0.83277677  0.08291862  0.40430188
   0.83380103  0.58449135  0.40218905
   0.25244884 -0.00129909  0.59855252
   0.50097226  0.50025819  0.59782865
   0.33351945  0.33335956  0.40263399
   0.41562317  0.66600715  0.50007038
   0.50262337  0.24735184  0.59731592
   0.41611635  0.41755916  0.50085732
   0.58332560  0.33268477  0.40385382
   0.50339407 -0.00215601  0.59694298
   0.66712806  0.91857421  0.49846060
   0.91474310  0.91900968  0.49945918
   0.33254964  0.83385640  0.40218744
  -0.00121616  0.75235454  0.59827803
   0.33286127  0.08435636  0.40191510
   0.08194856  0.58357268  0.40266844
   0.74989422  0.75084033  0.59753588
Direct configuration=    17
   0.08387680  0.08301002  0.39476647
   0.66440616  0.66816116  0.49990629
   0.74939649  0.24812623  0.60288930
   0.66383934  0.41523176  0.50072332