  48  48   0   0
  0.5349325E+02  0.1100258E-08  0.1100258E-08  0.2449179E-08  0.3500000E-15
  1.000000000000000E-004
  CAR 
 unknown system                          
      6.42823025     -9.75982146  301     -1.07716800      1.00000000
     -9.760  0.0000E+00  0.0000E+00
     -9.706  0.0000E+00  0.0000E+00
     -9.652  0.0000E+00  0.0000E+00
     -9.598  0.0000E+00  0.0000E+00
     -9.544  0.0000E+00  0.0000E+00
     -9.490  0.0000E+00  0.0000E+00
     -9.436  0.0000E+00  0.0000E+00
     -9.382  0.0000E+00  0.0000E+00
     -9.328  0.1097E-16  0.5921E-18
     -9.274  0.4405E-14  0.2383E-15
     -9.220  0.9731E-12  0.5275E-13
     -9.166  0.1215E-09  0.6609E-11
     -9.112  0.8588E-08  0.4700E-09
     -9.058  0.3443E-06  0.1905E-07
     -9.004  0.7848E-05  0.4425E-06
     -8.950  0.1019E-03  0.5943E-05
     -8.896  0.7565E-03  0.4676E-04
     -8.842  0.3217E-02  0.2203E-03
     -8.789  0.7881E-02  0.6456E-03
     -8.735  0.1138E-01  0.1260E-02
     -8.681  0.1091E-01  0.1849E-02
     -8.627  0.1016E-01  0.2397E-02
     -8.573  0.1137E-01  0.3010E-02
     -8.519  0.1026E-01  0.3564E-02
     -8.465  0.5769E-02  0.3875E-02
     -8.411  0.1911E-02  0.3978E-02
     -8.357  0.4322E-03  0.4002E-02
     -8.303  0.4732E-03  0.4027E-02
     -8.249  0.1669E-02  0.4117E-02
     -8.195  0.4070E-02  0.4337E-02
     -8.141  0.7132E-02  0.4722E-02
     -8.087  0.1057E-01  0.5292E-02
     -8.033  0.1423E-01  0.6060E-02
     -7.979  0.1693E-01  0.6974E-02
     -7.925  0.1801E-01  0.7946E-02
     -7.871  0.1797E-01  0.8915E-02
     -7.817  0.1757E-01  0.9863E-02
     -7.763  0.1674E-01  0.1077E-01
     -7.709  0.1434E-01  0.1154E-01
     -7.655  0.1245E-01  0.1221E-01
     -7.601  0.1506E-01  0.1303E-01
     -7.547  0.2035E-01  0.1412E-01
     -7.493  0.2353E-01  0.1539E-01
     -7.440  0.2324E-01  0.1665E-01
     -7.386  0.1984E-01  0.1772E-01
     -7.332  0.1528E-01  0.1854E-01
     -7.278  0.1488E-01  0.1935E-01
     -7.224  0.2195E-01  0.2053E-01
     -7.170  0.3338E-01  0.2233E-01
     -7.116  0.4276E-01  0.2464E-01
     -7.062  0.4701E-01  0.2718E-01
     -7.008  0.4960E-01  0.2985E-01
     -6.954  0.5495E-01  0.3282E-01
     -6.900  0.6249E-01  0.3619E-01
     -6.846  0.6884E-01  0.3990E-01
     -6.792  0.7328E-01  0.4386E-01
     -6.738  0.7755E-01  0.4804E-01
     -6.684  0.8279E-01  0.5251E-01
     -6.630  0.8797E-01  0.5726E-01
     -6.576  0.9134E-01  0.6219E-01
     -6.522  0.9592E-01  0.6736E-01
     -6.468  0.1048E+00  0.7302E-01
     -6.414  0.1121E+00  0.7907E-01
     -6.360  0.1146E+00  0.8525E-01
     -6.306  0.1206E+00  0.9175E-01
     -6.252  0.1344E+00  0.9900E-01
     -6.198  0.1493E+00  0.1071E+00
     -6.144  0.1571E+00  0.1155E+00
     -6.091  0.1573E+00  0.1240E+00
     -6.037  0.1559E+00  0.1324E+00
     -5.983  0.1560E+00  0.1409E+00
     -5.929  0.1554E+00  0.1492E+00
     -5.875  0.1545E+00  0.1576E+00
     -5.821  0.1551E+00  0.1659E+00
     -5.767  0.1553E+00  0.1743E+00
     -5.713  0.1529E+00  0.1826E+00
     -5.659  0.1482E+00  0.1906E+00
     -5.605  0.1431E+00  0.1983E+00
     -5.551  0.1404E+00  0.2059E+00
     -5.497  0.1406E+00  0.2135E+00
     -5.443  0.1419E+00  0.2211E+00
     -5.389  0.1442E+00  0.2289E+00
     -5.335  0.1489E+00  0.2369E+00
     -5.281  0.1551E+00  0.2453E+00
     -5.227  0.1616E+00  0.2540E+00
     -5.173  0.1674E+00  0.2630E+00
     -5.119  0.1720E+00  0.2723E+00
     -5.065  0.1740E+00  0.2817E+00
     -5.011  0.1724E+00  0.2910E+00
     -4.957  0.1705E+00  0.3002E+00
     -4.903  0.1706E+00  0.3094E+00
     -4.849  0.1701E+00  0.3186E+00
     -4.795  0.1689E+00  0.3277E+00
     -4.742  0.1699E+00  0.3369E+00
     -4.688  0.1729E+00  0.3462E+00
     -4.634  0.1746E+00  0.3556E+00
     -4.580  0.1725E+00  0.3649E+00
     -4.526  0.1666E+00  0.3739E+00
     -4.472  0.1617E+00  0.3826E+00
     -4.418  0.1638E+00  0.3915E+00
     -4.364  0.1726E+00  0.4008E+00
     -4.310  0.1821E+00  0.4106E+00
     -4.256  0.1874E+00  0.4207E+00
     -4.202  0.1876E+00  0.4309E+00
     -4.148  0.1849E+00  0.4408E+00
     -4.094  0.1818E+00  0.4506E+00
     -4.040  0.1785E+00  0.4603E+00
     -3.986  0.1755E+00  0.4698E+00
     -3.932  0.1770E+00  0.4793E+00
     -3.878  0.1842E+00  0.4892E+00
     -3.824  0.1926E+00  0.4996E+00
     -3.770  0.1984E+00  0.5103E+00
     -3.716  0.1997E+00  0.5211E+00
     -3.662  0.1955E+00  0.5317E+00
     -3.608  0.1903E+00  0.5419E+00
     -3.554  0.1909E+00  0.5522E+00
     -3.500  0.1961E+00  0.5628E+00
     -3.446  0.1994E+00  0.5736E+00
     -3.393  0.1985E+00  0.5843E+00
     -3.339  0.1941E+00  0.5948E+00
     -3.285  0.1871E+00  0.6049E+00
     -3.231  0.1783E+00  0.6145E+00
     -3.177  0.1691E+00  0.6236E+00
     -3.123  0.1631E+00  0.6324E+00
     -3.069  0.1628E+00  0.6412E+00
     -3.015  0.1682E+00  0.6503E+00
     -2.961  0.1765E+00  0.6598E+00
     -2.907  0.1817E+00  0.6696E+00
     -2.853  0.1827E+00  0.6794E+00
     -2.799  0.1840E+00  0.6894E+00
     -2.745  0.1853E+00  0.6994E+00
     -2.691  0.1847E+00  0.7093E+00
     -2.637  0.1839E+00  0.7193E+00
     -2.583  0.1837E+00  0.7292E+00
     -2.529  0.1841E+00  0.7391E+00
     -2.475  0.1854E+00  0.7491E+00
     -2.421  0.1865E+00  0.7592E+00
     -2.367  0.1862E+00  0.7692E+00
     -2.313  0.1853E+00  0.7792E+00
     -2.259  0.1840E+00  0.7892E+00
     -2.205  0.1821E+00  0.7990E+00
     -2.151  0.1800E+00  0.8087E+00
     -2.097  0.1792E+00  0.8184E+00
     -2.044  0.1808E+00  0.8281E+00
     -1.990  0.1829E+00  0.8380E+00
     -1.936  0.1862E+00  0.8480E+00
     -1.882  0.1951E+00  0.8586E+00
     -1.828  0.2068E+00  0.8697E+00
     -1.774  0.2130E+00  0.8812E+00
     -1.720  0.2120E+00  0.8927E+00
     -1.666  0.2097E+00  0.9040E+00
     -1.612  0.2107E+00  0.9154E+00
     -1.558  0.2121E+00  0.9268E+00
     -1.504  0.2089E+00  0.9381E+00
     -1.450  0.2016E+00  0.9489E+00
     -1.396  0.1937E+00  0.9594E+00
     -1.342  0.1877E+00  0.9695E+00
     -1.288  0.1809E+00  0.9793E+00
     -1.234  0.1680E+00  0.9884E+00
     -1.180  0.1475E+00  0.9963E+00
     -1.126  0.1235E+00  0.1003E+01
     -1.072  0.1014E+00  0.1008E+01
     -1.018  0.8143E-01  0.1013E+01
     -0.964  0.6050E-01  0.1016E+01
     -0.910  0.4110E-01  0.1018E+01
     -0.856  0.2810E-01  0.1020E+01
     -0.802  0.2125E-01  0.1021E+01
     -0.748  0.1776E-01  0.1022E+01
     -0.695  0.1665E-01  0.1023E+01
     -0.641  0.1746E-01  0.1024E+01
     -0.587  0.2096E-01  0.1025E+01
     -0.533  0.2869E-01  0.1026E+01
     -0.479  0.3824E-01  0.1029E+01
     -0.425  0.4400E-01  0.1031E+01
     -0.371  0.4201E-01  0.1033E+01
     -0.317  0.3542E-01  0.1035E+01
     -0.263  0.3313E-01  0.1037E+01
     -0.209  0.3867E-01  0.1039E+01
     -0.155  0.4272E-01  0.1041E+01
     -0.101  0.3651E-01  0.1043E+01
     -0.047  0.2698E-01  0.1045E+01
      0.007  0.2505E-01  0.1046E+01
      0.061  0.3021E-01  0.1048E+01
      0.115  0.3513E-01  0.1050E+01
      0.169  0.3673E-01  0.1052E+01
      0.223  0.3656E-01  0.1054E+01
      0.277  0.3537E-01  0.1055E+01
      0.331  0.3379E-01  0.1057E+01
      0.385  0.3262E-01  0.1059E+01
      0.439  0.3162E-01  0.1061E+01
      0.493  0.3199E-01  0.1062E+01
      0.547  0.3624E-01  0.1064E+01
      0.601  0.4320E-01  0.1067E+01
      0.654  0.4910E-01  0.1069E+01
      0.708  0.5052E-01  0.1072E+01
      0.762  0.4546E-01  0.1075E+01
      0.816  0.3740E-01  0.1077E+01
      0.870  0.3036E-01  0.1078E+01
      0.924  0.2371E-01  0.1080E+01
      0.978  0.1791E-01  0.1080E+01
      1.032  0.1481E-01  0.1081E+01
      1.086  0.1392E-01  0.1082E+01
      1.140  0.1472E-01  0.1083E+01
      1.194  0.1679E-01  0.1084E+01
      1.248  0.1795E-01  0.1085E+01
      1.302  0.1683E-01  0.1086E+01
      1.356  0.1695E-01  0.1087E+01
      1.410  0.2205E-01  0.1088E+01
      1.464  0.2889E-01  0.1089E+01
      1.518  0.3198E-01  0.1091E+01
      1.572  0.3017E-01  0.1093E+01
      1.626  0.2639E-01  0.1094E+01
      1.680  0.2479E-01  0.1095E+01
      1.734  0.2905E-01  0.1097E+01
      1.788  0.3832E-01  0.1099E+01
      1.842  0.4176E-01  0.1101E+01
      1.896  0.3127E-01  0.1103E+01
      1.950  0.1616E-01  0.1104E+01
      2.003  0.9525E-02  0.1104E+01
      2.057  0.1193E-01  0.1105E+01
      2.111  0.1668E-01  0.1106E+01
      2.165  0.2254E-01  0.1107E+01
      2.219  0.3261E-01  0.1109E+01
      2.273  0.4362E-01  0.1111E+01
      2.327  0.4981E-01  0.1114E+01
      2.381  0.5247E-01  0.1117E+01
      2.435  0.5314E-01  0.1120E+01
      2.489  0.4895E-01  0.1122E+01
      2.543  0.4259E-01  0.1125E+01
      2.597  0.4059E-01  0.1127E+01
      2.651  0.4384E-01  0.1129E+01
      2.705  0.4908E-01  0.1132E+01
      2.759  0.4907E-01  0.1134E+01
      2.813  0.3873E-01  0.1136E+01
      2.867  0.2502E-01  0.1138E+01
      2.921  0.1687E-01  0.1139E+01
      2.975  0.1277E-01  0.1139E+01
      3.029  0.9179E-02  0.1140E+01
      3.083  0.9126E-02  0.1140E+01
      3.137  0.1479E-01  0.1141E+01
      3.191  0.2194E-01  0.1142E+01
      3.245  0.2498E-01  0.1144E+01
      3.299  0.2209E-01  0.1145E+01
      3.353  0.1697E-01  0.1146E+01
      3.406  0.1493E-01  0.1147E+01
      3.460  0.1602E-01  0.1148E+01
      3.514  0.1767E-01  0.1148E+01
      3.568  0.2094E-01  0.1150E+01
      3.622  0.2767E-01  0.1151E+01
      3.676  0.3545E-01  0.1153E+01
      3.730  0.3987E-01  0.1155E+01
      3.784  0.4030E-01  0.1157E+01
      3.838  0.3744E-01  0.1159E+01
      3.892  0.3064E-01  0.1161E+01
      3.946  0.2490E-01  0.1162E+01
      4.000  0.2587E-01  0.1164E+01
      4.054  0.2872E-01  0.1165E+01
      4.108  0.2706E-01  0.1167E+01
      4.162  0.2366E-01  0.1168E+01
      4.216  0.2260E-01  0.1169E+01
      4.270  0.2222E-01  0.1170E+01
      4.324  0.1988E-01  0.1172E+01
      4.378  0.1769E-01  0.1172E+01
      4.432  0.1881E-01  0.1173E+01
      4.486  0.2467E-01  0.1175E+01
      4.540  0.3711E-01  0.1177E+01
      4.594  0.5242E-01  0.1180E+01
      4.648  0.5971E-01  0.1183E+01
      4.702  0.5458E-01  0.1186E+01
      4.755  0.4616E-01  0.1188E+01
      4.809  0.4447E-01  0.1191E+01
      4.863  0.4958E-01  0.1193E+01
      4.917  0.5509E-01  0.1196E+01
      4.971  0.5892E-01  0.1200E+01
      5.025  0.6401E-01  0.1203E+01
      5.079  0.6773E-01  0.1207E+01
      5.133  0.6567E-01  0.1210E+01
      5.187  0.6170E-01  0.1214E+01
      5.241  0.5913E-01  0.1217E+01
      5.295  0.5170E-01  0.1220E+01
      5.349  0.3699E-01  0.1222E+01
      5.403  0.2302E-01  0.1223E+01
      5.457  0.1366E-01  0.1223E+01
      5.511  0.6767E-02  0.1224E+01
      5.565  0.2286E-02  0.1224E+01
      5.619  0.4765E-03  0.1224E+01
      5.673  0.5909E-04  0.1224E+01
      5.727  0.4299E-05  0.1224E+01
      5.781  0.1819E-06  0.1224E+01
      5.835  0.4449E-08  0.1224E+01
      5.889  0.6252E-10  0.1224E+01
      5.943  0.5021E-12  0.1224E+01
      5.997  0.2296E-14  0.1224E+01
      6.051  0.5487E-17  0.1224E+01
      6.104  0.0000E+00  0.1224E+01
      6.158  0.0000E+00  0.1224E+01
      6.212  0.0000E+00  0.1224E+01
      6.266  0.0000E+00  0.1224E+01
      6.320  0.0000E+00  0.1224E+01
      6.374  0.0000E+00  0.1224E+01
      6.428  0.0000E+00  0.1224E+01
