 vasp.5.4.1 24Jun15 (build Mar 14 2019 10:18:33) complex                        
  
 executed on INTEL-19.0.2+OPENMPI date 2023.01.31  01:35:19
 running on   36 total cores
 distrk:  each k-point on   36 cores,    1 groups
 distr:  one band on NCORES_PER_BAND=   6 cores,    6 groups


--------------------------------------------------------------------------------------------------------


 INCAR:
 POTCAR:    PAW_PBE Au 04Oct2007                  
 POTCAR:    PAW_PBE Pd 04Jan2005                  
 POTCAR:    PAW_PBE Au 04Oct2007                  
  local pseudopotential read in
  partial core-charges read in
  partial kinetic energy density read in
  atomic valenz-charges read in
  non local Contribution for L=           2  read in
    real space projection operators read in
  non local Contribution for L=           2  read in
    real space projection operators read in
  non local Contribution for L=           0  read in
    real space projection operators read in
  non local Contribution for L=           0  read in
    real space projection operators read in
  non local Contribution for L=           1  read in
    real space projection operators read in
  non local Contribution for L=           1  read in
    real space projection operators read in
    PAW grid and wavefunctions read in
 
   number of l-projection  operators is LMAX  =           6
   number of lm-projection operators is LMMAX =          18
 
 POTCAR:    PAW_PBE Pd 04Jan2005                  
  local pseudopotential read in
  partial core-charges read in
  partial kinetic energy density read in
  atomic valenz-charges read in
  non local Contribution for L=           2  read in
    real space projection operators read in
  non local Contribution for L=           2  read in
    real space projection operators read in
  non local Contribution for L=           0  read in
    real space projection operators read in
  non local Contribution for L=           0  read in
    real space projection operators read in
  non local Contribution for L=           1  read in
    real space projection operators read in
  non local Contribution for L=           1  read in
    real space projection operators read in
    PAW grid and wavefunctions read in
 
   number of l-projection  operators is LMAX  =           6
   number of lm-projection operators is LMMAX =          18
 
 Optimization of the real space projectors (new method)

 maximal supplied QI-value         = 15.12
 optimisation between [QCUT,QGAM] = [ 10.13, 20.41] = [ 28.73,116.64] Ry 
 Optimized for a Real-space Cutoff    1.51 Angstroem

   l    n(q)    QCUT    max X(q) W(low)/X(q) W(high)/X(q)  e(spline) 
   2      8    10.129    60.898    0.46E-03    0.46E-03    0.14E-06
   2      8    10.129    58.894    0.47E-03    0.47E-03    0.14E-06
   0      9    10.129   109.617    0.16E-03    0.11E-03    0.54E-07
   0      9    10.129    75.026    0.15E-03    0.11E-03    0.52E-07
   1      9    10.129    16.344    0.96E-04    0.15E-03    0.14E-06
   1      9    10.129    10.160    0.81E-04    0.12E-03    0.11E-06
 Optimization of the real space projectors (new method)

 maximal supplied QI-value         = 14.36
 optimisation between [QCUT,QGAM] = [ 10.20, 20.39] = [ 29.12,116.47] Ry 
 Optimized for a Real-space Cutoff    1.51 Angstroem

   l    n(q)    QCUT    max X(q) W(low)/X(q) W(high)/X(q)  e(spline) 
   2      8    10.197    59.108    0.26E-03    0.14E-03    0.96E-07
   2      8    10.197    58.101    0.27E-03    0.14E-03    0.98E-07
   0      9    10.197   102.235    0.54E-04    0.60E-05    0.72E-07
   0      9    10.197    58.388    0.52E-04    0.60E-05    0.68E-07
   1      9    10.197    22.191    0.18E-03    0.25E-03    0.79E-07
   1      9    10.197    15.590    0.15E-03    0.21E-03    0.69E-07
  PAW_PBE Au 04Oct2007                  :
 energy of atom  1       EATOM= -926.0867
 kinetic energy error for atom=    0.0062 (will be added to EATOM!!)
  PAW_PBE Pd 04Jan2005                  :
 energy of atom  2       EATOM= -809.7530
 kinetic energy error for atom=    0.0091 (will be added to EATOM!!)
 
 
 POSCAR: Au Pd                                   
  positions in cartesian coordinates
  No initial velocities read in
 exchange correlation table for  LEXCH =        8
   RHO(1)=    0.500       N(1)  =     2000
   RHO(2)=  100.500       N(2)  =     4000

 VTST: version 3.2, (02/03/18)

 CHAIN: initializing optimizer
 
 OPT: Using VASP Conjugate-Gradient optimizer
 CHAIN: Read ICHAIN            0
 
 POSCAR: Au Pd                                   
  positions in cartesian coordinates
  No initial velocities read in
 


--------------------------------------------------------------------------------------------------------


 ion  position               nearest neighbor table
   1  0.083  0.083  0.408-  30 2.75  21 2.75  25 2.75  11 2.75  42 2.75  27 2.75  44 2.75  34 2.75
                             6 2.75
   2  0.917  0.417  0.500-  21 2.75   3 2.75  23 2.75   4 2.75   6 2.75  30 2.75  36 2.75  22 2.75
                            45 2.75  40 2.75  42 2.75  33 2.75
   3  0.000  0.250  0.592-   2 2.75  30 2.75  23 2.75   7 2.75  33 2.75  38 2.75  29 2.75  41 2.75
                             6 2.75
   4  0.917  0.667  0.500-  40 2.75  33 2.75  48 2.75   2 2.75  13 2.75  45 2.75  28 2.75  36 2.75
                            32 2.75  39 2.75   5 2.75  26 2.75
   5  0.083  0.583  0.408-  32 2.75  25 2.75   8 2.75  39 2.75  42 2.75  40 2.75  10 2.75  45 2.75
                             4 2.75
   6  0.917  0.167  0.500-  44 2.75  38 2.75  41 2.75  34 2.75   2 2.75  13 2.75  22 2.75  43 2.75
                            30 2.75  21 2.75   3 2.75   1 2.75
   7  0.250  0.000  0.592-  30 2.75  37 2.75  19 2.75  29 2.75   3 2.75   9 2.75  14 2.75  38 2.75
                            34 2.75
   8  0.333  0.333  0.408-  16 2.75  10 2.75  12 2.75   5 2.75  27 2.75  15 2.75  42 2.75  24 2.75
                            45 2.75
   9  0.250  0.750  0.592-  34 2.75  47 2.75   7 2.75  35 2.75  38 2.75  31 2.75  26 2.75  19 2.75
                            32 2.75
  10  0.333  0.583  0.408-  47 2.75  11 2.75  15 2.75  25 2.75   8 2.75   5 2.75  18 2.75  16 2.75
                            32 2.75
  11  0.333  0.833  0.408-  37 2.75  10 2.75  18 2.75  27 2.75   1 2.75  25 2.75  46 2.75  47 2.75
                            34 2.75
  12  0.583  0.083  0.408-  43 2.75  15 2.75  39 2.75   8 2.75  46 2.75  44 2.75  27 2.75  28 2.75
                            24 2.75
  13  0.917  0.917  0.500-  39 2.75  26 2.75  20 2.75   6 2.75  32 2.75   4 2.75  43 2.75  28 2.75
                            34 2.75  44 2.75  38 2.75  25 2.75
  14  0.500  0.000  0.592-  24 2.75  28 2.75  17 2.75  19 2.75  29 2.75  48 2.75   7 2.75  20 2.75
                            37 2.75
  15  0.583  0.333  0.408-  22 2.75  12 2.75  18 2.75  10 2.75  44 2.75   8 2.75  21 2.75  43 2.75
                            16 2.75
  16  0.417  0.417  0.500-   8 2.75  17 2.75  31 2.75  24 2.75  32 2.75  43 2.75  47 2.75  45 2.75
                            22 2.75  10 2.75  35 2.75  15 2.75
  17  0.500  0.250  0.592-  16 2.75  43 2.75  20 2.75  31 2.75  35 2.75  14 2.75  41 2.75  29 2.75
                            24 2.75
  18  0.583  0.583  0.408-  36 2.75  15 2.75  21 2.75  11 2.75  46 2.75  40 2.75  10 2.75  22 2.75
                            47 2.75
  19  0.500  0.750  0.592-  37 2.75  36 2.75  23 2.75  35 2.75   7 2.75  14 2.75   9 2.75  48 2.75
                            47 2.75
  20  0.750  0.000  0.592-  43 2.75  13 2.75  26 2.75  41 2.75  17 2.75  48 2.75  38 2.75  14 2.75
                            28 2.75
  21  0.833  0.333  0.408-   2 2.75   1 2.75  18 2.75  40 2.75  44 2.75  42 2.75  15 2.75   6 2.75
                            22 2.75
  22  0.667  0.417  0.500-  15 2.75  41 2.75  35 2.75  36 2.75   6 2.75  43 2.75  47 2.75  16 2.75
                             2 2.75  18 2.75  23 2.75  21 2.75
  23  0.750  0.500  0.592-  36 2.75   2 2.75  19 2.75   3 2.75  41 2.75  48 2.75  35 2.75  33 2.75
                            22 2.75
  24  0.417  0.167  0.500-  27 2.75  14 2.75  29 2.75  28 2.75  16 2.75  37 2.75  45 2.75  43 2.75
                            30 2.75   8 2.75  17 2.75  12 2.75
  25  0.083  0.833  0.408-  34 2.75   5 2.75  10 2.75   1 2.75  44 2.75  39 2.75  11 2.75  32 2.75
                            13 2.75
  26  0.000  0.750  0.592-  13 2.75  32 2.75  31 2.75  20 2.75  33 2.75  38 2.75   9 2.75  48 2.75
                             4 2.75
  27  0.333  0.083  0.408-  24 2.75  11 2.75   8 2.75  42 2.75  46 2.75  12 2.75   1 2.75  37 2.75
                            30 2.75
  28  0.667  0.917  0.500-  46 2.75  48 2.75  14 2.75  36 2.75  43 2.75   4 2.75  24 2.75  37 2.75
                            13 2.75  12 2.75  39 2.75  20 2.75
  29  0.250  0.250  0.592-  45 2.75  24 2.75   7 2.75  31 2.75  33 2.75  14 2.75   3 2.75  17 2.75
                            30 2.75
  30  0.167  0.167  0.500-   1 2.75   7 2.75   3 2.75   2 2.75  34 2.75  37 2.75  45 2.75  24 2.75
                             6 2.75  42 2.75  27 2.75  29 2.75
  31  0.250  0.500  0.592-  32 2.75  16 2.75  17 2.75  26 2.75  29 2.75   9 2.75  33 2.75  35 2.75
                            45 2.75
  32  0.167  0.667  0.500-   5 2.75  31 2.75  26 2.75  13 2.75  16 2.75  34 2.75  45 2.75   4 2.75
                            47 2.75  25 2.75   9 2.75  10 2.75
  33  0.000  0.500  0.592-   4 2.75  45 2.75  26 2.75  29 2.75   3 2.75  48 2.75  23 2.75  31 2.75
                             2 2.75
  34  0.167  0.917  0.500-  25 2.75   9 2.75  38 2.75  30 2.75  32 2.75   6 2.75  47 2.75  13 2.75
                            37 2.75   1 2.75  11 2.75   7 2.75
  35  0.500  0.500  0.592-  47 2.75  22 2.75  19 2.75   9 2.75  41 2.75  17 2.75  23 2.75  31 2.75
                            16 2.75
  36  0.667  0.667  0.500-  18 2.75  23 2.75  19 2.75  22 2.75   2 2.75  28 2.75  37 2.75   4 2.75
                            47 2.75  46 2.75  40 2.75  48 2.75
  37  0.417  0.917  0.500-  11 2.75  19 2.75   7 2.75  24 2.75  30 2.75  36 2.75  47 2.75  28 2.75
                            34 2.75  27 2.75  46 2.75  14 2.75
  38  0.000  0.000  0.592-   6 2.75  34 2.75   9 2.75  26 2.75   3 2.75  41 2.75  20 2.75   7 2.75
                            13 2.75
  39  0.833  0.833  0.408-  13 2.75  12 2.75   5 2.75  40 2.75  44 2.75  25 2.75  46 2.75   4 2.75
                            28 2.75
  40  0.833  0.583  0.408-   4 2.75  21 2.75  39 2.75  42 2.75  46 2.75   5 2.75  18 2.75   2 2.75
                            36 2.75
  41  0.750  0.250  0.592-  22 2.75   6 2.75  20 2.75  23 2.75  35 2.75  38 2.75  17 2.75   3 2.75
                            43 2.75
  42  0.083  0.333  0.408-  45 2.75   5 2.75  27 2.75  40 2.75   1 2.75  21 2.75   8 2.75  30 2.75
                             2 2.75
  43  0.667  0.167  0.500-  12 2.75  20 2.75  17 2.75  13 2.75  16 2.75  22 2.75  28 2.75  24 2.75
                             6 2.75  15 2.75  41 2.75  44 2.75
  44  0.833  0.083  0.408-   6 2.75  15 2.75  21 2.75  25 2.75  39 2.75   1 2.75  12 2.75  13 2.75
                            43 2.75
  45  0.167  0.417  0.500-  42 2.75  29 2.75  33 2.75  30 2.75  32 2.75  24 2.75   4 2.75   2 2.75
                            16 2.75   5 2.75  31 2.75   8 2.75
  46  0.583  0.833  0.408-  28 2.75  18 2.75  27 2.75  12 2.75  40 2.75  39 2.75  11 2.75  36 2.75
                            37 2.75
  47  0.417  0.667  0.500-  10 2.75  35 2.75   9 2.75  22 2.75  34 2.75  16 2.75  37 2.75  36 2.75
                            32 2.75  11 2.75  18 2.75  19 2.75
  48  0.750  0.750  0.592-  28 2.75   4 2.75  20 2.75  23 2.75  14 2.75  33 2.75  19 2.75  26 2.75
                            36 2.75
 
  LATTYP: Found a hexagonal cell.
 ALAT       =    11.0025815153
 C/A-ratio  =     2.2260035120
  
  Lattice vectors:
  
 A1 = (   5.5012907576,  -9.5285150994,   0.0000000000)
 A2 = ( -11.0025815153,   0.0000000000,   0.0000000000)
 A3 = (   0.0000000000,   0.0000000000, -24.4917850943)


Analysis of symmetry for initial positions (statically):
=====================================================================
 Subroutine PRICEL returns:
 Original cell was already a primitive cell.
 

 Routine SETGRP: Setting up the symmetry group for a 
 hexagonal supercell.


 Subroutine GETGRP returns: Found  1 space group operations
 (whereof  1 operations were pure point group operations)
 out of a pool of 24 trial point group operations.


The static configuration has the point symmetry C_1 .


Analysis of symmetry for dynamics (positions and initial velocities):
=====================================================================
 Subroutine PRICEL returns:
 Original cell was already a primitive cell.
 

 Routine SETGRP: Setting up the symmetry group for a 
 hexagonal supercell.


 Subroutine GETGRP returns: Found  1 space group operations
 (whereof  1 operations were pure point group operations)
 out of a pool of 24 trial point group operations.


The dynamic configuration has the point symmetry C_1 .


Analysis of constrained symmetry for selective dynamics:
=====================================================================
 Subroutine PRICEL returns:
 Original cell was already a primitive cell.
 

 Routine SETGRP: Setting up the symmetry group for a 
 hexagonal supercell.


 Subroutine GETGRP returns: Found  1 space group operations
 (whereof  1 operations were pure point group operations)
 out of a pool of 24 trial point group operations.


The constrained configuration has the point symmetry C_1 .
 
 
 KPOINTS: Automatic mesh                          

Automatic generation of k-mesh.
Space group operators:
 irot       det(A)        alpha          n_x          n_y          n_z        tau_x        tau_y        tau_z
    1     1.000000     0.000000     1.000000     0.000000     0.000000     0.000000     0.000000     0.000000
 
 Subroutine IBZKPT returns following result:
 ===========================================
 
 Found      6 irreducible k-points:
 
 Following reciprocal coordinates:
            Coordinates               Weight
  0.250000  0.250000  0.000000     16.000000
  0.000000  0.250000  0.000000     16.000000
 -0.250000  0.000000  0.000000     16.000000
 -0.250000  0.250000  0.000000     16.000000
  0.500000 -0.250000  0.000000     16.000000
 -0.250000  0.500000  0.000000     16.000000
 
 Following cartesian coordinates:
            Coordinates               Weight
  0.022722  0.013119  0.000000     16.000000
  0.000000  0.026237  0.000000     16.000000
 -0.022722  0.013119  0.000000     16.000000
 -0.022722  0.039356  0.000000     16.000000
  0.045444 -0.052474  0.000000     16.000000
 -0.022722  0.065593  0.000000     16.000000
 


--------------------------------------------------------------------------------------------------------




 Dimension of arrays:
   k-points           NKPTS =      6   k-points in BZ     NKDIM =      6   number of bands    NBANDS=    306
   number of dos      NEDOS =    301   number of ions     NIONS =     48
   non local maximal  LDIM  =      6   non local SUM 2l+1 LMDIM =     18
   total plane-waves  NPLWV = 349920
   max r-space proj   IRMAX =   2009   max aug-charges    IRDMAX=   8532
   dimension x,y,z NGX =    54 NGY =   54 NGZ =  120
   dimension x,y,z NGXF=   108 NGYF=  108 NGZF=  240
   support grid    NGXF=   108 NGYF=  108 NGZF=  240
   ions per type =              24  24
 NGX,Y,Z   is equivalent  to a cutoff of   8.16,  8.16,  8.15 a.u.
 NGXF,Y,Z  is equivalent  to a cutoff of  16.32, 16.32, 16.29 a.u.


 I would recommend the setting:
   dimension x,y,z NGX =    54 NGY =   54 NGZ =  120
 SYSTEM =  unknown system                          
 POSCAR =  Au Pd                                   

 Startparameter for this run:
   NWRITE =      1    write-flag & timer
   PREC   = normal    normal or accurate (medium, high low for compatibility)
   ISTART =      0    job   : 0-new  1-cont  2-samecut
   ICHARG =      2    charge: 1-file 2-atom 10-const
   ISPIN  =      1    spin polarized calculation?
   LNONCOLLINEAR =      F non collinear calculations
   LSORBIT =      F    spin-orbit coupling
   INIWAV =      1    electr: 0-lowe 1-rand  2-diag
   LASPH  =      F    aspherical Exc in radial PAW
   METAGGA=      F    non-selfconsistent MetaGGA calc.

 Electronic Relaxation 1
   ENCUT  =  400.0 eV  29.40 Ry    5.42 a.u.  17.94 17.94 39.94*2*pi/ulx,y,z
   ENINI  =  400.0     initial cutoff
   ENAUG  =  416.2 eV  augmentation charge cutoff
   NELM   =    500;   NELMIN=  2; NELMDL= -5     # of ELM steps 
   EDIFF  = 0.1E-05   stopping-criterion for ELM
   LREAL  =      T    real-space projection
   NLSPLINE    = F    spline interpolate recip. space projectors
   LCOMPAT=      F    compatible to vasp.4.4
   GGA_COMPAT  = T    GGA compatible to vasp.4.4-vasp.4.6
   LMAXPAW     = -100 max onsite density
   LMAXMIX     =    2 max onsite mixed and CHGCAR
   VOSKOWN=      1    Vosko Wilk Nusair interpolation
   ROPT   =   -0.00050  -0.00050
 Ionic relaxation
   EDIFFG = -.2E-01   stopping-criterion for IOM
   NSW    =    500    number of steps for IOM
   NBLOCK =      1;   KBLOCK =    500    inner block; outer block 
   IBRION =      2    ionic relax: 0-MD 1-quasi-New 2-CG
   NFREE  =      2    steps in history (QN), initial steepest desc. (CG)
   ISIF   =      0    stress and relaxation
   IWAVPR =     11    prediction:  0-non 1-charg 2-wave 3-comb
   ISYM   =      2    0-nonsym 1-usesym 2-fastsym
   LCORR  =      T    Harris-Foulkes like correction to forces

   POTIM  = 0.3500    time-step for ionic-motion
   TEIN   =    0.0    initial temperature
   TEBEG  =    0.0;   TEEND  =   0.0 temperature during run
   SMASS  =  -3.00    Nose mass-parameter (am)
   estimated Nose-frequenzy (Omega)   =  0.10E-29 period in steps =****** mass=  -0.277E-26a.u.
   SCALEE = 1.0000    scale energy and forces
   NPACO  =    256;   APACO  = 16.0  distance and # of slots for P.C.
   PSTRESS=    0.0 pullay stress

  Mass of Ions in am
   POMASS = 196.97106.42
  Ionic Valenz
   ZVAL   =  11.00 10.00
  Atomic Wigner-Seitz radii
   RWIGS  =  -1.00 -1.00
  virtual crystal weights 
   VCA    =   1.00  1.00
   NELECT =     504.0000    total number of electrons
   NUPDOWN=      -1.0000    fix difference up-down

 DOS related values:
   EMIN   =  10.00;   EMAX   =-10.00  energy-range for DOS
   EFERMI =   0.00
   ISMEAR =     0;   SIGMA  =   0.10  broadening in eV -4-tet -1-fermi 0-gaus

 Electronic relaxation 2 (details)
   IALGO  =     68    algorithm
   LDIAG  =      T    sub-space diagonalisation (order eigenvalues)
   LSUBROT=      F    optimize rotation matrix (better conditioning)
   TURBO    =      0    0=normal 1=particle mesh
   IRESTART =      0    0=no restart 2=restart with 2 vectors
   NREBOOT  =      0    no. of reboots
   NMIN     =      0    reboot dimension
   EREF     =   0.00    reference energy to select bands
   IMIX   =      4    mixing-type and parameters
     AMIX     =   0.40;   BMIX     =  1.00
     AMIX_MAG =   1.60;   BMIX_MAG =  1.00
     AMIN     =   0.10
     WC   =   100.;   INIMIX=   1;  MIXPRE=   1;  MAXMIX= -45

 Intra band minimization:
   WEIMIN = 0.0010     energy-eigenvalue tresh-hold
   EBREAK =  0.82E-09  absolut break condition
   DEPER  =   0.30     relativ break condition  

   TIME   =   0.40     timestep for ELM

  volume/ion in A,a.u.               =      53.49       360.99
  Fermi-wavevector in a.u.,A,eV,Ry     =   0.951418  1.797920 12.315955  0.905197
  Thomas-Fermi vector in A             =   2.079887
 
 Write flags
   LWAVE  =      F    write WAVECAR
   LCHARG =      F    write CHGCAR
   LVTOT  =      F    write LOCPOT, total local potential
   LVHAR  =      F    write LOCPOT, Hartree potential only
   LELF   =      F    write electronic localiz. function (ELF)
   LORBIT =      0    0 simple, 1 ext, 2 COOP (PROOUT)


 Dipole corrections
   LMONO  =      F    monopole corrections only (constant potential shift)
   LDIPOL =      T    correct potential (dipole corrections)
   IDIPOL =      3    1-x, 2-y, 3-z, 4-all directions 
   EPSILON=  1.0000000 bulk dielectric constant

 Exchange correlation treatment:
   GGA     =    PE    GGA type
   LEXCH   =     8    internal setting for exchange type
   VOSKOWN=      1    Vosko Wilk Nusair interpolation
   LHFCALC =     F    Hartree Fock is set to
   LHFONE  =     F    Hartree Fock one center treatment
   AEXX    =    0.0000 exact exchange contribution

 Linear response parameters
   LEPSILON=     F    determine dielectric tensor
   LRPA    =     F    only Hartree local field effects (RPA)
   LNABLA  =     F    use nabla operator in PAW spheres
   LVEL    =     F    velocity operator in full k-point grid
   LINTERFAST=   F  fast interpolation
   KINTER  =     0    interpolate to denser k-point grid
   CSHIFT  =0.1000    complex shift for real part using Kramers Kronig
   OMEGAMAX=  -1.0    maximum frequency
   DEG_THRESHOLD= 0.2000000E-02 threshold for treating states as degnerate
   RTIME   =    0.100 relaxation time in fs

 Orbital magnetization related:
   ORBITALMAG=     F  switch on orbital magnetization
   LCHIMAG   =     F  perturbation theory with respect to B field
   DQ        =  0.001000  dq finite difference perturbation B field



--------------------------------------------------------------------------------------------------------


 conjugate gradient relaxation of ions
   using selective dynamics as specified on POSCAR
   WARNING: If single coordinates had been selected the selection of coordinates
            is made according to the corresponding   d i r e c t   coordinates!
            Don't support selection of single cartesian coordinates -- sorry ...
  !
 charge density and potential will be updated during run
 non-spin polarized calculation
 RMM-DIIS sequential band-by-band and
  variant of blocked Davidson during initial phase
 perform sub-space diagonalisation
    before iterative eigenvector-optimisation
 modified Broyden-mixing scheme, WC =      100.0
 initial mixing is a Kerker type mixing with AMIX =  0.4000 and BMIX =      1.0000
 Hartree-type preconditioning will be used
 using additional bands           54
 real space projection scheme for non local part
 use partial core corrections
 calculate Harris-corrections to forces 
   (improved forces if not selfconsistent)
 use gradient corrections 
 use of overlap-Matrix (Vanderbilt PP)
 Gauss-broadening in eV      SIGMA  =   0.10


--------------------------------------------------------------------------------------------------------


  energy-cutoff  :      400.00
  volume of cell :     2567.68
      direct lattice vectors                 reciprocal lattice vectors
    11.002581515  0.000000000  0.000000000     0.090887761 -0.052474073  0.000000000
     5.501290758  9.528515099  0.000000000     0.000000000  0.104948147  0.000000000
     0.000000000  0.000000000 24.491785094     0.000000000  0.000000000  0.040830017

  length of vectors
    11.002581515 11.002581515 24.491785094     0.104948147  0.104948147  0.040830017


 
 k-points in units of 2pi/SCALE and weight: Automatic mesh                          
   0.02272194  0.01311852  0.00000000       0.167
   0.00000000  0.02623704  0.00000000       0.167
  -0.02272194  0.01311852  0.00000000       0.167
  -0.02272194  0.03935555  0.00000000       0.167
   0.04544388 -0.05247407  0.00000000       0.167
  -0.02272194  0.06559259  0.00000000       0.167
 
 k-points in reciprocal lattice and weights: Automatic mesh                          
   0.25000000  0.25000000  0.00000000       0.167
   0.00000000  0.25000000  0.00000000       0.167
  -0.25000000  0.00000000  0.00000000       0.167
  -0.25000000  0.25000000  0.00000000       0.167
   0.50000000 -0.25000000  0.00000000       0.167
  -0.25000000  0.50000000  0.00000000       0.167
 
 position of ions in fractional coordinates (direct lattice) 
   0.08333333  0.08333333  0.40830017
   0.91666667  0.41666667  0.50000000
   0.00000000  0.25000000  0.59169983
   0.91666667  0.66666667  0.50000000
   0.08333333  0.58333333  0.40830017
   0.91666667  0.16666667  0.50000000
   0.25000000  0.00000000  0.59169983
   0.33333333  0.33333333  0.40830017
   0.25000000  0.75000000  0.59169983
   0.33333333  0.58333333  0.40830017
   0.33333333  0.83333333  0.40830017
   0.58333333  0.08333333  0.40830017
   0.91666667  0.91666667  0.50000000
   0.50000000  0.00000000  0.59169983
   0.58333333  0.33333333  0.40830017
   0.41666667  0.41666667  0.50000000
   0.50000000  0.25000000  0.59169983
   0.58333333  0.58333333  0.40830017
   0.50000000  0.75000000  0.59169983
   0.75000000  0.00000000  0.59169983
   0.83333333  0.33333333  0.40830017
   0.66666667  0.41666667  0.50000000
   0.75000000  0.50000000  0.59169983
   0.41666667  0.16666667  0.50000000
   0.08333333  0.83333333  0.40830017
   0.00000000  0.75000000  0.59169983
   0.33333333  0.08333333  0.40830017
   0.66666667  0.91666667  0.50000000
   0.25000000  0.25000000  0.59169983
   0.16666667  0.16666667  0.50000000
   0.25000000  0.50000000  0.59169983
   0.16666667  0.66666667  0.50000000
   0.00000000  0.50000000  0.59169983
   0.16666667  0.91666667  0.50000000
   0.50000000  0.50000000  0.59169983
   0.66666667  0.66666667  0.50000000
   0.41666667  0.91666667  0.50000000
   0.00000000  0.00000000  0.59169983
   0.83333333  0.83333333  0.40830017
   0.83333333  0.58333333  0.40830017
   0.75000000  0.25000000  0.59169983
   0.08333333  0.33333333  0.40830017
   0.66666667  0.16666667  0.50000000
   0.83333333  0.08333333  0.40830017
   0.16666667  0.41666667  0.50000000
   0.58333333  0.83333333  0.40830017
   0.41666667  0.66666667  0.50000000
   0.75000000  0.75000000  0.59169983
 
 position of ions in cartesian coordinates  (Angst):
   1.37532269  0.79404292 10.00000000
  12.37790420  3.97021462 12.24589255
   1.37532269  2.38212877 14.49178509
  13.75322689  6.35234340 12.24589255
   4.12596807  5.55830047 10.00000000
  11.00258152  1.58808585 12.24589255
   2.75064538  0.00000000 14.49178509
   5.50129076  3.17617170 10.00000000
   6.87661345  7.14638632 14.49178509
   6.87661345  5.55830047 10.00000000
   8.25193614  7.94042925 10.00000000
   6.87661345  0.79404292 10.00000000
  15.12854958  8.73447217 12.24589255
   5.50129076  0.00000000 14.49178509
   8.25193614  3.17617170 10.00000000
   6.87661345  3.97021462 12.24589255
   6.87661345  2.38212877 14.49178509
   9.62725883  5.55830047 10.00000000
   9.62725883  7.14638632 14.49178509
   8.25193614  0.00000000 14.49178509
  11.00258152  3.17617170 10.00000000
   9.62725883  3.97021462 12.24589255
  11.00258152  4.76425755 14.49178509
   5.50129076  1.58808585 12.24589255
   5.50129076  7.94042925 10.00000000
   4.12596807  7.14638632 14.49178509
   4.12596807  0.79404292 10.00000000
  12.37790420  8.73447217 12.24589255
   4.12596807  2.38212877 14.49178509
   2.75064538  1.58808585 12.24589255
   5.50129076  4.76425755 14.49178509
   5.50129076  6.35234340 12.24589255
   2.75064538  4.76425755 14.49178509
   6.87661345  8.73447217 12.24589255
   8.25193614  4.76425755 14.49178509
  11.00258152  6.35234340 12.24589255
   9.62725883  8.73447217 12.24589255
   0.00000000  0.00000000 14.49178509
  13.75322689  7.94042925 10.00000000
  12.37790420  5.55830047 10.00000000
   9.62725883  2.38212877 14.49178509
   2.75064538  3.17617170 10.00000000
   8.25193614  1.58808585 12.24589255
   9.62725883  0.79404292 10.00000000
   4.12596807  3.97021462 12.24589255
  11.00258152  7.94042925 10.00000000
   8.25193614  6.35234340 12.24589255
  12.37790420  7.14638632 14.49178509
 


--------------------------------------------------------------------------------------------------------


 k-point  1 :   0.2500 0.2500 0.0000  plane waves:   46635
 k-point  2 :   0.0000 0.2500 0.0000  plane waves:   46635
 k-point  3 :  -0.2500 0.0000 0.0000  plane waves:   46635
 k-point  4 :  -0.2500 0.2500 0.0000  plane waves:   46644
 k-point  5 :   0.5000-0.2500 0.0000  plane waves:   46644
 k-point  6 :  -0.2500 0.5000 0.0000  plane waves:   46644

 maximum and minimum number of plane-waves per node :      7818     7732

 maximum number of plane-waves:     46644
 maximum index in each direction: 
   IXMAX=   18   IYMAX=   18   IZMAX=   39
   IXMIN=  -18   IYMIN=  -18   IZMIN=  -39

 WARNING: aliasing errors must be expected set NGX to  74 to avoid them
 WARNING: aliasing errors must be expected set NGY to  74 to avoid them
 WARNING: aliasing errors must be expected set NGZ to 158 to avoid them
 aliasing errors are usually negligible using standard VASP settings
 and one can safely disregard these warnings

 real space projection operators:
  total allocation   :      12803.06 KBytes
  max/ min on nodes  :       2145.66       2127.94


 parallel 3D FFT for wavefunctions:
    minimum data exchange during FFTs selected (reduces bandwidth)
 parallel 3D FFT for charge:
    minimum data exchange during FFTs selected (reduces bandwidth)


 total amount of memory used by VASP on root node    84353. kBytes
========================================================================

   base      :      30000. kBytes
   nonlr-proj:       4285. kBytes
   fftplans  :       4447. kBytes
   grid      :       6721. kBytes
   one-center:        124. kBytes
   wavefun   :      38776. kBytes
 
     INWAV:  cpu time    0.0000: real time    0.0001
 Broyden mixing: mesh for mixing (old mesh)
   NGX = 35   NGY = 35   NGZ = 79
  (NGX  =108   NGY  =108   NGZ  =240)
  gives a total of  96775 points

 initial charge density was supplied:
 charge density of overlapping atoms calculated
 number of electron     504.0000000 magnetization 
 keeping initial charge density in first step


--------------------------------------------------------------------------------------------------------


 Maximum index for non-local projection operator          355
 Maximum index for augmentation-charges          437 (set IRDMAX)


--------------------------------------------------------------------------------------------------------


 First call to EWALD:  gamma=   0.129
 Maximum number of real-space cells 4x 4x 2
 Maximum number of reciprocal cells 2x 2x 5

 FEWALD executed in parallel
    FEWALD:  cpu time    0.0027: real time    0.0027


----------------------------------------- Iteration    1(   1)  ---------------------------------------


    POTLOK:  cpu time    0.0486: real time    0.0489
    SETDIJ:  cpu time    0.0061: real time    0.0061
     EDDAV:  cpu time    7.0839: real time    7.1058
       DOS:  cpu time    0.0015: real time    0.0015
    --------------------------------------------
      LOOP:  cpu time    7.1426: real time    7.1679

 eigenvalue-minimisations  :  3672
 total energy-change (2. order) : 0.3199958E+04  (-0.1898016E+05)
 number of electron     504.0000000 magnetization 
 augmentation part      504.0000000 magnetization 

 DIPCOR: dipole corrections for dipol
 direction  3 min pos     1,
 dipolmoment           0.000000      0.000000      0.000001 electrons x Angstroem
 Tr[quadrupol]    -10321.877749

 energy correction for charged system         0.000000 eV
 dipol+quadrupol energy correction           -0.000000 eV
 added-field ion interaction          0.000000 eV  (added to PSCEN)


 Free energy of the ion-electron system (eV)
  ---------------------------------------------------
  alpha Z        PSCENC =       805.86936440
  Ewald energy   TEWEN  =    199925.33536976
  -Hartree energ DENC   =   -242338.45928979
  -exchange      EXHF   =         0.00000000
  -V(xc)+E(xc)   XCENC  =      -327.69503206
  PAW double counting   =     40340.05962942   -38292.62782345
  entropy T*S    EENTRO =        -0.11495006
  eigenvalues    EBANDS =      1427.80467527
  atomic energy  EATOM  =     41659.78587232
  Solvation  Ediel_sol  =         0.00000000
  ---------------------------------------------------
  free energy    TOTEN  =      3199.95781582 eV

  energy without entropy =     3200.07276588  energy(sigma->0) =     3200.01529085


--------------------------------------------------------------------------------------------------------




----------------------------------------- Iteration    1(   2)  ---------------------------------------


     EDDAV:  cpu time    8.2518: real time    8.2907
       DOS:  cpu time    0.0015: real time    0.0015
    --------------------------------------------
      LOOP:  cpu time    8.2539: real time    8.2953

 eigenvalue-minimisations  :  4380
 total energy-change (2. order) :-0.3185253E+04  (-0.2930762E+04)
 number of electron     504.0000000 magnetization 
 augmentation part      504.0000000 magnetization 

 DIPCOR: dipole corrections for dipol
 direction  3 min pos     1,
 dipolmoment           0.000000      0.000000      0.000001 electrons x Angstroem
 Tr[quadrupol]    -10321.877749

 energy correction for charged system         0.000000 eV
 dipol+quadrupol energy correction           -0.000000 eV
 added-field ion interaction          0.000000 eV  (added to PSCEN)


 Free energy of the ion-electron system (eV)
  ---------------------------------------------------
  alpha Z        PSCENC =       805.86936440
  Ewald energy   TEWEN  =    199925.33536976
  -Hartree energ DENC   =   -242338.45928979
  -exchange      EXHF   =         0.00000000
  -V(xc)+E(xc)   XCENC  =      -327.69503206
  PAW double counting   =     40340.05962942   -38292.62782345
  entropy T*S    EENTRO =        -0.12781877
  eigenvalues    EBANDS =     -1757.43546302
  atomic energy  EATOM  =     41659.78587232
  Solvation  Ediel_sol  =         0.00000000
  ---------------------------------------------------
  free energy    TOTEN  =        14.70480881 eV

  energy without entropy =       14.83262758  energy(sigma->0) =       14.76871819


--------------------------------------------------------------------------------------------------------




----------------------------------------- Iteration    1(   3)  ---------------------------------------


     EDDAV:  cpu time    7.9763: real time    8.0790
       DOS:  cpu time    0.0016: real time    0.0017
    --------------------------------------------
      LOOP:  cpu time    7.9789: real time    8.0847

 eigenvalue-minimisations  :  4140
 total energy-change (2. order) :-0.2158566E+03  (-0.2006552E+03)
 number of electron     504.0000000 magnetization 
 augmentation part      504.0000000 magnetization 

 DIPCOR: dipole corrections for dipol
 direction  3 min pos     1,
 dipolmoment           0.000000      0.000000      0.000001 electrons x Angstroem
 Tr[quadrupol]    -10321.877749

 energy correction for charged system         0.000000 eV
 dipol+quadrupol energy correction           -0.000000 eV
 added-field ion interaction          0.000000 eV  (added to PSCEN)


 Free energy of the ion-electron system (eV)
  ---------------------------------------------------
  alpha Z        PSCENC =       805.86936440
  Ewald energy   TEWEN  =    199925.33536976
  -Hartree energ DENC   =   -242338.45928979
  -exchange      EXHF   =         0.00000000
  -V(xc)+E(xc)   XCENC  =      -327.69503206
  PAW double counting   =     40340.05962942   -38292.62782345
  entropy T*S    EENTRO =        -0.19297388
  eigenvalues    EBANDS =     -1973.22687019
  atomic energy  EATOM  =     41659.78587232
  Solvation  Ediel_sol  =         0.00000000
  ---------------------------------------------------
  free energy    TOTEN  =      -201.15175347 eV

  energy without entropy =     -200.95877959  energy(sigma->0) =     -201.05526653


--------------------------------------------------------------------------------------------------------




----------------------------------------- Iteration    1(   4)  ---------------------------------------


     EDDAV:  cpu time    8.1364: real time    8.1663
       DOS:  cpu time    0.0017: real time    0.0017
    --------------------------------------------
      LOOP:  cpu time    8.1389: real time    8.1728

 eigenvalue-minimisations  :  4236
 total energy-change (2. order) :-0.5724545E+01  (-0.5658281E+01)
 number of electron     504.0000000 magnetization 
 augmentation part      504.0000000 magnetization 

 DIPCOR: dipole corrections for dipol
 direction  3 min pos     1,
 dipolmoment           0.000000      0.000000      0.000001 electrons x Angstroem
 Tr[quadrupol]    -10321.877749

 energy correction for charged system         0.000000 eV
 dipol+quadrupol energy correction           -0.000000 eV
 added-field ion interaction          0.000000 eV  (added to PSCEN)


 Free energy of the ion-electron system (eV)
  ---------------------------------------------------
  alpha Z        PSCENC =       805.86936440
  Ewald energy   TEWEN  =    199925.33536976
  -Hartree energ DENC   =   -242338.45928979
  -exchange      EXHF   =         0.00000000
  -V(xc)+E(xc)   XCENC  =      -327.69503206
  PAW double counting   =     40340.05962942   -38292.62782345
  entropy T*S    EENTRO =        -0.19563707
  eigenvalues    EBANDS =     -1978.94875203
  atomic energy  EATOM  =     41659.78587232
  Solvation  Ediel_sol  =         0.00000000
  ---------------------------------------------------
  free energy    TOTEN  =      -206.87629849 eV

  energy without entropy =     -206.68066142  energy(sigma->0) =     -206.77847996


--------------------------------------------------------------------------------------------------------




----------------------------------------- Iteration    1(   5)  ---------------------------------------


     EDDAV:  cpu time    8.4577: real time    8.4856
       DOS:  cpu time    0.0016: real time    0.0016
    CHARGE:  cpu time    0.2450: real time    0.2457
    MIXING:  cpu time    0.0022: real time    0.0024
    --------------------------------------------
      LOOP:  cpu time    8.7075: real time    8.7393

 eigenvalue-minimisations  :  4464
 total energy-change (2. order) :-0.1868610E+00  (-0.1862879E+00)
 number of electron     503.9998404 magnetization 
 augmentation part      191.2446671 magnetization 

 DIPCOR: dipole corrections for dipol
 direction  3 min pos     1,
 dipolmoment           0.000000      0.000000      0.000001 electrons x Angstroem
 Tr[quadrupol]    -10321.877749

 energy correction for charged system         0.000000 eV
 dipol+quadrupol energy correction           -0.000000 eV
 added-field ion interaction          0.000000 eV  (added to PSCEN)


 Broyden mixing:
  rms(total) = 0.62150E+01    rms(broyden)= 0.62149E+01
  rms(prec ) = 0.63365E+01
  weight for this iteration     100.00

 Free energy of the ion-electron system (eV)
  ---------------------------------------------------
  alpha Z        PSCENC =       805.86936440
  Ewald energy   TEWEN  =    199925.33536976
  -Hartree energ DENC   =   -242338.45928979
  -exchange      EXHF   =         0.00000000
  -V(xc)+E(xc)   XCENC  =      -327.69503206
  PAW double counting   =     40340.05962942   -38292.62782345
  entropy T*S    EENTRO =        -0.19524525
  eigenvalues    EBANDS =     -1979.13600489
  atomic energy  EATOM  =     41659.78587232
  Solvation  Ediel_sol  =         0.00000000
  ---------------------------------------------------
  free energy    TOTEN  =      -207.06315953 eV

  energy without entropy =     -206.86791429  energy(sigma->0) =     -206.96553691


--------------------------------------------------------------------------------------------------------




----------------------------------------- Iteration    1(   6)  ---------------------------------------


    POTLOK:  cpu time    0.0428: real time    0.0430
    SETDIJ:  cpu time    0.0063: real time    0.0063
    EDDIAG:  cpu time    1.2895: real time    1.2941
  RMM-DIIS:  cpu time    3.5202: real time    3.5298
    ORTHCH:  cpu time    0.3206: real time    0.3231
       DOS:  cpu time    0.0018: real time    0.0018
    CHARGE:  cpu time    0.2455: real time    0.2461
    MIXING:  cpu time    0.0020: real time    0.0021
    --------------------------------------------
      LOOP:  cpu time    5.4294: real time    5.4502

 eigenvalue-minimisations  :  3678
 total energy-change (2. order) : 0.7587418E+01  (-0.9550676E+01)
 number of electron     503.9998424 magnetization 
 augmentation part      192.0057756 magnetization 

 DIPCOR: dipole corrections for dipol
 direction  3 min pos     1,
 dipolmoment           0.000000      0.000000      0.338522 electrons x Angstroem
 Tr[quadrupol]    -10323.986574

 energy correction for charged system         0.000000 eV
 dipol+quadrupol energy correction           -0.004038 eV
 added-field ion interaction          0.053581 eV  (added to PSCEN)


 Broyden mixing:
  rms(total) = 0.52144E+01    rms(broyden)= 0.52143E+01
  rms(prec ) = 0.53647E+01
  weight for this iteration     100.00

 eigenvalues of (default mixing * dielectric matrix)
  average eigenvalue GAMMA=   0.8128
  0.8128

 Free energy of the ion-electron system (eV)
  ---------------------------------------------------
  alpha Z        PSCENC =       805.91890698
  Ewald energy   TEWEN  =    199925.33536976
  -Hartree energ DENC   =   -242113.07932910
  -exchange      EXHF   =         0.00000000
  -V(xc)+E(xc)   XCENC  =      -340.43242078
  PAW double counting   =     43904.71034532   -41916.73086670
  entropy T*S    EENTRO =        -0.28470135
  eigenvalues    EBANDS =     -2124.69891812
  atomic energy  EATOM  =     41659.78587232
  Solvation  Ediel_sol  =         0.00000000
  ---------------------------------------------------
  free energy    TOTEN  =      -199.47574168 eV

  energy without entropy =     -199.19104033  energy(sigma->0) =     -199.33339101


--------------------------------------------------------------------------------------------------------




----------------------------------------- Iteration    1(   7)  ---------------------------------------


    POTLOK:  cpu time    0.0429: real time    0.0432
    SETDIJ:  cpu time    0.0054: real time    0.0054
    EDDIAG:  cpu time    1.2823: real time    1.2878
  RMM-DIIS:  cpu time    3.5047: real time    3.5131
    ORTHCH:  cpu time    0.3228: real time    0.3239
       DOS:  cpu time    0.0017: real time    0.0017
    CHARGE:  cpu time    0.2527: real time    0.2533
    MIXING:  cpu time    0.0021: real time    0.0021
    --------------------------------------------
      LOOP:  cpu time    5.4154: real time    5.4338

 eigenvalue-minimisations  :  3684
 total energy-change (2. order) :-0.2074799E+01  (-0.5210325E+01)
 number of electron     503.9998361 magnetization 
 augmentation part      197.0318533 magnetization 

 DIPCOR: dipole corrections for dipol
 direction  3 min pos     1,
 dipolmoment           0.000000      0.000000     -0.551962 electrons x Angstroem
 Tr[quadrupol]    -10321.527414

 energy correction for charged system         0.000000 eV
 dipol+quadrupol energy correction           -0.010735 eV
 added-field ion interaction         -0.087364 eV  (added to PSCEN)


 Broyden mixing:
  rms(total) = 0.37826E+01    rms(broyden)= 0.37823E+01
  rms(prec ) = 0.41505E+01
  weight for this iteration     100.00

 eigenvalues of (default mixing * dielectric matrix)
  average eigenvalue GAMMA=   1.0786
  1.7323  0.4250

 Free energy of the ion-electron system (eV)
  ---------------------------------------------------
  alpha Z        PSCENC =       805.77126504
  Ewald energy   TEWEN  =    199925.33536976
  -Hartree energ DENC   =   -241917.08672127
  -exchange      EXHF   =         0.00000000
  -V(xc)+E(xc)   XCENC  =      -342.73759712
  PAW double counting   =     45506.00165213   -43546.12257903
  entropy T*S    EENTRO =        -0.17445872
  eigenvalues    EBANDS =     -2292.32334399
  atomic energy  EATOM  =     41659.78587232
  Solvation  Ediel_sol  =         0.00000000
  ---------------------------------------------------
  free energy    TOTEN  =      -201.55054089 eV

  energy without entropy =     -201.37608217  energy(sigma->0) =     -201.46331153


--------------------------------------------------------------------------------------------------------




----------------------------------------- Iteration    1(   8)  ---------------------------------------


    POTLOK:  cpu time    0.0429: real time    0.0430
    SETDIJ:  cpu time    0.0064: real time    0.0065
    EDDIAG:  cpu time    1.2919: real time    1.2956
  RMM-DIIS:  cpu time    3.5291: real time    3.5410
    ORTHCH:  cpu time    0.3206: real time    0.3214
       DOS:  cpu time    0.0017: real time    0.0017
    CHARGE:  cpu time    0.2458: real time    0.2463
    MIXING:  cpu time    0.0022: real time    0.0022
    --------------------------------------------
      LOOP:  cpu time    5.4412: real time    5.4619

 eigenvalue-minimisations  :  3672
 total energy-change (2. order) :-0.1785249E+02  (-0.7686524E+01)
 number of electron     503.9998362 magnetization 
 augmentation part      195.9792619 magnetization 

 DIPCOR: dipole corrections for dipol
 direction  3 min pos     1,
 dipolmoment           0.000000      0.000000      1.672440 electrons x Angstroem
 Tr[quadrupol]    -10324.254414

 energy correction for charged system         0.000000 eV
 dipol+quadrupol energy correction           -0.098561 eV
 added-field ion interaction          0.264711 eV  (added to PSCEN)


 Broyden mixing:
  rms(total) = 0.41387E+01    rms(broyden)= 0.41383E+01
  rms(prec ) = 0.50181E+01
  weight for this iteration     100.00

 eigenvalues of (default mixing * dielectric matrix)
  average eigenvalue GAMMA=   0.9804
  2.1750  0.4745  0.2917

 Free energy of the ion-electron system (eV)
  ---------------------------------------------------
  alpha Z        PSCENC =       806.03551483
  Ewald energy   TEWEN  =    199925.33536976
  -Hartree energ DENC   =   -241952.21098714
  -exchange      EXHF   =         0.00000000
  -V(xc)+E(xc)   XCENC  =      -344.78512617
  PAW double counting   =     47657.93445412   -45726.67818086
  entropy T*S    EENTRO =        -0.26450333
  eigenvalues    EBANDS =     -2244.55544219
  atomic energy  EATOM  =     41659.78587232
  Solvation  Ediel_sol  =         0.00000000
  ---------------------------------------------------
  free energy    TOTEN  =      -219.40302867 eV

  energy without entropy =     -219.13852534  energy(sigma->0) =     -219.27077700


--------------------------------------------------------------------------------------------------------




----------------------------------------- Iteration    1(   9)  ---------------------------------------


    POTLOK:  cpu time    0.0423: real time    0.0425
    SETDIJ:  cpu time    0.0058: real time    0.0060
    EDDIAG:  cpu time    1.2742: real time    1.2786
  RMM-DIIS:  cpu time    3.5063: real time    3.5615
    ORTHCH:  cpu time    0.3107: real time    0.3410
       DOS:  cpu time    0.0017: real time    0.0018
    CHARGE:  cpu time    0.2421: real time    0.2545
    MIXING:  cpu time    0.0022: real time    0.0022
    --------------------------------------------
      LOOP:  cpu time    5.3861: real time    5.4912

 eigenvalue-minimisations  :  3678
 total energy-change (2. order) : 0.1077378E+02  (-0.3588814E+01)
 number of electron     503.9998348 magnetization 
 augmentation part      197.6088444 magnetization 

 DIPCOR: dipole corrections for dipol
 direction  3 min pos     1,
 dipolmoment           0.000000      0.000000     -0.765156 electrons x Angstroem
 Tr[quadrupol]    -10325.486190

 energy correction for charged system         0.000000 eV
 dipol+quadrupol energy correction           -0.020630 eV
 added-field ion interaction         -0.121108 eV  (added to PSCEN)


 Broyden mixing:
  rms(total) = 0.33031E+01    rms(broyden)= 0.33027E+01
  rms(prec ) = 0.37655E+01
  weight for this iteration     100.00

 eigenvalues of (default mixing * dielectric matrix)
  average eigenvalue GAMMA=   0.8427
  2.2775  0.5009  0.2962  0.2962

 Free energy of the ion-electron system (eV)
  ---------------------------------------------------
  alpha Z        PSCENC =       805.72762629
  Ewald energy   TEWEN  =    199925.33536976
  -Hartree energ DENC   =   -241970.00590432
  -exchange      EXHF   =         0.00000000
  -V(xc)+E(xc)   XCENC  =      -345.99832731
  PAW double counting   =     48752.21462581   -46836.91668536
  entropy T*S    EENTRO =        -0.19973854
  eigenvalues    EBANDS =     -2198.57208910
  atomic energy  EATOM  =     41659.78587232
  Solvation  Ediel_sol  =         0.00000000
  ---------------------------------------------------
  free energy    TOTEN  =      -208.62925045 eV

  energy without entropy =     -208.42951190  energy(sigma->0) =     -208.52938118


--------------------------------------------------------------------------------------------------------




----------------------------------------- Iteration    1(  10)  ---------------------------------------


    POTLOK:  cpu time    0.0444: real time    0.0446
    SETDIJ:  cpu time    0.0056: real time    0.0057
    EDDIAG:  cpu time    1.2947: real time    1.3002
  RMM-DIIS:  cpu time    3.5402: real time    3.5508
    ORTHCH:  cpu time    0.3205: real time    0.3213
       DOS:  cpu time    0.0018: real time    0.0018
    CHARGE:  cpu time    0.2432: real time    0.2438
    MIXING:  cpu time    0.0023: real time    0.0023
    --------------------------------------------
      LOOP:  cpu time    5.4535: real time    5.4726

 eigenvalue-minimisations  :  3680
 total energy-change (2. order) : 0.1381046E+02  (-0.1575843E+01)
 number of electron     503.9998338 magnetization 
 augmentation part      198.8552526 magnetization 

 DIPCOR: dipole corrections for dipol
 direction  3 min pos     1,
 dipolmoment           0.000000      0.000000      0.248397 electrons x Angstroem
 Tr[quadrupol]    -10324.291101

 energy correction for charged system         0.000000 eV
 dipol+quadrupol energy correction           -0.002174 eV
 added-field ion interaction          0.039316 eV  (added to PSCEN)


 Broyden mixing:
  rms(total) = 0.16283E+01    rms(broyden)= 0.16280E+01
  rms(prec ) = 0.18823E+01
  weight for this iteration     100.00

 eigenvalues of (default mixing * dielectric matrix)
  average eigenvalue GAMMA=   0.7750
  2.2623  0.5054  0.5054  0.3635  0.2386

 Free energy of the ion-electron system (eV)
  ---------------------------------------------------
  alpha Z        PSCENC =       805.90650600
  Ewald energy   TEWEN  =    199925.33536976
  -Hartree energ DENC   =   -241939.60241871
  -exchange      EXHF   =         0.00000000
  -V(xc)+E(xc)   XCENC  =      -345.78586389
  PAW double counting   =     49104.74789775   -47193.19098353
  entropy T*S    EENTRO =        -0.19448678
  eigenvalues    EBANDS =     -2211.82067926
  atomic energy  EATOM  =     41659.78587232
  Solvation  Ediel_sol  =         0.00000000
  ---------------------------------------------------
  free energy    TOTEN  =      -194.81878634 eV

  energy without entropy =     -194.62429955  energy(sigma->0) =     -194.72154295


--------------------------------------------------------------------------------------------------------




----------------------------------------- Iteration    1(  11)  ---------------------------------------


    POTLOK:  cpu time    0.0426: real time    0.0429
    SETDIJ:  cpu time    0.0047: real time    0.0056
    EDDIAG:  cpu time    1.2694: real time    1.2908
  RMM-DIIS:  cpu time    3.4819: real time    3.5105
    ORTHCH:  cpu time    0.3217: real time    0.3227
       DOS:  cpu time    0.0017: real time    0.0018
    CHARGE:  cpu time    0.2514: real time    0.2519
    MIXING:  cpu time    0.0023: real time    0.0023
    --------------------------------------------
      LOOP:  cpu time    5.3766: real time    5.4325

 eigenvalue-minimisations  :  3679
 total energy-change (2. order) : 0.3613745E+01  (-0.8796883E+00)
 number of electron     503.9998349 magnetization 
 augmentation part      198.1784344 magnetization 

 DIPCOR: dipole corrections for dipol
 direction  3 min pos     1,
 dipolmoment           0.000000      0.000000      0.063264 electrons x Angstroem
 Tr[quadrupol]    -10324.617796

 energy correction for charged system         0.000000 eV
 dipol+quadrupol energy correction           -0.000141 eV
 added-field ion interaction          0.010013 eV  (added to PSCEN)


 Broyden mixing:
  rms(total) = 0.10932E+01    rms(broyden)= 0.10929E+01
  rms(prec ) = 0.12413E+01
  weight for this iteration     100.00

 eigenvalues of (default mixing * dielectric matrix)
  average eigenvalue GAMMA=   0.7306
  2.2372  0.6235  0.6235  0.3643  0.2674  0.2674

 Free energy of the ion-electron system (eV)
  ---------------------------------------------------
  alpha Z        PSCENC =       805.87923657
  Ewald energy   TEWEN  =    199925.33536976
  -Hartree energ DENC   =   -241974.73972647
  -exchange      EXHF   =         0.00000000
  -V(xc)+E(xc)   XCENC  =      -345.12916073
  PAW double counting   =     49172.14035705   -47257.95071107
  entropy T*S    EENTRO =        -0.21748048
  eigenvalues    EBANDS =     -2176.30879846
  atomic energy  EATOM  =     41659.78587232
  Solvation  Ediel_sol  =         0.00000000
  ---------------------------------------------------
  free energy    TOTEN  =      -191.20504152 eV

  energy without entropy =     -190.98756104  energy(sigma->0) =     -191.09630128


--------------------------------------------------------------------------------------------------------




----------------------------------------- Iteration    1(  12)  ---------------------------------------


    POTLOK:  cpu time    0.0419: real time    0.0421
    SETDIJ:  cpu time    0.0056: real time    0.0056
    EDDIAG:  cpu time    1.2899: real time    1.2955
  RMM-DIIS:  cpu time    3.5276: real time    3.5364
    ORTHCH:  cpu time    0.3205: real time    0.3214
       DOS:  cpu time    0.0018: real time    0.0018
    CHARGE:  cpu time    0.2435: real time    0.2440
    MIXING:  cpu time    0.0026: real time    0.0026
    --------------------------------------------
      LOOP:  cpu time    5.4341: real time    5.4528

 eigenvalue-minimisations  :  3678
 total energy-change (2. order) : 0.1709033E+01  (-0.3855419E+00)
 number of electron     503.9998361 magnetization 
 augmentation part      197.3286748 magnetization 

 DIPCOR: dipole corrections for dipol
 direction  3 min pos     1,
 dipolmoment           0.000000      0.000000      0.040087 electrons x Angstroem
 Tr[quadrupol]    -10325.015891

 energy correction for charged system         0.000000 eV
 dipol+quadrupol energy correction           -0.000057 eV
 added-field ion interaction          0.006345 eV  (added to PSCEN)


 Broyden mixing:
  rms(total) = 0.66148E+00    rms(broyden)= 0.66127E+00
  rms(prec ) = 0.70123E+00
  weight for this iteration     100.00

 eigenvalues of (default mixing * dielectric matrix)
  average eigenvalue GAMMA=   0.7075
  2.2639  0.7495  0.5428  0.5428  0.3328  0.2604  0.2604

 Free energy of the ion-electron system (eV)
  ---------------------------------------------------
  alpha Z        PSCENC =       805.87565261
  Ewald energy   TEWEN  =    199925.33536976
  -Hartree energ DENC   =   -242013.93870135
  -exchange      EXHF   =         0.00000000
  -V(xc)+E(xc)   XCENC  =      -344.43729450
  PAW double counting   =     49217.07330917   -47299.79301677
  entropy T*S    EENTRO =        -0.23958897
  eigenvalues    EBANDS =     -2139.15761103
  atomic energy  EATOM  =     41659.78587232
  Solvation  Ediel_sol  =         0.00000000
  ---------------------------------------------------
  free energy    TOTEN  =      -189.49600877 eV

  energy without entropy =     -189.25641980  energy(sigma->0) =     -189.37621429


--------------------------------------------------------------------------------------------------------




----------------------------------------- Iteration    1(  13)  ---------------------------------------


    POTLOK:  cpu time    0.0418: real time    0.0419
    SETDIJ:  cpu time    0.0055: real time    0.0062
    EDDIAG:  cpu time    1.2748: real time    1.2791
  RMM-DIIS:  cpu time    3.5079: real time    3.5170
    ORTHCH:  cpu time    0.3218: real time    0.3226
       DOS:  cpu time    0.0018: real time    0.0018
    CHARGE:  cpu time    0.2438: real time    0.2444
    MIXING:  cpu time    0.0028: real time    0.0028
    --------------------------------------------
      LOOP:  cpu time    5.4009: real time    5.4191

 eigenvalue-minimisations  :  3679
 total energy-change (2. order) : 0.1155998E+00  (-0.1105107E+00)
 number of electron     503.9998361 magnetization 
 augmentation part      197.2158853 magnetization 

 DIPCOR: dipole corrections for dipol
 direction  3 min pos     1,
 dipolmoment           0.000000      0.000000     -0.010500 electrons x Angstroem
 Tr[quadrupol]    -10325.366138

 energy correction for charged system         0.000000 eV
 dipol+quadrupol energy correction           -0.000004 eV
 added-field ion interaction         -0.001662 eV  (added to PSCEN)


 Broyden mixing:
  rms(total) = 0.58708E+00    rms(broyden)= 0.58695E+00
  rms(prec ) = 0.63033E+00
  weight for this iteration     100.00

 eigenvalues of (default mixing * dielectric matrix)
  average eigenvalue GAMMA=   0.7148
  2.2833  0.8315  0.7331  0.7331  0.3117  0.3117  0.2570  0.2570

 Free energy of the ion-electron system (eV)
  ---------------------------------------------------
  alpha Z        PSCENC =       805.86769855
  Ewald energy   TEWEN  =    199925.33536976
  -Hartree energ DENC   =   -242029.58115223
  -exchange      EXHF   =         0.00000000
  -V(xc)+E(xc)   XCENC  =      -344.33518695
  PAW double counting   =     49259.91902294   -47342.25104117
  entropy T*S    EENTRO =        -0.24496445
  eigenvalues    EBANDS =     -2123.87602775
  atomic energy  EATOM  =     41659.78587232
  Solvation  Ediel_sol  =         0.00000000
  ---------------------------------------------------
  free energy    TOTEN  =      -189.38040899 eV

  energy without entropy =     -189.13544453  energy(sigma->0) =     -189.25792676


--------------------------------------------------------------------------------------------------------




----------------------------------------- Iteration    1(  14)  ---------------------------------------


    POTLOK:  cpu time    0.0424: real time    0.0425
    SETDIJ:  cpu time    0.0056: real time    0.0056
    EDDIAG:  cpu time    1.2893: real time    1.2973
  RMM-DIIS:  cpu time    3.5607: real time    3.5706
    ORTHCH:  cpu time    0.3219: real time    0.3229
       DOS:  cpu time    0.0017: real time    0.0017
    CHARGE:  cpu time    0.2435: real time    0.2440
    MIXING:  cpu time    0.0030: real time    0.0030
    --------------------------------------------
      LOOP:  cpu time    5.4689: real time    5.4925

 eigenvalue-minimisations  :  3679
 total energy-change (2. order) :-0.6038739E-01  (-0.4908276E-01)
 number of electron     503.9998359 magnetization 
 augmentation part      197.3487651 magnetization 

 DIPCOR: dipole corrections for dipol
 direction  3 min pos     1,
 dipolmoment           0.000000      0.000000     -0.000732 electrons x Angstroem
 Tr[quadrupol]    -10325.460366

 energy correction for charged system         0.000000 eV
 dipol+quadrupol energy correction           -0.000000 eV
 added-field ion interaction         -0.000116 eV  (added to PSCEN)


 Broyden mixing:
  rms(total) = 0.50147E+00    rms(broyden)= 0.50136E+00
  rms(prec ) = 0.56275E+00
  weight for this iteration     100.00

 eigenvalues of (default mixing * dielectric matrix)
  average eigenvalue GAMMA=   0.7110
  2.2783  0.9231  0.9231  0.7712  0.3779  0.3779  0.2617  0.2617  0.2241

 Free energy of the ion-electron system (eV)
  ---------------------------------------------------
  alpha Z        PSCENC =       805.86924848
  Ewald energy   TEWEN  =    199925.33536976
  -Hartree energ DENC   =   -242032.72351646
  -exchange      EXHF   =         0.00000000
  -V(xc)+E(xc)   XCENC  =      -344.29630119
  PAW double counting   =     49281.92200558   -47364.11249897
  entropy T*S    EENTRO =        -0.23639182
  eigenvalues    EBANDS =     -2120.98458408
  atomic energy  EATOM  =     41659.78587232
  Solvation  Ediel_sol  =         0.00000000
  ---------------------------------------------------
  free energy    TOTEN  =      -189.44079638 eV

  energy without entropy =     -189.20440456  energy(sigma->0) =     -189.32260047


--------------------------------------------------------------------------------------------------------




----------------------------------------- Iteration    1(  15)  ---------------------------------------


    POTLOK:  cpu time    0.0429: real time    0.0430
    SETDIJ:  cpu time    0.0055: real time    0.0059
    EDDIAG:  cpu time    1.2853: real time    1.2885
  RMM-DIIS:  cpu time    3.5023: real time    3.5111
    ORTHCH:  cpu time    0.3161: real time    0.3171
       DOS:  cpu time    0.0018: real time    0.0018
    CHARGE:  cpu time    0.2502: real time    0.2508
    MIXING:  cpu time    0.0033: real time    0.0033
    --------------------------------------------
      LOOP:  cpu time    5.4081: real time    5.4255

 eigenvalue-minimisations  :  3679
 total energy-change (2. order) : 0.9605666E-01  (-0.1862248E-01)
 number of electron     503.9998359 magnetization 
 augmentation part      197.3606783 magnetization 

 DIPCOR: dipole corrections for dipol
 direction  3 min pos     1,
 dipolmoment           0.000000      0.000000      0.015403 electrons x Angstroem
 Tr[quadrupol]    -10325.586446

 energy correction for charged system         0.000000 eV
 dipol+quadrupol energy correction           -0.000008 eV
 added-field ion interaction          0.002438 eV  (added to PSCEN)


 Broyden mixing:
  rms(total) = 0.37399E+00    rms(broyden)= 0.37396E+00
  rms(prec ) = 0.42096E+00
  weight for this iteration     100.00

 eigenvalues of (default mixing * dielectric matrix)
  average eigenvalue GAMMA=   0.7306
  2.2477  1.2468  1.2468  0.5061  0.5061  0.5295  0.2755  0.2755  0.2358  0.2358

 Free energy of the ion-electron system (eV)
  ---------------------------------------------------
  alpha Z        PSCENC =       805.87179381
  Ewald energy   TEWEN  =    199925.33536976
  -Hartree energ DENC   =   -242039.32186737
  -exchange      EXHF   =         0.00000000
  -V(xc)+E(xc)   XCENC  =      -344.18981728
  PAW double counting   =     49285.69364879   -47367.18457802
  entropy T*S    EENTRO =        -0.25619131
  eigenvalues    EBANDS =     -2115.07897041
  atomic energy  EATOM  =     41659.78587232
  Solvation  Ediel_sol  =         0.00000000
  ---------------------------------------------------
  free energy    TOTEN  =      -189.34473972 eV

  energy without entropy =     -189.08854841  energy(sigma->0) =     -189.21664406


--------------------------------------------------------------------------------------------------------




----------------------------------------- Iteration    1(  16)  ---------------------------------------


    POTLOK:  cpu time    0.0424: real time    0.0425
    SETDIJ:  cpu time    0.0057: real time    0.0057
    EDDIAG:  cpu time    1.2875: real time    1.2906
  RMM-DIIS:  cpu time    3.5396: real time    3.5493
    ORTHCH:  cpu time    0.3167: real time    0.3175
       DOS:  cpu time    0.0018: real time    0.0018
    CHARGE:  cpu time    0.2432: real time    0.2437
    MIXING:  cpu time    0.0031: real time    0.0031
    --------------------------------------------
      LOOP:  cpu time    5.4407: real time    5.4564

 eigenvalue-minimisations  :  3680
 total energy-change (2. order) : 0.1503060E+00  (-0.1080641E-01)
 number of electron     503.9998360 magnetization 
 augmentation part      197.2652401 magnetization 

 DIPCOR: dipole corrections for dipol
 direction  3 min pos     1,
 dipolmoment           0.000000      0.000000      0.020344 electrons x Angstroem
 Tr[quadrupol]    -10325.899696

 energy correction for charged system         0.000000 eV
 dipol+quadrupol energy correction           -0.000015 eV
 added-field ion interaction          0.003220 eV  (added to PSCEN)


 Broyden mixing:
  rms(total) = 0.21211E+00    rms(broyden)= 0.21208E+00
  rms(prec ) = 0.23649E+00
  weight for this iteration     100.00

 eigenvalues of (default mixing * dielectric matrix)
  average eigenvalue GAMMA=   0.7691
  2.0500  1.6709  1.6709  0.5705  0.5705  0.5029  0.3380  0.3380  0.2614  0.2614
  0.2256

 Free energy of the ion-electron system (eV)
  ---------------------------------------------------
  alpha Z        PSCENC =       805.87256974
  Ewald energy   TEWEN  =    199925.33536976
  -Hartree energ DENC   =   -242055.82528051
  -exchange      EXHF   =         0.00000000
  -V(xc)+E(xc)   XCENC  =      -343.99081969
  PAW double counting   =     49288.17302486   -47368.29069895
  entropy T*S    EENTRO =        -0.25856318
  eigenvalues    EBANDS =     -2099.99590803
  atomic energy  EATOM  =     41659.78587232
  Solvation  Ediel_sol  =         0.00000000
  ---------------------------------------------------
  free energy    TOTEN  =      -189.19443369 eV

  energy without entropy =     -188.93587051  energy(sigma->0) =     -189.06515210


--------------------------------------------------------------------------------------------------------




----------------------------------------- Iteration    1(  17)  ---------------------------------------


    POTLOK:  cpu time    0.0440: real time    0.0459
    SETDIJ:  cpu time    0.0056: real time    0.0056
    EDDIAG:  cpu time    1.2720: real time    1.3276
  RMM-DIIS:  cpu time    3.4892: real time    3.5309
    ORTHCH:  cpu time    0.3163: real time    0.3172
       DOS:  cpu time    0.0018: real time    0.0018
    CHARGE:  cpu time    0.2443: real time    0.2449
    MIXING:  cpu time    0.0032: real time    0.0033
    --------------------------------------------
      LOOP:  cpu time    5.3772: real time    5.4795

 eigenvalue-minimisations  :  3679
 total energy-change (2. order) : 0.1927266E-01  (-0.1169562E-01)
 number of electron     503.9998362 magnetization 
 augmentation part      197.1426497 magnetization 

 DIPCOR: dipole corrections for dipol
 direction  3 min pos     1,
 dipolmoment           0.000000      0.000000      0.014851 electrons x Angstroem
 Tr[quadrupol]    -10326.180452

 energy correction for charged system         0.000000 eV
 dipol+quadrupol energy correction           -0.000008 eV
 added-field ion interaction          0.002351 eV  (added to PSCEN)


 Broyden mixing:
  rms(total) = 0.18034E+00    rms(broyden)= 0.18028E+00
  rms(prec ) = 0.20724E+00
  weight for this iteration     100.00

 eigenvalues of (default mixing * dielectric matrix)
  average eigenvalue GAMMA=   0.7614
  2.1053  2.1053  1.4023  0.6077  0.6077  0.6032  0.3645  0.3405  0.2705  0.2705
  0.2433  0.2167

 Free energy of the ion-electron system (eV)
  ---------------------------------------------------
  alpha Z        PSCENC =       805.87170705
  Ewald energy   TEWEN  =    199925.33536976
  -Hartree energ DENC   =   -242071.55551821
  -exchange      EXHF   =         0.00000000
  -V(xc)+E(xc)   XCENC  =      -343.77136300
  PAW double counting   =     49293.46713621   -47372.16391379
  entropy T*S    EENTRO =        -0.25827655
  eigenvalues    EBANDS =     -2085.88617482
  atomic energy  EATOM  =     41659.78587232
  Solvation  Ediel_sol  =         0.00000000
  ---------------------------------------------------
  free energy    TOTEN  =      -189.17516103 eV

  energy without entropy =     -188.91688448  energy(sigma->0) =     -189.04602275


--------------------------------------------------------------------------------------------------------




----------------------------------------- Iteration    1(  18)  ---------------------------------------


    POTLOK:  cpu time    0.0437: real time    0.0443
    SETDIJ:  cpu time    0.0056: real time    0.0056
    EDDIAG:  cpu time    1.2871: real time    1.2922
  RMM-DIIS:  cpu time    3.5056: real time    3.5142
    ORTHCH:  cpu time    0.3153: real time    0.3162
       DOS:  cpu time    0.0018: real time    0.0018
    CHARGE:  cpu time    0.2553: real time    0.2559
    MIXING:  cpu time    0.0035: real time    0.0035
    --------------------------------------------
      LOOP:  cpu time    5.4185: real time    5.4377

 eigenvalue-minimisations  :  3680
 total energy-change (2. order) : 0.3729218E-01  (-0.2970068E-02)
 number of electron     503.9998362 magnetization 
 augmentation part      197.0934009 magnetization 

 DIPCOR: dipole corrections for dipol
 direction  3 min pos     1,
 dipolmoment           0.000000      0.000000      0.010269 electrons x Angstroem
 Tr[quadrupol]    -10326.348887

 energy correction for charged system         0.000000 eV
 dipol+quadrupol energy correction           -0.000004 eV
 added-field ion interaction          0.001625 eV  (added to PSCEN)


 Broyden mixing:
  rms(total) = 0.70162E-01    rms(broyden)= 0.70110E-01
  rms(prec ) = 0.78397E-01
  weight for this iteration     100.00

 eigenvalues of (default mixing * dielectric matrix)
  average eigenvalue GAMMA=   0.7324
  2.1466  1.9255  1.4931  0.6271  0.6271  0.6173  0.3930  0.3930  0.2869  0.2869
  0.2508  0.2508  0.2226

 Free energy of the ion-electron system (eV)
  ---------------------------------------------------
  alpha Z        PSCENC =       805.87098590
  Ewald energy   TEWEN  =    199925.33536976
  -Hartree energ DENC   =   -242079.02307169
  -exchange      EXHF   =         0.00000000
  -V(xc)+E(xc)   XCENC  =      -343.71347864
  PAW double counting   =     49302.01329167   -47380.38133931
  entropy T*S    EENTRO =        -0.25997255
  eigenvalues    EBANDS =     -2078.76552632
  atomic energy  EATOM  =     41659.78587232
  Solvation  Ediel_sol  =         0.00000000
  ---------------------------------------------------
  free energy    TOTEN  =      -189.13786885 eV

  energy without entropy =     -188.87789630  energy(sigma->0) =     -189.00788258


--------------------------------------------------------------------------------------------------------




----------------------------------------- Iteration    1(  19)  ---------------------------------------


    POTLOK:  cpu time    0.0436: real time    0.0437
    SETDIJ:  cpu time    0.0055: real time    0.0055
    EDDIAG:  cpu time    1.2754: real time    1.2787
  RMM-DIIS:  cpu time    3.5569: real time    3.5660
    ORTHCH:  cpu time    0.3176: real time    0.3184
       DOS:  cpu time    0.0017: real time    0.0017
    CHARGE:  cpu time    0.2497: real time    0.2504
    MIXING:  cpu time    0.0036: real time    0.0036
    --------------------------------------------
      LOOP:  cpu time    5.4546: real time    5.4714

 eigenvalue-minimisations  :  3680
 total energy-change (2. order) : 0.3336407E-02  (-0.4702597E-03)
 number of electron     503.9998362 magnetization 
 augmentation part      197.0863583 magnetization 

 DIPCOR: dipole corrections for dipol
 direction  3 min pos     1,
 dipolmoment           0.000000      0.000000      0.010076 electrons x Angstroem
 Tr[quadrupol]    -10326.402805

 energy correction for charged system         0.000000 eV
 dipol+quadrupol energy correction           -0.000004 eV
 added-field ion interaction          0.001595 eV  (added to PSCEN)


 Broyden mixing:
  rms(total) = 0.50314E-01    rms(broyden)= 0.50308E-01
  rms(prec ) = 0.56136E-01
  weight for this iteration     100.00

 eigenvalues of (default mixing * dielectric matrix)
  average eigenvalue GAMMA=   0.7410
  2.2364  1.6340  1.6340  0.7914  0.7914  0.5829  0.5829  0.5082  0.3080  0.3080
  0.2654  0.2654  0.2472  0.2183

 Free energy of the ion-electron system (eV)
  ---------------------------------------------------
  alpha Z        PSCENC =       805.87095557
  Ewald energy   TEWEN  =    199925.33536976
  -Hartree energ DENC   =   -242081.19572499
  -exchange      EXHF   =         0.00000000
  -V(xc)+E(xc)   XCENC  =      -343.70998249
  PAW double counting   =     49306.01879086   -47384.40760821
  entropy T*S    EENTRO =        -0.25925936
  eigenvalues    EBANDS =     -2076.57294591
  atomic energy  EATOM  =     41659.78587232
  Solvation  Ediel_sol  =         0.00000000
  ---------------------------------------------------
  free energy    TOTEN  =      -189.13453244 eV

  energy without entropy =     -188.87527308  energy(sigma->0) =     -189.00490276


--------------------------------------------------------------------------------------------------------




----------------------------------------- Iteration    1(  20)  ---------------------------------------


    POTLOK:  cpu time    0.0437: real time    0.0439
    SETDIJ:  cpu time    0.0055: real time    0.0056
    EDDIAG:  cpu time    1.2868: real time    1.2900
  RMM-DIIS:  cpu time    3.5578: real time    3.5667
    ORTHCH:  cpu time    0.3170: real time    0.3179
       DOS:  cpu time    0.0017: real time    0.0017
    CHARGE:  cpu time    0.2426: real time    0.2433
    MIXING:  cpu time    0.0038: real time    0.0038
    --------------------------------------------
      LOOP:  cpu time    5.4598: real time    5.4761

 eigenvalue-minimisations  :  3678
 total energy-change (2. order) : 0.4887246E-03  (-0.2639162E-03)
 number of electron     503.9998362 magnetization 
 augmentation part      197.0792419 magnetization 

 DIPCOR: dipole corrections for dipol
 direction  3 min pos     1,
 dipolmoment           0.000000      0.000000      0.012776 electrons x Angstroem
 Tr[quadrupol]    -10326.493595

 energy correction for charged system         0.000000 eV
 dipol+quadrupol energy correction           -0.000006 eV
 added-field ion interaction          0.002022 eV  (added to PSCEN)


 Broyden mixing:
  rms(total) = 0.43435E-01    rms(broyden)= 0.43428E-01
  rms(prec ) = 0.48946E-01
  weight for this iteration     100.00

 eigenvalues of (default mixing * dielectric matrix)
  average eigenvalue GAMMA=   0.7531
  2.2504  1.6837  1.6837  0.9920  0.9920  0.5881  0.5881  0.5762  0.3434  0.3434
  0.2698  0.2698  0.2484  0.2484  0.2190

 Free energy of the ion-electron system (eV)
  ---------------------------------------------------
  alpha Z        PSCENC =       805.87138076
  Ewald energy   TEWEN  =    199925.33536976
  -Hartree energ DENC   =   -242084.93367803
  -exchange      EXHF   =         0.00000000
  -V(xc)+E(xc)   XCENC  =      -343.69599219
  PAW double counting   =     49310.04523041   -47388.43021037
  entropy T*S    EENTRO =        -0.26096620
  eigenvalues    EBANDS =     -2072.85105017
  atomic energy  EATOM  =     41659.78587232
  Solvation  Ediel_sol  =         0.00000000
  ---------------------------------------------------
  free energy    TOTEN  =      -189.13404372 eV

  energy without entropy =     -188.87307752  energy(sigma->0) =     -189.00356062


--------------------------------------------------------------------------------------------------------




----------------------------------------- Iteration    1(  21)  ---------------------------------------


    POTLOK:  cpu time    0.0422: real time    0.0423
    SETDIJ:  cpu time    0.0054: real time    0.0054
    EDDIAG:  cpu time    1.2742: real time    1.2784
  RMM-DIIS:  cpu time    3.5034: real time    3.5138
    ORTHCH:  cpu time    0.3166: real time    0.3175
       DOS:  cpu time    0.0017: real time    0.0017
    CHARGE:  cpu time    0.2437: real time    0.2443
    MIXING:  cpu time    0.0038: real time    0.0039
    --------------------------------------------
      LOOP:  cpu time    5.3918: real time    5.4104

 eigenvalue-minimisations  :  3680
 total energy-change (2. order) : 0.1581124E-02  (-0.1713950E-03)
 number of electron     503.9998362 magnetization 
 augmentation part      197.0680983 magnetization 

 DIPCOR: dipole corrections for dipol
 direction  3 min pos     1,
 dipolmoment           0.000000      0.000000      0.009471 electrons x Angstroem
 Tr[quadrupol]    -10326.597052

 energy correction for charged system         0.000000 eV
 dipol+quadrupol energy correction           -0.000003 eV
 added-field ion interaction          0.001499 eV  (added to PSCEN)


 Broyden mixing:
  rms(total) = 0.29217E-01    rms(broyden)= 0.29214E-01
  rms(prec ) = 0.33085E-01
  weight for this iteration     100.00

 eigenvalues of (default mixing * dielectric matrix)
  average eigenvalue GAMMA=   0.7794
  2.2167  1.9381  1.9381  1.2015  1.0274  0.6027  0.6027  0.6307  0.3798  0.3798
  0.2869  0.2869  0.2605  0.2605  0.2391  0.2190

 Free energy of the ion-electron system (eV)
  ---------------------------------------------------
  alpha Z        PSCENC =       805.87086011
  Ewald energy   TEWEN  =    199925.33536976
  -Hartree energ DENC   =   -242089.38810576
  -exchange      EXHF   =         0.00000000
  -V(xc)+E(xc)   XCENC  =      -343.67332890
  PAW double counting   =     49312.30190540   -47390.61376134
  entropy T*S    EENTRO =        -0.25963188
  eigenvalues    EBANDS =     -2068.49164230
  atomic energy  EATOM  =     41659.78587232
  Solvation  Ediel_sol  =         0.00000000
  ---------------------------------------------------
  free energy    TOTEN  =      -189.13246259 eV

  energy without entropy =     -188.87283072  energy(sigma->0) =     -189.00264665


--------------------------------------------------------------------------------------------------------




----------------------------------------- Iteration    1(  22)  ---------------------------------------


    POTLOK:  cpu time    0.0424: real time    0.0425
    SETDIJ:  cpu time    0.0056: real time    0.0056
    EDDIAG:  cpu time    1.2948: real time    1.3018
  RMM-DIIS:  cpu time    3.5316: real time    3.5397
    ORTHCH:  cpu time    0.3163: real time    0.3172
       DOS:  cpu time    0.0018: real time    0.0018
    CHARGE:  cpu time    0.2430: real time    0.2435
    MIXING:  cpu time    0.0041: real time    0.0041
    --------------------------------------------
      LOOP:  cpu time    5.4402: real time    5.4594

 eigenvalue-minimisations  :  3678
 total energy-change (2. order) : 0.8078079E-03  (-0.1452486E-03)
 number of electron     503.9998363 magnetization 
 augmentation part      197.0534562 magnetization 

 DIPCOR: dipole corrections for dipol
 direction  3 min pos     1,
 dipolmoment           0.000000      0.000000      0.010821 electrons x Angstroem
 Tr[quadrupol]    -10326.717201

 energy correction for charged system         0.000000 eV
 dipol+quadrupol energy correction           -0.000004 eV
 added-field ion interaction          0.001713 eV  (added to PSCEN)


 Broyden mixing:
  rms(total) = 0.18376E-01    rms(broyden)= 0.18371E-01
  rms(prec ) = 0.21528E-01
  weight for this iteration     100.00

 eigenvalues of (default mixing * dielectric matrix)
  average eigenvalue GAMMA=   0.7905
  2.1762  2.1762  2.1728  1.3455  0.8922  0.7443  0.6175  0.6175  0.4211  0.4211
  0.3084  0.3084  0.2661  0.2661  0.2183  0.2432  0.2432

 Free energy of the ion-electron system (eV)
  ---------------------------------------------------
  alpha Z        PSCENC =       805.87107284
  Ewald energy   TEWEN  =    199925.33536976
  -Hartree energ DENC   =   -242094.61299047
  -exchange      EXHF   =         0.00000000
  -V(xc)+E(xc)   XCENC  =      -343.64400611
  PAW double counting   =     49313.65065826   -47391.85668956
  entropy T*S    EENTRO =        -0.25992805
  eigenvalues    EBANDS =     -2063.40101377
  atomic energy  EATOM  =     41659.78587232
  Solvation  Ediel_sol  =         0.00000000
  ---------------------------------------------------
  free energy    TOTEN  =      -189.13165479 eV

  energy without entropy =     -188.87172674  energy(sigma->0) =     -189.00169076


--------------------------------------------------------------------------------------------------------




----------------------------------------- Iteration    1(  23)  ---------------------------------------


    POTLOK:  cpu time    0.0425: real time    0.0427
    SETDIJ:  cpu time    0.0055: real time    0.0055
    EDDIAG:  cpu time    1.2781: real time    1.2822
  RMM-DIIS:  cpu time    3.5441: real time    3.5531
[...]
    275       1.7796      0.00000
    276       1.8411      0.00000
    277       2.2286      0.00000
    278       2.2615      0.00000
    279       2.3403      0.00000
    280       2.4240      0.00000
    281       2.4490      0.00000
    282       2.6130      0.00000
    283       2.7289      0.00000
    284       2.9183      0.00000
    285       3.1487      0.00000
    286       3.2111      0.00000
    287       3.5563      0.00000
    288       3.6554      0.00000
    289       3.8179      0.00000
    290       4.0142      0.00000
    291       4.0909      0.00000
    292       4.2101      0.00000
    293       4.5184      0.00000
    294       4.5643      0.00000
    295       4.6251      0.00000
    296       4.6385      0.00000
    297       4.7092      0.00000
    298       4.8689      0.00000
    299       4.8917      0.00000
    300       4.9493      0.00000
    301       4.9694      0.00000
    302       5.0306      0.00000
    303       5.0639      0.00000
    304       5.0831      0.00000
    305       5.2211      0.00000
    306       5.2417      0.00000


--------------------------------------------------------------------------------------------------------


 soft charge-density along one line, spin component           1
         0         1         2         3         4         5         6         7         8         9
 total charge-density along one line
 
 pseudopotential strength for first ion, spin component:           1
 -8.039  -0.001  -0.007  -0.003  -0.000  -8.186  -0.001  -0.007
 -0.001  -7.965  -0.001   0.005  -0.002  -0.001  -8.113  -0.001
 -0.007  -0.001  -7.958  -0.001  -0.004  -0.007  -0.001  -8.106
 -0.003   0.005  -0.001  -7.960  -0.001  -0.003   0.005  -0.001
 -0.000  -0.002  -0.004  -0.001  -8.039  -0.000  -0.002  -0.004
 -8.186  -0.001  -0.007  -0.003  -0.000  -8.316  -0.001  -0.007
 -0.001  -8.113  -0.001   0.005  -0.002  -0.001  -8.246  -0.001
 -0.007  -0.001  -8.106  -0.001  -0.004  -0.007  -0.001  -8.239
 -0.003   0.005  -0.001  -8.109  -0.001  -0.003   0.005  -0.001
 -0.000  -0.002  -0.004  -0.001  -8.186  -0.000  -0.002  -0.004
 -0.003   0.000  -0.024   0.001  -0.002  -0.003   0.000  -0.024
 -0.005   0.000  -0.035   0.001  -0.003  -0.005   0.000  -0.035
 -0.002  -0.004  -0.000  -0.000  -0.001  -0.002  -0.004  -0.000
 -0.000   0.001  -0.006  -0.002   0.000  -0.000   0.001  -0.006
  0.001  -0.000   0.001  -0.004  -0.002   0.001  -0.000   0.001
 -0.002  -0.004  -0.000  -0.000  -0.001  -0.002  -0.004  -0.000
 -0.000   0.001  -0.007  -0.002   0.000  -0.000   0.001  -0.006
  0.001  -0.000   0.001  -0.004  -0.002   0.001  -0.000   0.001
 total augmentation occupancy for first ion, spin component:           1
  4.397  -0.009   0.162   0.035   0.228  -2.583   0.006  -0.180  -0.071  -0.219   0.228  -0.120  -0.003  -0.003  -0.020  -0.002
 -0.009   4.146  -0.002  -0.020  -0.014   0.006  -1.891  -0.009   0.026  -0.029  -0.030   0.014  -0.145  -0.006  -0.005   0.003
  0.162  -0.002   4.421  -0.073   0.103  -0.180  -0.009  -2.319   0.062  -0.116   0.926  -0.111   0.000  -0.229   0.009   0.000
  0.035  -0.020  -0.073   4.213  -0.034  -0.070   0.026   0.062  -1.948   0.027   0.012  -0.029  -0.007   0.015  -0.156  -0.000
  0.228  -0.014   0.103  -0.034   4.121  -0.219  -0.030  -0.116   0.027  -2.320   0.116  -0.056  -0.023  -0.004   0.000   0.000
 -2.583   0.006  -0.180  -0.070  -0.219   2.648  -0.004   0.192   0.099   0.210  -0.201   0.111   0.004   0.004   0.020   0.000
  0.006  -1.891  -0.009   0.026  -0.030  -0.004   1.605   0.017  -0.031   0.061   0.027  -0.013   0.134   0.006   0.005  -0.005
 -0.180  -0.009  -2.319   0.062  -0.116   0.192   0.017   2.159  -0.052   0.124  -0.865   0.127   0.000   0.239  -0.005  -0.000
 -0.071   0.026   0.062  -1.948   0.027   0.099  -0.031  -0.052   1.654  -0.022  -0.011   0.026   0.007  -0.009   0.144   0.000
 -0.219  -0.029  -0.116   0.027  -2.320   0.210   0.061   0.124  -0.022   2.398  -0.102   0.052   0.023   0.004   0.001  -0.001
  0.228  -0.030   0.926   0.012   0.116  -0.201   0.027  -0.865  -0.011  -0.102   2.408  -0.488   0.002   0.118   0.002  -0.000
 -0.120   0.014  -0.111  -0.029  -0.056   0.111  -0.013   0.127   0.026   0.052  -0.488   0.137  -0.002  -0.053   0.002   0.000
 -0.003  -0.145   0.000  -0.007  -0.023   0.004   0.134   0.000   0.007   0.023   0.002  -0.002   0.200  -0.000  -0.007  -0.006
 -0.003  -0.006  -0.229   0.015  -0.004   0.004   0.006   0.239  -0.009   0.004   0.118  -0.053  -0.000   0.098   0.001  -0.000
 -0.020  -0.005   0.009  -0.156   0.000   0.020   0.005  -0.005   0.144   0.001   0.002   0.002  -0.007   0.001   0.190   0.001
 -0.002   0.003   0.000  -0.000   0.000   0.000  -0.005  -0.000   0.000  -0.001  -0.000   0.000  -0.006  -0.000   0.001   0.000
 -0.000   0.001  -0.000  -0.003   0.000   0.000  -0.001  -0.006   0.001  -0.000  -0.008   0.002  -0.000  -0.003   0.000   0.000
  0.001  -0.001  -0.000   0.003  -0.002  -0.001   0.000   0.001  -0.005   0.000  -0.000  -0.000   0.001   0.000  -0.005  -0.000


------------------------ aborting loop because EDIFF is reached ----------------------------------------


    CHARGE:  cpu time    0.2362: real time    0.2368
    FORLOC:  cpu time    0.0170: real time    0.0171
    FORNL :  cpu time    1.3688: real time    1.3722
    FORCOR:  cpu time    0.0599: real time    0.0600
    FORHAR:  cpu time    0.0257: real time    0.0257
    MIXING:  cpu time    0.0030: real time    0.0030
    OFIELD:  cpu time    0.0000: real time    0.0000

 VOLUME and BASIS-vectors are now :
 -----------------------------------------------------------------------------
  energy-cutoff  :      400.00
  volume of cell :     2567.68
      direct lattice vectors                 reciprocal lattice vectors
    11.002581515  0.000000000  0.000000000     0.090887761 -0.052474073  0.000000000
     5.501290758  9.528515099  0.000000000     0.000000000  0.104948147  0.000000000
     0.000000000  0.000000000 24.491785094     0.000000000  0.000000000  0.040830017

  length of vectors
    11.002581515 11.002581515 24.491785094     0.104948147  0.104948147  0.040830017


 FORCES acting on ions
    electron-ion (+dipol)            ewald-force                    non-local-force                 convergence-correction
 -----------------------------------------------------------------------------------------------
   -.280E+01 0.272E+01 0.222E+04   0.306E+01 -.278E+01 -.222E+04   -.193E+00 0.191E-01 -.256E+00   -.405E-02 0.905E-03 -.984E-04
   0.591E+01 0.307E+01 -.810E+01   -.485E+01 -.285E+01 0.745E+01   -.106E+01 -.222E+00 0.636E+00   -.239E-02 0.544E-02 0.784E-02
   -.926E+01 0.271E+01 -.228E+04   0.955E+01 -.279E+01 0.228E+04   -.285E+00 0.783E-01 0.446E-01   0.130E-02 0.101E-02 0.148E-01
   0.414E+01 -.177E+01 0.323E+02   -.441E+01 0.190E+01 -.316E+02   0.277E+00 -.152E+00 -.601E+00   -.938E-02 0.113E-01 0.216E-02
   0.158E+02 -.107E+02 0.222E+04   -.164E+02 0.110E+02 -.222E+04   0.415E+00 -.164E+00 -.236E+00   -.407E-02 0.378E-02 0.114E-02
   -.657E+01 -.158E+01 -.273E+02   0.633E+01 0.894E+00 0.280E+02   0.230E+00 0.683E+00 -.652E+00   -.447E-02 0.562E-02 -.817E-02
   0.115E+01 -.203E+01 -.220E+04   -.146E+01 0.263E+01 0.220E+04   0.316E+00 -.600E+00 0.681E+00   0.139E-02 0.635E-02 -.358E-02
   0.173E+02 0.118E+02 0.221E+04   -.185E+02 -.121E+02 -.221E+04   0.836E+00 0.121E+00 -.103E-01   0.248E-02 0.126E-02 0.153E-02
   0.120E+02 -.337E+01 -.225E+04   -.127E+02 0.290E+01 0.225E+04   0.745E+00 0.460E+00 0.567E+00   -.997E-02 0.335E-02 -.163E-02
   0.468E+01 -.139E+02 0.220E+04   -.495E+01 0.146E+02 -.220E+04   0.160E+00 -.482E+00 -.212E+00   0.419E-03 -.141E-02 0.189E-03
   -.686E+01 -.127E+02 0.221E+04   0.702E+01 0.132E+02 -.221E+04   -.729E-01 -.266E+00 -.710E+00   0.225E-02 -.302E-02 -.108E-02
   -.378E+01 0.249E+02 0.221E+04   0.407E+01 -.260E+02 -.221E+04   -.209E+00 0.737E+00 -.451E+00   0.421E-02 -.594E-02 0.356E-02
   0.405E+01 -.414E+01 0.476E+02   -.388E+01 0.410E+01 -.482E+02   -.160E+00 0.466E-01 0.621E+00   -.109E-01 -.762E-02 0.397E-02
   0.172E+01 0.541E+01 -.224E+04   -.171E+01 -.576E+01 0.224E+04   -.227E-01 0.345E+00 0.237E+00   0.784E-02 -.272E-02 0.812E-02
   -.831E+01 0.156E+02 0.220E+04   0.856E+01 -.163E+02 -.220E+04   -.115E+00 0.408E+00 0.279E+00   0.160E-02 -.119E-02 0.245E-02
   -.126E+01 0.680E+01 -.737E+02   0.955E+00 -.606E+01 0.748E+02   0.301E+00 -.725E+00 -.107E+01   0.383E-02 -.539E-02 -.999E-02
   0.704E+01 -.168E+00 -.231E+04   -.676E+01 0.945E+00 0.231E+04   -.280E+00 -.775E+00 0.122E+00   0.339E-02 -.699E-02 0.296E-02
   -.195E+02 -.129E+02 0.221E+04   0.205E+02 0.137E+02 -.221E+04   -.708E+00 -.541E+00 -.241E+00   0.440E-02 0.410E-04 0.198E-02
   -.371E+01 -.564E+01 -.221E+04   0.413E+01 0.507E+01 0.221E+04   -.435E+00 0.567E+00 0.654E+00   0.134E-01 0.227E-02 -.468E-02
   -.615E+01 0.161E+02 -.225E+04   0.681E+01 -.164E+02 0.224E+04   -.661E+00 0.357E+00 0.272E+00   -.392E-02 -.436E-02 0.783E-02
   -.966E+01 0.378E+00 0.221E+04   0.101E+02 -.436E+00 -.221E+04   -.281E+00 0.608E-01 0.290E+00   -.269E-02 0.201E-02 0.270E-02
   -.781E+01 -.339E+01 -.759E+02   0.724E+01 0.369E+01 0.771E+02   0.562E+00 -.293E+00 -.114E+01   0.618E-02 -.575E-02 -.146E-01
   -.119E+02 -.858E+01 -.230E+04   0.120E+02 0.888E+01 0.230E+04   -.107E+00 -.308E+00 -.517E-01   0.772E-02 0.772E-02 0.198E-02
   -.729E+01 0.972E+01 -.172E+02   0.646E+01 -.101E+02 0.172E+02   0.818E+00 0.431E+00 -.324E-01   0.515E-02 -.556E-02 0.105E-02
   0.110E+02 -.941E+01 0.202E+04   -.112E+02 0.946E+01 -.202E+04   0.235E-01 0.520E-01 -.169E+01   -.509E-02 -.269E-03 0.569E-03
   0.215E+01 0.378E+01 -.198E+04   -.216E+01 -.412E+01 0.198E+04   0.208E-01 0.337E+00 0.154E+01   -.582E-02 0.330E-02 -.194E-02
   0.241E+01 0.466E+01 0.202E+04   -.258E+01 -.470E+01 -.202E+04   0.133E+00 0.284E-01 -.163E+01   0.346E-02 -.180E-02 0.826E-03
   0.167E+01 -.579E+01 0.208E+02   -.215E+01 0.537E+01 -.212E+02   0.469E+00 0.425E+00 0.485E+00   0.504E-02 -.965E-02 -.102E-02
   0.662E+01 -.739E+01 -.197E+04   -.671E+01 0.800E+01 0.197E+04   0.975E-01 -.613E+00 0.153E+01   -.587E-02 -.251E-02 -.496E-02
   0.191E+01 0.346E+01 0.159E+02   -.136E+01 -.352E+01 -.163E+02   -.552E+00 0.623E-01 0.363E+00   0.379E-02 0.410E-02 -.110E-02
   0.174E+02 -.865E+01 -.201E+04   -.178E+02 0.869E+01 0.201E+04   0.455E+00 -.409E-01 0.190E+01   -.378E-02 0.433E-02 -.139E-01
   -.189E+01 -.397E+01 -.442E+01   0.209E+01 0.410E+01 0.489E+01   -.207E+00 -.135E+00 -.471E+00   0.116E-03 0.646E-02 0.108E-02
   -.890E+01 -.620E+01 -.200E+04   0.955E+01 0.634E+01 0.199E+04   -.639E+00 -.142E+00 0.159E+01   -.929E-02 0.517E-02 -.723E-03
   -.608E+01 0.895E+00 -.287E+01   0.622E+01 -.114E+01 0.291E+01   -.140E+00 0.255E+00 -.379E-01   -.355E-02 -.383E-02 0.249E-03
   0.435E+01 -.517E+01 -.204E+04   -.448E+01 0.507E+01 0.204E+04   0.123E+00 0.103E+00 0.167E+01   0.371E-02 -.294E-02 -.159E-01
   0.155E+01 -.246E+00 0.215E+02   -.158E+01 0.110E+01 -.219E+02   0.142E-01 -.858E+00 0.474E+00   0.187E-01 0.377E-03 -.545E-03
   0.206E-03 -.932E+00 0.213E+02   0.125E+00 0.738E+00 -.221E+02   -.136E+00 0.198E+00 0.783E+00   0.977E-02 -.743E-03 0.204E-02
   0.247E+01 0.836E+01 -.199E+04   -.266E+01 -.844E+01 0.199E+04   0.195E+00 0.772E-01 0.152E+01   -.336E-02 -.391E-02 -.358E-03
   0.833E+01 -.377E+01 0.203E+04   -.840E+01 0.387E+01 -.203E+04   0.378E-01 -.652E-01 -.164E+01   -.440E-02 -.323E-03 0.448E-02
   -.678E+00 -.129E+02 0.203E+04   0.632E+00 0.132E+02 -.203E+04   0.547E-01 -.166E+00 -.152E+01   -.731E-03 0.635E-02 0.365E-02
   -.202E+01 0.905E+01 -.201E+04   0.177E+01 -.919E+01 0.201E+04   0.252E+00 0.139E+00 0.141E+01   -.183E-02 -.296E-02 -.111E-01
   -.530E-01 0.358E+01 0.202E+04   0.316E+00 -.369E+01 -.202E+04   -.246E+00 0.864E-01 -.158E+01   -.128E-02 0.393E-02 0.116E-02
   0.737E+01 0.685E+01 -.307E+02   -.714E+01 -.710E+01 0.307E+02   -.242E+00 0.257E+00 -.236E-02   0.207E-02 -.216E-02 -.172E-02
   0.443E+01 0.144E+02 0.202E+04   -.463E+01 -.147E+02 -.202E+04   0.137E+00 0.171E+00 -.146E+01   -.367E-02 -.132E-02 0.158E-02
   0.383E+01 0.170E+01 0.100E+02   -.401E+01 -.187E+01 -.916E+01   0.170E+00 0.188E+00 -.844E+00   0.438E-03 -.395E-02 -.101E-01
   -.126E+02 -.163E+01 0.202E+04   0.128E+02 0.161E+01 -.202E+04   -.436E-01 0.685E-03 -.193E+01   0.751E-02 -.326E-02 0.391E-02
   -.278E+01 -.952E+01 -.297E+02   0.281E+01 0.985E+01 0.301E+02   -.385E-01 -.340E+00 -.402E+00   -.309E-03 -.188E-03 -.831E-02
   -.923E+01 0.636E+00 -.195E+04   0.945E+01 -.746E+00 0.195E+04   -.217E+00 0.107E+00 0.151E+01   -.187E-02 0.636E-03 -.173E-01
 -----------------------------------------------------------------------------------------------
   0.174E+00 0.937E-01 -.258E+00   0.291E-12 0.401E-12 0.909E-12   -.205E+00 -.877E-01 0.294E+00   0.175E-01 -.400E-02 -.490E-01
 
 
 POSITION                                       TOTAL-FORCE (eV/Angst)
 -----------------------------------------------------------------------------------
      1.37532      0.79404     10.00000         0.069739     -0.035650     -0.140631
     12.40189      3.97869     12.44640         0.003019      0.007483     -0.006840
      1.38989      2.38651     14.98916         0.005868     -0.003030     -0.005089
     13.74456      6.36379     12.41148        -0.002103     -0.005646      0.001876
      4.12597      5.55830     10.00000        -0.222503      0.135178     -0.236815
     10.99569      1.57209     12.47866        -0.014717      0.000240      0.004688
      2.74664      0.00865     14.88116         0.004510     -0.000524      0.004164
      5.50129      3.17617     10.00000        -0.342399     -0.126372     -0.239932
      6.84331      7.12784     14.92781        -0.002297     -0.002857      0.003987
      6.87661      5.55830     10.00000        -0.112381      0.244642     -0.110016
      8.25194      7.94043     10.00000         0.087279      0.165331     -0.016056
      6.87661      0.79404     10.00000         0.087982     -0.374467     -0.078273
     15.11950      8.73454     12.39130         0.000521      0.000743     -0.006093
      5.51486     -0.00610     14.95130        -0.000341     -0.005658     -0.007746
      8.25194      3.17617     10.00000         0.131959     -0.258970     -0.150687
      6.86195      3.98467     12.53727        -0.003498      0.007446      0.009830
      6.88492      2.40314     15.02680         0.002548     -0.005688     -0.000198
      9.62726      5.55830     10.00000         0.301103      0.218586     -0.084541
      9.63942      7.13156     14.90248        -0.001104     -0.003180      0.007951
      8.27559     -0.01540     14.94050        -0.003161      0.003295     -0.002420
     11.00258      3.17617     10.00000         0.159216      0.004695     -0.267570
      9.62031      3.99560     12.54086        -0.002581     -0.001508      0.012519
     11.02369      4.76886     15.01979        -0.001818      0.006467      0.001161
      5.46745      1.56788     12.45911         0.000053      0.005677      0.007604
      5.50129      7.94043     10.00000        -0.166090      0.097499      0.204309
      4.11577      7.13261     14.80052         0.004695     -0.003295      0.003963
      4.12597      0.79404     10.00000        -0.033523     -0.019447      0.221457
     12.34771      8.73229     12.41539        -0.003030     -0.002377     -0.006854
      4.12817      2.40836     14.80718         0.000095     -0.006244     -0.000915
      2.74853      1.57445     12.42407        -0.000552      0.004798     -0.000135
      5.47742      4.76275     14.84379         0.006824      0.003063      0.011851
      5.51827      6.36827     12.45219         0.000134     -0.005245     -0.003069
      2.78413      4.77904     14.82911         0.003302      0.003029      0.002055
      6.88869      8.71925     12.44853        -0.004950      0.000817      0.001987
      8.24555      4.76446     14.90694         0.001426      0.005505      0.016619
     10.98816      6.38619     12.41710         0.002277      0.000839      0.001881
      9.62451      8.72155     12.41522        -0.000879      0.003652     -0.001505
     -0.00805     -0.01166     14.83535         0.001989     -0.006080     -0.001211
     13.75323      7.94043     10.00000        -0.033507      0.033967      0.063887
     12.37790      5.55830     10.00000         0.008986      0.153413      0.123248
      9.63187      2.37921     14.87765        -0.001482     -0.003503      0.003018
      2.75065      3.17617     10.00000         0.015334     -0.022865      0.238324
      8.23476      1.57819     12.48479        -0.005588      0.003823     -0.005161
      9.62726      0.79404     10.00000        -0.069002     -0.195755      0.173616
      4.12324      3.97043     12.43316        -0.007478      0.009670     -0.003352
     11.00258      7.94043     10.00000         0.148081     -0.024686      0.241780
      8.24808      6.37617     12.48368        -0.007963     -0.005398      0.007259
     12.39870      7.13141     14.78500        -0.003991     -0.001416      0.006074
 -----------------------------------------------------------------------------------
    total drift:                               -0.013160      0.002080     -0.013395


--------------------------------------------------------------------------------------------------------



  FREE ENERGIE OF THE ION-ELECTRON SYSTEM (eV)
  ---------------------------------------------------
  free  energy   TOTEN  =      -192.47680108 eV

  energy  without entropy=     -192.24387194  energy(sigma->0) =     -192.36033651
 
 d Force = 0.5471569E-03[ 0.266E-03, 0.828E-03]  d Energy = 0.5493662E-03-0.221E-05
 d Force = 0.1547220E+02[ 0.155E+02, 0.155E+02]  d Ewald  = 0.1547220E+02-0.657E-06


--------------------------------------------------------------------------------------------------------


    POTLOK:  cpu time    0.0496: real time    0.0497


--------------------------------------------------------------------------------------------------------


 stress matrix after NEB project (eV)
      0.00000      0.00000      0.00000
      0.00000      0.00000      0.00000
      0.00000      0.00000      0.00000
  FORCES: max atom, RMS     0.017566    0.007300
  FORCE total and by dimension    0.050574    0.016619
  Stress total and by dimension    0.000000    0.000000
 Conjugate gradient step on ions:
 trial-energy change:   -0.000549  1 .order   -0.000547   -0.000828   -0.000266
  (g-gl).g = 0.289E-03      g.g   = 0.328E-03  gl.gl    = 0.573E-03
 g(Force)  = 0.328E-03   g(Stress)= 0.000E+00 ortho     = 0.448E-04
 gamma     =   0.50408
 trial     =   2.36475
 opt step  =   3.48700  (harmonic =   3.48700) maximal distance =0.00501724
 next E    =  -192.476862   (d E  =  -0.00061)


--------------------------------------------------------------------------------------------------------


  
 reached required accuracy - stopping structural energy minimisation
     LOOP+:  cpu time   54.7285: real time   55.0945
    4ORBIT:  cpu time    0.0000: real time    0.0000

 total amount of memory used by VASP on root node    84353. kBytes
========================================================================

   base      :      30000. kBytes
   nonlr-proj:       4285. kBytes
   fftplans  :       4447. kBytes
   grid      :       6721. kBytes
   one-center:        124. kBytes
   wavefun   :      38776. kBytes
 
  
  
 General timing and accounting informations for this job:
 ========================================================
  
                  Total CPU time used (sec):     1322.124
                            User time (sec):     1255.294
                          System time (sec):       66.831
                         Elapsed time (sec):     1330.654
  
                   Maximum memory used (kb):      743056.
                   Average memory used (kb):           0.
  
                          Minor page faults:       589859
                          Major page faults:            0
                 Voluntary context switches:         8844
