unknown system                          
           1
    11.002582    0.000000    0.000000
     5.501291    9.528515    0.000000
     0.000000    0.000000   24.491785
   Au   Pd
  24  24
Direct configuration=     1
   0.08333333  0.08333333  0.40830017
   0.91666667  0.41666667  0.50000000
   0.00000000  0.25000000  0.59169983
   0.91666667  0.66666667  0.50000000
   0.08333333  0.58333333  0.40830017
   0.91666667  0.16666667  0.50000000
   0.25000000  0.00000000  0.59169983
   0.33333333  0.33333333  0.40830017
   0.25000000  0.75000000  0.59169983
   0.33333333  0.58333333  0.40830017
   0.33333333  0.83333333  0.40830017
   0.58333333  0.08333333  0.40830017
   0.91666667  0.91666667  0.50000000
   0.50000000  0.00000000  0.59169983
   0.58333333  0.33333333  0.40830017
   0.41666667  0.41666667  0.50000000
   0.50000000  0.25000000  0.59169983
   0.58333333  0.58333333  0.40830017
   0.50000000  0.75000000  0.59169983
   0.75000000  0.00000000  0.59169983
   0.83333333  0.33333333  0.40830017
   0.66666667  0.41666667  0.50000000
   0.75000000  0.50000000  0.59169983
   0.41666667  0.16666667  0.50000000
   0.08333333  0.83333333  0.40830017
   0.00000000  0.75000000  0.59169983
   0.33333333  0.08333333  0.40830017
   0.66666667  0.91666667  0.50000000
   0.25000000  0.25000000  0.59169983
   0.16666667  0.16666667  0.50000000
   0.25000000  0.50000000  0.59169983
   0.16666667  0.66666667  0.50000000
   0.00000000  0.50000000  0.59169983
   0.16666667  0.91666667  0.50000000
   0.50000000  0.50000000  0.59169983
   0.66666667  0.66666667  0.50000000
   0.41666667  0.91666667  0.50000000
   0.00000000  0.00000000  0.59169983
   0.83333333  0.83333333  0.40830017
   0.83333333  0.58333333  0.40830017
   0.75000000  0.25000000  0.59169983
   0.08333333  0.33333333  0.40830017
   0.66666667  0.16666667  0.50000000
   0.83333333  0.08333333  0.40830017
   0.16666667  0.41666667  0.50000000
   0.58333333  0.83333333  0.40830017
   0.41666667  0.66666667  0.50000000
   0.75000000  0.75000000  0.59169983
Direct configuration=     2
   0.08333333  0.08333333  0.40830017
   0.91840120  0.41755620  0.49971369
   0.00068168  0.24964594  0.59383790
   0.91602731  0.66706315  0.50029513
   0.08333333  0.58333333  0.40830017
   0.91686614  0.16481676  0.50032966
   0.24927148  0.00066267  0.59326008
   0.33333333  0.33333333  0.40830017
   0.24931303  0.74926855  0.59323689
   0.33333333  0.58333333  0.40830017
   0.33333333  0.83333333  0.40830017
   0.58333333  0.08333333  0.40830017
   0.91721728  0.91631956  0.49969710
   0.50038100 -0.00056690  0.59355567
   0.58333333  0.33333333  0.40830017
   0.41536706  0.41828290  0.50089812
   0.49982748  0.25114835  0.59383210
   0.58333333  0.58333333  0.40830017
   0.50072653  0.74929385  0.59326791
   0.75093920 -0.00044587  0.59360040
   0.83333333  0.33333333  0.40830017
   0.66542009  0.41711079  0.50076220
   0.74959964  0.50059022  0.59386488
   0.41531833  0.16576501  0.49995912
   0.08333333  0.83333333  0.40830017
   0.00023675  0.74931037  0.59280093
   0.33333333  0.08333333  0.40830017
   0.66657333  0.91554820  0.49966072
   0.24917152  0.25114621  0.59267139
   0.16778275  0.16652561  0.49982787
   0.24926325  0.50014792  0.59260017
   0.16675078  0.66704784  0.50035320
   0.00092773  0.50054131  0.59281582
   0.16702088  0.91616496  0.50002308
   0.49974560  0.49991524  0.59286409
   0.66587889  0.66862628  0.49977090
   0.41705090  0.91637661  0.49953130
  -0.00009350 -0.00027292  0.59286956
   0.83333333  0.83333333  0.40830017
   0.83333333  0.58333333  0.40830017
   0.74982178  0.24992763  0.59290306
   0.08333333  0.33333333  0.40830017
   0.66761887  0.16588746  0.50003345
   0.83333333  0.08333333  0.40830017
   0.16632306  0.41644043  0.50047264
   0.58333333  0.83333333  0.40830017
   0.41628980  0.66733430  0.50024286
   0.75071879  0.74959851  0.59264431
Direct configuration=     3
   0.08333333  0.08333333  0.40830017
   0.92347538  0.42015842  0.49887611
   0.00267585  0.24861016  0.60009257
   0.91415693  0.66822301  0.50115851
   0.08333333  0.58333333  0.40830017
   0.91744968  0.15940506  0.50129405
   0.24714028  0.00260122  0.59782438
   0.33333333  0.33333333  0.40830017
   0.24730339  0.74712878  0.59773339
   0.33333333  0.58333333  0.40830017
   0.33333333  0.83333333  0.40830017
   0.58333333  0.08333333  0.40830017
   0.91882804  0.91530415  0.49881100
   0.50149558 -0.00222531  0.59898472
   0.58333333  0.33333333  0.40830017
   0.41156523  0.42301101  0.50352545
   0.49932279  0.25450771  0.60006981
   0.58333333  0.58333333  0.40830017
   0.50285189  0.74722811  0.59785513
   0.75368670 -0.00175021  0.59916028
   0.83333333  0.33333333  0.40830017
   0.66177337  0.41841000  0.50299192
   0.74842845  0.50231685  0.60019848
   0.41137394  0.16312731  0.49983955
   0.08333333  0.83333333  0.40830017
   0.00092935  0.74729292  0.59602205
   0.33333333  0.08333333  0.40830017
   0.66630030  0.91227627  0.49866818
   0.24674789  0.25449930  0.59551355
   0.17104770  0.16611296  0.49932431
   0.24710798  0.50058063  0.59523399
   0.16699686  0.66816292  0.50138643
   0.00364169  0.50212483  0.59608053
   0.16805708  0.91469730  0.50009058
   0.49900137  0.49966727  0.59627000
   0.66357433  0.67435888  0.49910069
   0.41817493  0.91552809  0.49816019
  -0.00036704 -0.00107133  0.59629145
   0.83333333  0.83333333  0.40830017
   0.83333333  0.58333333  0.40830017
   0.74930043  0.24971592  0.59642294
   0.08333333  0.33333333  0.40830017
   0.67040444  0.16360800  0.50013129
   0.83333333  0.08333333  0.40830017
   0.16531787  0.41577859  0.50185529
   0.58333333  0.83333333  0.40830017
   0.41518733  0.66928739  0.50095332
   0.75282153  0.74842401  0.59540725
Direct configuration=     4
   0.08333333  0.08333333  0.40830017
   0.92231433  0.41918176  0.50036406
   0.00157609  0.24981799  0.60218346
   0.91449948  0.66925638  0.50213579
   0.08333333  0.58333333  0.40830017
   0.91812319  0.16087636  0.50280242
   0.24767537  0.00193591  0.59941604
   0.33333333  0.33333333  0.40830017
   0.24721109  0.74716774  0.59969412
   0.33333333  0.58333333  0.40830017
   0.33333333  0.83333333  0.40830017
   0.58333333  0.08333333  0.40830017
   0.91865479  0.91381679  0.49984775
   0.50172444 -0.00185270  0.60094012
   0.58333333  0.33333333  0.40830017
   0.41108207  0.42185017  0.50487695
   0.49924395  0.25404683  0.60232058
   0.58333333  0.58333333  0.40830017
   0.50217658  0.74757170  0.59960080
   0.75389210 -0.00204025  0.60113031
   0.83333333  0.33333333  0.40830017
   0.66321002  0.41883267  0.50454150
   0.74989887  0.50146228  0.60237628
   0.41295018  0.16310071  0.50148177
   0.08333333  0.83333333  0.40830017
   0.00055524  0.74736407  0.59736166
   0.33333333  0.08333333  0.40830017
   0.66577797  0.91337373  0.49965827
   0.24719075  0.25464749  0.59681064
   0.16965152  0.16549476  0.50034557
   0.24664925  0.50052239  0.59680937
   0.16631568  0.66884429  0.50227315
   0.00341443  0.50241724  0.59763850
   0.16917039  0.91429091  0.50127285
   0.49860226  0.50024066  0.59814945
   0.66310387  0.67390719  0.50005862
   0.41799986  0.91495566  0.49925830
  -0.00030757 -0.00160332  0.59774436
   0.83333333  0.83333333  0.40830017
   0.83333333  0.58333333  0.40830017
   0.74976938  0.24971311  0.59791488
   0.08333333  0.33333333  0.40830017
   0.66883757  0.16305352  0.50145800
   0.83333333  0.08333333  0.40830017
   0.16628339  0.41617181  0.50265195
   0.58333333  0.83333333  0.40830017
   0.41486240  0.67062178  0.50222585
   0.75344422  0.74819284  0.59662524
Direct configuration=     5
   0.08333333  0.08333333  0.40830017
   0.91883120  0.41625176  0.50482792
  -0.00172318  0.25344148  0.60845613
   0.91552712  0.67235650  0.50506763
   0.08333333  0.58333333  0.40830017
   0.92014372  0.16529026  0.50732753
   0.24928064 -0.00005999  0.60419103
   0.33333333  0.33333333  0.40830017
   0.24693419  0.74728460  0.60557631
   0.33333333  0.58333333  0.40830017
   0.33333333  0.83333333  0.40830017
   0.58333333  0.08333333  0.40830017
   0.91813501  0.90935470  0.50295799
   0.50241103 -0.00073487  0.60680632
   0.58333333  0.33333333  0.40830017
   0.40963260  0.41836765  0.50893144
   0.49900743  0.25266419  0.60907288
   0.58333333  0.58333333  0.40830017
   0.50015065  0.74860245  0.60483781
   0.75450827 -0.00291040  0.60704043
   0.83333333  0.33333333  0.40830017
   0.66751997  0.42010069  0.50919024
   0.75431014  0.49889858  0.60890970
   0.41767891  0.16302089  0.50640844
   0.08333333  0.83333333  0.40830017
  -0.00056709  0.74757752  0.60138048
   0.33333333  0.08333333  0.40830017
   0.66421098  0.91666609  0.50262853
   0.24851934  0.25509207  0.60070189
   0.16546298  0.16364018  0.50340935
   0.24527305  0.50034766  0.60153553
   0.16427215  0.67088840  0.50493333
   0.00273268  0.50329446  0.60231242
   0.17251033  0.91307177  0.50481966
   0.49740494  0.50196083  0.60378780
   0.66169250  0.67255214  0.50293239
   0.41747462  0.91323835  0.50255262
  -0.00012915 -0.00319928  0.60210309
   0.83333333  0.83333333  0.40830017
   0.83333333  0.58333333  0.40830017
   0.75117622  0.24970468  0.60239071
   0.08333333  0.33333333  0.40830017
   0.66413695  0.16139006  0.50543814
   0.83333333  0.08333333  0.40830017
   0.16917995  0.41735147  0.50504192
   0.58333333  0.83333333  0.40830017
   0.41388759  0.67462495  0.50604343
   0.75531228  0.74749932  0.60027921
Direct configuration=     6
   0.08333333  0.08333333  0.40830017
   0.91848810  0.41795682  0.50729683
   0.00002105  0.25240747  0.61116238
   0.91545400  0.66724719  0.50631684
   0.08333333  0.58333333  0.40830017
   0.91880904  0.16414779  0.50939385
   0.24914118  0.00072350  0.60612588
   0.33333333  0.33333333  0.40830017
   0.24686413  0.74756299  0.60814962
   0.33333333  0.58333333  0.40830017
   0.33333333  0.83333333  0.40830017
   0.58333333  0.08333333  0.40830017
   0.91639584  0.91589364  0.50499037
   0.50254329 -0.00084727  0.60925103
   0.58333333  0.33333333  0.40830017
   0.41350846  0.41806044  0.51078492
   0.49990443  0.25197538  0.61204136
   0.58333333  0.58333333  0.40830017
   0.50105135  0.74868351  0.60709720
   0.75368545 -0.00219337  0.60940983
   0.83333333  0.33333333  0.40830017
   0.66593062  0.42030810  0.51126683
   0.75362092  0.50029623  0.61176873
   0.41663930  0.16267787  0.50881322
   0.08333333  0.83333333  0.40830017
  -0.00046636  0.74827802  0.60359499
   0.33333333  0.08333333  0.40830017
   0.66311249  0.91710000  0.50493026
   0.24867726  0.25351602  0.60243559
   0.16651844  0.16365468  0.50567625
   0.24585941  0.50058979  0.60415114
   0.16677528  0.66993511  0.50660658
   0.00206856  0.50265432  0.60421710
   0.17056590  0.91415819  0.50702626
   0.49778532  0.50171068  0.60614516
   0.66339486  0.67089782  0.50516667
   0.41719564  0.91530380  0.50505090
   0.00019293 -0.00305328  0.60380642
   0.83333333  0.83333333  0.40830017
   0.83333333  0.58333333  0.40830017
   0.75078749  0.24932633  0.60451872
   0.08333333  0.33333333  0.40830017
   0.66484412  0.16268272  0.50799514
   0.83333333  0.08333333  0.40830017
   0.16681214  0.41742413  0.50618241
   0.58333333  0.83333333  0.40830017
   0.41475552  0.67141435  0.50824294
   0.75372033  0.74776437  0.60193387
Direct configuration=     7
   0.08333333  0.08333333  0.40830017
   0.91837585  0.41851465  0.50810456
   0.00059170  0.25206918  0.61204776
   0.91543008  0.66557562  0.50672552
   0.08333333  0.58333333  0.40830017
   0.91837239  0.16377402  0.51006987
   0.24909556  0.00097983  0.60675889
   0.33333333  0.33333333  0.40830017
   0.24684121  0.74765407  0.60899150
   0.33333333  0.58333333  0.40830017
   0.33333333  0.83333333  0.40830017
   0.58333333  0.08333333  0.40830017
   0.91582685  0.91803293  0.50565529
   0.50258656 -0.00088404  0.61005084
   0.58333333  0.33333333  0.40830017
   0.41477649  0.41795993  0.51139131
   0.50019790  0.25175003  0.61301253
   0.58333333  0.58333333  0.40830017
   0.50134602  0.74871003  0.60783638
   0.75341625 -0.00195879  0.61018501
   0.83333333  0.33333333  0.40830017
   0.66541064  0.42037596  0.51194621
   0.75339544  0.50075349  0.61270409
   0.41629918  0.16256565  0.50959997
   0.08333333  0.83333333  0.40830017
  -0.00043341  0.74850720  0.60431949
   0.33333333  0.08333333  0.40830017
   0.66275311  0.91724196  0.50568329
   0.24872893  0.25300040  0.60300279
   0.16686374  0.16365942  0.50641789
   0.24605124  0.50066901  0.60500686
   0.16759421  0.66962323  0.50715400
   0.00185129  0.50244489  0.60484024
   0.16992975  0.91451362  0.50774817
   0.49790977  0.50162885  0.60691639
   0.66395181  0.67035659  0.50589763
   0.41710437  0.91597953  0.50586824
   0.00029830 -0.00300552  0.60436368
   0.83333333  0.83333333  0.40830017
   0.83333333  0.58333333  0.40830017
   0.75066031  0.24920255  0.60521493
   0.08333333  0.33333333  0.40830017
   0.66507548  0.16310563  0.50883169
   0.83333333  0.08333333  0.40830017
   0.16603748  0.41744790  0.50655553
   0.58333333  0.83333333  0.40830017
   0.41503948  0.67036396  0.50896253
   0.75319951  0.74785108  0.60247521
Direct configuration=     8
   0.08333333  0.08333333  0.40830017
   0.91877923  0.41705707  0.50833892
   0.00155647  0.25066889  0.61237898
   0.91542492  0.66758671  0.50674651
   0.08333333  0.58333333  0.40830017
   0.91704613  0.16498425  0.50992097
   0.24893984  0.00128355  0.60711465
   0.33333333  0.33333333  0.40830017
   0.24735301  0.74790128  0.60937758
   0.33333333  0.58333333  0.40830017
   0.33333333  0.83333333  0.40830017
   0.58333333  0.08333333  0.40830017
   0.91562484  0.91702745  0.50592693
   0.50234014 -0.00131667  0.61050779
   0.58333333  0.33333333  0.40830017
   0.41541673  0.41788412  0.51165668
   0.49993597  0.25237837  0.61345993
   0.58333333  0.58333333  0.40830017
   0.50177001  0.74866982  0.60813611
   0.75318340 -0.00191957  0.61043638
   0.83333333  0.33333333  0.40830017
   0.66497114  0.41947016  0.51200349
   0.75171644  0.50122945  0.61320321
   0.41432251  0.16432110  0.50951680
   0.08333333  0.83333333  0.40830017
  -0.00056623  0.74863271  0.60443526
   0.33333333  0.08333333  0.40830017
   0.66427668  0.91569418  0.50628988
   0.24858566  0.25274467  0.60352194
   0.16733717  0.16478376  0.50690166
   0.24707638  0.50012663  0.60542515
   0.16749397  0.66911943  0.50771011
   0.00231188  0.50193323  0.60529615
   0.16924721  0.91472785  0.50811458
   0.49873383  0.50086217  0.60754855
   0.66362635  0.67057006  0.50647863
   0.41717321  0.91571359  0.50648742
   0.00039290 -0.00228040  0.60497947
   0.83333333  0.83333333  0.40830017
   0.83333333  0.58333333  0.40830017
   0.75042726  0.24948377  0.60597320
   0.08333333  0.33333333  0.40830017
   0.66558737  0.16487688  0.50934395
   0.83333333  0.08333333  0.40830017
   0.16657587  0.41649989  0.50686879
   0.58333333  0.83333333  0.40830017
   0.41546480  0.66922535  0.50936045
   0.75225849  0.74868688  0.60286613
Direct configuration=     9
   0.08333333  0.08333333  0.40830017
   0.91883711  0.41684792  0.50837254
   0.00169490  0.25046797  0.61242651
   0.91542417  0.66787528  0.50674952
   0.08333333  0.58333333  0.40830017
   0.91685583  0.16515791  0.50989960
   0.24891750  0.00132714  0.60716570
   0.33333333  0.33333333  0.40830017
   0.24742645  0.74793676  0.60943298
   0.33333333  0.58333333  0.40830017
   0.33333333  0.83333333  0.40830017
   0.58333333  0.08333333  0.40830017
   0.91559586  0.91688318  0.50596591
   0.50230478 -0.00137874  0.61057336
   0.58333333  0.33333333  0.40830017
   0.41550859  0.41787324  0.51169476
   0.49989839  0.25246853  0.61352412
   0.58333333  0.58333333  0.40830017
   0.50183085  0.74866405  0.60817912
   0.75314999 -0.00191394  0.61047245
   0.83333333  0.33333333  0.40830017
   0.66490808  0.41934019  0.51201171
   0.75147552  0.50129775  0.61327483
   0.41403888  0.16457299  0.50950486
   0.08333333  0.83333333  0.40830017
  -0.00058529  0.74865072  0.60445187
   0.33333333  0.08333333  0.40830017
   0.66449529  0.91547210  0.50637692
   0.24856510  0.25270797  0.60359643
   0.16740510  0.16494509  0.50697107
   0.24722348  0.50004881  0.60548517
   0.16747958  0.66904714  0.50778990
   0.00237797  0.50185981  0.60536157
   0.16914927  0.91475858  0.50816716
   0.49885208  0.50075216  0.60763926
   0.66357965  0.67060069  0.50656200
   0.41718309  0.91567543  0.50657627
   0.00040647 -0.00217636  0.60506783
   0.83333333  0.83333333  0.40830017
   0.83333333  0.58333333  0.40830017
   0.75039382  0.24952413  0.60608200
   0.08333333  0.33333333  0.40830017
   0.66566082  0.16513104  0.50941746
   0.83333333  0.08333333  0.40830017
   0.16665313  0.41636386  0.50691374
   0.58333333  0.83333333  0.40830017
   0.41552583  0.66906198  0.50941754
   0.75212347  0.74880681  0.60292222
Direct configuration=    10
   0.08333333  0.08333333  0.40830017
   0.91875170  0.41710566  0.50836986
   0.00125012  0.25040827  0.61241881
   0.91582810  0.66778008  0.50671145
   0.08333333  0.58333333  0.40830017
   0.91687139  0.16507926  0.50960952
   0.24922285  0.00097039  0.60730175
   0.33333333  0.33333333  0.40830017
   0.24783376  0.74798074  0.60947648
   0.33333333  0.58333333  0.40830017
   0.33333333  0.83333333  0.40830017
   0.58333333  0.08333333  0.40830017
   0.91570755  0.91661616  0.50597552
   0.50190561 -0.00097656  0.61063565
   0.58333333  0.33333333  0.40830017
   0.41490143  0.41798254  0.51171909
   0.49965944  0.25242792  0.61358594
   0.58333333  0.58333333  0.40830017
   0.50156769  0.74871067  0.60825354
   0.75296763 -0.00169233  0.61041378
   0.83333333  0.33333333  0.40830017
   0.66499123  0.41933981  0.51185249
   0.75139414  0.50086899  0.61334484
   0.41460687  0.16465191  0.50915190
   0.08333333  0.83333333  0.40830017
  -0.00045330  0.74855844  0.60439060
   0.33333333  0.08333333  0.40830017
   0.66434061  0.91596104  0.50657050
   0.24869793  0.25274218  0.60400261
   0.16717723  0.16521083  0.50704735
   0.24770256  0.49983824  0.60557167
   0.16748919  0.66848677  0.50806358
   0.00232950  0.50172832  0.60541752
   0.16871862  0.91502919  0.50821582
   0.49914589  0.50050755  0.60798194
   0.66368628  0.67022068  0.50671620
   0.41723953  0.91538001  0.50676804
   0.00019552 -0.00169805  0.60535560
   0.83333333  0.83333333  0.40830017
   0.83333333  0.58333333  0.40830017
   0.75057696  0.24964600  0.60661674
   0.08333333  0.33333333  0.40830017
   0.66559926  0.16539411  0.50952456
   0.83333333  0.08333333  0.40830017
   0.16654343  0.41668024  0.50709101
   0.58333333  0.83333333  0.40830017
   0.41543436  0.66900608  0.50950328
   0.75223812  0.74878803  0.60315379
Direct configuration=    11
   0.08333333  0.08333333  0.40830017
   0.91870585  0.41724401  0.50836842
   0.00101136  0.25037622  0.61241468
   0.91604493  0.66772898  0.50669101
   0.08333333  0.58333333  0.40830017
   0.91687975  0.16503704  0.50945381
   0.24938677  0.00077888  0.60737478
   0.33333333  0.33333333  0.40830017
   0.24805240  0.74800434  0.60949983
   0.33333333  0.58333333  0.40830017
   0.33333333  0.83333333  0.40830017
   0.58333333  0.08333333  0.40830017
   0.91576750  0.91647282  0.50598067
   0.50169133 -0.00076066  0.61066909
   0.58333333  0.33333333  0.40830017
   0.41457550  0.41804121  0.51173216
   0.49953117  0.25240613  0.61361913
   0.58333333  0.58333333  0.40830017
   0.50142643  0.74873569  0.60829349
   0.75286975 -0.00157337  0.61038228
   0.83333333  0.33333333  0.40830017
   0.66503587  0.41933961  0.51176703
   0.75135045  0.50063884  0.61338242
   0.41491177  0.16469428  0.50896243
   0.08333333  0.83333333  0.40830017
  -0.00038245  0.74850891  0.60435771
   0.33333333  0.08333333  0.40830017
   0.66425758  0.91622350  0.50667442
   0.24876923  0.25276054  0.60422065
   0.16705490  0.16535347  0.50708830
   0.24795974  0.49972521  0.60561810
   0.16749435  0.66818597  0.50821049
   0.00230349  0.50165774  0.60544756
   0.16848744  0.91517446  0.50824193
   0.49930362  0.50037625  0.60816590
   0.66374351  0.67001669  0.50679898
   0.41726982  0.91522142  0.50687099
   0.00008228 -0.00144130  0.60551008
   0.83333333  0.83333333  0.40830017
   0.83333333  0.58333333  0.40830017
   0.75067527  0.24971142  0.60690379
   0.08333333  0.33333333  0.40830017
   0.66556621  0.16553533  0.50958206
   0.83333333  0.08333333  0.40830017
   0.16648455  0.41685008  0.50718617
   0.58333333  0.83333333  0.40830017
   0.41538526  0.66897608  0.50954930
   0.75229967  0.74877795  0.60327810
Direct configuration=    12
   0.08333333  0.08333333  0.40830017
   0.91862839  0.41764160  0.50833555
   0.00106797  0.25036752  0.61232002
   0.91569875  0.66754918  0.50671058
   0.08333333  0.58333333  0.40830017
   0.91686743  0.16485467  0.50938458
   0.24924636  0.00095874  0.60744231
   0.33333333  0.33333333  0.40830017
   0.24792806  0.74797938  0.60948521
   0.33333333  0.58333333  0.40830017
   0.33333333  0.83333333  0.40830017
   0.58333333  0.08333333  0.40830017
   0.91583943  0.91666475  0.50597968
   0.50156498 -0.00056184  0.61063488
   0.58333333  0.33333333  0.40830017
   0.41462092  0.41816924  0.51175139
   0.49965249  0.25228762  0.61361425
   0.58333333  0.58333333  0.40830017
   0.50169783  0.74854110  0.60835429
   0.75283940 -0.00143439  0.61027693
   0.83333333  0.33333333  0.40830017
   0.66486662  0.41927577  0.51178982
   0.75144137  0.50063234  0.61335739
   0.41492462  0.16447367  0.50880764
   0.08333333  0.83333333  0.40830017
  -0.00019443  0.74850761  0.60433278
   0.33333333  0.08333333  0.40830017
   0.66410540  0.91637654  0.50677148
   0.24870465  0.25272510  0.60437935
   0.16720911  0.16532868  0.50715041
   0.24794077  0.49986938  0.60574170
   0.16758982  0.66824762  0.50833448
   0.00220675  0.50158761  0.60544441
   0.16845578  0.91510388  0.50824830
   0.49939114  0.50018336  0.60831145
   0.66396958  0.66999322  0.50688139
   0.41718727  0.91534132  0.50690468
  -0.00001359 -0.00134747  0.60561556
   0.83333333  0.83333333  0.40830017
   0.83333333  0.58333333  0.40830017
   0.75060947  0.24967121  0.60713791
   0.08333333  0.33333333  0.40830017
   0.66566448  0.16558020  0.50965163
   0.83333333  0.08333333  0.40830017
   0.16640218  0.41676043  0.50733215
   0.58333333  0.83333333  0.40830017
   0.41513282  0.66902164  0.50958487
   0.75244255  0.74853507  0.60339358
Direct configuration=    13
   0.08333333  0.08333333  0.40830017
   0.91862096  0.41767976  0.50833240
   0.00107340  0.25036669  0.61231094
   0.91566553  0.66753192  0.50671246
   0.08333333  0.58333333  0.40830017
   0.91686624  0.16483716  0.50937794
   0.24923288  0.00097600  0.60744879
   0.33333333  0.33333333  0.40830017
   0.24791613  0.74797698  0.60948381
   0.33333333  0.58333333  0.40830017
   0.33333333  0.83333333  0.40830017
   0.58333333  0.08333333  0.40830017
   0.91584633  0.91668317  0.50597959
   0.50155285 -0.00054276  0.61063160
   0.58333333  0.33333333  0.40830017
   0.41462528  0.41818152  0.51175324
   0.49966414  0.25227625  0.61361379
   0.58333333  0.58333333  0.40830017
   0.50172388  0.74852242  0.60836013
   0.75283649 -0.00142105  0.61026681
   0.83333333  0.33333333  0.40830017
   0.66485037  0.41926965  0.51179201
   0.75145010  0.50063171  0.61335499
   0.41492585  0.16445250  0.50879278
   0.08333333  0.83333333  0.40830017
  -0.00017639  0.74850748  0.60433039
   0.33333333  0.08333333  0.40830017
   0.66409080  0.91639123  0.50678079
   0.24869845  0.25272169  0.60439458
   0.16722391  0.16532630  0.50715637
   0.24793895  0.49988322  0.60575356
   0.16759899  0.66825353  0.50834638
   0.00219747  0.50158088  0.60544411
   0.16845274  0.91509711  0.50824891
   0.49939954  0.50016484  0.60832541
   0.66399128  0.66999097  0.50688930
   0.41717934  0.91535283  0.50690791
  -0.00002280 -0.00133847  0.60562568
   0.83333333  0.83333333  0.40830017
   0.83333333  0.58333333  0.40830017
   0.75060315  0.24966735  0.60716038
   0.08333333  0.33333333  0.40830017
   0.66567392  0.16558451  0.50965831
   0.83333333  0.08333333  0.40830017
   0.16639427  0.41675182  0.50734616
   0.58333333  0.83333333  0.40830017
   0.41510860  0.66902601  0.50958828
   0.75245626  0.74851176  0.60340466
Direct configuration=    14
   0.08333333  0.08333333  0.40830017
   0.91850023  0.41757165  0.50827807
   0.00110497  0.25039959  0.61218376
   0.91538658  0.66780030  0.50673676
   0.08333333  0.58333333  0.40830017
   0.91685496  0.16498565  0.50941176
   0.24915190  0.00100490  0.60750918
   0.33333333  0.33333333  0.40830017
   0.24786555  0.74802560  0.60948215
   0.33333333  0.58333333  0.40830017
   0.33333333  0.83333333  0.40830017
   0.58333333  0.08333333  0.40830017
   0.91585770  0.91659898  0.50597032
   0.50154189 -0.00054373  0.61057033
   0.58333333  0.33333333  0.40830017
   0.41466441  0.41813566  0.51180053
   0.49968269  0.25225551  0.61358471
   0.58333333  0.58333333  0.40830017
   0.50183887  0.74847442  0.60840288
   0.75289995 -0.00149599  0.61015946
   0.83333333  0.33333333  0.40830017
   0.66482961  0.41923962  0.51187978
   0.75157755  0.50056057  0.61331240
   0.41478234  0.16447878  0.50873268
   0.08333333  0.83333333  0.40830017
  -0.00017063  0.74854469  0.60430962
   0.33333333  0.08333333  0.40830017
   0.66410734  0.91638479  0.50685423
   0.24871531  0.25274337  0.60448050
   0.16723344  0.16529509  0.50721153
   0.24790583  0.49988992  0.60588629
   0.16748447  0.66837989  0.50839628
   0.00220692  0.50153952  0.60546013
   0.16854767  0.91502728  0.50825877
   0.49943350  0.50004512  0.60845081
   0.66387166  0.67009026  0.50693785
   0.41712983  0.91534374  0.50691355
  -0.00006247 -0.00129629  0.60568248
   0.83333333  0.83333333  0.40830017
   0.83333333  0.58333333  0.40830017
   0.75055406  0.24968772  0.60729459
   0.08333333  0.33333333  0.40830017
   0.66566674  0.16563796  0.50971335
   0.83333333  0.08333333  0.40830017
   0.16648062  0.41662187  0.50747989
   0.58333333  0.83333333  0.40830017
   0.41503702  0.66913672  0.50962855
   0.75256222  0.74844571  0.60350732
Direct configuration=    15
   0.08333333  0.08333333  0.40830017
   0.91844158  0.41751913  0.50825168
   0.00112030  0.25041558  0.61212198
   0.91525109  0.66793066  0.50674857
   0.08333333  0.58333333  0.40830017
   0.91684947  0.16505777  0.50942818
   0.24911256  0.00101893  0.60753851
   0.33333333  0.33333333  0.40830017
   0.24784099  0.74804921  0.60948135
   0.33333333  0.58333333  0.40830017
   0.33333333  0.83333333  0.40830017
   0.58333333  0.08333333  0.40830017
   0.91586323  0.91655809  0.50596582
   0.50153656 -0.00054420  0.61054057
   0.58333333  0.33333333  0.40830017
   0.41468342  0.41811338  0.51182350
   0.49969170  0.25224544  0.61357058
   0.58333333  0.58333333  0.40830017
   0.50189472  0.74845110  0.60842365
   0.75293077 -0.00153239  0.61010732
   0.83333333  0.33333333  0.40830017
   0.66481952  0.41922503  0.51192241
   0.75163945  0.50052602  0.61329171
   0.41471264  0.16449155  0.50870349
   0.08333333  0.83333333  0.40830017
  -0.00016783  0.74856277  0.60429954
   0.33333333  0.08333333  0.40830017
   0.66411538  0.91638166  0.50688989
   0.24872350  0.25275390  0.60452223
   0.16723807  0.16527993  0.50723833
   0.24788974  0.49989318  0.60595076
   0.16742885  0.66844127  0.50842051
   0.00221151  0.50151943  0.60546791
   0.16859378  0.91499336  0.50826356
   0.49945000  0.49998696  0.60851172
   0.66381356  0.67013849  0.50696143
   0.41710578  0.91533932  0.50691629
  -0.00008175 -0.00127580  0.60571007
   0.83333333  0.83333333  0.40830017
   0.83333333  0.58333333  0.40830017
   0.75053021  0.24969762  0.60735979
   0.08333333  0.33333333  0.40830017
   0.66566325  0.16566392  0.50974009
   0.83333333  0.08333333  0.40830017
   0.16652256  0.41655874  0.50754485
   0.58333333  0.83333333  0.40830017
   0.41500226  0.66919050  0.50964810
   0.75261369  0.74841362  0.60355718
Direct configuration=    16
   0.08333333  0.08333333  0.40830017
   0.91840169  0.41755655  0.50818685
   0.00109473  0.25045933  0.61200766
   0.91527838  0.66786830  0.50676093
   0.08333333  0.58333333  0.40830017
   0.91687938  0.16498822  0.50950389
   0.24918202  0.00090745  0.60759810
   0.33333333  0.33333333  0.40830017
   0.24794622  0.74805352  0.60950265
   0.33333333  0.58333333  0.40830017
   0.33333333  0.83333333  0.40830017
   0.58333333  0.08333333  0.40830017
   0.91584103  0.91667375  0.50593694
   0.50155387 -0.00064028  0.61046186
   0.58333333  0.33333333  0.40830017
   0.41457531  0.41818371  0.51189696
   0.49965191  0.25220523  0.61354446
   0.58333333  0.58333333  0.40830017
   0.50188331  0.74844450  0.60846861
   0.75295796 -0.00161570  0.61002087
   0.83333333  0.33333333  0.40830017
   0.66470252  0.41933134  0.51204351
   0.75167643  0.50048327  0.61325837
   0.41465113  0.16454622  0.50870556
   0.08333333  0.83333333  0.40830017
  -0.00020377  0.74855414  0.60430539
   0.33333333  0.08333333  0.40830017
   0.66403684  0.91643812  0.50692039
   0.24882398  0.25275284  0.60457751
   0.16718970  0.16523549  0.50727515
   0.24790892  0.49984225  0.60607207
   0.16737400  0.66833840  0.50842313
   0.00226793  0.50155164  0.60547278
   0.16856317  0.91506877  0.50827349
   0.49940863  0.50002131  0.60865064
   0.66357982  0.67021836  0.50699041
   0.41709492  0.91531087  0.50691362
  -0.00011949 -0.00122357  0.60572773
   0.83333333  0.83333333  0.40830017
   0.83333333  0.58333333  0.40830017
   0.75057210  0.24969322  0.60745469
   0.08333333  0.33333333  0.40830017
   0.66562442  0.16562811  0.50975439
   0.83333333  0.08333333  0.40830017
   0.16640722  0.41668903  0.50764619
   0.58333333  0.83333333  0.40830017
   0.41506570  0.66916773  0.50970867
   0.75267573  0.74842824  0.60367184
