  56  56   0   0
  0.4903395E+02  0.1100258E-08  0.1100258E-08  0.2619179E-08  0.3500000E-15
  1.000000000000000E-004
  CAR 
 unknown system                          
      6.39787474    -21.54563980  301     -1.44170160      1.00000000
    -21.546  0.0000E+00  0.0000E+00
    -21.452  0.0000E+00  0.0000E+00
    -21.359  0.0000E+00  0.0000E+00
    -21.266  0.0000E+00  0.0000E+00
    -21.173  0.0000E+00  0.0000E+00
    -21.080  0.0000E+00  0.0000E+00
    -20.987  0.0000E+00  0.0000E+00
    -20.894  0.0000E+00  0.0000E+00
    -20.800  0.2347E-14  0.2186E-15
    -20.707  0.2159E-10  0.2012E-11
    -20.614  0.3704E-07  0.3452E-08
    -20.521  0.1221E-04  0.1141E-05
    -20.428  0.8105E-03  0.7664E-04
    -20.335  0.1156E-01  0.1153E-02
    -20.242  0.3804E-01  0.4696E-02
    -20.148  0.3357E-01  0.7823E-02
    -20.055  0.2734E-01  0.1037E-01
    -19.962  0.3698E-01  0.1381E-01
    -19.869  0.2016E-01  0.1569E-01
    -19.776  0.3183E-02  0.1599E-01
    -19.683  0.2486E-03  0.1601E-01
    -19.590  0.3353E-02  0.1632E-01
    -19.496  0.2131E-01  0.1831E-01
    -19.403  0.4840E-01  0.2282E-01
    -19.310  0.5347E-01  0.2780E-01
    -19.217  0.3350E-01  0.3092E-01
    -19.124  0.1061E-01  0.3191E-01
    -19.031  0.9876E-03  0.3200E-01
    -18.938  0.2001E-04  0.3200E-01
    -18.844  0.7963E-07  0.3200E-01
    -18.751  0.5964E-10  0.3200E-01
    -18.658  0.8224E-14  0.3200E-01
    -18.565  0.0000E+00  0.3200E-01
    -18.472  0.0000E+00  0.3200E-01
    -18.379  0.0000E+00  0.3200E-01
    -18.286  0.0000E+00  0.3200E-01
    -18.192  0.0000E+00  0.3200E-01
    -18.099  0.0000E+00  0.3200E-01
    -18.006  0.0000E+00  0.3200E-01
    -17.913  0.0000E+00  0.3200E-01
    -17.820  0.0000E+00  0.3200E-01
    -17.727  0.0000E+00  0.3200E-01
    -17.634  0.0000E+00  0.3200E-01
    -17.540  0.0000E+00  0.3200E-01
    -17.447  0.0000E+00  0.3200E-01
    -17.354  0.0000E+00  0.3200E-01
    -17.261  0.0000E+00  0.3200E-01
    -17.168  0.0000E+00  0.3200E-01
    -17.075  0.0000E+00  0.3200E-01
    -16.982  0.0000E+00  0.3200E-01
    -16.888  0.0000E+00  0.3200E-01
    -16.795  0.0000E+00  0.3200E-01
    -16.702  0.0000E+00  0.3200E-01
    -16.609  0.0000E+00  0.3200E-01
    -16.516  0.0000E+00  0.3200E-01
    -16.423  0.0000E+00  0.3200E-01
    -16.330  0.0000E+00  0.3200E-01
    -16.236  0.0000E+00  0.3200E-01
    -16.143  0.0000E+00  0.3200E-01
    -16.050  0.0000E+00  0.3200E-01
    -15.957  0.0000E+00  0.3200E-01
    -15.864  0.0000E+00  0.3200E-01
    -15.771  0.0000E+00  0.3200E-01
    -15.678  0.0000E+00  0.3200E-01
    -15.584  0.0000E+00  0.3200E-01
    -15.491  0.0000E+00  0.3200E-01
    -15.398  0.0000E+00  0.3200E-01
    -15.305  0.0000E+00  0.3200E-01
    -15.212  0.0000E+00  0.3200E-01
    -15.119  0.0000E+00  0.3200E-01
    -15.025  0.0000E+00  0.3200E-01
    -14.932  0.0000E+00  0.3200E-01
    -14.839  0.0000E+00  0.3200E-01
    -14.746  0.0000E+00  0.3200E-01
    -14.653  0.0000E+00  0.3200E-01
    -14.560  0.0000E+00  0.3200E-01
    -14.467  0.0000E+00  0.3200E-01
    -14.373  0.0000E+00  0.3200E-01
    -14.280  0.0000E+00  0.3200E-01
    -14.187  0.0000E+00  0.3200E-01
    -14.094  0.0000E+00  0.3200E-01
    -14.001  0.0000E+00  0.3200E-01
    -13.908  0.0000E+00  0.3200E-01
    -13.815  0.0000E+00  0.3200E-01
    -13.721  0.0000E+00  0.3200E-01
    -13.628  0.0000E+00  0.3200E-01
    -13.535  0.0000E+00  0.3200E-01
    -13.442  0.0000E+00  0.3200E-01
    -13.349  0.0000E+00  0.3200E-01
    -13.256  0.0000E+00  0.3200E-01
    -13.163  0.0000E+00  0.3200E-01
    -13.069  0.0000E+00  0.3200E-01
    -12.976  0.0000E+00  0.3200E-01
    -12.883  0.0000E+00  0.3200E-01
    -12.790  0.0000E+00  0.3200E-01
    -12.697  0.0000E+00  0.3200E-01
    -12.604  0.0000E+00  0.3200E-01
    -12.511  0.0000E+00  0.3200E-01
    -12.417  0.0000E+00  0.3200E-01
    -12.324  0.0000E+00  0.3200E-01
    -12.231  0.0000E+00  0.3200E-01
    -12.138  0.0000E+00  0.3200E-01
    -12.045  0.0000E+00  0.3200E-01
    -11.952  0.0000E+00  0.3200E-01
    -11.859  0.0000E+00  0.3200E-01
    -11.765  0.0000E+00  0.3200E-01
    -11.672  0.0000E+00  0.3200E-01
    -11.579  0.0000E+00  0.3200E-01
    -11.486  0.0000E+00  0.3200E-01
    -11.393  0.0000E+00  0.3200E-01
    -11.300  0.0000E+00  0.3200E-01
    -11.207  0.0000E+00  0.3200E-01
    -11.113  0.0000E+00  0.3200E-01
    -11.020  0.0000E+00  0.3200E-01
    -10.927  0.0000E+00  0.3200E-01
    -10.834  0.0000E+00  0.3200E-01
    -10.741  0.0000E+00  0.3200E-01
    -10.648  0.0000E+00  0.3200E-01
    -10.555  0.0000E+00  0.3200E-01
    -10.461  0.0000E+00  0.3200E-01
    -10.368  0.0000E+00  0.3200E-01
    -10.275  0.0000E+00  0.3200E-01
    -10.182  0.0000E+00  0.3200E-01
    -10.089  0.0000E+00  0.3200E-01
     -9.996  0.0000E+00  0.3200E-01
     -9.903  0.0000E+00  0.3200E-01
     -9.809  0.0000E+00  0.3200E-01
     -9.716  0.0000E+00  0.3200E-01
     -9.623  0.4596E-14  0.3200E-01
     -9.530  0.3165E-10  0.3200E-01
     -9.437  0.4065E-07  0.3200E-01
     -9.344  0.9948E-05  0.3200E-01
     -9.250  0.4799E-03  0.3205E-01
     -9.157  0.4812E-02  0.3249E-01
     -9.064  0.1113E-01  0.3353E-01
     -8.971  0.1042E-01  0.3450E-01
     -8.878  0.1068E-01  0.3550E-01
     -8.785  0.5087E-02  0.3597E-01
     -8.692  0.2931E-02  0.3624E-01
     -8.598  0.7130E-02  0.3691E-01
     -8.505  0.1159E-01  0.3799E-01
     -8.412  0.1784E-01  0.3965E-01
     -8.319  0.2139E-01  0.4164E-01
     -8.226  0.2006E-01  0.4351E-01
     -8.133  0.2867E-01  0.4618E-01
     -8.040  0.4767E-01  0.5062E-01
     -7.946  0.5900E-01  0.5612E-01
     -7.853  0.5487E-01  0.6123E-01
     -7.760  0.5339E-01  0.6620E-01
     -7.667  0.6200E-01  0.7197E-01
     -7.574  0.6064E-01  0.7762E-01
     -7.481  0.6665E-01  0.8383E-01
     -7.388  0.9566E-01  0.9274E-01
     -7.294  0.1149E+00  0.1034E+00
     -7.201  0.1201E+00  0.1146E+00
     -7.108  0.1223E+00  0.1260E+00
     -7.015  0.1386E+00  0.1389E+00
     -6.922  0.1489E+00  0.1528E+00
     -6.829  0.1447E+00  0.1663E+00
     -6.736  0.1445E+00  0.1797E+00
     -6.642  0.1534E+00  0.1940E+00
     -6.549  0.1618E+00  0.2091E+00
     -6.456  0.1634E+00  0.2243E+00
     -6.363  0.1633E+00  0.2395E+00
     -6.270  0.1619E+00  0.2546E+00
     -6.177  0.1621E+00  0.2697E+00
     -6.084  0.1647E+00  0.2851E+00
     -5.990  0.1615E+00  0.3001E+00
     -5.897  0.1661E+00  0.3156E+00
     -5.804  0.1671E+00  0.3312E+00
     -5.711  0.1586E+00  0.3459E+00
     -5.618  0.1596E+00  0.3608E+00
     -5.525  0.1616E+00  0.3759E+00
     -5.432  0.1683E+00  0.3915E+00
     -5.338  0.1767E+00  0.4080E+00
     -5.245  0.1749E+00  0.4243E+00
     -5.152  0.1712E+00  0.4402E+00
     -5.059  0.1670E+00  0.4558E+00
     -4.966  0.1640E+00  0.4710E+00
     -4.873  0.1721E+00  0.4871E+00
     -4.780  0.1835E+00  0.5042E+00
     -4.686  0.1832E+00  0.5212E+00
     -4.593  0.1827E+00  0.5383E+00
     -4.500  0.1806E+00  0.5551E+00
     -4.407  0.1791E+00  0.5718E+00
     -4.314  0.1789E+00  0.5884E+00
     -4.221  0.1868E+00  0.6058E+00
     -4.128  0.1958E+00  0.6241E+00
     -4.034  0.2030E+00  0.6430E+00
     -3.941  0.2062E+00  0.6622E+00
     -3.848  0.1957E+00  0.6804E+00
     -3.755  0.1954E+00  0.6986E+00
     -3.662  0.2051E+00  0.7177E+00
     -3.569  0.1974E+00  0.7361E+00
     -3.476  0.1887E+00  0.7537E+00
     -3.382  0.1836E+00  0.7708E+00
     -3.289  0.1816E+00  0.7877E+00
     -3.196  0.1816E+00  0.8046E+00
     -3.103  0.1819E+00  0.8215E+00
     -3.010  0.1758E+00  0.8379E+00
     -2.917  0.1731E+00  0.8540E+00
     -2.823  0.1740E+00  0.8702E+00
     -2.730  0.1765E+00  0.8867E+00
     -2.637  0.1843E+00  0.9038E+00
     -2.544  0.1867E+00  0.9212E+00
     -2.451  0.1923E+00  0.9392E+00
     -2.358  0.1997E+00  0.9577E+00
     -2.265  0.1949E+00  0.9759E+00
     -2.171  0.1873E+00  0.9933E+00
     -2.078  0.1932E+00  0.1011E+01
     -1.985  0.1916E+00  0.1029E+01
     -1.892  0.1838E+00  0.1046E+01
     -1.799  0.1710E+00  0.1062E+01
     -1.706  0.1443E+00  0.1076E+01
     -1.613  0.1216E+00  0.1087E+01
     -1.519  0.1060E+00  0.1097E+01
     -1.426  0.9026E-01  0.1105E+01
     -1.333  0.7206E-01  0.1112E+01
     -1.240  0.5913E-01  0.1117E+01
     -1.147  0.5764E-01  0.1123E+01
     -1.054  0.5497E-01  0.1128E+01
     -0.961  0.5766E-01  0.1133E+01
     -0.867  0.6117E-01  0.1139E+01
     -0.774  0.5433E-01  0.1144E+01
     -0.681  0.4801E-01  0.1149E+01
     -0.588  0.5151E-01  0.1153E+01
     -0.495  0.4807E-01  0.1158E+01
     -0.402  0.3985E-01  0.1162E+01
     -0.309  0.2854E-01  0.1164E+01
     -0.215  0.2425E-01  0.1166E+01
     -0.122  0.2514E-01  0.1169E+01
     -0.029  0.2165E-01  0.1171E+01
      0.064  0.2060E-01  0.1173E+01
      0.157  0.1965E-01  0.1175E+01
      0.250  0.2847E-01  0.1177E+01
      0.343  0.3668E-01  0.1181E+01
      0.437  0.4204E-01  0.1185E+01
      0.530  0.3858E-01  0.1188E+01
      0.623  0.3536E-01  0.1191E+01
      0.716  0.3687E-01  0.1195E+01
      0.809  0.3146E-01  0.1198E+01
      0.902  0.2352E-01  0.1200E+01
      0.995  0.1902E-01  0.1202E+01
      1.089  0.1934E-01  0.1204E+01
      1.182  0.2267E-01  0.1206E+01
      1.275  0.2506E-01  0.1208E+01
      1.368  0.2062E-01  0.1210E+01
      1.461  0.2521E-01  0.1212E+01
      1.554  0.3118E-01  0.1215E+01
      1.647  0.3461E-01  0.1218E+01
      1.741  0.3688E-01  0.1222E+01
      1.834  0.3488E-01  0.1225E+01
      1.927  0.3721E-01  0.1229E+01
      2.020  0.3636E-01  0.1232E+01
      2.113  0.3174E-01  0.1235E+01
      2.206  0.2797E-01  0.1238E+01
      2.299  0.2484E-01  0.1240E+01
      2.393  0.2437E-01  0.1242E+01
      2.486  0.2550E-01  0.1244E+01
      2.579  0.2296E-01  0.1247E+01
      2.672  0.2232E-01  0.1249E+01
      2.765  0.2790E-01  0.1251E+01
      2.858  0.2930E-01  0.1254E+01
      2.952  0.2427E-01  0.1256E+01
      3.045  0.2469E-01  0.1259E+01
      3.138  0.3422E-01  0.1262E+01
      3.231  0.3695E-01  0.1265E+01
      3.324  0.3337E-01  0.1268E+01
      3.417  0.3217E-01  0.1271E+01
      3.510  0.3103E-01  0.1274E+01
      3.604  0.3152E-01  0.1277E+01
      3.697  0.3127E-01  0.1280E+01
      3.790  0.2907E-01  0.1283E+01
      3.883  0.3282E-01  0.1286E+01
      3.976  0.4083E-01  0.1290E+01
      4.069  0.3742E-01  0.1293E+01
      4.162  0.3702E-01  0.1297E+01
      4.256  0.3430E-01  0.1300E+01
      4.349  0.3166E-01  0.1303E+01
      4.442  0.3362E-01  0.1306E+01
      4.535  0.4275E-01  0.1310E+01
      4.628  0.5394E-01  0.1315E+01
      4.721  0.6101E-01  0.1321E+01
      4.814  0.5918E-01  0.1326E+01
      4.908  0.5934E-01  0.1332E+01
      5.001  0.5207E-01  0.1336E+01
      5.094  0.4467E-01  0.1341E+01
      5.187  0.2928E-01  0.1343E+01
      5.280  0.6890E-02  0.1344E+01
      5.373  0.4205E-03  0.1344E+01
      5.466  0.5779E-05  0.1344E+01
      5.560  0.1633E-07  0.1344E+01
      5.653  0.8955E-11  0.1344E+01
      5.746  0.9233E-15  0.1344E+01
      5.839  0.0000E+00  0.1344E+01
      5.932  0.0000E+00  0.1344E+01
      6.025  0.0000E+00  0.1344E+01
      6.118  0.0000E+00  0.1344E+01
      6.212  0.0000E+00  0.1344E+01
      6.305  0.0000E+00  0.1344E+01
      6.398  0.0000E+00  0.1344E+01
