 vasp.5.4.1 24Jun15 (build Mar 14 2019 10:18:33) complex                        
  
 executed on INTEL-19.0.2+OPENMPI date 2022.07.15  14:58:05
 running on   36 total cores
 distrk:  each k-point on   36 cores,    1 groups
 distr:  one band on NCORES_PER_BAND=   6 cores,    6 groups


--------------------------------------------------------------------------------------------------------


 INCAR:
 POTCAR:    PAW_PBE Au 04Oct2007                  
 POTCAR:    PAW_PBE Pd 04Jan2005                  
 POTCAR:    PAW_PBE Au 04Oct2007                  
  local pseudopotential read in
  partial core-charges read in
  partial kinetic energy density read in
  atomic valenz-charges read in
  non local Contribution for L=           2  read in
    real space projection operators read in
  non local Contribution for L=           2  read in
    real space projection operators read in
  non local Contribution for L=           0  read in
    real space projection operators read in
  non local Contribution for L=           0  read in
    real space projection operators read in
  non local Contribution for L=           1  read in
    real space projection operators read in
  non local Contribution for L=           1  read in
    real space projection operators read in
    PAW grid and wavefunctions read in
 
   number of l-projection  operators is LMAX  =           6
   number of lm-projection operators is LMMAX =          18
 
 POTCAR:    PAW_PBE Pd 04Jan2005                  
  local pseudopotential read in
  partial core-charges read in
  partial kinetic energy density read in
  atomic valenz-charges read in
  non local Contribution for L=           2  read in
    real space projection operators read in
  non local Contribution for L=           2  read in
    real space projection operators read in
  non local Contribution for L=           0  read in
    real space projection operators read in
  non local Contribution for L=           0  read in
    real space projection operators read in
  non local Contribution for L=           1  read in
    real space projection operators read in
  non local Contribution for L=           1  read in
    real space projection operators read in
    PAW grid and wavefunctions read in
 
   number of l-projection  operators is LMAX  =           6
   number of lm-projection operators is LMMAX =          18
 
 Optimization of the real space projectors (new method)

 maximal supplied QI-value         = 15.12
 optimisation between [QCUT,QGAM] = [ 10.13, 20.41] = [ 28.73,116.64] Ry 
 Optimized for a Real-space Cutoff    1.51 Angstroem

   l    n(q)    QCUT    max X(q) W(low)/X(q) W(high)/X(q)  e(spline) 
   2      8    10.129    60.898    0.46E-03    0.46E-03    0.14E-06
   2      8    10.129    58.894    0.47E-03    0.47E-03    0.14E-06
   0      9    10.129   109.617    0.16E-03    0.11E-03    0.54E-07
   0      9    10.129    75.026    0.15E-03    0.11E-03    0.52E-07
   1      9    10.129    16.344    0.96E-04    0.15E-03    0.14E-06
   1      9    10.129    10.160    0.81E-04    0.12E-03    0.11E-06
 Optimization of the real space projectors (new method)

 maximal supplied QI-value         = 14.36
 optimisation between [QCUT,QGAM] = [ 10.20, 20.39] = [ 29.12,116.47] Ry 
 Optimized for a Real-space Cutoff    1.51 Angstroem

   l    n(q)    QCUT    max X(q) W(low)/X(q) W(high)/X(q)  e(spline) 
   2      8    10.197    59.108    0.26E-03    0.14E-03    0.96E-07
   2      8    10.197    58.101    0.27E-03    0.14E-03    0.98E-07
   0      9    10.197   102.235    0.54E-04    0.60E-05    0.72E-07
   0      9    10.197    58.388    0.52E-04    0.60E-05    0.68E-07
   1      9    10.197    22.191    0.18E-03    0.25E-03    0.79E-07
   1      9    10.197    15.590    0.15E-03    0.21E-03    0.69E-07
  PAW_PBE Au 04Oct2007                  :
 energy of atom  1       EATOM= -926.0867
 kinetic energy error for atom=    0.0062 (will be added to EATOM!!)
  PAW_PBE Pd 04Jan2005                  :
 energy of atom  2       EATOM= -809.7530
 kinetic energy error for atom=    0.0091 (will be added to EATOM!!)
 
 
 POSCAR: Au Pd                                   
  positions in cartesian coordinates
  No initial velocities read in
 exchange correlation table for  LEXCH =        8
   RHO(1)=    0.500       N(1)  =     2000
   RHO(2)=  100.500       N(2)  =     4000

 VTST: version 3.2, (02/03/18)

 CHAIN: initializing optimizer
 
 OPT: Using VASP Conjugate-Gradient optimizer
 CHAIN: Read ICHAIN            0
 
 POSCAR: Au Pd                                   
  positions in cartesian coordinates
  No initial velocities read in
 


--------------------------------------------------------------------------------------------------------


 ion  position               nearest neighbor table
   1  0.250  0.750  0.592-  43 2.75   2 2.75   7 2.75  12 2.75  23 2.75   3 2.75  25 2.75  15 2.75
                            42 2.75
   2  0.417  0.667  0.500-  41 2.75   3 2.75   1 2.75  17 2.75  38 2.75   8 2.75  43 2.75  42 2.75
                            20 2.75   6 2.75  13 2.75  25 2.75
   3  0.500  0.500  0.592-   2 2.75  17 2.75   1 2.75  19 2.75  25 2.75  28 2.75   7 2.75  22 2.75
                            38 2.75
   4  0.667  0.917  0.500-   5 2.75  48 2.75  46 2.75  35 2.75  45 2.75  10 2.75  20 2.75  37 2.75
                             8 2.75  44 2.75  14 2.75  27 2.75
   5  0.583  0.833  0.408-   4 2.75  13 2.75  24 2.75  26 2.75  44 2.75  27 2.75   6 2.75  20 2.75
                             8 2.75
   6  0.333  0.833  0.408-   8 2.75  13 2.75  24 2.75  29 2.75  41 2.75  36 2.75   5 2.75   2 2.75
                            43 2.75
   7  0.250  0.500  0.592-  42 2.75  38 2.75  28 2.75   1 2.75  40 2.75  15 2.75   3 2.75  18 2.75
                            47 2.75
   8  0.417  0.917  0.500-   6 2.75  25 2.75  12 2.75  20 2.75   2 2.75  39 2.75  45 2.75  43 2.75
                             4 2.75  24 2.75   5 2.75  46 2.75
   9  0.833  0.083  0.408-  31 2.75  27 2.75  30 2.75  16 2.75  36 2.75  29 2.75  44 2.75  37 2.75
                            10 2.75
  10  0.667  0.167  0.500-  44 2.75  14 2.75  28 2.75   4 2.75  37 2.75  38 2.75  17 2.75  31 2.75
                            45 2.75  30 2.75  19 2.75   9 2.75
  11  0.333  0.333  0.408-  38 2.75  34 2.75  24 2.75  41 2.75  44 2.75  30 2.75  32 2.75  45 2.75
                            47 2.75
  12  0.250  0.000  0.592-  39 2.75   8 2.75  25 2.75  33 2.75   1 2.75  40 2.75  23 2.75  46 2.75
                            43 2.75
  13  0.583  0.583  0.408-  20 2.75   6 2.75  16 2.75   5 2.75  30 2.75  26 2.75  41 2.75  17 2.75
                             2 2.75
  14  0.750  0.000  0.592-  10 2.75  37 2.75  19 2.75  28 2.75  15 2.75  48 2.75  46 2.75  23 2.75
                             4 2.75
  15  0.000  0.750  0.592-  37 2.75  42 2.75  18 2.75  23 2.75   7 2.75  14 2.75   1 2.75  48 2.75
                            35 2.75
  16  0.833  0.333  0.408-  21 2.75  13 2.75   9 2.75  26 2.75  29 2.75  30 2.75  32 2.75  31 2.75
                            17 2.75
  17  0.667  0.417  0.500-  30 2.75  19 2.75   3 2.75   2 2.75  20 2.75  10 2.75  31 2.75  21 2.75
                            38 2.75  13 2.75  22 2.75  16 2.75
  18  0.000  0.500  0.592-  35 2.75  47 2.75  15 2.75  40 2.75  33 2.75  48 2.75  22 2.75   7 2.75
                            21 2.75
  19  0.750  0.250  0.592-  17 2.75  31 2.75   3 2.75  22 2.75  23 2.75  14 2.75  28 2.75  33 2.75
                            10 2.75
  20  0.667  0.667  0.500-  13 2.75  22 2.75  25 2.75  17 2.75  21 2.75   8 2.75   4 2.75   2 2.75
                            35 2.75   5 2.75  26 2.75  48 2.75
  21  0.917  0.417  0.500-  16 2.75  33 2.75  22 2.75  31 2.75  20 2.75  35 2.75  39 2.75  17 2.75
                            47 2.75  26 2.75  18 2.75  32 2.75
  22  0.750  0.500  0.592-  20 2.75  21 2.75  19 2.75  25 2.75  33 2.75  48 2.75   3 2.75  18 2.75
                            17 2.75
  23  0.000  0.000  0.592-  31 2.75  43 2.75  19 2.75   1 2.75  33 2.75  15 2.75  14 2.75  12 2.75
                            37 2.75
  24  0.333  0.083  0.408-  45 2.75   6 2.75  11 2.75  32 2.75   5 2.75  44 2.75  29 2.75   8 2.75
                            39 2.75
  25  0.500  0.750  0.592-   8 2.75  20 2.75  12 2.75   3 2.75  22 2.75  46 2.75   1 2.75  48 2.75
                             2 2.75
  26  0.833  0.583  0.408-  35 2.75  16 2.75  27 2.75  32 2.75   5 2.75  34 2.75  13 2.75  21 2.75
                            20 2.75
  27  0.833  0.833  0.408-  37 2.75  26 2.75  34 2.75   9 2.75  44 2.75   5 2.75  36 2.75  35 2.75
                             4 2.75
  28  0.500  0.250  0.592-  38 2.75  10 2.75   3 2.75  14 2.75   7 2.75  46 2.75  40 2.75  19 2.75
                            45 2.75
  29  0.083  0.083  0.408-  39 2.75  16 2.75  32 2.75  36 2.75   6 2.75  24 2.75   9 2.75  43 2.75
                            31 2.75
  30  0.583  0.333  0.408-  17 2.75  13 2.75   9 2.75  41 2.75  44 2.75  16 2.75  11 2.75  10 2.75
                            38 2.75
  31  0.917  0.167  0.500-   9 2.75  23 2.75  19 2.75  21 2.75  17 2.75  37 2.75  43 2.75  39 2.75
                            10 2.75  16 2.75  33 2.75  29 2.75
  32  0.083  0.333  0.408-  47 2.75  26 2.75  29 2.75  34 2.75  24 2.75  16 2.75  11 2.75  39 2.75
                            21 2.75
  33  0.000  0.250  0.592-  21 2.75  39 2.75  12 2.75  22 2.75  23 2.75  18 2.75  19 2.75  40 2.75
                            31 2.75
  34  0.083  0.583  0.408-  42 2.75  27 2.75  32 2.75  36 2.75  11 2.75  41 2.75  26 2.75  47 2.75
                            35 2.75
  35  0.917  0.667  0.500-  26 2.75  18 2.75  48 2.75   4 2.75  37 2.75  47 2.75  21 2.75  20 2.75
                            42 2.75  27 2.75  15 2.75  34 2.75
  36  0.083  0.833  0.408-  43 2.75  29 2.75  34 2.75  41 2.75   9 2.75   6 2.75  27 2.75  42 2.75
                            37 2.75
  37  0.917  0.917  0.500-  27 2.75  15 2.75  14 2.75  10 2.75  31 2.75  35 2.75  42 2.75   4 2.75
                            43 2.75   9 2.75  23 2.75  36 2.75
  38  0.417  0.417  0.500-  11 2.75  28 2.75   7 2.75   2 2.75  10 2.75  42 2.75  45 2.75  17 2.75
                            47 2.75  41 2.75   3 2.75  30 2.75
  39  0.167  0.167  0.500-  29 2.75  12 2.75  33 2.75   8 2.75  21 2.75  43 2.75  47 2.75  45 2.75
                            31 2.75  32 2.75  40 2.75  24 2.75
  40  0.250  0.250  0.592-  47 2.75  45 2.75  18 2.75   7 2.75  46 2.75  12 2.75  33 2.75  28 2.75
                            39 2.75
  41  0.333  0.583  0.408-   2 2.75   6 2.75  11 2.75  30 2.75  36 2.75  34 2.75  13 2.75  38 2.75
                            42 2.75
  42  0.167  0.667  0.500-  34 2.75   7 2.75  15 2.75  37 2.75  38 2.75  43 2.75  47 2.75   2 2.75
                            35 2.75  36 2.75   1 2.75  41 2.75
  43  0.167  0.917  0.500-  36 2.75   1 2.75  23 2.75  31 2.75   2 2.75  39 2.75  42 2.75   8 2.75
                            37 2.75  29 2.75  12 2.75   6 2.75
  44  0.583  0.083  0.408-  10 2.75   5 2.75  11 2.75  27 2.75  30 2.75   9 2.75  24 2.75   4 2.75
                            45 2.75
  45  0.417  0.167  0.500-  24 2.75  46 2.75  40 2.75  38 2.75   8 2.75   4 2.75  47 2.75  39 2.75
                            10 2.75  11 2.75  28 2.75  44 2.75
  46  0.500  0.000  0.592-  45 2.75   4 2.75  28 2.75  40 2.75  25 2.75  48 2.75  14 2.75  12 2.75
                             8 2.75
  47  0.167  0.417  0.500-  32 2.75  40 2.75  18 2.75  39 2.75  35 2.75  42 2.75  45 2.75  21 2.75
                            38 2.75  34 2.75   7 2.75  11 2.75
  48  0.750  0.750  0.592-   4 2.75  35 2.75  18 2.75  22 2.75  14 2.75  46 2.75  15 2.75  25 2.75
                            20 2.75
 
  LATTYP: Found a hexagonal cell.
 ALAT       =    11.0025815153
 C/A-ratio  =     2.2260035120
  
  Lattice vectors:
  
 A1 = (   5.5012907576,  -9.5285150994,   0.0000000000)
 A2 = ( -11.0025815153,   0.0000000000,   0.0000000000)
 A3 = (   0.0000000000,   0.0000000000, -24.4917850943)


Analysis of symmetry for initial positions (statically):
=====================================================================
 Subroutine PRICEL returns:
 Original cell was already a primitive cell.
 

 Routine SETGRP: Setting up the symmetry group for a 
 hexagonal supercell.


 Subroutine GETGRP returns: Found  1 space group operations
 (whereof  1 operations were pure point group operations)
 out of a pool of 24 trial point group operations.


The static configuration has the point symmetry C_1 .


Analysis of symmetry for dynamics (positions and initial velocities):
=====================================================================
 Subroutine PRICEL returns:
 Original cell was already a primitive cell.
 

 Routine SETGRP: Setting up the symmetry group for a 
 hexagonal supercell.


 Subroutine GETGRP returns: Found  1 space group operations
 (whereof  1 operations were pure point group operations)
 out of a pool of 24 trial point group operations.


The dynamic configuration has the point symmetry C_1 .
 
 
 KPOINTS: Automatic mesh                          

Automatic generation of k-mesh.
Space group operators:
 irot       det(A)        alpha          n_x          n_y          n_z        tau_x        tau_y        tau_z
    1     1.000000     0.000000     1.000000     0.000000     0.000000     0.000000     0.000000     0.000000
 
 Subroutine IBZKPT returns following result:
 ===========================================
 
 Found      6 irreducible k-points:
 
 Following reciprocal coordinates:
            Coordinates               Weight
  0.250000  0.250000  0.000000     16.000000
  0.000000  0.250000  0.000000     16.000000
 -0.250000  0.000000  0.000000     16.000000
 -0.250000  0.250000  0.000000     16.000000
  0.500000 -0.250000  0.000000     16.000000
 -0.250000  0.500000  0.000000     16.000000
 
 Following cartesian coordinates:
            Coordinates               Weight
  0.022722  0.013119  0.000000     16.000000
  0.000000  0.026237  0.000000     16.000000
 -0.022722  0.013119  0.000000     16.000000
 -0.022722  0.039356  0.000000     16.000000
  0.045444 -0.052474  0.000000     16.000000
 -0.022722  0.065593  0.000000     16.000000
 


--------------------------------------------------------------------------------------------------------




 Dimension of arrays:
   k-points           NKPTS =      6   k-points in BZ     NKDIM =      6   number of bands    NBANDS=    306
   number of dos      NEDOS =    301   number of ions     NIONS =     48
   non local maximal  LDIM  =      6   non local SUM 2l+1 LMDIM =     18
   total plane-waves  NPLWV = 349920
   max r-space proj   IRMAX =   2009   max aug-charges    IRDMAX=   8532
   dimension x,y,z NGX =    54 NGY =   54 NGZ =  120
   dimension x,y,z NGXF=   108 NGYF=  108 NGZF=  240
   support grid    NGXF=   108 NGYF=  108 NGZF=  240
   ions per type =              24  24
 NGX,Y,Z   is equivalent  to a cutoff of   8.16,  8.16,  8.15 a.u.
 NGXF,Y,Z  is equivalent  to a cutoff of  16.32, 16.32, 16.29 a.u.


 I would recommend the setting:
   dimension x,y,z NGX =    54 NGY =   54 NGZ =  120
 SYSTEM =  unknown system                          
 POSCAR =  Au Pd                                   

 Startparameter for this run:
   NWRITE =      1    write-flag & timer
   PREC   = normal    normal or accurate (medium, high low for compatibility)
   ISTART =      0    job   : 0-new  1-cont  2-samecut
   ICHARG =      2    charge: 1-file 2-atom 10-const
   ISPIN  =      1    spin polarized calculation?
   LNONCOLLINEAR =      F non collinear calculations
   LSORBIT =      F    spin-orbit coupling
   INIWAV =      1    electr: 0-lowe 1-rand  2-diag
   LASPH  =      F    aspherical Exc in radial PAW
   METAGGA=      F    non-selfconsistent MetaGGA calc.

 Electronic Relaxation 1
   ENCUT  =  400.0 eV  29.40 Ry    5.42 a.u.  17.94 17.94 39.94*2*pi/ulx,y,z
   ENINI  =  400.0     initial cutoff
   ENAUG  =  416.2 eV  augmentation charge cutoff
   NELM   =    500;   NELMIN=  2; NELMDL= -5     # of ELM steps 
   EDIFF  = 0.1E-05   stopping-criterion for ELM
   LREAL  =      T    real-space projection
   NLSPLINE    = F    spline interpolate recip. space projectors
   LCOMPAT=      F    compatible to vasp.4.4
   GGA_COMPAT  = T    GGA compatible to vasp.4.4-vasp.4.6
   LMAXPAW     = -100 max onsite density
   LMAXMIX     =    2 max onsite mixed and CHGCAR
   VOSKOWN=      1    Vosko Wilk Nusair interpolation
   ROPT   =   -0.00050  -0.00050
 Ionic relaxation
   EDIFFG = -.2E-01   stopping-criterion for IOM
   NSW    =    500    number of steps for IOM
   NBLOCK =      1;   KBLOCK =    500    inner block; outer block 
   IBRION =      2    ionic relax: 0-MD 1-quasi-New 2-CG
   NFREE  =      2    steps in history (QN), initial steepest desc. (CG)
   ISIF   =      0    stress and relaxation
   IWAVPR =     11    prediction:  0-non 1-charg 2-wave 3-comb
   ISYM   =      2    0-nonsym 1-usesym 2-fastsym
   LCORR  =      T    Harris-Foulkes like correction to forces

   POTIM  = 0.3500    time-step for ionic-motion
   TEIN   =    0.0    initial temperature
   TEBEG  =    0.0;   TEEND  =   0.0 temperature during run
   SMASS  =  -3.00    Nose mass-parameter (am)
   estimated Nose-frequenzy (Omega)   =  0.10E-29 period in steps =****** mass=  -0.277E-26a.u.
   SCALEE = 1.0000    scale energy and forces
   NPACO  =    256;   APACO  = 16.0  distance and # of slots for P.C.
   PSTRESS=    0.0 pullay stress

  Mass of Ions in am
   POMASS = 196.97106.42
  Ionic Valenz
   ZVAL   =  11.00 10.00
  Atomic Wigner-Seitz radii
   RWIGS  =  -1.00 -1.00
  virtual crystal weights 
   VCA    =   1.00  1.00
   NELECT =     504.0000    total number of electrons
   NUPDOWN=      -1.0000    fix difference up-down

 DOS related values:
   EMIN   =  10.00;   EMAX   =-10.00  energy-range for DOS
   EFERMI =   0.00
   ISMEAR =     0;   SIGMA  =   0.10  broadening in eV -4-tet -1-fermi 0-gaus

 Electronic relaxation 2 (details)
   IALGO  =     68    algorithm
   LDIAG  =      T    sub-space diagonalisation (order eigenvalues)
   LSUBROT=      F    optimize rotation matrix (better conditioning)
   TURBO    =      0    0=normal 1=particle mesh
   IRESTART =      0    0=no restart 2=restart with 2 vectors
   NREBOOT  =      0    no. of reboots
   NMIN     =      0    reboot dimension
   EREF     =   0.00    reference energy to select bands
   IMIX   =      4    mixing-type and parameters
     AMIX     =   0.40;   BMIX     =  1.00
     AMIX_MAG =   1.60;   BMIX_MAG =  1.00
     AMIN     =   0.10
     WC   =   100.;   INIMIX=   1;  MIXPRE=   1;  MAXMIX= -45

 Intra band minimization:
   WEIMIN = 0.0010     energy-eigenvalue tresh-hold
   EBREAK =  0.82E-09  absolut break condition
   DEPER  =   0.30     relativ break condition  

   TIME   =   0.40     timestep for ELM

  volume/ion in A,a.u.               =      53.49       360.99
  Fermi-wavevector in a.u.,A,eV,Ry     =   0.951418  1.797920 12.315955  0.905197
  Thomas-Fermi vector in A             =   2.079887
 
 Write flags
   LWAVE  =      F    write WAVECAR
   LCHARG =      F    write CHGCAR
   LVTOT  =      F    write LOCPOT, total local potential
   LVHAR  =      F    write LOCPOT, Hartree potential only
   LELF   =      F    write electronic localiz. function (ELF)
   LORBIT =      0    0 simple, 1 ext, 2 COOP (PROOUT)


 Dipole corrections
   LMONO  =      F    monopole corrections only (constant potential shift)
   LDIPOL =      T    correct potential (dipole corrections)
   IDIPOL =      3    1-x, 2-y, 3-z, 4-all directions 
   EPSILON=  1.0000000 bulk dielectric constant

 Exchange correlation treatment:
   GGA     =    PE    GGA type
   LEXCH   =     8    internal setting for exchange type
   VOSKOWN=      1    Vosko Wilk Nusair interpolation
   LHFCALC =     F    Hartree Fock is set to
   LHFONE  =     F    Hartree Fock one center treatment
   AEXX    =    0.0000 exact exchange contribution

 Linear response parameters
   LEPSILON=     F    determine dielectric tensor
   LRPA    =     F    only Hartree local field effects (RPA)
   LNABLA  =     F    use nabla operator in PAW spheres
   LVEL    =     F    velocity operator in full k-point grid
   LINTERFAST=   F  fast interpolation
   KINTER  =     0    interpolate to denser k-point grid
   CSHIFT  =0.1000    complex shift for real part using Kramers Kronig
   OMEGAMAX=  -1.0    maximum frequency
   DEG_THRESHOLD= 0.2000000E-02 threshold for treating states as degnerate
   RTIME   =    0.100 relaxation time in fs

 Orbital magnetization related:
   ORBITALMAG=     F  switch on orbital magnetization
   LCHIMAG   =     F  perturbation theory with respect to B field
   DQ        =  0.001000  dq finite difference perturbation B field



--------------------------------------------------------------------------------------------------------


 conjugate gradient relaxation of ions
 charge density and potential will be updated during run
 non-spin polarized calculation
 RMM-DIIS sequential band-by-band and
  variant of blocked Davidson during initial phase
 perform sub-space diagonalisation
    before iterative eigenvector-optimisation
 modified Broyden-mixing scheme, WC =      100.0
 initial mixing is a Kerker type mixing with AMIX =  0.4000 and BMIX =      1.0000
 Hartree-type preconditioning will be used
 using additional bands           54
 real space projection scheme for non local part
 use partial core corrections
 calculate Harris-corrections to forces 
   (improved forces if not selfconsistent)
 use gradient corrections 
 use of overlap-Matrix (Vanderbilt PP)
 Gauss-broadening in eV      SIGMA  =   0.10


--------------------------------------------------------------------------------------------------------


  energy-cutoff  :      400.00
  volume of cell :     2567.68
      direct lattice vectors                 reciprocal lattice vectors
    11.002581515  0.000000000  0.000000000     0.090887761 -0.052474073  0.000000000
     5.501290758  9.528515099  0.000000000     0.000000000  0.104948147  0.000000000
     0.000000000  0.000000000 24.491785094     0.000000000  0.000000000  0.040830017

  length of vectors
    11.002581515 11.002581515 24.491785094     0.104948147  0.104948147  0.040830017


 
 k-points in units of 2pi/SCALE and weight: Automatic mesh                          
   0.02272194  0.01311852  0.00000000       0.167
   0.00000000  0.02623704  0.00000000       0.167
  -0.02272194  0.01311852  0.00000000       0.167
  -0.02272194  0.03935555  0.00000000       0.167
   0.04544388 -0.05247407  0.00000000       0.167
  -0.02272194  0.06559259  0.00000000       0.167
 
 k-points in reciprocal lattice and weights: Automatic mesh                          
   0.25000000  0.25000000  0.00000000       0.167
   0.00000000  0.25000000  0.00000000       0.167
  -0.25000000  0.00000000  0.00000000       0.167
  -0.25000000  0.25000000  0.00000000       0.167
   0.50000000 -0.25000000  0.00000000       0.167
  -0.25000000  0.50000000  0.00000000       0.167
 
 position of ions in fractional coordinates (direct lattice) 
   0.25000000  0.75000000  0.59169983
   0.41666667  0.66666667  0.50000000
   0.50000000  0.50000000  0.59169983
   0.66666667  0.91666667  0.50000000
   0.58333333  0.83333333  0.40830017
   0.33333333  0.83333333  0.40830017
   0.25000000  0.50000000  0.59169983
   0.41666667  0.91666667  0.50000000
   0.83333333  0.08333333  0.40830017
   0.66666667  0.16666667  0.50000000
   0.33333333  0.33333333  0.40830017
   0.25000000  0.00000000  0.59169983
   0.58333333  0.58333333  0.40830017
   0.75000000  0.00000000  0.59169983
   0.00000000  0.75000000  0.59169983
   0.83333333  0.33333333  0.40830017
   0.66666667  0.41666667  0.50000000
   0.00000000  0.50000000  0.59169983
   0.75000000  0.25000000  0.59169983
   0.66666667  0.66666667  0.50000000
   0.91666667  0.41666667  0.50000000
   0.75000000  0.50000000  0.59169983
   0.00000000  0.00000000  0.59169983
   0.33333333  0.08333333  0.40830017
   0.50000000  0.75000000  0.59169983
   0.83333333  0.58333333  0.40830017
   0.83333333  0.83333333  0.40830017
   0.50000000  0.25000000  0.59169983
   0.08333333  0.08333333  0.40830017
   0.58333333  0.33333333  0.40830017
   0.91666667  0.16666667  0.50000000
   0.08333333  0.33333333  0.40830017
   0.00000000  0.25000000  0.59169983
   0.08333333  0.58333333  0.40830017
   0.91666667  0.66666667  0.50000000
   0.08333333  0.83333333  0.40830017
   0.91666667  0.91666667  0.50000000
   0.41666667  0.41666667  0.50000000
   0.16666667  0.16666667  0.50000000
   0.25000000  0.25000000  0.59169983
   0.33333333  0.58333333  0.40830017
   0.16666667  0.66666667  0.50000000
   0.16666667  0.91666667  0.50000000
   0.58333333  0.08333333  0.40830017
   0.41666667  0.16666667  0.50000000
   0.50000000  0.00000000  0.59169983
   0.16666667  0.41666667  0.50000000
   0.75000000  0.75000000  0.59169983
 
 position of ions in cartesian coordinates  (Angst):
   6.87661345  7.14638632 14.49178509
   8.25193614  6.35234340 12.24589255
   8.25193614  4.76425755 14.49178509
  12.37790420  8.73447217 12.24589255
  11.00258152  7.94042925 10.00000000
   8.25193614  7.94042925 10.00000000
   5.50129076  4.76425755 14.49178509
   9.62725883  8.73447217 12.24589255
   9.62725883  0.79404292 10.00000000
   8.25193614  1.58808585 12.24589255
   5.50129076  3.17617170 10.00000000
   2.75064538  0.00000000 14.49178509
   9.62725883  5.55830047 10.00000000
   8.25193614  0.00000000 14.49178509
   4.12596807  7.14638632 14.49178509
  11.00258152  3.17617170 10.00000000
   9.62725883  3.97021462 12.24589255
   2.75064538  4.76425755 14.49178509
   9.62725883  2.38212877 14.49178509
  11.00258152  6.35234340 12.24589255
  12.37790420  3.97021462 12.24589255
  11.00258152  4.76425755 14.49178509
   0.00000000  0.00000000 14.49178509
   4.12596807  0.79404292 10.00000000
   9.62725883  7.14638632 14.49178509
  12.37790420  5.55830047 10.00000000
  13.75322689  7.94042925 10.00000000
   6.87661345  2.38212877 14.49178509
   1.37532269  0.79404292 10.00000000
   8.25193614  3.17617170 10.00000000
  11.00258152  1.58808585 12.24589255
   2.75064538  3.17617170 10.00000000
   1.37532269  2.38212877 14.49178509
   4.12596807  5.55830047 10.00000000
  13.75322689  6.35234340 12.24589255
   5.50129076  7.94042925 10.00000000
  15.12854958  8.73447217 12.24589255
   6.87661345  3.97021462 12.24589255
   2.75064538  1.58808585 12.24589255
   4.12596807  2.38212877 14.49178509
   6.87661345  5.55830047 10.00000000
   5.50129076  6.35234340 12.24589255
   6.87661345  8.73447217 12.24589255
   6.87661345  0.79404292 10.00000000
   5.50129076  1.58808585 12.24589255
   5.50129076  0.00000000 14.49178509
   4.12596807  3.97021462 12.24589255
  12.37790420  7.14638632 14.49178509
 


--------------------------------------------------------------------------------------------------------


 k-point  1 :   0.2500 0.2500 0.0000  plane waves:   46635
 k-point  2 :   0.0000 0.2500 0.0000  plane waves:   46635
 k-point  3 :  -0.2500 0.0000 0.0000  plane waves:   46635
 k-point  4 :  -0.2500 0.2500 0.0000  plane waves:   46644
 k-point  5 :   0.5000-0.2500 0.0000  plane waves:   46644
 k-point  6 :  -0.2500 0.5000 0.0000  plane waves:   46644

 maximum and minimum number of plane-waves per node :      7818     7732

 maximum number of plane-waves:     46644
 maximum index in each direction: 
   IXMAX=   18   IYMAX=   18   IZMAX=   39
   IXMIN=  -18   IYMIN=  -18   IZMIN=  -39

 WARNING: aliasing errors must be expected set NGX to  74 to avoid them
 WARNING: aliasing errors must be expected set NGY to  74 to avoid them
 WARNING: aliasing errors must be expected set NGZ to 158 to avoid them
 aliasing errors are usually negligible using standard VASP settings
 and one can safely disregard these warnings

 real space projection operators:
  total allocation   :      12803.06 KBytes
  max/ min on nodes  :       2145.66       2127.94


 parallel 3D FFT for wavefunctions:
    minimum data exchange during FFTs selected (reduces bandwidth)
 parallel 3D FFT for charge:
    minimum data exchange during FFTs selected (reduces bandwidth)


 total amount of memory used by VASP on root node    84353. kBytes
========================================================================

   base      :      30000. kBytes
   nonlr-proj:       4285. kBytes
   fftplans  :       4447. kBytes
   grid      :       6721. kBytes
   one-center:        124. kBytes
   wavefun   :      38776. kBytes
 
     INWAV:  cpu time    0.0000: real time    0.0000
 Broyden mixing: mesh for mixing (old mesh)
   NGX = 35   NGY = 35   NGZ = 79
  (NGX  =108   NGY  =108   NGZ  =240)
  gives a total of  96775 points

 initial charge density was supplied:
 charge density of overlapping atoms calculated
 number of electron     504.0000000 magnetization 
 keeping initial charge density in first step


--------------------------------------------------------------------------------------------------------


 Maximum index for non-local projection operator          355
 Maximum index for augmentation-charges          437 (set IRDMAX)


--------------------------------------------------------------------------------------------------------


 First call to EWALD:  gamma=   0.129
 Maximum number of real-space cells 4x 4x 2
 Maximum number of reciprocal cells 2x 2x 5

 FEWALD executed in parallel
    FEWALD:  cpu time    0.0025: real time    0.0026


----------------------------------------- Iteration    1(   1)  ---------------------------------------


    POTLOK:  cpu time    0.0449: real time    0.0458
    SETDIJ:  cpu time    0.0059: real time    0.0060
     EDDAV:  cpu time    7.1475: real time    7.1680
       DOS:  cpu time    0.0013: real time    0.0013
    --------------------------------------------
      LOOP:  cpu time    7.2023: real time    7.2268

 eigenvalue-minimisations  :  3672
 total energy-change (2. order) : 0.3200185E+04  (-0.1898503E+05)
 number of electron     504.0000000 magnetization 
 augmentation part      504.0000000 magnetization 

 DIPCOR: dipole corrections for dipol
 direction  3 min pos     1,
 dipolmoment           0.000000      0.000000     -0.000002 electrons x Angstroem
 Tr[quadrupol]    -10315.993044

 energy correction for charged system         0.000000 eV
 dipol+quadrupol energy correction           -0.000000 eV
 added-field ion interaction          0.000001 eV  (added to PSCEN)


 Free energy of the ion-electron system (eV)
  ---------------------------------------------------
  alpha Z        PSCENC =       805.86936534
  Ewald energy   TEWEN  =    199940.36706215
  -Hartree energ DENC   =   -242354.25986166
  -exchange      EXHF   =         0.00000000
  -V(xc)+E(xc)   XCENC  =      -327.68836130
  PAW double counting   =     40340.05962942   -38292.62782345
  entropy T*S    EENTRO =        -0.14179158
  eigenvalues    EBANDS =      1428.82096011
  atomic energy  EATOM  =     41659.78587232
  Solvation  Ediel_sol  =         0.00000000
  ---------------------------------------------------
  free energy    TOTEN  =      3200.18505136 eV

  energy without entropy =     3200.32684294  energy(sigma->0) =     3200.25594715


--------------------------------------------------------------------------------------------------------




----------------------------------------- Iteration    1(   2)  ---------------------------------------


     EDDAV:  cpu time    8.3406: real time    8.4325
       DOS:  cpu time    0.0014: real time    0.0014
    --------------------------------------------
      LOOP:  cpu time    8.3428: real time    8.4357

 eigenvalue-minimisations  :  4368
 total energy-change (2. order) :-0.3185896E+04  (-0.2931868E+04)
 number of electron     504.0000000 magnetization 
 augmentation part      504.0000000 magnetization 

 DIPCOR: dipole corrections for dipol
 direction  3 min pos     1,
 dipolmoment           0.000000      0.000000     -0.000002 electrons x Angstroem
 Tr[quadrupol]    -10315.993044

 energy correction for charged system         0.000000 eV
 dipol+quadrupol energy correction           -0.000000 eV
 added-field ion interaction          0.000001 eV  (added to PSCEN)


 Free energy of the ion-electron system (eV)
  ---------------------------------------------------
  alpha Z        PSCENC =       805.86936534
  Ewald energy   TEWEN  =    199940.36706215
  -Hartree energ DENC   =   -242354.25986166
  -exchange      EXHF   =         0.00000000
  -V(xc)+E(xc)   XCENC  =      -327.68836130
  PAW double counting   =     40340.05962942   -38292.62782345
  entropy T*S    EENTRO =        -0.12907609
  eigenvalues    EBANDS =     -1757.08822599
  atomic energy  EATOM  =     41659.78587232
  Solvation  Ediel_sol  =         0.00000000
  ---------------------------------------------------
  free energy    TOTEN  =        14.28858075 eV

  energy without entropy =       14.41765684  energy(sigma->0) =       14.35311879


--------------------------------------------------------------------------------------------------------




----------------------------------------- Iteration    1(   3)  ---------------------------------------


     EDDAV:  cpu time    8.1513: real time    8.1747
       DOS:  cpu time    0.0014: real time    0.0014
    --------------------------------------------
      LOOP:  cpu time    8.1536: real time    8.1784

 eigenvalue-minimisations  :  4116
 total energy-change (2. order) :-0.2158535E+03  (-0.2002500E+03)
 number of electron     504.0000000 magnetization 
 augmentation part      504.0000000 magnetization 

 DIPCOR: dipole corrections for dipol
 direction  3 min pos     1,
 dipolmoment           0.000000      0.000000     -0.000002 electrons x Angstroem
 Tr[quadrupol]    -10315.993044

 energy correction for charged system         0.000000 eV
 dipol+quadrupol energy correction           -0.000000 eV
 added-field ion interaction          0.000001 eV  (added to PSCEN)


 Free energy of the ion-electron system (eV)
  ---------------------------------------------------
  alpha Z        PSCENC =       805.86936534
  Ewald energy   TEWEN  =    199940.36706215
  -Hartree energ DENC   =   -242354.25986166
  -exchange      EXHF   =         0.00000000
  -V(xc)+E(xc)   XCENC  =      -327.68836130
  PAW double counting   =     40340.05962942   -38292.62782345
  entropy T*S    EENTRO =        -0.18500500
  eigenvalues    EBANDS =     -1972.88580763
  atomic energy  EATOM  =     41659.78587232
  Solvation  Ediel_sol  =         0.00000000
  ---------------------------------------------------
  free energy    TOTEN  =      -201.56492981 eV

  energy without entropy =     -201.37992481  energy(sigma->0) =     -201.47242731


--------------------------------------------------------------------------------------------------------




----------------------------------------- Iteration    1(   4)  ---------------------------------------


     EDDAV:  cpu time    8.2291: real time    8.2532
       DOS:  cpu time    0.0014: real time    0.0014
    --------------------------------------------
      LOOP:  cpu time    8.2317: real time    8.2588

 eigenvalue-minimisations  :  4176
 total energy-change (2. order) :-0.5842130E+01  (-0.5780758E+01)
 number of electron     504.0000000 magnetization 
 augmentation part      504.0000000 magnetization 

 DIPCOR: dipole corrections for dipol
 direction  3 min pos     1,
 dipolmoment           0.000000      0.000000     -0.000002 electrons x Angstroem
 Tr[quadrupol]    -10315.993044

 energy correction for charged system         0.000000 eV
 dipol+quadrupol energy correction           -0.000000 eV
 added-field ion interaction          0.000001 eV  (added to PSCEN)


 Free energy of the ion-electron system (eV)
  ---------------------------------------------------
  alpha Z        PSCENC =       805.86936534
  Ewald energy   TEWEN  =    199940.36706215
  -Hartree energ DENC   =   -242354.25986166
  -exchange      EXHF   =         0.00000000
  -V(xc)+E(xc)   XCENC  =      -327.68836130
  PAW double counting   =     40340.05962942   -38292.62782345
  entropy T*S    EENTRO =        -0.19734607
  eigenvalues    EBANDS =     -1978.71559691
  atomic energy  EATOM  =     41659.78587232
  Solvation  Ediel_sol  =         0.00000000
  ---------------------------------------------------
  free energy    TOTEN  =      -207.40706016 eV

  energy without entropy =     -207.20971409  energy(sigma->0) =     -207.30838712


--------------------------------------------------------------------------------------------------------




----------------------------------------- Iteration    1(   5)  ---------------------------------------


     EDDAV:  cpu time    8.6354: real time    8.6708
       DOS:  cpu time    0.0014: real time    0.0014
    CHARGE:  cpu time    0.2191: real time    0.2196
    MIXING:  cpu time    0.0022: real time    0.0022
    --------------------------------------------
      LOOP:  cpu time    8.8591: real time    8.8982

 eigenvalue-minimisations  :  4452
 total energy-change (2. order) :-0.1967260E+00  (-0.1960043E+00)
 number of electron     503.9998403 magnetization 
 augmentation part      191.2723657 magnetization 

 DIPCOR: dipole corrections for dipol
 direction  3 min pos     1,
 dipolmoment           0.000000      0.000000     -0.000002 electrons x Angstroem
 Tr[quadrupol]    -10315.993044

 energy correction for charged system         0.000000 eV
 dipol+quadrupol energy correction           -0.000000 eV
 added-field ion interaction          0.000001 eV  (added to PSCEN)


 Broyden mixing:
  rms(total) = 0.62352E+01    rms(broyden)= 0.62351E+01
  rms(prec ) = 0.63868E+01
  weight for this iteration     100.00

 Free energy of the ion-electron system (eV)
  ---------------------------------------------------
  alpha Z        PSCENC =       805.86936534
  Ewald energy   TEWEN  =    199940.36706215
  -Hartree energ DENC   =   -242354.25986166
  -exchange      EXHF   =         0.00000000
  -V(xc)+E(xc)   XCENC  =      -327.68836130
  PAW double counting   =     40340.05962942   -38292.62782345
  entropy T*S    EENTRO =        -0.19743040
  eigenvalues    EBANDS =     -1978.91223855
  atomic energy  EATOM  =     41659.78587232
  Solvation  Ediel_sol  =         0.00000000
  ---------------------------------------------------
  free energy    TOTEN  =      -207.60378613 eV

  energy without entropy =     -207.40635572  energy(sigma->0) =     -207.50507093


--------------------------------------------------------------------------------------------------------




----------------------------------------- Iteration    1(   6)  ---------------------------------------


    POTLOK:  cpu time    0.0412: real time    0.0415
    SETDIJ:  cpu time    0.0059: real time    0.0060
    EDDIAG:  cpu time    1.2844: real time    1.2880
  RMM-DIIS:  cpu time    3.3692: real time    3.3773
    ORTHCH:  cpu time    0.3530: real time    0.3539
       DOS:  cpu time    0.0014: real time    0.0014
    CHARGE:  cpu time    0.2264: real time    0.2270
    MIXING:  cpu time    0.0020: real time    0.0020
    --------------------------------------------
      LOOP:  cpu time    5.2842: real time    5.3003

 eigenvalue-minimisations  :  3678
 total energy-change (2. order) :-0.1233171E+00  (-0.1060887E+02)
 number of electron     503.9998436 magnetization 
 augmentation part      190.3681037 magnetization 

 DIPCOR: dipole corrections for dipol
 direction  3 min pos     1,
 dipolmoment           0.000000      0.000000     -1.012843 electrons x Angstroem
 Tr[quadrupol]    -10318.054266

 energy correction for charged system         0.000000 eV
 dipol+quadrupol energy correction           -0.036148 eV
 added-field ion interaction          0.480934 eV  (added to PSCEN)


 Broyden mixing:
  rms(total) = 0.60246E+01    rms(broyden)= 0.60244E+01
  rms(prec ) = 0.64666E+01
  weight for this iteration     100.00

 eigenvalues of (default mixing * dielectric matrix)
  average eigenvalue GAMMA=   0.5715
  0.5715

 Free energy of the ion-electron system (eV)
  ---------------------------------------------------
  alpha Z        PSCENC =       806.31414994
  Ewald energy   TEWEN  =    199940.36706215
  -Hartree energ DENC   =   -242123.54067360
  -exchange      EXHF   =         0.00000000
  -V(xc)+E(xc)   XCENC  =      -340.41818056
  PAW double counting   =     43908.14110641   -41920.19249402
  entropy T*S    EENTRO =        -0.24259993
  eigenvalues    EBANDS =     -2137.94134599
  atomic energy  EATOM  =     41659.78587232
  Solvation  Ediel_sol  =         0.00000000
  ---------------------------------------------------
  free energy    TOTEN  =      -207.72710327 eV

  energy without entropy =     -207.48450335  energy(sigma->0) =     -207.60580331


--------------------------------------------------------------------------------------------------------




----------------------------------------- Iteration    1(   7)  ---------------------------------------


    POTLOK:  cpu time    0.0406: real time    0.0416
    SETDIJ:  cpu time    0.0053: real time    0.0060
    EDDIAG:  cpu time    1.2863: real time    1.2915
  RMM-DIIS:  cpu time    3.4158: real time    3.4249
    ORTHCH:  cpu time    0.3519: real time    0.3528
       DOS:  cpu time    0.0013: real time    0.0013
    CHARGE:  cpu time    0.2156: real time    0.2162
    MIXING:  cpu time    0.0019: real time    0.0019
    --------------------------------------------
      LOOP:  cpu time    5.3195: real time    5.3399

 eigenvalue-minimisations  :  3680
 total energy-change (2. order) :-0.4809672E+01  (-0.5852994E+01)
 number of electron     503.9998374 magnetization 
 augmentation part      194.5394482 magnetization 

 DIPCOR: dipole corrections for dipol
 direction  3 min pos     1,
 dipolmoment           0.000000      0.000000      1.135928 electrons x Angstroem
 Tr[quadrupol]    -10316.379897

 energy correction for charged system         0.000000 eV
 dipol+quadrupol energy correction           -0.045468 eV
 added-field ion interaction         -0.539379 eV  (added to PSCEN)


 Broyden mixing:
  rms(total) = 0.50976E+01    rms(broyden)= 0.50973E+01
  rms(prec ) = 0.59398E+01
  weight for this iteration     100.00

 eigenvalues of (default mixing * dielectric matrix)
  average eigenvalue GAMMA=   0.7195
  1.1333  0.3058

 Free energy of the ion-electron system (eV)
  ---------------------------------------------------
  alpha Z        PSCENC =       805.28451722
  Ewald energy   TEWEN  =    199940.36706215
  -Hartree energ DENC   =   -241976.93067639
  -exchange      EXHF   =         0.00000000
  -V(xc)+E(xc)   XCENC  =      -342.45538663
  PAW double counting   =     44977.46866483   -43011.05689814
  entropy T*S    EENTRO =        -0.22439159
  eigenvalues    EBANDS =     -2264.77553877
  atomic energy  EATOM  =     41659.78587232
  Solvation  Ediel_sol  =         0.00000000
  ---------------------------------------------------
  free energy    TOTEN  =      -212.53677501 eV

  energy without entropy =     -212.31238341  energy(sigma->0) =     -212.42457921


--------------------------------------------------------------------------------------------------------




----------------------------------------- Iteration    1(   8)  ---------------------------------------


    POTLOK:  cpu time    0.0408: real time    0.0410
    SETDIJ:  cpu time    0.0051: real time    0.0053
    EDDIAG:  cpu time    1.2855: real time    1.2888
  RMM-DIIS:  cpu time    3.4282: real time    3.4599
    ORTHCH:  cpu time    0.3433: real time    0.3719
       DOS:  cpu time    0.0014: real time    0.0014
    CHARGE:  cpu time    0.2224: real time    0.2414
    MIXING:  cpu time    0.0019: real time    0.0020
    --------------------------------------------
      LOOP:  cpu time    5.3292: real time    5.4152

 eigenvalue-minimisations  :  3678
 total energy-change (2. order) :-0.9424336E+01  (-0.9010686E+01)
 number of electron     503.9998358 magnetization 
 augmentation part      196.0993208 magnetization 

 DIPCOR: dipole corrections for dipol
 direction  3 min pos     1,
 dipolmoment           0.000000      0.000000     -1.624200 electrons x Angstroem
 Tr[quadrupol]    -10317.302510

 energy correction for charged system         0.000000 eV
 dipol+quadrupol energy correction           -0.092957 eV
 added-field ion interaction          0.771228 eV  (added to PSCEN)


 Broyden mixing:
  rms(total) = 0.46671E+01    rms(broyden)= 0.46668E+01
  rms(prec ) = 0.55153E+01
  weight for this iteration     100.00

 eigenvalues of (default mixing * dielectric matrix)
  average eigenvalue GAMMA=   0.8000
  1.7812  0.3922  0.2265

 Free energy of the ion-electron system (eV)
  ---------------------------------------------------
  alpha Z        PSCENC =       806.54763495
  Ewald energy   TEWEN  =    199940.36706215
  -Hartree energ DENC   =   -241934.08587284
  -exchange      EXHF   =         0.00000000
  -V(xc)+E(xc)   XCENC  =      -344.44561392
  PAW double counting   =     46374.12363427   -44431.43865806
  entropy T*S    EENTRO =        -0.25120033
  eigenvalues    EBANDS =     -2292.56396950
  atomic energy  EATOM  =     41659.78587232
  Solvation  Ediel_sol  =         0.00000000
  ---------------------------------------------------
  free energy    TOTEN  =      -221.96111097 eV

  energy without entropy =     -221.70991064  energy(sigma->0) =     -221.83551081


--------------------------------------------------------------------------------------------------------




----------------------------------------- Iteration    1(   9)  ---------------------------------------


    POTLOK:  cpu time    0.0397: real time    0.0413
    SETDIJ:  cpu time    0.0050: real time    0.0052
    EDDIAG:  cpu time    1.2767: real time    1.2841
  RMM-DIIS:  cpu time    3.4102: real time    3.4184
    ORTHCH:  cpu time    0.3515: real time    0.3524
       DOS:  cpu time    0.0013: real time    0.0013
    CHARGE:  cpu time    0.2190: real time    0.2196
    MIXING:  cpu time    0.0020: real time    0.0020
    --------------------------------------------
      LOOP:  cpu time    5.3063: real time    5.3278

 eigenvalue-minimisations  :  3677
 total energy-change (2. order) : 0.4910127E+01  (-0.6803600E+01)
 number of electron     503.9998339 magnetization 
 augmentation part      198.2679057 magnetization 

 DIPCOR: dipole corrections for dipol
 direction  3 min pos     1,
 dipolmoment           0.000000      0.000000      0.498266 electrons x Angstroem
 Tr[quadrupol]    -10318.502932

 energy correction for charged system         0.000000 eV
 dipol+quadrupol energy correction           -0.008748 eV
 added-field ion interaction         -0.236594 eV  (added to PSCEN)


 Broyden mixing:
  rms(total) = 0.40265E+01    rms(broyden)= 0.40262E+01
  rms(prec ) = 0.44315E+01
  weight for this iteration     100.00

 eigenvalues of (default mixing * dielectric matrix)
  average eigenvalue GAMMA=   0.7616
  2.1073  0.3761  0.2816  0.2816

 Free energy of the ion-electron system (eV)
  ---------------------------------------------------
  alpha Z        PSCENC =       805.62402168
  Ewald energy   TEWEN  =    199940.36706215
  -Hartree energ DENC   =   -241928.16990030
  -exchange      EXHF   =         0.00000000
  -V(xc)+E(xc)   XCENC  =      -346.21961329
  PAW double counting   =     47897.05055592   -45978.16589302
  entropy T*S    EENTRO =        -0.23136920
  eigenvalues    EBANDS =     -2267.09172018
  atomic energy  EATOM  =     41659.78587232
  Solvation  Ediel_sol  =         0.00000000
  ---------------------------------------------------
  free energy    TOTEN  =      -217.05098393 eV

  energy without entropy =     -216.81961472  energy(sigma->0) =     -216.93529932


--------------------------------------------------------------------------------------------------------




----------------------------------------- Iteration    1(  10)  ---------------------------------------


    POTLOK:  cpu time    0.0399: real time    0.0408
    SETDIJ:  cpu time    0.0052: real time    0.0052
    EDDIAG:  cpu time    1.2837: real time    1.2887
  RMM-DIIS:  cpu time    3.4434: real time    3.4537
    ORTHCH:  cpu time    0.3519: real time    0.3527
       DOS:  cpu time    0.0013: real time    0.0013
    CHARGE:  cpu time    0.2237: real time    0.2242
    MIXING:  cpu time    0.0021: real time    0.0021
    --------------------------------------------
      LOOP:  cpu time    5.3519: real time    5.3717

 eigenvalue-minimisations  :  3680
 total energy-change (2. order) : 0.1455772E+02  (-0.2292394E+01)
 number of electron     503.9998340 magnetization 
 augmentation part      198.9406823 magnetization 

 DIPCOR: dipole corrections for dipol
 direction  3 min pos     1,
 dipolmoment           0.000000      0.000000     -0.538604 electrons x Angstroem
 Tr[quadrupol]    -10317.092821

 energy correction for charged system         0.000000 eV
 dipol+quadrupol energy correction           -0.010222 eV
 added-field ion interaction          0.255749 eV  (added to PSCEN)


 Broyden mixing:
  rms(total) = 0.26179E+01    rms(broyden)= 0.26176E+01
  rms(prec ) = 0.30202E+01
  weight for this iteration     100.00

 eigenvalues of (default mixing * dielectric matrix)
  average eigenvalue GAMMA=   0.7351
  2.2662  0.4101  0.4101  0.3698  0.2194

 Free energy of the ion-electron system (eV)
  ---------------------------------------------------
  alpha Z        PSCENC =       806.11489064
  Ewald energy   TEWEN  =    199940.36706215
  -Hartree energ DENC   =   -241880.06034144
  -exchange      EXHF   =         0.00000000
  -V(xc)+E(xc)   XCENC  =      -346.39423040
  PAW double counting   =     48783.45249708   -46875.29724626
  entropy T*S    EENTRO =        -0.17251240
  eigenvalues    EBANDS =     -2290.28925066
  atomic energy  EATOM  =     41659.78587232
  Solvation  Ediel_sol  =         0.00000000
  ---------------------------------------------------
  free energy    TOTEN  =      -202.49325896 eV

  energy without entropy =     -202.32074656  energy(sigma->0) =     -202.40700276


--------------------------------------------------------------------------------------------------------




----------------------------------------- Iteration    1(  11)  ---------------------------------------


    POTLOK:  cpu time    0.0405: real time    0.0407
    SETDIJ:  cpu time    0.0051: real time    0.0052
    EDDIAG:  cpu time    1.2801: real time    1.2832
  RMM-DIIS:  cpu time    3.4443: real time    3.4526
    ORTHCH:  cpu time    0.3540: real time    0.3548
       DOS:  cpu time    0.0014: real time    0.0014
    CHARGE:  cpu time    0.2139: real time    0.2144
    MIXING:  cpu time    0.0024: real time    0.0024
    --------------------------------------------
      LOOP:  cpu time    5.3423: real time    5.3578

 eigenvalue-minimisations  :  3680
 total energy-change (2. order) : 0.7186508E+01  (-0.1785116E+01)
 number of electron     503.9998342 magnetization 
 augmentation part      198.9154216 magnetization 

 DIPCOR: dipole corrections for dipol
 direction  3 min pos     1,
 dipolmoment           0.000000      0.000000     -0.114897 electrons x Angstroem
 Tr[quadrupol]    -10318.609410

 energy correction for charged system         0.000000 eV
 dipol+quadrupol energy correction           -0.000465 eV
 added-field ion interaction          0.054557 eV  (added to PSCEN)


 Broyden mixing:
  rms(total) = 0.16973E+01    rms(broyden)= 0.16970E+01
  rms(prec ) = 0.19360E+01
  weight for this iteration     100.00

 eigenvalues of (default mixing * dielectric matrix)
  average eigenvalue GAMMA=   0.7013
  2.1883  0.5841  0.5841  0.3171  0.3171  0.2171

 Free energy of the ion-electron system (eV)
  ---------------------------------------------------
  alpha Z        PSCENC =       805.92345647
  Ewald energy   TEWEN  =    199940.36706215
  -Hartree energ DENC   =   -241949.07257211
  -exchange      EXHF   =         0.00000000
  -V(xc)+E(xc)   XCENC  =      -346.21809474
  PAW double counting   =     49144.48114066   -47237.83734276
  entropy T*S    EENTRO =        -0.15625807
  eigenvalues    EBANDS =     -2212.58001493
  atomic energy  EATOM  =     41659.78587232
  Solvation  Ediel_sol  =         0.00000000
  ---------------------------------------------------
  free energy    TOTEN  =      -195.30675100 eV

  energy without entropy =     -195.15049293  energy(sigma->0) =     -195.22862197


--------------------------------------------------------------------------------------------------------




----------------------------------------- Iteration    1(  12)  ---------------------------------------


    POTLOK:  cpu time    0.0402: real time    0.0403
    SETDIJ:  cpu time    0.0054: real time    0.0054
    EDDIAG:  cpu time    1.2804: real time    1.2846
  RMM-DIIS:  cpu time    3.3913: real time    3.4007
    ORTHCH:  cpu time    0.3478: real time    0.3501
       DOS:  cpu time    0.0014: real time    0.0014
    CHARGE:  cpu time    0.2168: real time    0.2174
    MIXING:  cpu time    0.0025: real time    0.0025
    --------------------------------------------
      LOOP:  cpu time    5.2866: real time    5.3049

 eigenvalue-minimisations  :  3679
 total energy-change (2. order) : 0.4386369E+01  (-0.9042770E+00)
 number of electron     503.9998352 magnetization 
 augmentation part      197.8782312 magnetization 

 DIPCOR: dipole corrections for dipol
 direction  3 min pos     1,
 dipolmoment           0.000000      0.000000     -0.156691 electrons x Angstroem
 Tr[quadrupol]    -10318.111961

 energy correction for charged system         0.000000 eV
 dipol+quadrupol energy correction           -0.000865 eV
 added-field ion interaction          0.074402 eV  (added to PSCEN)


 Broyden mixing:
  rms(total) = 0.14936E+01    rms(broyden)= 0.14934E+01
  rms(prec ) = 0.16914E+01
  weight for this iteration     100.00

 eigenvalues of (default mixing * dielectric matrix)
  average eigenvalue GAMMA=   0.6525
  2.2453  0.5606  0.5606  0.3332  0.3332  0.2111  0.3239

 Free energy of the ion-electron system (eV)
  ---------------------------------------------------
  alpha Z        PSCENC =       805.94290138
  Ewald energy   TEWEN  =    199940.36706215
  -Hartree energ DENC   =   -241971.69656467
  -exchange      EXHF   =         0.00000000
  -V(xc)+E(xc)   XCENC  =      -345.07804986
  PAW double counting   =     49172.12961463   -47260.39668823
  entropy T*S    EENTRO =        -0.18674852
  eigenvalues    EBANDS =     -2191.78778084
  atomic energy  EATOM  =     41659.78587232
  Solvation  Ediel_sol  =         0.00000000
  ---------------------------------------------------
  free energy    TOTEN  =      -190.92038164 eV

  energy without entropy =     -190.73363312  energy(sigma->0) =     -190.82700738


--------------------------------------------------------------------------------------------------------




----------------------------------------- Iteration    1(  13)  ---------------------------------------


    POTLOK:  cpu time    0.0408: real time    0.0409
    SETDIJ:  cpu time    0.0052: real time    0.0052
    EDDIAG:  cpu time    1.2748: real time    1.2778
  RMM-DIIS:  cpu time    3.4367: real time    3.4450
    ORTHCH:  cpu time    0.3478: real time    0.3486
       DOS:  cpu time    0.0014: real time    0.0014
    CHARGE:  cpu time    0.2195: real time    0.2213
    MIXING:  cpu time    0.0027: real time    0.0027
    --------------------------------------------
      LOOP:  cpu time    5.3295: real time    5.3468

 eigenvalue-minimisations  :  3680
 total energy-change (2. order) : 0.1398653E+01  (-0.2853444E+00)
 number of electron     503.9998354 magnetization 
 augmentation part      197.7026284 magnetization 

 DIPCOR: dipole corrections for dipol
 direction  3 min pos     1,
 dipolmoment           0.000000      0.000000     -0.141354 electrons x Angstroem
 Tr[quadrupol]    -10318.709903

 energy correction for charged system         0.000000 eV
 dipol+quadrupol energy correction           -0.000704 eV
 added-field ion interaction          0.067120 eV  (added to PSCEN)


 Broyden mixing:
  rms(total) = 0.82381E+00    rms(broyden)= 0.82362E+00
  rms(prec ) = 0.91859E+00
  weight for this iteration     100.00

 eigenvalues of (default mixing * dielectric matrix)
  average eigenvalue GAMMA=   0.6325
  2.2449  0.6099  0.6099  0.5153  0.3163  0.3163  0.2173  0.2300

 Free energy of the ion-electron system (eV)
  ---------------------------------------------------
  alpha Z        PSCENC =       805.93578006
  Ewald energy   TEWEN  =    199940.36706215
  -Hartree energ DENC   =   -241996.32114579
  -exchange      EXHF   =         0.00000000
  -V(xc)+E(xc)   XCENC  =      -344.93156270
  PAW double counting   =     49258.87777707   -47346.58939240
  entropy T*S    EENTRO =        -0.24917697
  eigenvalues    EBANDS =     -2166.39694274
  atomic energy  EATOM  =     41659.78587232
  Solvation  Ediel_sol  =         0.00000000
  ---------------------------------------------------
  free energy    TOTEN  =      -189.52172899 eV

  energy without entropy =     -189.27255203  energy(sigma->0) =     -189.39714051


--------------------------------------------------------------------------------------------------------




----------------------------------------- Iteration    1(  14)  ---------------------------------------


    POTLOK:  cpu time    0.0406: real time    0.0409
    SETDIJ:  cpu time    0.0053: real time    0.0061
    EDDIAG:  cpu time    1.2784: real time    1.2823
  RMM-DIIS:  cpu time    3.4851: real time    3.4938
    ORTHCH:  cpu time    0.3480: real time    0.3490
       DOS:  cpu time    0.0014: real time    0.0014
    CHARGE:  cpu time    0.2234: real time    0.2239
    MIXING:  cpu time    0.0027: real time    0.0027
    --------------------------------------------
      LOOP:  cpu time    5.3855: real time    5.4039

 eigenvalue-minimisations  :  3678
 total energy-change (2. order) : 0.4610094E+00  (-0.7888089E-01)
 number of electron     503.9998355 magnetization 
 augmentation part      197.6751182 magnetization 

 DIPCOR: dipole corrections for dipol
 direction  3 min pos     1,
 dipolmoment           0.000000      0.000000     -0.121226 electrons x Angstroem
 Tr[quadrupol]    -10318.870619

 energy correction for charged system         0.000000 eV
 dipol+quadrupol energy correction           -0.000518 eV
 added-field ion interaction          0.057562 eV  (added to PSCEN)


 Broyden mixing:
  rms(total) = 0.67410E+00    rms(broyden)= 0.67401E+00
  rms(prec ) = 0.71414E+00
  weight for this iteration     100.00

 eigenvalues of (default mixing * dielectric matrix)
  average eigenvalue GAMMA=   0.6336
  2.2303  0.7652  0.7652  0.5851  0.3267  0.3267  0.2087  0.2473  0.2473

 Free energy of the ion-electron system (eV)
  ---------------------------------------------------
  alpha Z        PSCENC =       805.92640863
  Ewald energy   TEWEN  =    199940.36706215
  -Hartree energ DENC   =   -242006.87799805
  -exchange      EXHF   =         0.00000000
  -V(xc)+E(xc)   XCENC  =      -344.78696887
  PAW double counting   =     49275.17587812   -47361.86360248
  entropy T*S    EENTRO =        -0.25294537
  eigenvalues    EBANDS =     -2156.53442606
  atomic energy  EATOM  =     41659.78587232
  Solvation  Ediel_sol  =         0.00000000
  ---------------------------------------------------
  free energy    TOTEN  =      -189.06071962 eV

  energy without entropy =     -188.80777424  energy(sigma->0) =     -188.93424693


--------------------------------------------------------------------------------------------------------




----------------------------------------- Iteration    1(  15)  ---------------------------------------


    POTLOK:  cpu time    0.0399: real time    0.0400
    SETDIJ:  cpu time    0.0054: real time    0.0055
    EDDIAG:  cpu time    1.2818: real time    1.2860
  RMM-DIIS:  cpu time    3.4178: real time    3.4262
    ORTHCH:  cpu time    0.3477: real time    0.3486
       DOS:  cpu time    0.0014: real time    0.0014
    CHARGE:  cpu time    0.2129: real time    0.2134
    MIXING:  cpu time    0.0027: real time    0.0027
    --------------------------------------------
      LOOP:  cpu time    5.3104: real time    5.3275

 eigenvalue-minimisations  :  3680
 total energy-change (2. order) :-0.5543349E-01  (-0.4844324E-01)
 number of electron     503.9998356 magnetization 
 augmentation part      197.4996502 magnetization 

 DIPCOR: dipole corrections for dipol
 direction  3 min pos     1,
 dipolmoment           0.000000      0.000000     -0.105220 electrons x Angstroem
 Tr[quadrupol]    -10319.064188

 energy correction for charged system         0.000000 eV
 dipol+quadrupol energy correction           -0.000390 eV
 added-field ion interaction          0.049962 eV  (added to PSCEN)


 Broyden mixing:
  rms(total) = 0.65386E+00    rms(broyden)= 0.65381E+00
  rms(prec ) = 0.72104E+00
  weight for this iteration     100.00

 eigenvalues of (default mixing * dielectric matrix)
  average eigenvalue GAMMA=   0.6652
  2.1876  1.0262  1.0262  0.6218  0.4056  0.4056  0.2766  0.2766  0.2128  0.2128

 Free energy of the ion-electron system (eV)
  ---------------------------------------------------
  alpha Z        PSCENC =       805.91893640
  Ewald energy   TEWEN  =    199940.36706215
  -Hartree energ DENC   =   -242019.13570471
  -exchange      EXHF   =         0.00000000
  -V(xc)+E(xc)   XCENC  =      -344.59177319
  PAW double counting   =     49280.10612557   -47365.32302639
  entropy T*S    EENTRO =        -0.24144629
  eigenvalues    EBANDS =     -2146.00219897
  atomic energy  EATOM  =     41659.78587232
  Solvation  Ediel_sol  =         0.00000000
  ---------------------------------------------------
  free energy    TOTEN  =      -189.11615311 eV

  energy without entropy =     -188.87470682  energy(sigma->0) =     -188.99542997


--------------------------------------------------------------------------------------------------------




----------------------------------------- Iteration    1(  16)  ---------------------------------------


    POTLOK:  cpu time    0.0396: real time    0.0396
    SETDIJ:  cpu time    0.0050: real time    0.0050
    EDDIAG:  cpu time    1.2829: real time    1.2870
  RMM-DIIS:  cpu time    3.4160: real time    3.5152
    ORTHCH:  cpu time    0.3467: real time    0.3515
       DOS:  cpu time    0.0014: real time    0.0014
    CHARGE:  cpu time    0.2160: real time    0.2166
    MIXING:  cpu time    0.0028: real time    0.0028
    --------------------------------------------
      LOOP:  cpu time    5.3112: real time    5.4224

 eigenvalue-minimisations  :  3678
 total energy-change (2. order) : 0.1413182E-01  (-0.3697424E-01)
 number of electron     503.9998358 magnetization 
 augmentation part      197.3498279 magnetization 

 DIPCOR: dipole corrections for dipol
 direction  3 min pos     1,
 dipolmoment           0.000000      0.000000     -0.090493 electrons x Angstroem
 Tr[quadrupol]    -10319.375693

 energy correction for charged system         0.000000 eV
 dipol+quadrupol energy correction           -0.000289 eV
 added-field ion interaction          0.042969 eV  (added to PSCEN)


 Broyden mixing:
  rms(total) = 0.58771E+00    rms(broyden)= 0.58767E+00
  rms(prec ) = 0.66738E+00
  weight for this iteration     100.00

 eigenvalues of (default mixing * dielectric matrix)
  average eigenvalue GAMMA=   0.6836
  2.1430  1.2836  1.2836  0.6236  0.4564  0.4564  0.3039  0.3039  0.2413  0.2119
  0.2119

 Free energy of the ion-electron system (eV)
  ---------------------------------------------------
  alpha Z        PSCENC =       805.91204484
  Ewald energy   TEWEN  =    199940.36706215
  -Hartree energ DENC   =   -242036.81254452
  -exchange      EXHF   =         0.00000000
  -V(xc)+E(xc)   XCENC  =      -344.34406520
  PAW double counting   =     49275.55886151   -47358.80171391
  entropy T*S    EENTRO =        -0.25898205
  eigenvalues    EBANDS =     -2130.50855642
  atomic energy  EATOM  =     41659.78587232
  Solvation  Ediel_sol  =         0.00000000
  ---------------------------------------------------
  free energy    TOTEN  =      -189.10202128 eV

  energy without entropy =     -188.84303923  energy(sigma->0) =     -188.97253026


--------------------------------------------------------------------------------------------------------




----------------------------------------- Iteration    1(  17)  ---------------------------------------


    POTLOK:  cpu time    0.0396: real time    0.0397
    SETDIJ:  cpu time    0.0051: real time    0.0051
    EDDIAG:  cpu time    1.2777: real time    1.2816
  RMM-DIIS:  cpu time    3.4533: real time    3.4617
    ORTHCH:  cpu time    0.3472: real time    0.3480
       DOS:  cpu time    0.0014: real time    0.0014
    CHARGE:  cpu time    0.2182: real time    0.2187
    MIXING:  cpu time    0.0030: real time    0.0030
    --------------------------------------------
      LOOP:  cpu time    5.3461: real time    5.3627

 eigenvalue-minimisations  :  3680
 total energy-change (2. order) : 0.1771185E+00  (-0.3726508E-01)
 number of electron     503.9998359 magnetization 
 augmentation part      197.2811665 magnetization 

 DIPCOR: dipole corrections for dipol
 direction  3 min pos     1,
 dipolmoment           0.000000      0.000000     -0.086084 electrons x Angstroem
 Tr[quadrupol]    -10319.715215

 energy correction for charged system         0.000000 eV
 dipol+quadrupol energy correction           -0.000261 eV
 added-field ion interaction          0.040876 eV  (added to PSCEN)


 Broyden mixing:
  rms(total) = 0.44394E+00    rms(broyden)= 0.44388E+00
  rms(prec ) = 0.51791E+00
  weight for this iteration     100.00

 eigenvalues of (default mixing * dielectric matrix)
  average eigenvalue GAMMA=   0.6974
  2.0997  1.4921  1.4921  0.5602  0.5602  0.5597  0.3401  0.3401  0.2554  0.2554
  0.2071  0.2071

 Free energy of the ion-electron system (eV)
  ---------------------------------------------------
  alpha Z        PSCENC =       805.90997904
  Ewald energy   TEWEN  =    199940.36706215
  -Hartree energ DENC   =   -242055.47467628
  -exchange      EXHF   =         0.00000000
  -V(xc)+E(xc)   XCENC  =      -344.09834150
  PAW double counting   =     49283.30927352   -47364.67937391
  entropy T*S    EENTRO =        -0.25598065
  eigenvalues    EBANDS =     -2113.78871750
  atomic energy  EATOM  =     41659.78587232
  Solvation  Ediel_sol  =         0.00000000
  ---------------------------------------------------
  free energy    TOTEN  =      -188.92490283 eV

  energy without entropy =     -188.66892218  energy(sigma->0) =     -188.79691250


--------------------------------------------------------------------------------------------------------




----------------------------------------- Iteration    1(  18)  ---------------------------------------


    POTLOK:  cpu time    0.0397: real time    0.0398
    SETDIJ:  cpu time    0.0051: real time    0.0051
    EDDIAG:  cpu time    1.2792: real time    1.2823
  RMM-DIIS:  cpu time    3.4608: real time    3.4787
    ORTHCH:  cpu time    0.3475: real time    0.3484
       DOS:  cpu time    0.0014: real time    0.0014
    CHARGE:  cpu time    0.2225: real time    0.2230
    MIXING:  cpu time    0.0032: real time    0.0032
    --------------------------------------------
      LOOP:  cpu time    5.3600: real time    5.3853

 eigenvalue-minimisations  :  3678
 total energy-change (2. order) : 0.1473245E+00  (-0.2418862E-01)
 number of electron     503.9998359 magnetization 
 augmentation part      197.1835934 magnetization 

 DIPCOR: dipole corrections for dipol
 direction  3 min pos     1,
 dipolmoment           0.000000      0.000000     -0.093783 electrons x Angstroem
 Tr[quadrupol]    -10320.016698

 energy correction for charged system         0.000000 eV
 dipol+quadrupol energy correction           -0.000310 eV
 added-field ion interaction          0.044532 eV  (added to PSCEN)


 Broyden mixing:
  rms(total) = 0.33112E+00    rms(broyden)= 0.33107E+00
  rms(prec ) = 0.38291E+00
  weight for this iteration     100.00

 eigenvalues of (default mixing * dielectric matrix)
  average eigenvalue GAMMA=   0.6938
  2.1585  1.6013  1.6013  0.6369  0.6369  0.4842  0.3574  0.3574  0.2772  0.2772
  0.2163  0.2163  0.1984

 Free energy of the ion-electron system (eV)
  ---------------------------------------------------
  alpha Z        PSCENC =       805.91358597
  Ewald energy   TEWEN  =    199940.36706215
  -Hartree energ DENC   =   -242072.29932681
  -exchange      EXHF   =         0.00000000
  -V(xc)+E(xc)   XCENC  =      -343.86247445
  PAW double counting   =     49307.26532541   -47386.99436429
  entropy T*S    EENTRO =        -0.26140562
  eigenvalues    EBANDS =     -2098.69185297
  atomic energy  EATOM  =     41659.78587232
  Solvation  Ediel_sol  =         0.00000000
  ---------------------------------------------------
  free energy    TOTEN  =      -188.77757830 eV

  energy without entropy =     -188.51617268  energy(sigma->0) =     -188.64687549


--------------------------------------------------------------------------------------------------------




----------------------------------------- Iteration    1(  19)  ---------------------------------------


    POTLOK:  cpu time    0.0396: real time    0.0397
    SETDIJ:  cpu time    0.0051: real time    0.0051
    EDDIAG:  cpu time    1.2903: real time    1.2979
  RMM-DIIS:  cpu time    3.4081: real time    3.4294
    ORTHCH:  cpu time    0.3465: real time    0.3584
       DOS:  cpu time    0.0014: real time    0.0014
    CHARGE:  cpu time    0.2115: real time    0.2186
    MIXING:  cpu time    0.0035: real time    0.0036
    --------------------------------------------
      LOOP:  cpu time    5.3067: real time    5.3566

 eigenvalue-minimisations  :  3678
 total energy-change (2. order) : 0.1142388E+00  (-0.1057173E-01)
 number of electron     503.9998361 magnetization 
 augmentation part      197.1491931 magnetization 

 DIPCOR: dipole corrections for dipol
 direction  3 min pos     1,
 dipolmoment           0.000000      0.000000     -0.103303 electrons x Angstroem
 Tr[quadrupol]    -10320.182498

 energy correction for charged system         0.000000 eV
 dipol+quadrupol energy correction           -0.000376 eV
 added-field ion interaction          0.049052 eV  (added to PSCEN)


 Broyden mixing:
  rms(total) = 0.15117E+00    rms(broyden)= 0.15112E+00
  rms(prec ) = 0.18268E+00
  weight for this iteration     100.00

 eigenvalues of (default mixing * dielectric matrix)
  average eigenvalue GAMMA=   0.6879
  2.2168  1.6306  1.6306  0.6816  0.6816  0.4337  0.4337  0.3832  0.3202  0.3202
  0.2776  0.2117  0.2117  0.1978

 Free energy of the ion-electron system (eV)
  ---------------------------------------------------
  alpha Z        PSCENC =       805.91803998
  Ewald energy   TEWEN  =    199940.36706215
  -Hartree energ DENC   =   -242080.60820444
  -exchange      EXHF   =         0.00000000
  -V(xc)+E(xc)   XCENC  =      -343.76039182
  PAW double counting   =     49327.39738497   -47406.49348132
  entropy T*S    EENTRO =        -0.26705410
  eigenvalues    EBANDS =     -2091.00256728
  atomic energy  EATOM  =     41659.78587232
  Solvation  Ediel_sol  =         0.00000000
  ---------------------------------------------------
  free energy    TOTEN  =      -188.66333955 eV

  energy without entropy =     -188.39628545  energy(sigma->0) =     -188.52981250


--------------------------------------------------------------------------------------------------------




----------------------------------------- Iteration    1(  20)  ---------------------------------------


    POTLOK:  cpu time    0.0408: real time    0.0410
    SETDIJ:  cpu time    0.0051: real time    0.0051
    EDDIAG:  cpu time    1.2879: real time    1.2911
  RMM-DIIS:  cpu time    3.4096: real time    3.4178
    ORTHCH:  cpu time    0.3478: real time    0.3487
       DOS:  cpu time    0.0014: real time    0.0014
    CHARGE:  cpu time    0.2157: real time    0.2169
    MIXING:  cpu time    0.0037: real time    0.0037
    --------------------------------------------
      LOOP:  cpu time    5.3126: real time    5.3295

 eigenvalue-minimisations  :  3680
 total energy-change (2. order) : 0.2599509E-01  (-0.2938053E-02)
 number of electron     503.9998360 magnetization 
 augmentation part      197.1048011 magnetization 

 DIPCOR: dipole corrections for dipol
 direction  3 min pos     1,
 dipolmoment           0.000000      0.000000     -0.072942 electrons x Angstroem
 Tr[quadrupol]    -10320.298093

 energy correction for charged system         0.000000 eV
 dipol+quadrupol energy correction           -0.000187 eV
 added-field ion interaction          0.034635 eV  (added to PSCEN)


 Broyden mixing:
  rms(total) = 0.91935E-01    rms(broyden)= 0.91903E-01
  rms(prec ) = 0.10224E+00
  weight for this iteration     100.00

 eigenvalues of (default mixing * dielectric matrix)
  average eigenvalue GAMMA=   0.6748
  2.2620  1.6276  1.6276  0.7174  0.7174  0.4633  0.4633  0.4386  0.3268  0.3268
  0.2642  0.2642  0.2139  0.2139  0.1951

 Free energy of the ion-electron system (eV)
  ---------------------------------------------------
  alpha Z        PSCENC =       805.90381213
  Ewald energy   TEWEN  =    199940.36706215
  -Hartree energ DENC   =   -242086.19151679
  -exchange      EXHF   =         0.00000000
  -V(xc)+E(xc)   XCENC  =      -343.70329020
  PAW double counting   =     49338.64724042   -47417.41680805
  entropy T*S    EENTRO =        -0.26691272
  eigenvalues    EBANDS =     -2085.76280371
  atomic energy  EATOM  =     41659.78587232
  Solvation  Ediel_sol  =         0.00000000
  ---------------------------------------------------
  free energy    TOTEN  =      -188.63734445 eV

  energy without entropy =     -188.37043173  energy(sigma->0) =     -188.50388809


--------------------------------------------------------------------------------------------------------




----------------------------------------- Iteration    1(  21)  ---------------------------------------


    POTLOK:  cpu time    0.0407: real time    0.0409
    SETDIJ:  cpu time    0.0045: real time    0.0053
    EDDIAG:  cpu time    1.2744: real time    1.2775
  RMM-DIIS:  cpu time    3.4159: real time    3.4241
    ORTHCH:  cpu time    0.3475: real time    0.3483
       DOS:  cpu time    0.0014: real time    0.0014
    CHARGE:  cpu time    0.2164: real time    0.2169
    MIXING:  cpu time    0.0036: real time    0.0036
    --------------------------------------------
      LOOP:  cpu time    5.3051: real time    5.3213

 eigenvalue-minimisations  :  3682
 total energy-change (2. order) : 0.5052096E-02  (-0.8493724E-03)
 number of electron     503.9998361 magnetization 
 augmentation part      197.0903637 magnetization 

 DIPCOR: dipole corrections for dipol
 direction  3 min pos     1,
 dipolmoment           0.000000      0.000000     -0.061251 electrons x Angstroem
 Tr[quadrupol]    -10320.363284

 energy correction for charged system         0.000000 eV
 dipol+quadrupol energy correction           -0.000132 eV
 added-field ion interaction          0.029084 eV  (added to PSCEN)


 Broyden mixing:
  rms(total) = 0.66547E-01    rms(broyden)= 0.66535E-01
  rms(prec ) = 0.75175E-01
  weight for this iteration     100.00

 eigenvalues of (default mixing * dielectric matrix)
  average eigenvalue GAMMA=   0.6703
  2.3065  1.6193  1.6193  0.7794  0.7794  0.5236  0.5236  0.4762  0.3444  0.3444
  0.2772  0.2772  0.2366  0.2135  0.2084  0.1953

 Free energy of the ion-electron system (eV)
  ---------------------------------------------------
  alpha Z        PSCENC =       805.89831645
  Ewald energy   TEWEN  =    199940.36706215
  -Hartree energ DENC   =   -242088.96318477
  -exchange      EXHF   =         0.00000000
  -V(xc)+E(xc)   XCENC  =      -343.68579019
  PAW double counting   =     49344.04089932   -47422.74402999
  entropy T*S    EENTRO =        -0.26864597
  eigenvalues    EBANDS =     -2083.06279166
  atomic energy  EATOM  =     41659.78587232
  Solvation  Ediel_sol  =         0.00000000
  ---------------------------------------------------
  free energy    TOTEN  =      -188.63229236 eV

  energy without entropy =     -188.36364638  energy(sigma->0) =     -188.49796937


--------------------------------------------------------------------------------------------------------




----------------------------------------- Iteration    1(  22)  ---------------------------------------


    POTLOK:  cpu time    0.0398: real time    0.0399
    SETDIJ:  cpu time    0.0052: real time    0.0052
    EDDIAG:  cpu time    1.2800: real time    1.2831
  RMM-DIIS:  cpu time    3.4073: real time    3.4154
    ORTHCH:  cpu time    0.3475: real time    0.3490
       DOS:  cpu time    0.0014: real time    0.0014
    CHARGE:  cpu time    0.2226: real time    0.2232
    MIXING:  cpu time    0.0039: real time    0.0039
    --------------------------------------------
      LOOP:  cpu time    5.3084: real time    5.3238

 eigenvalue-minimisations  :  3680
 total energy-change (2. order) : 0.2230817E-02  (-0.3015014E-03)
 number of electron     503.9998361 magnetization 
 augmentation part      197.0745680 magnetization 

 DIPCOR: dipole corrections for dipol
 direction  3 min pos     1,
 dipolmoment           0.000000      0.000000     -0.058690 electrons x Angstroem
 Tr[quadrupol]    -10320.430917

 energy correction for charged system         0.000000 eV
 dipol+quadrupol energy correction           -0.000121 eV
 added-field ion interaction          0.027868 eV  (added to PSCEN)


 Broyden mixing:
  rms(total) = 0.52036E-01    rms(broyden)= 0.52031E-01
  rms(prec ) = 0.57305E-01
  weight for this iteration     100.00

 eigenvalues of (default mixing * dielectric matrix)
  average eigenvalue GAMMA=   0.6899
  2.3678  1.6113  1.6113  0.9663  0.9663  0.6019  0.6019  0.5766  0.3612  0.3612
  0.3023  0.3023  0.2661  0.2154  0.2154  0.2056  0.1957

 Free energy of the ion-electron system (eV)
  ---------------------------------------------------
  alpha Z        PSCENC =       805.89711124
  Ewald energy   TEWEN  =    199940.36706215
  -Hartree energ DENC   =   -242091.79049946
  -exchange      EXHF   =         0.00000000
  -V(xc)+E(xc)   XCENC  =      -343.67011879
  PAW double counting   =     49348.93372697   -47427.59305495
  entropy T*S    EENTRO =        -0.26941377
  eigenvalues    EBANDS =     -2080.29074724
  atomic energy  EATOM  =     41659.78587232
  Solvation  Ediel_sol  =         0.00000000
  ---------------------------------------------------
  free energy    TOTEN  =      -188.63006154 eV

  energy without entropy =     -188.36064777  energy(sigma->0) =     -188.49535466


--------------------------------------------------------------------------------------------------------




----------------------------------------- Iteration    1(  23)  ---------------------------------------


    POTLOK:  cpu time    0.0410: real time    0.0412
    SETDIJ:  cpu time    0.0053: real time    0.0053
    EDDIAG:  cpu time    1.2828: real time    1.2870
  RMM-DIIS:  cpu time    3.4038: real time    3.4636
    ORTHCH:  cpu time    0.3409: real time    0.3656
       DOS:  cpu time    0.0014: real time    0.0014
    CHARGE:  cpu time    0.2233: real time    0.2240
    MIXING:  cpu time    0.0041: real time    0.0041
    --------------------------------------------
      LOOP:  cpu time    5.3032: real time    5.3964

 eigenvalue-minimisations  :  3679
 total energy-change (2. order) : 0.1569058E-02  (-0.2670576E-03)
 number of electron     503.9998361 magnetization 
 augmentation part      197.0572662 magnetization 

 DIPCOR: dipole corrections for dipol
 direction  3 min pos     1,
 dipolmoment           0.000000      0.000000     -0.057771 electrons x Angstroem
 Tr[quadrupol]    -10320.558067

 energy correction for charged system         0.000000 eV
 dipol+quadrupol energy correction           -0.000118 eV
[...]
    275       1.7201      0.00000
    276       1.8439      0.00000
    277       2.1046      0.00000
    278       2.1744      0.00000
    279       2.3027      0.00000
    280       2.4425      0.00000
    281       2.4743      0.00000
    282       2.6160      0.00000
    283       2.6970      0.00000
    284       3.0197      0.00000
    285       3.0916      0.00000
    286       3.2349      0.00000
    287       3.4734      0.00000
    288       3.6076      0.00000
    289       3.7144      0.00000
    290       3.9491      0.00000
    291       4.1350      0.00000
    292       4.1639      0.00000
    293       4.4322      0.00000
    294       4.4993      0.00000
    295       4.6046      0.00000
    296       4.6232      0.00000
    297       4.7159      0.00000
    298       4.7598      0.00000
    299       4.7797      0.00000
    300       4.8632      0.00000
    301       4.9168      0.00000
    302       5.0294      0.00000
    303       5.0704      0.00000
    304       5.0991      0.00000
    305       5.1767      0.00000
    306       5.2359      0.00000


--------------------------------------------------------------------------------------------------------


 soft charge-density along one line, spin component           1
         0         1         2         3         4         5         6         7         8         9
 total charge-density along one line
 
 pseudopotential strength for first ion, spin component:           1
 -8.058  -0.000  -0.002   0.000  -0.001  -8.204  -0.000  -0.002
 -0.000  -7.985   0.000   0.000  -0.003  -0.000  -8.133   0.000
 -0.002   0.000  -7.978  -0.001  -0.003  -0.002   0.000  -8.126
  0.000   0.000  -0.001  -7.981   0.002   0.000   0.000  -0.001
 -0.001  -0.003  -0.003   0.002  -8.056  -0.001  -0.003  -0.003
 -8.204  -0.000  -0.002   0.000  -0.001  -8.334  -0.000  -0.002
 -0.000  -8.133   0.000   0.000  -0.003  -0.000  -8.265   0.000
 -0.002   0.000  -8.126  -0.001  -0.003  -0.002   0.000  -8.258
  0.000   0.000  -0.001  -8.129   0.002   0.000   0.000  -0.001
 -0.001  -0.003  -0.003   0.002  -8.203  -0.001  -0.003  -0.003
 -0.000  -0.001  -0.025  -0.000  -0.002  -0.000  -0.001  -0.025
 -0.001  -0.001  -0.036  -0.000  -0.003  -0.001  -0.001  -0.036
 -0.002   0.005   0.000   0.000   0.000  -0.002   0.005   0.000
  0.000  -0.001   0.008  -0.001  -0.000   0.000  -0.001   0.007
 -0.001   0.000   0.001   0.005  -0.002  -0.001   0.000   0.001
 -0.002   0.005   0.000   0.000   0.001  -0.002   0.005   0.000
  0.000  -0.001   0.008  -0.002  -0.000   0.000  -0.001   0.008
 -0.001   0.000   0.002   0.005  -0.003  -0.001   0.000   0.002
 total augmentation occupancy for first ion, spin component:           1
  4.660  -0.026  -0.028   0.039  -0.022  -2.821   0.011   0.011  -0.055   0.006   0.035  -0.016  -0.015  -0.002   0.021  -0.001
 -0.026   3.966   0.068  -0.085   0.044   0.012  -1.723  -0.068   0.072  -0.078   0.028   0.006   0.135   0.016   0.008  -0.002
 -0.028   0.068   4.452  -0.108   0.156   0.012  -0.068  -2.340   0.079  -0.158   1.102  -0.186   0.005   0.214  -0.022  -0.000
  0.039  -0.085  -0.108   4.046   0.022  -0.054   0.072   0.079  -1.785   0.008   0.030  -0.027   0.007  -0.025   0.159   0.000
 -0.022   0.044   0.156   0.022   4.466   0.006  -0.078  -0.158   0.009  -2.621   0.133  -0.055   0.022   0.015   0.047  -0.000
 -2.821   0.012   0.012  -0.054   0.006   2.869  -0.000   0.003   0.065   0.007  -0.035   0.016   0.015  -0.000  -0.019  -0.000
  0.011  -1.723  -0.068   0.072  -0.078  -0.000   1.452   0.068  -0.062   0.104  -0.025  -0.005  -0.126  -0.013  -0.008   0.005
  0.011  -0.068  -2.340   0.079  -0.158   0.003   0.068   2.172  -0.056   0.159  -1.027   0.205  -0.004  -0.221   0.015   0.000
 -0.055   0.072   0.079  -1.785   0.009   0.065  -0.062  -0.056   1.498  -0.032  -0.029   0.024  -0.007   0.018  -0.149  -0.000
  0.006  -0.078  -0.158   0.008  -2.621   0.007   0.104   0.159  -0.032   2.666  -0.119   0.053  -0.021  -0.014  -0.038   0.001
  0.035   0.028   1.102   0.030   0.133  -0.035  -0.025  -1.027  -0.029  -0.119   2.458  -0.544   0.000  -0.112  -0.008  -0.000
 -0.016   0.006  -0.186  -0.027  -0.055   0.016  -0.005   0.205   0.024   0.053  -0.544   0.164   0.002   0.049   0.010  -0.000
 -0.015   0.135   0.005   0.007   0.022   0.015  -0.126  -0.004  -0.007  -0.021   0.000   0.002   0.196  -0.002  -0.001  -0.006
 -0.002   0.016   0.214  -0.025   0.015  -0.000  -0.013  -0.221   0.018  -0.014  -0.112   0.049  -0.002   0.087  -0.000   0.000
  0.021   0.008  -0.022   0.159   0.047  -0.019  -0.008   0.015  -0.149  -0.038  -0.008   0.010  -0.001  -0.000   0.186   0.000
 -0.001  -0.002  -0.000   0.000  -0.000  -0.000   0.005   0.000  -0.000   0.001  -0.000  -0.000  -0.006   0.000   0.000   0.000
  0.000  -0.001   0.002  -0.000  -0.000  -0.000   0.001   0.005  -0.001   0.000   0.008  -0.002   0.000  -0.003   0.000   0.000
 -0.001   0.000   0.003  -0.003  -0.004   0.001  -0.000  -0.002   0.005   0.002   0.000  -0.000   0.000   0.000  -0.006  -0.000


------------------------ aborting loop because EDIFF is reached ----------------------------------------


    CHARGE:  cpu time    0.2216: real time    0.2221
    FORLOC:  cpu time    0.0159: real time    0.0159
    FORNL :  cpu time    1.2802: real time    1.3181
    FORCOR:  cpu time    0.0551: real time    0.0779
    FORHAR:  cpu time    0.0238: real time    0.0238
    MIXING:  cpu time    0.0030: real time    0.0030
    OFIELD:  cpu time    0.0000: real time    0.0000

 VOLUME and BASIS-vectors are now :
 -----------------------------------------------------------------------------
  energy-cutoff  :      400.00
  volume of cell :     2567.68
      direct lattice vectors                 reciprocal lattice vectors
    11.002581515  0.000000000  0.000000000     0.090887761 -0.052474073  0.000000000
     5.501290758  9.528515099  0.000000000     0.000000000  0.104948147  0.000000000
     0.000000000  0.000000000 24.491785094     0.000000000  0.000000000  0.040830017

  length of vectors
    11.002581515 11.002581515 24.491785094     0.104948147  0.104948147  0.040830017


 FORCES acting on ions
    electron-ion (+dipol)            ewald-force                    non-local-force                 convergence-correction
 -----------------------------------------------------------------------------------------------
   -.155E+02 -.820E+01 -.225E+04   0.158E+02 0.834E+01 0.225E+04   -.264E+00 -.126E+00 0.225E+00   -.861E-03 -.223E-03 -.787E-04
   -.922E+01 0.545E+01 0.269E+02   0.832E+01 -.560E+01 -.269E+02   0.904E+00 0.155E+00 0.558E-02   -.297E-02 -.873E-03 0.324E-02
   -.237E+01 0.106E+01 -.228E+04   0.226E+01 -.123E+01 0.228E+04   0.117E+00 0.169E+00 -.347E+00   -.255E-02 -.268E-02 0.152E-02
   0.177E+01 0.274E+01 0.476E+02   -.130E+01 -.280E+01 -.476E+02   -.458E+00 0.510E-01 0.379E-02   -.190E-02 0.219E-02 0.776E-02
   -.195E+02 0.225E+00 0.236E+04   0.205E+02 -.345E+00 -.236E+04   -.103E+01 0.115E+00 0.205E+00   -.397E-02 0.705E-03 0.134E-02
   0.332E+02 0.192E+01 0.227E+04   -.344E+02 -.177E+01 -.227E+04   0.120E+01 -.159E+00 -.778E-01   -.212E-02 0.192E-02 0.375E-02
   0.370E+01 0.222E+02 -.223E+04   -.353E+01 -.233E+02 0.223E+04   -.173E+00 0.104E+01 0.771E+00   0.779E-04 -.394E-02 -.213E-02
   0.158E+01 0.757E+01 0.864E+02   -.184E+01 -.689E+01 -.852E+02   0.257E+00 -.680E+00 -.118E+01   -.288E-02 0.165E-02 0.662E-02
   -.403E+01 0.179E+02 0.225E+04   0.405E+01 -.184E+02 -.225E+04   -.240E-01 0.474E+00 -.463E+00   0.364E-02 0.824E-03 -.286E-03
   -.161E+02 0.218E+01 0.164E+02   0.157E+02 -.175E+01 -.170E+02   0.429E+00 -.435E+00 0.524E+00   0.711E-03 0.256E-02 0.709E-02
   0.253E+01 -.254E+02 0.225E+04   -.217E+01 0.257E+02 -.225E+04   -.366E+00 -.284E+00 -.535E+00   -.211E-02 0.165E-02 0.254E-02
   -.224E+02 -.106E+02 -.223E+04   0.228E+02 0.112E+02 0.223E+04   -.360E+00 -.657E+00 0.291E+00   0.720E-03 0.421E-02 0.340E-02
   0.118E+02 0.114E+02 0.234E+04   -.120E+02 -.117E+02 -.234E+04   0.160E+00 0.359E+00 0.283E+00   -.205E-02 0.421E-03 -.172E-03
   0.233E+02 -.362E+01 -.226E+04   -.242E+02 0.353E+01 0.226E+04   0.826E+00 0.735E-01 0.477E-01   -.117E-02 0.404E-02 0.399E-02
   0.982E+01 -.274E+01 -.224E+04   -.104E+02 0.278E+01 0.224E+04   0.541E+00 -.310E-01 0.569E+00   0.343E-02 -.838E-03 0.295E-03
   -.829E+01 0.110E+02 0.230E+04   0.881E+01 -.112E+02 -.230E+04   -.522E+00 0.166E+00 0.113E+00   0.139E-02 -.201E-02 -.336E-03
   -.868E+01 -.840E+01 0.215E+02   0.807E+01 0.783E+01 -.221E+02   0.601E+00 0.558E+00 0.642E+00   -.126E-02 -.768E-03 0.549E-02
   0.313E+01 0.156E+02 -.225E+04   -.342E+01 -.158E+02 0.225E+04   0.284E+00 0.174E+00 0.532E-01   0.287E-02 -.644E-02 0.101E-02
   -.187E+01 0.335E+01 -.224E+04   0.213E+01 -.344E+01 0.224E+04   -.247E+00 0.995E-01 -.302E-01   -.278E-03 0.386E-03 0.318E-02
   0.136E+02 0.741E+01 0.676E+02   -.130E+02 -.743E+01 -.670E+02   -.675E+00 0.213E-01 -.641E+00   -.280E-02 -.103E-02 0.407E-02
   0.159E+02 -.591E+01 0.233E+02   -.151E+02 0.533E+01 -.239E+02   -.774E+00 0.584E+00 0.568E+00   0.245E-02 -.460E-02 0.583E-02
   -.447E+01 -.822E+01 -.228E+04   0.473E+01 0.859E+01 0.228E+04   -.280E+00 -.375E+00 -.371E+00   0.335E-03 -.504E-02 0.449E-02
   -.808E+01 -.123E+02 -.219E+04   0.826E+01 0.128E+02 0.219E+04   -.181E+00 -.514E+00 0.623E+00   0.210E-02 0.203E-02 0.864E-03
   0.847E+01 -.179E+02 0.229E+04   -.870E+01 0.185E+02 -.229E+04   0.219E+00 -.516E+00 -.472E+00   -.408E-02 0.849E-03 0.306E-02
   -.132E+02 -.161E+02 -.193E+04   0.135E+02 0.161E+02 0.193E+04   -.340E+00 0.595E-01 0.121E+01   -.214E-02 0.138E-02 0.182E-02
   -.326E+02 0.160E+01 0.199E+04   0.331E+02 -.147E+01 -.199E+04   -.463E+00 -.129E+00 -.155E+01   -.524E-03 -.303E-02 0.772E-03
   -.278E+02 0.134E+02 0.198E+04   0.279E+02 -.136E+02 -.197E+04   -.999E-01 0.247E+00 -.175E+01   0.165E-02 0.307E-03 0.205E-03
   0.162E+02 0.134E+02 -.194E+04   -.167E+02 -.133E+02 0.194E+04   0.459E+00 -.678E-01 0.153E+01   -.229E-02 0.749E-03 0.343E-02
   0.113E+02 0.580E+01 0.196E+04   -.112E+02 -.577E+01 -.196E+04   -.950E-01 -.356E-01 -.184E+01   0.134E-02 -.117E-03 0.170E-02
   0.112E+02 0.205E+01 0.199E+04   -.116E+02 -.180E+01 -.198E+04   0.411E+00 -.250E+00 -.136E+01   -.582E-03 0.160E-02 0.234E-02
   0.122E+02 -.426E+01 0.321E+02   -.114E+02 0.374E+01 -.321E+02   -.800E+00 0.524E+00 -.135E-01   0.281E-02 0.620E-03 0.448E-02
   -.752E+01 -.147E+02 0.199E+04   0.740E+01 0.148E+02 -.199E+04   0.138E+00 -.121E+00 -.167E+01   0.742E-04 -.275E-02 0.297E-02
   -.109E+02 0.633E+01 -.193E+04   0.110E+02 -.637E+01 0.193E+04   -.974E-01 0.450E-01 0.157E+01   0.211E-02 -.550E-03 0.226E-02
   -.487E+01 -.925E+01 0.194E+04   0.460E+01 0.950E+01 -.194E+04   0.265E+00 -.256E+00 -.214E+01   0.284E-02 -.254E-02 0.263E-02
   0.975E+00 0.104E+01 -.234E+02   -.488E+00 -.956E+00 0.225E+02   -.494E+00 -.834E-01 0.920E+00   0.345E-02 -.385E-02 0.460E-02
   0.126E+02 0.101E+02 0.193E+04   -.126E+02 -.103E+02 -.193E+04   0.723E-01 0.204E+00 -.194E+01   0.362E-02 0.760E-03 0.153E-02
   0.343E+00 -.815E+01 -.225E+02   0.235E+00 0.755E+01 0.215E+02   -.584E+00 0.609E+00 0.945E+00   0.364E-02 0.429E-03 0.453E-02
   -.613E+01 -.595E+01 -.158E+01   0.578E+01 0.587E+01 0.114E+01   0.363E+00 0.879E-01 0.437E+00   -.200E-02 0.170E-02 0.563E-02
   0.214E+00 0.486E+01 0.375E+02   -.445E+00 -.461E+01 -.375E+02   0.232E+00 -.254E+00 -.106E-01   -.805E-03 0.120E-02 0.521E-02
   -.158E+01 0.158E+02 -.193E+04   0.175E+01 -.159E+02 0.193E+04   -.165E+00 0.161E+00 0.198E+01   0.249E-03 0.428E-03 0.238E-02
   0.266E+02 -.160E+01 0.196E+04   -.268E+02 0.145E+01 -.196E+04   0.211E+00 0.150E+00 -.183E+01   -.316E-03 0.434E-03 0.274E-02
   -.383E+01 -.450E-01 -.540E+02   0.354E+01 0.149E+00 0.527E+02   0.292E+00 -.100E+00 0.124E+01   0.224E-02 -.293E-02 0.360E-02
   -.194E+01 0.252E+01 -.942E+01   0.126E+01 -.218E+01 0.845E+01   0.672E+00 -.342E+00 0.966E+00   0.104E-02 0.299E-03 0.302E-02
   -.146E+02 -.650E+01 0.201E+04   0.146E+02 0.644E+01 -.200E+04   0.225E-01 0.605E-01 -.149E+01   -.121E-02 0.160E-02 0.109E-02
   0.319E+00 0.128E+01 0.618E+02   -.530E+00 -.839E+00 -.610E+02   0.201E+00 -.445E+00 -.837E+00   -.224E-02 0.277E-02 0.823E-02
   0.698E+01 -.409E+01 -.195E+04   -.686E+01 0.427E+01 0.195E+04   -.113E+00 -.189E+00 0.144E+01   -.144E-02 0.556E-02 0.447E-02
   -.393E+00 -.333E+01 -.301E+01   0.564E+00 0.323E+01 0.268E+01   -.180E+00 0.100E+00 0.327E+00   0.130E-02 -.104E-02 0.580E-02
   0.180E+02 -.110E+02 -.196E+04   -.181E+02 0.111E+02 0.196E+04   0.696E-01 -.958E-01 0.134E+01   -.932E-04 0.843E-03 0.336E-02
 -----------------------------------------------------------------------------------------------
   -.164E+00 -.157E+00 0.151E+01   0.213E-12 0.242E-12 0.250E-11   0.157E+00 0.139E+00 -.171E+01   -.549E-03 -.113E-02 0.145E+00
 
 
 POSITION                                       TOTAL-FORCE (eV/Angst)
 -----------------------------------------------------------------------------------
      6.89113      7.15731     14.79859         0.010315      0.004679      0.001688
      8.21588      6.35018     12.23402        -0.004838      0.002912      0.005968
      8.24986      4.75959     14.85021         0.000281     -0.002923     -0.007262
     12.39065      8.73363     12.20958         0.003770      0.000204     -0.004352
     11.04533      7.93689      9.54251         0.004071     -0.003862     -0.002701
      8.21627      7.94204      9.68342        -0.001475     -0.002083     -0.011761
      5.50212      4.73607     14.75451         0.002161     -0.013454      0.004174
      9.61300      8.75955     12.17926        -0.001732      0.001291     -0.003398
      9.62676      0.76206      9.76664        -0.001538     -0.001727      0.001559
      8.23890      1.59127     12.23117         0.006863     -0.002362      0.001097
      5.51425      3.19764      9.77390        -0.005212      0.006602     -0.002207
      2.77412      0.02773     14.72164         0.002871     -0.006125      0.005021
      9.61990      5.54735      9.56556         0.003614     -0.009368      0.012784
      8.21220      0.00405     14.78936        -0.010629     -0.015212      0.002488
      4.10060      7.14832     14.77686        -0.012777      0.004700      0.005396
     11.02388      3.16556      9.65958        -0.004475      0.002185      0.003437
      9.61827      3.95840     12.22535        -0.001913     -0.005075     -0.003306
      2.74434      4.74889     14.77757        -0.000810     -0.001318      0.005828
      9.62590      2.38655     14.79843         0.006370      0.007054      0.002962
     11.02137      6.34461     12.19648         0.001062      0.002362     -0.001272
     12.40911      3.94827     12.22525         0.007767      0.001102      0.000660
     11.00855      4.78461     14.84547        -0.010363     -0.007462     -0.006714
      0.00375      0.02239     14.71671         0.009403     -0.002004      0.009963
      4.12255      0.81315      9.67458        -0.005982      0.001186     -0.002092
      9.63871      7.15315     14.57824        -0.009466     -0.003082     -0.005065
     12.39890      5.55683      9.84522        -0.004824      0.001204      0.010706
     13.76388      7.91949      9.89203         0.003238      0.001808     -0.002425
      6.85279      2.37084     14.58632        -0.003434      0.005535     -0.006654
      1.37553      0.78977      9.89133         0.007027     -0.000905      0.008237
      8.25114      3.18161      9.84601         0.007146      0.003070      0.003378
     11.01269      1.56687     12.21753        -0.005486     -0.001601      0.001565
      2.75745      3.18906      9.87042         0.013846      0.006445      0.005360
      1.38368      2.39260     14.58459        -0.001621      0.001945     -0.002233
      4.12108      5.57014      9.97606         0.000328     -0.006293     -0.003635
     13.78706      6.34500     12.28607        -0.003404      0.000272     -0.000822
      5.49497      7.91625      9.96553         0.003093     -0.002546     -0.010843
     15.14595      8.71987     12.28579        -0.001369      0.009291     -0.009454
      6.84565      3.97842     12.25740         0.005757      0.008762      0.005533
      2.75266      1.58120     12.21286         0.000452     -0.003399     -0.003798
      4.13806      2.36979     14.54812         0.000742      0.006500     -0.002304
      6.86170      5.56015      9.90152         0.006445      0.001713      0.001334
      5.48896      6.36022     12.32644         0.000635      0.001629      0.005231
      6.86520      8.74413     12.26897        -0.008403      0.003494      0.004096
      6.88565      0.79309      9.82067         0.000310      0.001676      0.000389
      5.47483      1.61642     12.19004        -0.012092     -0.000436     -0.001051
      5.49616      0.00003     14.56504         0.004249     -0.003428     -0.006252
      4.14730      3.97420     12.26651        -0.007355     -0.001253      0.002032
     12.35648      7.15215     14.62351         0.007379      0.008295     -0.011286
 -----------------------------------------------------------------------------------
    total drift:                               -0.008271     -0.019006     -0.056729


--------------------------------------------------------------------------------------------------------



  FREE ENERGIE OF THE ION-ELECTRON SYSTEM (eV)
  ---------------------------------------------------
  free  energy   TOTEN  =      -192.42411129 eV

  energy  without entropy=     -192.16991885  energy(sigma->0) =     -192.29701507
 
 d Force = 0.8404941E-03[ 0.115E-03, 0.157E-02]  d Energy = 0.8810128E-03-0.405E-04
 d Force =-0.3044258E+02[-0.304E+02,-0.305E+02]  d Ewald  =-0.3044257E+02-0.294E-05


--------------------------------------------------------------------------------------------------------


    POTLOK:  cpu time    0.0463: real time    0.0464


--------------------------------------------------------------------------------------------------------


 stress matrix after NEB project (eV)
      0.00000      0.00000      0.00000
      0.00000      0.00000      0.00000
      0.00000      0.00000      0.00000
  FORCES: max atom, RMS     0.018724    0.009815
  FORCE total and by dimension    0.068001    0.015212
  Stress total and by dimension    0.000000    0.000000
 Conjugate gradient step on ions:
 trial-energy change:   -0.000881  1 .order   -0.000840   -0.001566   -0.000115
  (g-gl).g = 0.379E-03      g.g   = 0.467E-03  gl.gl    = 0.710E-03
 g(Force)  = 0.467E-03   g(Stress)= 0.000E+00 ortho     = 0.903E-04
 gamma     =   0.53397
 trial     =   3.03853
 opt step  =   3.24356  (harmonic =   3.28025) maximal distance =0.00500962
 next E    =  -192.424115   (d E  =  -0.00088)


--------------------------------------------------------------------------------------------------------


  
 reached required accuracy - stopping structural energy minimisation
     LOOP+:  cpu time   65.0673: real time   65.5148
    4ORBIT:  cpu time    0.0000: real time    0.0000

 total amount of memory used by VASP on root node    84353. kBytes
========================================================================

   base      :      30000. kBytes
   nonlr-proj:       4285. kBytes
   fftplans  :       4447. kBytes
   grid      :       6721. kBytes
   one-center:        124. kBytes
   wavefun   :      38776. kBytes
 
  
  
 General timing and accounting informations for this job:
 ========================================================
  
                  Total CPU time used (sec):     1920.710
                            User time (sec):     1831.712
                          System time (sec):       88.998
                         Elapsed time (sec):     1932.160
  
                   Maximum memory used (kb):      985444.
                   Average memory used (kb):           0.
  
                          Minor page faults:       976825
                          Major page faults:            2
                 Voluntary context switches:        11858
