<?xml version="1.0" encoding="ISO-8859-1"?>
<modeling>
 <generator>
  <i name="program" type="string">vasp </i>
  <i name="version" type="string">5.4.1  </i>
  <i name="subversion" type="string">24Jun15 (build Mar 14 2019 10:18:33) complex                          parallel </i>
  <i name="platform" type="string">INTEL-19.0.2+OPENMPI-3.1.3 </i>
  <i name="date" type="string">2022 07 15 </i>
  <i name="time" type="string">14:58:05 </i>
 </generator>
 <incar>
  <i type="int" name="ISTART">     0</i>
  <i type="string" name="PREC">normal</i>
  <i type="string" name="ALGO"> Fast</i>
  <i type="int" name="NELM">   500</i>
  <i type="int" name="IBRION">     2</i>
  <i type="int" name="NFREE">     2</i>
  <i name="EDIFF">      0.00000100</i>
  <i name="EDIFFG">     -0.02000000</i>
  <i type="int" name="NSW">   500</i>
  <i type="int" name="ISIF">     0</i>
  <i type="int" name="ISYM">     2</i>
  <i name="ENCUT">    400.00000000</i>
  <i name="POTIM">      0.35000000</i>
  <i type="string" name="LREAL"> Auto</i>
  <i type="logical" name="LPLANE"> T  </i>
  <i type="int" name="ISMEAR">     0</i>
  <i name="SIGMA">      0.10000000</i>
  <i type="int" name="NWRITE">     1</i>
  <i type="logical" name="LWAVE"> F  </i>
  <i type="logical" name="LCHARG"> F  </i>
  <i type="logical" name="LVTOT"> F  </i>
  <i type="logical" name="LORBIT"> F  </i>
  <i type="logical" name="LAECHG"> F  </i>
  <v type="int" name="KPOINT_BSE">    -1     0     0     0</v>
  <i type="int" name="NELM">   500</i>
  <i type="string" name="GGA"> PE          ! optPBE-vdW XC-functional</i>
  <i type="int" name="VOSKOWN">     1</i>
  <i type="logical" name="LDIPOL"> T  </i>
  <i type="logical" name="LMONO"> F  </i>
  <i type="int" name="IDIPOL">     3</i>
  <v name="DIPOL">      0.00000000      0.00000000      0.50000000</v>
 </incar>
 <kpoints>
  <generation param="Monkhorst-Pack">
   <v type="int" name="divisions">       2        2        1 </v>
   <v name="usershift">      0.00000000       0.00000000       0.00000000 </v>
   <v name="genvec1">      0.50000000      -0.00000000       0.00000000 </v>
   <v name="genvec2">      0.00000000       0.50000000       0.00000000 </v>
   <v name="genvec3">      0.00000000       0.00000000       1.00000000 </v>
   <v name="shift">      0.50000000       0.50000000       0.00000000 </v>
  </generation>
  <varray name="kpointlist" >
   <v>       0.25000000       0.25000000       0.00000000 </v>
   <v>       0.00000000       0.25000000       0.00000000 </v>
   <v>      -0.25000000       0.00000000       0.00000000 </v>
   <v>      -0.25000000       0.25000000       0.00000000 </v>
   <v>       0.50000000      -0.25000000       0.00000000 </v>
   <v>      -0.25000000       0.50000000       0.00000000 </v>
  </varray>
  <varray name="weights" >
   <v>       0.16666667 </v>
   <v>       0.16666667 </v>
   <v>       0.16666667 </v>
   <v>       0.16666667 </v>
   <v>       0.16666667 </v>
   <v>       0.16666667 </v>
  </varray>
 </kpoints>
 <parameters>
  <separator name="general" >
   <i type="string" name="SYSTEM">unknown system</i>
   <i type="logical" name="LCOMPAT"> F  </i>
  </separator>
  <separator name="electronic" >
   <i type="string" name="PREC">normal</i>
   <i name="ENMAX">    400.00000000</i>
   <i name="ENAUG">    416.23000000</i>
   <i name="EDIFF">      0.00000100</i>
   <i type="int" name="IALGO">    68</i>
   <i type="int" name="IWAVPR">    11</i>
   <i type="int" name="NBANDS">   306</i>
   <i name="NELECT">    504.00000000</i>
   <i type="int" name="TURBO">     0</i>
   <i type="int" name="IRESTART">     0</i>
   <i type="int" name="NREBOOT">     0</i>
   <i type="int" name="NMIN">     0</i>
   <i name="EREF">      0.00000000</i>
   <separator name="electronic smearing" >
    <i type="int" name="ISMEAR">     0</i>
    <i name="SIGMA">      0.10000000</i>
    <i name="KSPACING">      0.50000000</i>
    <i type="logical" name="KGAMMA"> T  </i>
   </separator>
   <separator name="electronic projectors" >
    <i type="logical" name="LREAL"> T  </i>
    <v name="ROPT">     -0.00050000     -0.00050000</v>
    <i type="int" name="LMAXPAW">  -100</i>
    <i type="int" name="LMAXMIX">     2</i>
    <i type="logical" name="NLSPLINE"> F  </i>
   </separator>
   <separator name="electronic startup" >
    <i type="int" name="ISTART">     0</i>
    <i type="int" name="ICHARG">     2</i>
    <i type="int" name="INIWAV">     1</i>
   </separator>
   <separator name="electronic spin" >
    <i type="int" name="ISPIN">     1</i>
    <i type="logical" name="LNONCOLLINEAR"> F  </i>
    <v name="MAGMOM">      1.00000000      1.00000000      1.00000000      1.00000000      1.00000000      1.00000000      1.00000000      1.00000000      1.00000000      1.00000000      1.00000000      1.00000000      1.00000000      1.00000000      1.00000000      1.00000000      1.00000000      1.00000000      1.00000000      1.00000000
      1.00000000      1.00000000      1.00000000      1.00000000      1.00000000      1.00000000      1.00000000      1.00000000      1.00000000      1.00000000      1.00000000      1.00000000      1.00000000      1.00000000      1.00000000      1.00000000      1.00000000      1.00000000      1.00000000      1.00000000
      1.00000000      1.00000000      1.00000000      1.00000000      1.00000000      1.00000000      1.00000000      1.00000000</v>
    <i name="NUPDOWN">     -1.00000000</i>
    <i type="logical" name="LSORBIT"> F  </i>
    <v name="SAXIS">      0.00000000      0.00000000      1.00000000</v>
    <i type="logical" name="LSPIRAL"> F  </i>
    <v name="QSPIRAL">      0.00000000      0.00000000      0.00000000</v>
    <i type="logical" name="LZEROZ"> F  </i>
   </separator>
   <separator name="electronic exchange-correlation" >
    <i type="logical" name="LASPH"> F  </i>
    <i type="logical" name="LMETAGGA"> F  </i>
   </separator>
   <separator name="electronic convergence" >
    <i type="int" name="NELM">   500</i>
    <i type="int" name="NELMDL">    -5</i>
    <i type="int" name="NELMIN">     2</i>
    <i name="ENINI">    400.00000000</i>
    <separator name="electronic convergence detail" >
     <i type="logical" name="LDIAG"> T  </i>
     <i type="logical" name="LSUBROT"> F  </i>
     <i name="WEIMIN">      0.00100000</i>
     <i name="EBREAK">      0.00000000</i>
     <i name="DEPER">      0.30000000</i>
     <i type="int" name="NRMM">     4</i>
     <i name="TIME">      0.40000000</i>
    </separator>
   </separator>
   <separator name="electronic mixer" >
    <i name="AMIX">      0.40000000</i>
    <i name="BMIX">      1.00000000</i>
    <i name="AMIN">      0.10000000</i>
    <i name="AMIX_MAG">      1.60000000</i>
    <i name="BMIX_MAG">      1.00000000</i>
    <separator name="electronic mixer details" >
     <i type="int" name="IMIX">     4</i>
     <i type="logical" name="MIXFIRST"> F  </i>
     <i type="int" name="MAXMIX">   -45</i>
     <i name="WC">    100.00000000</i>
     <i type="int" name="INIMIX">     1</i>
     <i type="int" name="MIXPRE">     1</i>
     <i type="int" name="MREMOVE">     5</i>
    </separator>
   </separator>
   <separator name="electronic dipolcorrection" >
    <i type="logical" name="LDIPOL"> T  </i>
    <i type="logical" name="LMONO"> F  </i>
    <i type="int" name="IDIPOL">     3</i>
    <i name="EPSILON">      1.00000000</i>
    <v name="DIPOL">      0.00000000      0.00000000      0.50000000</v>
    <i name="EFIELD">      0.00000000</i>
   </separator>
  </separator>
  <separator name="grids" >
   <i type="int" name="NGX">    54</i>
   <i type="int" name="NGY">    54</i>
   <i type="int" name="NGZ">   120</i>
   <i type="int" name="NGXF">   108</i>
   <i type="int" name="NGYF">   108</i>
   <i type="int" name="NGZF">   240</i>
   <i type="logical" name="ADDGRID"> F  </i>
  </separator>
  <separator name="ionic" >
   <i type="int" name="NSW">   500</i>
   <i type="int" name="IBRION">     2</i>
   <i type="int" name="ISIF">     0</i>
   <i name="PSTRESS">      0.00000000</i>
   <i name="EDIFFG">     -0.02000000</i>
   <i type="int" name="NFREE">     2</i>
   <i name="POTIM">      0.35000000</i>
   <i name="SMASS">     -3.00000000</i>
   <i name="SCALEE">      1.00000000</i>
  </separator>
  <separator name="ionic md" >
   <i name="TEBEG">      0.00010000</i>
   <i name="TEEND">      0.00010000</i>
   <i type="int" name="NBLOCK">     1</i>
   <i type="int" name="KBLOCK">   500</i>
   <i type="int" name="NPACO">   256</i>
   <i name="APACO">     16.00000000</i>
  </separator>
  <separator name="symmetry" >
   <i type="int" name="ISYM">     2</i>
   <i name="SYMPREC">      0.00001000</i>
  </separator>
  <separator name="dos" >
   <i type="logical" name="LORBIT"> F  </i>
   <v name="RWIGS">     -1.00000000     -1.00000000</v>
   <i type="int" name="NEDOS">   301</i>
   <i name="EMIN">     10.00000000</i>
   <i name="EMAX">    -10.00000000</i>
   <i name="EFERMI">      0.00000000</i>
  </separator>
  <separator name="writing" >
   <i type="int" name="NWRITE">     1</i>
   <i type="logical" name="LWAVE"> F  </i>
   <i type="logical" name="LCHARG"> F  </i>
   <i type="logical" name="LPARD"> F  </i>
   <i type="logical" name="LVTOT"> F  </i>
   <i type="logical" name="LVHAR"> F  </i>
   <i type="logical" name="LELF"> F  </i>
   <i type="logical" name="LOPTICS"> F  </i>
   <v name="STM">      0.00000000      0.00000000      0.00000000      0.00000000      0.00000000      0.00000000      0.00000000</v>
  </separator>
  <separator name="performance" >
   <i type="int" name="NPAR">     6</i>
   <i type="int" name="NSIM">     4</i>
   <i type="int" name="NBLK">    -1</i>
   <i type="logical" name="LPLANE"> T  </i>
   <i type="logical" name="LSCALAPACK"> T  </i>
   <i type="logical" name="LSCAAWARE"> F  </i>
   <i type="logical" name="LSCALU"> F  </i>
   <i type="logical" name="LASYNC"> F  </i>
   <i type="logical" name="LORBITALREAL"> F  </i>
  </separator>
  <separator name="miscellaneous" >
   <i type="int" name="IDIOT">     3</i>
   <i type="logical" name="LMUSIC"> F  </i>
   <v name="POMASS">    196.96600000    106.42000000</v>
   <v name="DARWINR">      0.00000000      0.00000000</v>
   <v name="DARWINV">      1.00000000      1.00000000</v>
   <i type="logical" name="LCORR"> T  </i>
  </separator>
  <i type="logical" name="GGA_COMPAT"> T  </i>
  <i type="logical" name="LBERRY"> F  </i>
  <i type="int" name="ICORELEVEL">     0</i>
  <i type="logical" name="LDAU"> F  </i>
  <i type="int" name="I_CONSTRAINED_M">     0</i>
  <separator name="electronic exchange-correlation" >
   <i type="string" name="GGA">PE</i>
   <i type="int" name="VOSKOWN">     1</i>
   <i type="logical" name="LHFCALC"> F  </i>
   <i type="string" name="PRECFOCK"></i>
   <i type="logical" name="LSYMGRAD"> F  </i>
   <i type="logical" name="LHFONE"> F  </i>
   <i type="logical" name="LRHFCALC"> F  </i>
   <i type="logical" name="LTHOMAS"> F  </i>
   <i type="logical" name="LMODELHF"> F  </i>
   <i name="ENCUT4O">     -1.00000000</i>
   <i type="int" name="EXXOEP">     0</i>
   <i type="int" name="FOURORBIT">     0</i>
   <i name="AEXX">      0.00000000</i>
   <i name="HFALPHA">      0.00000000</i>
   <i name="MCALPHA">      0.00000000</i>
   <i name="ALDAX">      1.00000000</i>
   <i name="AGGAX">      1.00000000</i>
   <i name="ALDAC">      1.00000000</i>
   <i name="AGGAC">      1.00000000</i>
   <i type="int" name="NKREDX">     1</i>
   <i type="int" name="NKREDY">     1</i>
   <i type="int" name="NKREDZ">     1</i>
   <i type="logical" name="SHIFTRED"> F  </i>
   <i type="logical" name="ODDONLY"> F  </i>
   <i type="logical" name="EVENONLY"> F  </i>
   <i type="int" name="LMAXFOCK">     0</i>
   <i type="int" name="NMAXFOCKAE">     0</i>
   <i type="logical" name="LFOCKAEDFT"> F  </i>
   <i name="HFSCREEN">      0.00000000</i>
   <i name="HFSCREENC">      0.00000000</i>
   <i type="int" name="NBANDSGWLOW">     0</i>
  </separator>
  <separator name="vdW DFT" >
   <i type="logical" name="LUSE_VDW"> F  </i>
   <i name="Zab_VDW">     -0.84910000</i>
   <i name="PARAM1">      0.12340000</i>
   <i name="PARAM2">      1.00000000</i>
   <i name="PARAM3">      0.00000000</i>
  </separator>
  <separator name="model GW" >
   <i type="int" name="MODEL_GW">     0</i>
   <i name="MODEL_EPS0">     32.09595293</i>
   <i name="MODEL_ALPHA">      1.00000000</i>
  </separator>
  <separator name="linear response parameters" >
   <i type="logical" name="LEPSILON"> F  </i>
   <i type="logical" name="LRPA"> F  </i>
   <i type="logical" name="LNABLA"> F  </i>
   <i type="logical" name="LVEL"> F  </i>
   <i type="int" name="KINTER">     0</i>
   <i name="CSHIFT">      0.10000000</i>
   <i name="OMEGAMAX">     -1.00000000</i>
   <i name="DEG_THRESHOLD">      0.00200000</i>
  </separator>
  <separator name="orbital magnetization" >
   <i type="logical" name="NUCIND"> F  </i>
   <v name="MAGPOS">      0.00000000      0.00000000      0.00000000</v>
   <i type="logical" name="LNICSALL"> T  </i>
   <i type="logical" name="ORBITALMAG"> F  </i>
   <i type="logical" name="LMAGBLOCH"> F  </i>
   <i type="logical" name="LCHIMAG"> F  </i>
   <i type="logical" name="LGAUGE"> T  </i>
   <i type="int" name="MAGATOM">     0</i>
   <v name="MAGDIPOL">      0.00000000      0.00000000      0.00000000</v>
   <v name="AVECCONST">      0.00000000      0.00000000      0.00000000</v>
  </separator>
  <separator name="response functions" >
   <i type="logical" name="LADDER"> F  </i>
   <i type="logical" name="LFXC"> F  </i>
   <i type="logical" name="LHARTREE"> T  </i>
   <i type="int" name="IBSE">     0</i>
   <v type="int" name="KPOINT">    -1     0     0     0</v>
   <i type="logical" name="LTCTE"> F  </i>
   <i type="logical" name="LTETE"> F  </i>
   <i type="logical" name="LTRIPLET"> F  </i>
   <i type="logical" name="LFXCEPS"> F  </i>
   <i type="logical" name="LFXHEG"> F  </i>
   <i type="int" name="NATURALO">     0</i>
   <i type="logical" name="L2ORDER"> F  </i>
   <i type="logical" name="LUSEW"> F  </i>
   <i name="ENCUTGW">     -2.00000000</i>
   <i name="ENCUTGWSOFT">     -2.00000000</i>
   <i name="ENCUTLF">     -1.00000000</i>
   <i type="int" name="LMAXMP2">    -1</i>
   <i name="SCISSOR">      0.00000000</i>
   <i type="int" name="NOMEGA">     0</i>
   <i type="int" name="NOMEGAR">     0</i>
   <i type="int" name="NBANDSGW">    -1</i>
   <i type="int" name="NBANDSO">    -1</i>
   <i type="int" name="NBANDSV">    -1</i>
   <i type="int" name="NELM">   500</i>
   <i type="int" name="NELMHF">     1</i>
   <i type="int" name="DIM">     3</i>
   <i type="int" name="ANTIRES">     0</i>
   <i name="OMEGAMAX">    -30.00000000</i>
   <i name="OMEGAMIN">    -30.00000000</i>
   <i name="OMEGATL">   -200.00000000</i>
   <i type="int" name="OMEGAGRID">     0</i>
   <i name="CSHIFT">     -0.10000000</i>
   <i type="logical" name="SELFENERGY"> F  </i>
   <i type="logical" name="LSPECTRAL"> F  </i>
   <i type="logical" name="LSPECTRALGW"> F  </i>
   <i type="logical" name="LSINGLES"> F  </i>
   <i type="logical" name="LFERMIGW"> F  </i>
   <i type="logical" name="ODDONLYGW"> F  </i>
   <i type="logical" name="EVENONLYGW"> F  </i>
   <i type="int" name="NKREDLFX">     1</i>
   <i type="int" name="NKREDLFY">     1</i>
   <i type="int" name="NKREDLFZ">     1</i>
   <i type="int" name="MAXMEM">  1800</i>
   <i type="int" name="TELESCOPE">     0</i>
   <i type="int" name="TAUPAR">     1</i>
   <i type="int" name="OMEGAPAR">    -1</i>
   <i name="LAMBDA">      1.00000000</i>
  </separator>
  <separator name="External order field" >
   <i name="OFIELD_KAPPA">      0.00000000</i>
   <v name="OFIELD_K">      0.00000000      0.00000000      0.00000000</v>
   <i name="OFIELD_Q6_NEAR">      0.00000000</i>
   <i name="OFIELD_Q6_FAR">      0.00000000</i>
   <i name="OFIELD_A">      0.00000000</i>
  </separator>
 </parameters>
 <atominfo>
  <atoms>      48 </atoms>
  <types>       2 </types>
  <array name="atoms" >
   <dimension dim="1">ion</dimension>
   <field type="string">element</field>
   <field type="int">atomtype</field>
   <set>
    <rc><c>Au</c><c>   1</c></rc>
    <rc><c>Au</c><c>   1</c></rc>
    <rc><c>Au</c><c>   1</c></rc>
    <rc><c>Au</c><c>   1</c></rc>
    <rc><c>Au</c><c>   1</c></rc>
    <rc><c>Au</c><c>   1</c></rc>
    <rc><c>Au</c><c>   1</c></rc>
    <rc><c>Au</c><c>   1</c></rc>
    <rc><c>Au</c><c>   1</c></rc>
    <rc><c>Au</c><c>   1</c></rc>
    <rc><c>Au</c><c>   1</c></rc>
    <rc><c>Au</c><c>   1</c></rc>
    <rc><c>Au</c><c>   1</c></rc>
    <rc><c>Au</c><c>   1</c></rc>
    <rc><c>Au</c><c>   1</c></rc>
    <rc><c>Au</c><c>   1</c></rc>
    <rc><c>Au</c><c>   1</c></rc>
    <rc><c>Au</c><c>   1</c></rc>
    <rc><c>Au</c><c>   1</c></rc>
    <rc><c>Au</c><c>   1</c></rc>
    <rc><c>Au</c><c>   1</c></rc>
    <rc><c>Au</c><c>   1</c></rc>
    <rc><c>Au</c><c>   1</c></rc>
    <rc><c>Au</c><c>   1</c></rc>
    <rc><c>Pd</c><c>   2</c></rc>
    <rc><c>Pd</c><c>   2</c></rc>
    <rc><c>Pd</c><c>   2</c></rc>
    <rc><c>Pd</c><c>   2</c></rc>
    <rc><c>Pd</c><c>   2</c></rc>
    <rc><c>Pd</c><c>   2</c></rc>
    <rc><c>Pd</c><c>   2</c></rc>
    <rc><c>Pd</c><c>   2</c></rc>
    <rc><c>Pd</c><c>   2</c></rc>
    <rc><c>Pd</c><c>   2</c></rc>
    <rc><c>Pd</c><c>   2</c></rc>
    <rc><c>Pd</c><c>   2</c></rc>
    <rc><c>Pd</c><c>   2</c></rc>
    <rc><c>Pd</c><c>   2</c></rc>
    <rc><c>Pd</c><c>   2</c></rc>
    <rc><c>Pd</c><c>   2</c></rc>
    <rc><c>Pd</c><c>   2</c></rc>
    <rc><c>Pd</c><c>   2</c></rc>
    <rc><c>Pd</c><c>   2</c></rc>
    <rc><c>Pd</c><c>   2</c></rc>
    <rc><c>Pd</c><c>   2</c></rc>
    <rc><c>Pd</c><c>   2</c></rc>
    <rc><c>Pd</c><c>   2</c></rc>
    <rc><c>Pd</c><c>   2</c></rc>
   </set>
  </array>
  <array name="atomtypes" >
   <dimension dim="1">type</dimension>
   <field type="int">atomspertype</field>
   <field type="string">element</field>
   <field>mass</field>
   <field>valence</field>
   <field type="string">pseudopotential</field>
   <set>
    <rc><c>  24</c><c>Au</c><c>    196.96600000</c><c>     11.00000000</c><c>  PAW_PBE Au 04Oct2007                  </c></rc>
    <rc><c>  24</c><c>Pd</c><c>    106.42000000</c><c>     10.00000000</c><c>  PAW_PBE Pd 04Jan2005                  </c></rc>
   </set>
  </array>
 </atominfo>
 <structure name="initialpos" >
  <crystal>
   <varray name="basis" >
    <v>      11.00258152       0.00000000       0.00000000 </v>
    <v>       5.50129076       9.52851510       0.00000000 </v>
    <v>       0.00000000       0.00000000      24.49178509 </v>
   </varray>
   <i name="volume">   2567.67623402 </i>
   <varray name="rec_basis" >
    <v>       0.09088776      -0.05247407       0.00000000 </v>
    <v>       0.00000000       0.10494815       0.00000000 </v>
    <v>       0.00000000       0.00000000       0.04083002 </v>
   </varray>
  </crystal>
  <varray name="positions" >
   <v>       0.25000000       0.75000000       0.59169983 </v>
   <v>       0.41666667       0.66666667       0.50000000 </v>
   <v>       0.50000000       0.50000000       0.59169983 </v>
   <v>       0.66666667       0.91666667       0.50000000 </v>
   <v>       0.58333333       0.83333333       0.40830017 </v>
   <v>       0.33333333       0.83333333       0.40830017 </v>
   <v>       0.25000000       0.50000000       0.59169983 </v>
   <v>       0.41666667       0.91666667       0.50000000 </v>
   <v>       0.83333333       0.08333333       0.40830017 </v>
   <v>       0.66666667       0.16666667       0.50000000 </v>
   <v>       0.33333333       0.33333333       0.40830017 </v>
   <v>       0.25000000       0.00000000       0.59169983 </v>
   <v>       0.58333333       0.58333333       0.40830017 </v>
   <v>       0.75000000       0.00000000       0.59169983 </v>
   <v>       0.00000000       0.75000000       0.59169983 </v>
   <v>       0.83333333       0.33333333       0.40830017 </v>
   <v>       0.66666667       0.41666667       0.50000000 </v>
   <v>       0.00000000       0.50000000       0.59169983 </v>
   <v>       0.75000000       0.25000000       0.59169983 </v>
   <v>       0.66666667       0.66666667       0.50000000 </v>
   <v>       0.91666667       0.41666667       0.50000000 </v>
   <v>       0.75000000       0.50000000       0.59169983 </v>
   <v>       0.00000000       0.00000000       0.59169983 </v>
   <v>       0.33333333       0.08333333       0.40830017 </v>
   <v>       0.50000000       0.75000000       0.59169983 </v>
   <v>       0.83333333       0.58333333       0.40830017 </v>
   <v>       0.83333333       0.83333333       0.40830017 </v>
   <v>       0.50000000       0.25000000       0.59169983 </v>
   <v>       0.08333333       0.08333333       0.40830017 </v>
   <v>       0.58333333       0.33333333       0.40830017 </v>
   <v>       0.91666667       0.16666667       0.50000000 </v>
   <v>       0.08333333       0.33333333       0.40830017 </v>
   <v>       0.00000000       0.25000000       0.59169983 </v>
   <v>       0.08333333       0.58333333       0.40830017 </v>
   <v>       0.91666667       0.66666667       0.50000000 </v>
   <v>       0.08333333       0.83333333       0.40830017 </v>
   <v>       0.91666667       0.91666667       0.50000000 </v>
   <v>       0.41666667       0.41666667       0.50000000 </v>
   <v>       0.16666667       0.16666667       0.50000000 </v>
   <v>       0.25000000       0.25000000       0.59169983 </v>
   <v>       0.33333333       0.58333333       0.40830017 </v>
   <v>       0.16666667       0.66666667       0.50000000 </v>
   <v>       0.16666667       0.91666667       0.50000000 </v>
   <v>       0.58333333       0.08333333       0.40830017 </v>
   <v>       0.41666667       0.16666667       0.50000000 </v>
   <v>       0.50000000       0.00000000       0.59169983 </v>
   <v>       0.16666667       0.41666667       0.50000000 </v>
   <v>       0.75000000       0.75000000       0.59169983 </v>
  </varray>
 </structure>
 <calculation>
  <scstep>
   <time name="dav">    7.15    7.17</time>
   <time name="total">    7.20    7.23</time>
   <dipole>
    <v name="dipole">      0.00000000       0.00000000      -0.00000222 </v>
    <i name="Tr[quadrupol]"> -10315.99304372 </i>
    <i name="Echarged">      0.00000000 </i>
    <i name="Edipol_quadrupol">      0.00000000 </i>
    <i name="Eion">      0.00000000 </i>
   </dipole>
   <energy>
    <i name="alphaZ">    805.86936534 </i>
    <i name="ewald"> 199940.36706215 </i>
    <i name="hartreedc">-242354.25986166 </i>
    <i name="XCdc">   -327.68836130 </i>
    <i name="pawpsdc">  40340.05962942 </i>
    <i name="pawaedc"> -38292.62782345 </i>
    <i name="eentropy">     -0.14179158 </i>
    <i name="bandstr">   1428.82096011 </i>
    <i name="atom">  41659.78587232 </i>
    <i name="e_fr_energy">   3200.18505136 </i>
    <i name="e_wo_entrp">   3200.32684294 </i>
    <i name="e_0_energy">   3200.25594715 </i>
   </energy>
  </scstep>
  <scstep>
   <time name="dav">    8.34    8.43</time>
   <time name="total">    8.34    8.44</time>
   <dipole>
    <v name="dipole">      0.00000000       0.00000000      -0.00000222 </v>
    <i name="Tr[quadrupol]"> -10315.99304372 </i>
    <i name="Echarged">      0.00000000 </i>
    <i name="Edipol_quadrupol">      0.00000000 </i>
    <i name="Eion">      0.00000000 </i>
   </dipole>
   <energy>
    <i name="e_fr_energy">     14.28858075 </i>
    <i name="e_wo_entrp">     14.41765684 </i>
    <i name="e_0_energy">     14.35311879 </i>
   </energy>
  </scstep>
  <scstep>
   <time name="dav">    8.15    8.17</time>
   <time name="total">    8.15    8.18</time>
   <dipole>
    <v name="dipole">      0.00000000       0.00000000      -0.00000222 </v>
    <i name="Tr[quadrupol]"> -10315.99304372 </i>
    <i name="Echarged">      0.00000000 </i>
    <i name="Edipol_quadrupol">      0.00000000 </i>
    <i name="Eion">      0.00000000 </i>
   </dipole>
   <energy>
    <i name="e_fr_energy">   -201.56492981 </i>
    <i name="e_wo_entrp">   -201.37992481 </i>
    <i name="e_0_energy">   -201.47242731 </i>
   </energy>
  </scstep>
  <scstep>
   <time name="dav">    8.23    8.25</time>
   <time name="total">    8.23    8.26</time>
   <dipole>
    <v name="dipole">      0.00000000       0.00000000      -0.00000222 </v>
    <i name="Tr[quadrupol]"> -10315.99304372 </i>
    <i name="Echarged">      0.00000000 </i>
    <i name="Edipol_quadrupol">      0.00000000 </i>
    <i name="Eion">      0.00000000 </i>
   </dipole>
   <energy>
    <i name="e_fr_energy">   -207.40706016 </i>
    <i name="e_wo_entrp">   -207.20971409 </i>
    <i name="e_0_energy">   -207.30838712 </i>
   </energy>
  </scstep>
  <scstep>
   <time name="dav">    8.64    8.67</time>
   <time name="total">    8.86    8.90</time>
   <dipole>
    <v name="dipole">      0.00000000       0.00000000      -0.00000222 </v>
    <i name="Tr[quadrupol]"> -10315.99304372 </i>
    <i name="Echarged">      0.00000000 </i>
    <i name="Edipol_quadrupol">      0.00000000 </i>
    <i name="Eion">      0.00000000 </i>
   </dipole>
   <energy>
    <i name="e_fr_energy">   -207.60378613 </i>
    <i name="e_wo_entrp">   -207.40635572 </i>
    <i name="e_0_energy">   -207.50507093 </i>
   </energy>
  </scstep>
  <scstep>
   <time name="diag">    1.28    1.29</time>
   <time name="diis">    3.37    3.38</time>
   <time name="orth">    0.35    0.35</time>
   <time name="total">    5.28    5.30</time>
   <dipole>
    <v name="dipole">      0.00000000       0.00000000      -1.01284324 </v>
    <i name="Tr[quadrupol]"> -10318.05426618 </i>
    <i name="Echarged">      0.00000000 </i>
    <i name="Edipol_quadrupol">      0.00000000 </i>
    <i name="Eion">      0.00000000 </i>
   </dipole>
   <energy>
    <i name="e_fr_energy">   -207.72710327 </i>
    <i name="e_wo_entrp">   -207.48450335 </i>
    <i name="e_0_energy">   -207.60580331 </i>
   </energy>
  </scstep>
  <scstep>
   <time name="diag">    1.29    1.29</time>
   <time name="diis">    3.42    3.42</time>
   <time name="orth">    0.35    0.35</time>
   <time name="total">    5.32    5.34</time>
   <dipole>
    <v name="dipole">      0.00000000       0.00000000       1.13592850 </v>
    <i name="Tr[quadrupol]"> -10316.37989745 </i>
    <i name="Echarged">      0.00000000 </i>
    <i name="Edipol_quadrupol">      0.00000000 </i>
    <i name="Eion">      0.00000000 </i>
   </dipole>
   <energy>
    <i name="e_fr_energy">   -212.53677501 </i>
    <i name="e_wo_entrp">   -212.31238341 </i>
    <i name="e_0_energy">   -212.42457921 </i>
   </energy>
  </scstep>
  <scstep>
   <time name="diag">    1.29    1.29</time>
   <time name="diis">    3.43    3.46</time>
   <time name="orth">    0.34    0.37</time>
   <time name="total">    5.33    5.42</time>
   <dipole>
    <v name="dipole">      0.00000000       0.00000000      -1.62419953 </v>
    <i name="Tr[quadrupol]"> -10317.30251042 </i>
    <i name="Echarged">      0.00000000 </i>
    <i name="Edipol_quadrupol">      0.00000000 </i>
    <i name="Eion">      0.00000000 </i>
   </dipole>
   <energy>
    <i name="e_fr_energy">   -221.96111097 </i>
    <i name="e_wo_entrp">   -221.70991064 </i>
    <i name="e_0_energy">   -221.83551081 </i>
   </energy>
  </scstep>
  <scstep>
   <time name="diag">    1.28    1.28</time>
   <time name="diis">    3.41    3.42</time>
   <time name="orth">    0.35    0.35</time>
   <time name="total">    5.31    5.33</time>
   <dipole>
    <v name="dipole">      0.00000000       0.00000000       0.49826578 </v>
    <i name="Tr[quadrupol]"> -10318.50293182 </i>
    <i name="Echarged">      0.00000000 </i>
    <i name="Edipol_quadrupol">      0.00000000 </i>
    <i name="Eion">      0.00000000 </i>
   </dipole>
   <energy>
    <i name="e_fr_energy">   -217.05098393 </i>
    <i name="e_wo_entrp">   -216.81961472 </i>
    <i name="e_0_energy">   -216.93529932 </i>
   </energy>
  </scstep>
  <scstep>
   <time name="diag">    1.28    1.29</time>
   <time name="diis">    3.44    3.45</time>
   <time name="orth">    0.35    0.35</time>
   <time name="total">    5.35    5.37</time>
   <dipole>
    <v name="dipole">      0.00000000       0.00000000      -0.53860448 </v>
    <i name="Tr[quadrupol]"> -10317.09282072 </i>
    <i name="Echarged">      0.00000000 </i>
    <i name="Edipol_quadrupol">      0.00000000 </i>
    <i name="Eion">      0.00000000 </i>
   </dipole>
   <energy>
    <i name="e_fr_energy">   -202.49325896 </i>
    <i name="e_wo_entrp">   -202.32074656 </i>
    <i name="e_0_energy">   -202.40700276 </i>
   </energy>
  </scstep>
  <scstep>
   <time name="diag">    1.28    1.28</time>
   <time name="diis">    3.44    3.45</time>
   <time name="orth">    0.35    0.35</time>
   <time name="total">    5.34    5.36</time>
   <dipole>
    <v name="dipole">      0.00000000       0.00000000      -0.11489742 </v>
    <i name="Tr[quadrupol]"> -10318.60941042 </i>
    <i name="Echarged">      0.00000000 </i>
    <i name="Edipol_quadrupol">      0.00000000 </i>
    <i name="Eion">      0.00000000 </i>
   </dipole>
   <energy>
    <i name="e_fr_energy">   -195.30675100 </i>
    <i name="e_wo_entrp">   -195.15049293 </i>
    <i name="e_0_energy">   -195.22862197 </i>
   </energy>
  </scstep>
  <scstep>
   <time name="diag">    1.28    1.28</time>
   <time name="diis">    3.39    3.40</time>
   <time name="orth">    0.35    0.35</time>
   <time name="total">    5.29    5.30</time>
   <dipole>
    <v name="dipole">      0.00000000       0.00000000      -0.15669057 </v>
    <i name="Tr[quadrupol]"> -10318.11196065 </i>
    <i name="Echarged">      0.00000000 </i>
    <i name="Edipol_quadrupol">      0.00000000 </i>
    <i name="Eion">      0.00000000 </i>
   </dipole>
   <energy>
    <i name="e_fr_energy">   -190.92038164 </i>
    <i name="e_wo_entrp">   -190.73363312 </i>
    <i name="e_0_energy">   -190.82700738 </i>
   </energy>
  </scstep>
  <scstep>
   <time name="diag">    1.27    1.28</time>
   <time name="diis">    3.44    3.45</time>
   <time name="orth">    0.35    0.35</time>
   <time name="total">    5.33    5.35</time>
   <dipole>
    <v name="dipole">      0.00000000       0.00000000      -0.14135390 </v>
    <i name="Tr[quadrupol]"> -10318.70990336 </i>
    <i name="Echarged">      0.00000000 </i>
    <i name="Edipol_quadrupol">      0.00000000 </i>
    <i name="Eion">      0.00000000 </i>
   </dipole>
   <energy>
    <i name="e_fr_energy">   -189.52172899 </i>
    <i name="e_wo_entrp">   -189.27255203 </i>
    <i name="e_0_energy">   -189.39714051 </i>
   </energy>
  </scstep>
  <scstep>
   <time name="diag">    1.28    1.28</time>
   <time name="diis">    3.49    3.49</time>
   <time name="orth">    0.35    0.35</time>
   <time name="total">    5.39    5.40</time>
   <dipole>
    <v name="dipole">      0.00000000       0.00000000      -0.12122552 </v>
    <i name="Tr[quadrupol]"> -10318.87061890 </i>
    <i name="Echarged">      0.00000000 </i>
    <i name="Edipol_quadrupol">      0.00000000 </i>
    <i name="Eion">      0.00000000 </i>
   </dipole>
   <energy>
    <i name="e_fr_energy">   -189.06071962 </i>
    <i name="e_wo_entrp">   -188.80777424 </i>
    <i name="e_0_energy">   -188.93424693 </i>
   </energy>
  </scstep>
  <scstep>
   <time name="diag">    1.28    1.29</time>
   <time name="diis">    3.42    3.43</time>
   <time name="orth">    0.35    0.35</time>
   <time name="total">    5.31    5.33</time>
   <dipole>
    <v name="dipole">      0.00000000       0.00000000      -0.10522010 </v>
    <i name="Tr[quadrupol]"> -10319.06418753 </i>
    <i name="Echarged">      0.00000000 </i>
    <i name="Edipol_quadrupol">      0.00000000 </i>
    <i name="Eion">      0.00000000 </i>
   </dipole>
   <energy>
    <i name="e_fr_energy">   -189.11615311 </i>
    <i name="e_wo_entrp">   -188.87470682 </i>
    <i name="e_0_energy">   -188.99542997 </i>
   </energy>
  </scstep>
  <scstep>
   <time name="diag">    1.28    1.29</time>
   <time name="diis">    3.42    3.52</time>
   <time name="orth">    0.35    0.35</time>
   <time name="total">    5.31    5.42</time>
   <dipole>
    <v name="dipole">      0.00000000       0.00000000      -0.09049262 </v>
    <i name="Tr[quadrupol]"> -10319.37569339 </i>
    <i name="Echarged">      0.00000000 </i>
    <i name="Edipol_quadrupol">      0.00000000 </i>
    <i name="Eion">      0.00000000 </i>
   </dipole>
   <energy>
    <i name="e_fr_energy">   -189.10202128 </i>
    <i name="e_wo_entrp">   -188.84303923 </i>
    <i name="e_0_energy">   -188.97253026 </i>
   </energy>
  </scstep>
  <scstep>
   <time name="diag">    1.28    1.28</time>
   <time name="diis">    3.45    3.46</time>
   <time name="orth">    0.35    0.35</time>
   <time name="total">    5.35    5.36</time>
   <dipole>
    <v name="dipole">      0.00000000       0.00000000      -0.08608429 </v>
    <i name="Tr[quadrupol]"> -10319.71521470 </i>
    <i name="Echarged">      0.00000000 </i>
    <i name="Edipol_quadrupol">      0.00000000 </i>
    <i name="Eion">      0.00000000 </i>
   </dipole>
   <energy>
    <i name="e_fr_energy">   -188.92490283 </i>
    <i name="e_wo_entrp">   -188.66892218 </i>
    <i name="e_0_energy">   -188.79691250 </i>
   </energy>
  </scstep>
  <scstep>
   <time name="diag">    1.28    1.28</time>
   <time name="diis">    3.46    3.48</time>
   <time name="orth">    0.35    0.35</time>
   <time name="total">    5.36    5.39</time>
   <dipole>
    <v name="dipole">      0.00000000       0.00000000      -0.09378324 </v>
    <i name="Tr[quadrupol]"> -10320.01669773 </i>
    <i name="Echarged">      0.00000000 </i>
    <i name="Edipol_quadrupol">      0.00000000 </i>
    <i name="Eion">      0.00000000 </i>
   </dipole>
   <energy>
    <i name="e_fr_energy">   -188.77757830 </i>
    <i name="e_wo_entrp">   -188.51617268 </i>
    <i name="e_0_energy">   -188.64687549 </i>
   </energy>
  </scstep>
  <scstep>
   <time name="diag">    1.29    1.30</time>
   <time name="diis">    3.41    3.43</time>
   <time name="orth">    0.35    0.36</time>
   <time name="total">    5.31    5.36</time>
   <dipole>
    <v name="dipole">      0.00000000       0.00000000      -0.10330258 </v>
    <i name="Tr[quadrupol]"> -10320.18249791 </i>
    <i name="Echarged">      0.00000000 </i>
    <i name="Edipol_quadrupol">      0.00000000 </i>
    <i name="Eion">      0.00000000 </i>
   </dipole>
   <energy>
    <i name="e_fr_energy">   -188.66333955 </i>
    <i name="e_wo_entrp">   -188.39628545 </i>
    <i name="e_0_energy">   -188.52981250 </i>
   </energy>
  </scstep>
  <scstep>
   <time name="diag">    1.29    1.29</time>
   <time name="diis">    3.41    3.42</time>
   <time name="orth">    0.35    0.35</time>
   <time name="total">    5.31    5.33</time>
   <dipole>
    <v name="dipole">      0.00000000       0.00000000      -0.07294173 </v>
    <i name="Tr[quadrupol]"> -10320.29809314 </i>
    <i name="Echarged">      0.00000000 </i>
    <i name="Edipol_quadrupol">      0.00000000 </i>
    <i name="Eion">      0.00000000 </i>
   </dipole>
   <energy>
    <i name="e_fr_energy">   -188.63734445 </i>
    <i name="e_wo_entrp">   -188.37043173 </i>
    <i name="e_0_energy">   -188.50388809 </i>
   </energy>
  </scstep>
  <scstep>
   <time name="diag">    1.27    1.28</time>
   <time name="diis">    3.42    3.42</time>
   <time name="orth">    0.35    0.35</time>
   <time name="total">    5.31    5.32</time>
   <dipole>
    <v name="dipole">      0.00000000       0.00000000      -0.06125145 </v>
    <i name="Tr[quadrupol]"> -10320.36328422 </i>
    <i name="Echarged">      0.00000000 </i>
    <i name="Edipol_quadrupol">      0.00000000 </i>
    <i name="Eion">      0.00000000 </i>
   </dipole>
   <energy>
    <i name="e_fr_energy">   -188.63229236 </i>
    <i name="e_wo_entrp">   -188.36364638 </i>
    <i name="e_0_energy">   -188.49796937 </i>
   </energy>
  </scstep>
  <scstep>
   <time name="diag">    1.28    1.28</time>
   <time name="diis">    3.41    3.42</time>
   <time name="orth">    0.35    0.35</time>
   <time name="total">    5.31    5.32</time>
   <dipole>
    <v name="dipole">      0.00000000       0.00000000      -0.05869050 </v>
    <i name="Tr[quadrupol]"> -10320.43091717 </i>
    <i name="Echarged">      0.00000000 </i>
    <i name="Edipol_quadrupol">      0.00000000 </i>
    <i name="Eion">      0.00000000 </i>
   </dipole>
   <energy>
    <i name="e_fr_energy">   -188.63006154 </i>
    <i name="e_wo_entrp">   -188.36064777 </i>
    <i name="e_0_energy">   -188.49535466 </i>
   </energy>
  </scstep>
  <scstep>
   <time name="diag">    1.28    1.29</time>
   <time name="diis">    3.40    3.46</time>
   <time name="orth">    0.34    0.37</time>
   <time name="total">    5.30    5.40</time>
   <dipole>
    <v name="dipole">      0.00000000       0.00000000      -0.05777083 </v>
    <i name="Tr[quadrupol]"> -10320.55806705 </i>
    <i name="Echarged">      0.00000000 </i>
    <i name="Edipol_quadrupol">      0.00000000 </i>
    <i name="Eion">      0.00000000 </i>
   </dipole>
   <energy>
    <i name="e_fr_energy">   -188.62849248 </i>
    <i name="e_wo_entrp">   -188.36061163 </i>
    <i name="e_0_energy">   -188.49455206 </i>
   </energy>
  </scstep>
  <scstep>
   <time name="diag">    1.29    1.29</time>
   <time name="diis">    3.44    3.45</time>
   <time name="orth">    0.34    0.35</time>
   <time name="total">    5.34    5.36</time>
   <dipole>
    <v name="dipole">      0.00000000       0.00000000      -0.05495472 </v>
    <i name="Tr[quadrupol]"> -10320.71274566 </i>
    <i name="Echarged">      0.00000000 </i>
    <i name="Edipol_quadrupol">      0.00000000 </i>
    <i name="Eion">      0.00000000 </i>
   </dipole>
   <energy>
    <i name="e_fr_energy">   -188.62723972 </i>
    <i name="e_wo_entrp">   -188.35780586 </i>
    <i name="e_0_energy">   -188.49252279 </i>
   </energy>
  </scstep>
  <scstep>
   <time name="diag">    1.28    1.29</time>
   <time name="diis">    3.48    3.49</time>
   <time name="orth">    0.34    0.34</time>
   <time name="total">    5.37    5.39</time>
   <dipole>
    <v name="dipole">      0.00000000       0.00000000      -0.05154203 </v>
    <i name="Tr[quadrupol]"> -10320.80051730 </i>
    <i name="Echarged">      0.00000000 </i>
    <i name="Edipol_quadrupol">      0.00000000 </i>
    <i name="Eion">      0.00000000 </i>
   </dipole>
   <energy>
    <i name="e_fr_energy">   -188.62643398 </i>
    <i name="e_wo_entrp">   -188.35750003 </i>
    <i name="e_0_energy">   -188.49196700 </i>
   </energy>
  </scstep>
  <scstep>
   <time name="diag">    1.28    1.28</time>
   <time name="diis">    3.46    3.47</time>
   <time name="orth">    0.34    0.34</time>
   <time name="total">    5.36    5.37</time>
   <dipole>
    <v name="dipole">      0.00000000       0.00000000      -0.04884681 </v>
    <i name="Tr[quadrupol]"> -10320.85182738 </i>
    <i name="Echarged">      0.00000000 </i>
    <i name="Edipol_quadrupol">      0.00000000 </i>
    <i name="Eion">      0.00000000 </i>
   </dipole>
   <energy>
    <i name="e_fr_energy">   -188.62653892 </i>
    <i name="e_wo_entrp">   -188.35701996 </i>
    <i name="e_0_energy">   -188.49177944 </i>
   </energy>
  </scstep>
  <scstep>
   <time name="diag">    1.28    1.29</time>
   <time name="diis">    3.46    3.47</time>
   <time name="orth">    0.34    0.35</time>
   <time name="total">    5.35    5.37</time>
   <dipole>
    <v name="dipole">      0.00000000       0.00000000      -0.04436538 </v>
    <i name="Tr[quadrupol]"> -10320.93983397 </i>
    <i name="Echarged">      0.00000000 </i>
    <i name="Edipol_quadrupol">      0.00000000 </i>
    <i name="Eion">      0.00000000 </i>
   </dipole>
   <energy>
    <i name="e_fr_energy">   -188.62678576 </i>
    <i name="e_wo_entrp">   -188.35745683 </i>
    <i name="e_0_energy">   -188.49212130 </i>
   </energy>
  </scstep>
  <scstep>
   <time name="diag">    1.28    1.29</time>
   <time name="diis">    3.37    3.41</time>
   <time name="orth">    0.34    0.34</time>
   <time name="total">    5.27    5.32</time>
   <dipole>
    <v name="dipole">      0.00000000       0.00000000      -0.04239481 </v>
    <i name="Tr[quadrupol]"> -10320.99505969 </i>
    <i name="Echarged">      0.00000000 </i>
    <i name="Edipol_quadrupol">      0.00000000 </i>
    <i name="Eion">      0.00000000 </i>
   </dipole>
   <energy>
    <i name="e_fr_energy">   -188.62712250 </i>
    <i name="e_wo_entrp">   -188.35762210 </i>
    <i name="e_0_energy">   -188.49237230 </i>
   </energy>
  </scstep>
  <scstep>
   <time name="diag">    1.28    1.30</time>
   <time name="diis">    3.54    3.54</time>
   <time name="orth">    0.34    0.35</time>
   <time name="total">    5.43    5.47</time>
   <dipole>
    <v name="dipole">      0.00000000       0.00000000      -0.03974487 </v>
    <i name="Tr[quadrupol]"> -10321.06360956 </i>
    <i name="Echarged">      0.00000000 </i>
    <i name="Edipol_quadrupol">      0.00000000 </i>
    <i name="Eion">      0.00000000 </i>
   </dipole>
   <energy>
    <i name="e_fr_energy">   -188.62758147 </i>
    <i name="e_wo_entrp">   -188.35811669 </i>
    <i name="e_0_energy">   -188.49284908 </i>
   </energy>
  </scstep>
  <scstep>
   <time name="diag">    1.28    1.30</time>
   <time name="diis">    3.51    3.51</time>
   <time name="orth">    0.34    0.34</time>
   <time name="total">    5.41    5.44</time>
   <dipole>
    <v name="dipole">      0.00000000       0.00000000      -0.03731907 </v>
    <i name="Tr[quadrupol]"> -10321.13157875 </i>
    <i name="Echarged">      0.00000000 </i>
    <i name="Edipol_quadrupol">      0.00000000 </i>
    <i name="Eion">      0.00000000 </i>
   </dipole>
   <energy>
    <i name="e_fr_energy">   -188.62820537 </i>
    <i name="e_wo_entrp">   -188.35886666 </i>
    <i name="e_0_energy">   -188.49353601 </i>
   </energy>
  </scstep>
  <scstep>
   <time name="diag">    1.27    1.30</time>
   <time name="diis">    3.34    3.40</time>
   <time name="orth">    0.35    0.35</time>
   <time name="total">    5.22    5.31</time>
   <dipole>
    <v name="dipole">      0.00000000       0.00000000      -0.03481996 </v>
    <i name="Tr[quadrupol]"> -10321.18813740 </i>
    <i name="Echarged">      0.00000000 </i>
    <i name="Edipol_quadrupol">      0.00000000 </i>
    <i name="Eion">      0.00000000 </i>
   </dipole>
   <energy>
    <i name="e_fr_energy">   -188.62877878 </i>
    <i name="e_wo_entrp">   -188.35938740 </i>
    <i name="e_0_energy">   -188.49408309 </i>
   </energy>
  </scstep>
  <scstep>
   <time name="diag">    1.29    1.29</time>
   <time name="diis">    3.40    3.41</time>
   <time name="orth">    0.34    0.35</time>
   <time name="total">    5.30    5.32</time>
   <dipole>
    <v name="dipole">      0.00000000       0.00000000      -0.03146586 </v>
    <i name="Tr[quadrupol]"> -10321.25202015 </i>
    <i name="Echarged">      0.00000000 </i>
    <i name="Edipol_quadrupol">      0.00000000 </i>
    <i name="Eion">      0.00000000 </i>
   </dipole>
   <energy>
    <i name="e_fr_energy">   -188.62940663 </i>
    <i name="e_wo_entrp">   -188.36001312 </i>
    <i name="e_0_energy">   -188.49470987 </i>
   </energy>
  </scstep>
  <scstep>
   <time name="diag">    1.28    1.28</time>
   <time name="diis">    2.92    2.93</time>
   <time name="orth">    0.34    0.35</time>
   <time name="total">    4.81    4.83</time>
   <dipole>
    <v name="dipole">      0.00000000       0.00000000      -0.02988745 </v>
    <i name="Tr[quadrupol]"> -10321.28049346 </i>
    <i name="Echarged">      0.00000000 </i>
    <i name="Edipol_quadrupol">      0.00000000 </i>
    <i name="Eion">      0.00000000 </i>
   </dipole>
   <energy>
    <i name="e_fr_energy">   -188.62964199 </i>
    <i name="e_wo_entrp">   -188.36022567 </i>
    <i name="e_0_energy">   -188.49493383 </i>
   </energy>
  </scstep>
  <scstep>
   <time name="diag">    1.28    1.28</time>
   <time name="diis">    2.62    2.63</time>
   <time name="orth">    0.34    0.34</time>
   <time name="total">    4.52    4.53</time>
   <dipole>
    <v name="dipole">      0.00000000       0.00000000      -0.02865814 </v>
    <i name="Tr[quadrupol]"> -10321.29999397 </i>
    <i name="Echarged">      0.00000000 </i>
    <i name="Edipol_quadrupol">      0.00000000 </i>
    <i name="Eion">      0.00000000 </i>
   </dipole>
   <energy>
    <i name="e_fr_energy">   -188.62980410 </i>
    <i name="e_wo_entrp">   -188.36038643 </i>
    <i name="e_0_energy">   -188.49509526 </i>
   </energy>
  </scstep>
  <scstep>
   <time name="diag">    1.28    1.28</time>
   <time name="diis">    2.26    2.26</time>
   <time name="orth">    0.34    0.34</time>
   <time name="total">    4.15    4.16</time>
   <dipole>
    <v name="dipole">      0.00000000       0.00000000      -0.02812163 </v>
    <i name="Tr[quadrupol]"> -10321.30688008 </i>
    <i name="Echarged">      0.00000000 </i>
    <i name="Edipol_quadrupol">      0.00000000 </i>
    <i name="Eion">      0.00000000 </i>
   </dipole>
   <energy>
    <i name="e_fr_energy">   -188.62986902 </i>
    <i name="e_wo_entrp">   -188.36045072 </i>
    <i name="e_0_energy">   -188.49515987 </i>
   </energy>
  </scstep>
  <scstep>
   <time name="diag">    1.28    1.29</time>
   <time name="diis">    2.17    2.17</time>
   <time name="orth">    0.34    0.34</time>
   <time name="total">    4.06    4.07</time>
   <dipole>
    <v name="dipole">      0.00000000       0.00000000      -0.02739669 </v>
    <i name="Tr[quadrupol]"> -10321.31543853 </i>
    <i name="Echarged">      0.00000000 </i>
    <i name="Edipol_quadrupol">      0.00000000 </i>
    <i name="Eion">      0.00000000 </i>
   </dipole>
   <energy>
    <i name="e_fr_energy">   -188.62994365 </i>
    <i name="e_wo_entrp">   -188.36052523 </i>
    <i name="e_0_energy">   -188.49523444 </i>
   </energy>
  </scstep>
  <scstep>
   <time name="diag">    1.27    1.28</time>
   <time name="diis">    2.12    2.12</time>
   <time name="orth">    0.34    0.35</time>
   <time name="total">    4.01    4.02</time>
   <dipole>
    <v name="dipole">      0.00000000       0.00000000      -0.02676671 </v>
    <i name="Tr[quadrupol]"> -10321.32113986 </i>
    <i name="Echarged">      0.00000000 </i>
    <i name="Edipol_quadrupol">      0.00000000 </i>
    <i name="Eion">      0.00000000 </i>
   </dipole>
   <energy>
    <i name="e_fr_energy">   -188.62998854 </i>
    <i name="e_wo_entrp">   -188.36056906 </i>
    <i name="e_0_energy">   -188.49527880 </i>
   </energy>
  </scstep>
  <scstep>
   <time name="diag">    1.28    1.28</time>
   <time name="diis">    2.11    2.11</time>
   <time name="orth">    0.34    0.35</time>
   <time name="total">    4.00    4.01</time>
   <dipole>
    <v name="dipole">      0.00000000       0.00000000      -0.02626786 </v>
    <i name="Tr[quadrupol]"> -10321.32544021 </i>
    <i name="Echarged">      0.00000000 </i>
    <i name="Edipol_quadrupol">      0.00000000 </i>
    <i name="Eion">      0.00000000 </i>
   </dipole>
   <energy>
    <i name="e_fr_energy">   -188.63001335 </i>
    <i name="e_wo_entrp">   -188.36059026 </i>
    <i name="e_0_energy">   -188.49530181 </i>
   </energy>
  </scstep>
  <scstep>
   <time name="diag">    1.28    1.28</time>
   <time name="diis">    1.96    1.96</time>
   <time name="orth">    0.34    0.35</time>
   <time name="total">    3.85    3.86</time>
   <dipole>
    <v name="dipole">      0.00000000       0.00000000      -0.02579513 </v>
    <i name="Tr[quadrupol]"> -10321.32969705 </i>
    <i name="Echarged">      0.00000000 </i>
    <i name="Edipol_quadrupol">      0.00000000 </i>
    <i name="Eion">      0.00000000 </i>
   </dipole>
   <energy>
    <i name="e_fr_energy">   -188.63002796 </i>
    <i name="e_wo_entrp">   -188.36060770 </i>
    <i name="e_0_energy">   -188.49531783 </i>
   </energy>
  </scstep>
  <scstep>
   <time name="diag">    1.27    1.31</time>
   <time name="diis">    1.71    1.76</time>
   <time name="orth">    0.34    0.34</time>
   <time name="total">    3.60    3.69</time>
   <dipole>
    <v name="dipole">      0.00000000       0.00000000      -0.02558548 </v>
    <i name="Tr[quadrupol]"> -10321.33174156 </i>
    <i name="Echarged">      0.00000000 </i>
    <i name="Edipol_quadrupol">      0.00000000 </i>
    <i name="Eion">      0.00000000 </i>
   </dipole>
   <energy>
    <i name="e_fr_energy">   -188.63003134 </i>
    <i name="e_wo_entrp">   -188.36060997 </i>
    <i name="e_0_energy">   -188.49532065 </i>
   </energy>
  </scstep>
  <scstep>
   <time name="diag">    1.27    1.28</time>
   <time name="diis">    1.57    1.60</time>
   <time name="orth">    0.34    0.35</time>
   <time name="total">    3.45    3.50</time>
   <dipole>
    <v name="dipole">      0.00000000       0.00000000      -0.02535504 </v>
    <i name="Tr[quadrupol]"> -10321.33414817 </i>
    <i name="Echarged">      0.00000000 </i>
    <i name="Edipol_quadrupol">      0.00000000 </i>
    <i name="Eion">      0.00000000 </i>
   </dipole>
   <energy>
    <i name="e_fr_energy">   -188.63003346 </i>
    <i name="e_wo_entrp">   -188.36061551 </i>
    <i name="e_0_energy">   -188.49532449 </i>
   </energy>
  </scstep>
  <scstep>
   <time name="diag">    1.28    1.28</time>
   <time name="diis">    1.53    1.53</time>
   <time name="orth">    0.34    0.34</time>
   <time name="total">    3.19    3.21</time>
   <dipole>
    <v name="dipole">      0.00000000       0.00000000      -0.02521060 </v>
    <i name="Tr[quadrupol]"> -10321.33574393 </i>
    <i name="Echarged">      0.00000000 </i>
    <i name="Edipol_quadrupol">      0.00000000 </i>
    <i name="Eion">      0.00000000 </i>
   </dipole>
   <energy>
    <i name="alphaZ">    805.88131278 </i>
    <i name="ewald"> 199940.36706215 </i>
    <i name="hartreedc">-242126.08156881 </i>
    <i name="XCdc">   -343.55332786 </i>
    <i name="pawpsdc">  49354.06064579 </i>
    <i name="pawaedc"> -47432.59511429 </i>
    <i name="eentropy">     -0.26941753 </i>
    <i name="bandstr">  -2046.22549894 </i>
    <i name="atom">  41659.78587232 </i>
    <i name="e_fr_energy">   -188.63003440 </i>
    <i name="e_wo_entrp">   -188.36061687 </i>
    <i name="e_0_energy">   -188.49532563 </i>
   </energy>
  </scstep>
  <structure>
   <crystal>
    <varray name="basis" >
     <v>      11.00258152       0.00000000       0.00000000 </v>
     <v>       5.50129076       9.52851510       0.00000000 </v>
     <v>       0.00000000       0.00000000      24.49178509 </v>
    </varray>
    <i name="volume">   2567.67623402 </i>
    <varray name="rec_basis" >
     <v>       0.09088776      -0.05247407       0.00000000 </v>
     <v>       0.00000000       0.10494815       0.00000000 </v>
     <v>       0.00000000       0.00000000       0.04083002 </v>
    </varray>
   </crystal>
   <varray name="positions" >
    <v>       0.25000000       0.75000000       0.59169983 </v>
    <v>       0.41666667       0.66666667       0.50000000 </v>
    <v>       0.50000000       0.50000000       0.59169983 </v>
    <v>       0.66666667       0.91666667       0.50000000 </v>
    <v>       0.58333333       0.83333333       0.40830017 </v>
    <v>       0.33333333       0.83333333       0.40830017 </v>
    <v>       0.25000000       0.50000000       0.59169983 </v>
    <v>       0.41666667       0.91666667       0.50000000 </v>
    <v>       0.83333333       0.08333333       0.40830017 </v>
    <v>       0.66666667       0.16666667       0.50000000 </v>
    <v>       0.33333333       0.33333333       0.40830017 </v>
    <v>       0.25000000       0.00000000       0.59169983 </v>
    <v>       0.58333333       0.58333333       0.40830017 </v>
    <v>       0.75000000       0.00000000       0.59169983 </v>
    <v>       0.00000000       0.75000000       0.59169983 </v>
    <v>       0.83333333       0.33333333       0.40830017 </v>
    <v>       0.66666667       0.41666667       0.50000000 </v>
    <v>       0.00000000       0.50000000       0.59169983 </v>
    <v>       0.75000000       0.25000000       0.59169983 </v>
    <v>       0.66666667       0.66666667       0.50000000 </v>
    <v>       0.91666667       0.41666667       0.50000000 </v>
    <v>       0.75000000       0.50000000       0.59169983 </v>
    <v>       0.00000000       0.00000000       0.59169983 </v>
    <v>       0.33333333       0.08333333       0.40830017 </v>
    <v>       0.50000000       0.75000000       0.59169983 </v>
    <v>       0.83333333       0.58333333       0.40830017 </v>
    <v>       0.83333333       0.83333333       0.40830017 </v>
    <v>       0.50000000       0.25000000       0.59169983 </v>
    <v>       0.08333333       0.08333333       0.40830017 </v>
    <v>       0.58333333       0.33333333       0.40830017 </v>
    <v>       0.91666667       0.16666667       0.50000000 </v>
    <v>       0.08333333       0.33333333       0.40830017 </v>
    <v>       0.00000000       0.25000000       0.59169983 </v>
    <v>       0.08333333       0.58333333       0.40830017 </v>
    <v>       0.91666667       0.66666667       0.50000000 </v>
    <v>       0.08333333       0.83333333       0.40830017 </v>
    <v>       0.91666667       0.91666667       0.50000000 </v>
    <v>       0.41666667       0.41666667       0.50000000 </v>
    <v>       0.16666667       0.16666667       0.50000000 </v>
    <v>       0.25000000       0.25000000       0.59169983 </v>
    <v>       0.33333333       0.58333333       0.40830017 </v>
    <v>       0.16666667       0.66666667       0.50000000 </v>
    <v>       0.16666667       0.91666667       0.50000000 </v>
    <v>       0.58333333       0.08333333       0.40830017 </v>
    <v>       0.41666667       0.16666667       0.50000000 </v>
    <v>       0.50000000       0.00000000       0.59169983 </v>
    <v>       0.16666667       0.41666667       0.50000000 </v>
    <v>       0.75000000       0.75000000       0.59169983 </v>
   </varray>
  </structure>
  <varray name="forces" >
   <v>       0.11138085       0.09246499       1.36225926 </v>
   <v>      -0.65989004      -0.00043232      -0.03096457 </v>
   <v>      -0.15590916      -0.08355175       1.64580461 </v>
   <v>       0.28488515       0.00058261       0.01916520 </v>
   <v>       0.55717720       0.00383506      -1.90244169 </v>
   <v>      -0.65953604       0.09440045      -1.58350921 </v>
   <v>      -0.01502431      -0.45484746       1.12170555 </v>
   <v>      -0.10813683       0.49673224       0.60697369 </v>
   <v>       0.02147289      -0.28965391      -1.31579119 </v>
   <v>      -0.41467171       0.18273694      -0.30656816 </v>
   <v>       0.10833622       0.20736713      -1.04904544 </v>
   <v>       0.21219597       0.31914172       1.28936428 </v>
   <v>      -0.13509394      -0.23655734      -1.91327413 </v>
   <v>      -0.35819523      -0.09314206       1.55286456 </v>
   <v>      -0.26563586      -0.02148463       1.12980922 </v>
   <v>       0.25760275      -0.15007806      -1.59782727 </v>
   <v>      -0.37683839      -0.39879085      -0.29072811 </v>
   <v>       0.02604476      -0.11494898       1.34072543 </v>
   <v>       0.12251935      -0.09762403       1.63269441 </v>
   <v>       0.55736077       0.15608825       0.28984487 </v>
   <v>       0.72880764      -0.40306283      -0.30619440 </v>
   <v>       0.14312527       0.20898656       1.84710600 </v>
   <v>       0.15179176       0.20474116       1.13279784 </v>
   <v>      -0.14385595       0.38503167      -1.36589429 </v>
   <v>       0.22205764       0.12152678       1.03314886 </v>
   <v>       0.35208341       0.01852817      -0.87749147 </v>
   <v>       0.13655556      -0.16888880      -0.68216301 </v>
   <v>      -0.35751768      -0.05070228       0.68537414 </v>
   <v>      -0.00544168       0.00901922      -0.54555923 </v>
   <v>      -0.21751708       0.05020534      -0.88829543 </v>
   <v>       0.47733114      -0.37146511      -0.09797297 </v>
   <v>      -0.00997011       0.09998127      -0.63395031 </v>
   <v>       0.18494816      -0.08227852       0.73756464 </v>
   <v>      -0.09780413       0.15523370      -0.33814663 </v>
   <v>       0.35789248       0.05482920      -0.44793669 </v>
   <v>      -0.07179323      -0.16195770      -0.44225007 </v>
   <v>       0.31437731      -0.37564019      -0.45983996 </v>
   <v>      -0.34891356      -0.07263656      -0.21048978 </v>
   <v>      -0.10292866       0.19522193       0.02652979 </v>
   <v>       0.13984433      -0.13954057       0.39970762 </v>
   <v>      -0.24983149      -0.04817062      -0.68782368 </v>
   <v>      -0.23311617       0.03064608      -0.60957859 </v>
   <v>      -0.40754186       0.23557970      -0.36725054 </v>
   <v>       0.10601206       0.05209518      -0.86851353 </v>
   <v>      -0.15328457       0.33526008       0.42799762 </v>
   <v>      -0.01269287       0.08639267       0.82812901 </v>
   <v>       0.10779026      -0.06419738      -0.19112384 </v>
   <v>      -0.12045237       0.08302385       0.90105763 </v>
  </varray>
  <energy>
   <i name="e_fr_energy">   -188.63003440 </i>
   <i name="e_wo_entrp">   -188.49532563 </i>
   <i name="e_0_energy">     -0.26941753 </i>
  </energy>
  <time name="totalsc">  226.77  228.14</time>
 </calculation>
 <calculation>
  <scstep>
   <time name="dav">    7.25    7.27</time>
   <time name="total">    7.53    7.56</time>
   <dipole>
    <v name="dipole">      0.00000000       0.00000000      -0.02506231 </v>
    <i name="Tr[quadrupol]"> -10297.46641657 </i>
    <i name="Echarged">      0.00000000 </i>
    <i name="Edipol_quadrupol">      0.00000000 </i>
    <i name="Eion">      0.00000000 </i>
   </dipole>
   <energy>
    <i name="alphaZ">    805.88143999 </i>
    <i name="ewald"> 197263.78989837 </i>
    <i name="hartreedc">-239465.67954111 </i>
    <i name="XCdc">   -345.75673967 </i>
    <i name="pawpsdc">  49354.05589296 </i>
    <i name="pawaedc"> -47432.59033567 </i>
    <i name="eentropy">     -0.26541691 </i>
    <i name="bandstr">  -2028.97682253 </i>
    <i name="atom">  41659.78587232 </i>
    <i name="e_fr_energy">   -189.75575224 </i>
    <i name="e_wo_entrp">   -189.49033533 </i>
    <i name="e_0_energy">   -189.62304379 </i>
   </energy>
  </scstep>
  <scstep>
   <time name="diag">    1.28    1.28</time>
   <time name="diis">    3.48    3.49</time>
   <time name="orth">    0.35    0.35</time>
   <time name="total">    5.38    5.39</time>
   <dipole>
    <v name="dipole">      0.00000000       0.00000000      -0.02052724 </v>
    <i name="Tr[quadrupol]"> -10297.19277572 </i>
    <i name="Echarged">      0.00000000 </i>
    <i name="Edipol_quadrupol">      0.00000000 </i>
    <i name="Eion">      0.00000000 </i>
   </dipole>
   <energy>
    <i name="e_fr_energy">   -190.16912730 </i>
    <i name="e_wo_entrp">   -189.90833758 </i>
    <i name="e_0_energy">   -190.03873244 </i>
   </energy>
  </scstep>
  <scstep>
   <time name="diag">    1.28    1.28</time>
   <time name="diis">    3.60    3.61</time>
   <time name="orth">    0.34    0.34</time>
   <time name="total">    5.49    5.51</time>
   <dipole>
    <v name="dipole">      0.00000000       0.00000000      -0.03317183 </v>
    <i name="Tr[quadrupol]"> -10297.71727073 </i>
    <i name="Echarged">      0.00000000 </i>
    <i name="Edipol_quadrupol">      0.00000000 </i>
    <i name="Eion">      0.00000000 </i>
   </dipole>
   <energy>
    <i name="e_fr_energy">   -190.33740763 </i>
    <i name="e_wo_entrp">   -190.07903371 </i>
    <i name="e_0_energy">   -190.20822067 </i>
   </energy>
  </scstep>
  <scstep>
   <time name="diag">    1.27    1.28</time>
   <time name="diis">    3.48    3.49</time>
   <time name="orth">    0.35    0.35</time>
   <time name="total">    5.37    5.38</time>
   <dipole>
    <v name="dipole">      0.00000000       0.00000000      -0.04387657 </v>
    <i name="Tr[quadrupol]"> -10297.56902245 </i>
    <i name="Echarged">      0.00000000 </i>
    <i name="Edipol_quadrupol">      0.00000000 </i>
    <i name="Eion">      0.00000000 </i>
   </dipole>
   <energy>
    <i name="e_fr_energy">   -190.14254814 </i>
    <i name="e_wo_entrp">   -189.87792237 </i>
    <i name="e_0_energy">   -190.01023526 </i>
   </energy>
  </scstep>
  <scstep>
   <time name="diag">    1.28    1.28</time>
   <time name="diis">    3.43    3.50</time>
   <time name="orth">    0.34    0.36</time>
   <time name="total">    5.32    5.42</time>
   <dipole>
    <v name="dipole">      0.00000000       0.00000000       0.03742285 </v>
    <i name="Tr[quadrupol]"> -10297.54838709 </i>
    <i name="Echarged">      0.00000000 </i>
    <i name="Edipol_quadrupol">      0.00000000 </i>
    <i name="Eion">      0.00000000 </i>
   </dipole>
   <energy>
    <i name="e_fr_energy">   -190.19671312 </i>
    <i name="e_wo_entrp">   -189.92951641 </i>
    <i name="e_0_energy">   -190.06311476 </i>
   </energy>
  </scstep>
  <scstep>
   <time name="diag">    1.28    1.28</time>
   <time name="diis">    3.44    3.44</time>
   <time name="orth">    0.34    0.35</time>
   <time name="total">    5.33    5.35</time>
   <dipole>
    <v name="dipole">      0.00000000       0.00000000      -0.05584047 </v>
    <i name="Tr[quadrupol]"> -10297.52443774 </i>
    <i name="Echarged">      0.00000000 </i>
    <i name="Edipol_quadrupol">      0.00000000 </i>
    <i name="Eion">      0.00000000 </i>
   </dipole>
   <energy>
    <i name="e_fr_energy">   -190.15174741 </i>
    <i name="e_wo_entrp">   -189.89310856 </i>
    <i name="e_0_energy">   -190.02242798 </i>
   </energy>
  </scstep>
  <scstep>
   <time name="diag">    1.28    1.28</time>
   <time name="diis">    3.45    3.47</time>
   <time name="orth">    0.34    0.34</time>
   <time name="total">    5.34    5.36</time>
   <dipole>
    <v name="dipole">      0.00000000       0.00000000      -0.01853014 </v>
    <i name="Tr[quadrupol]"> -10297.52710542 </i>
    <i name="Echarged">      0.00000000 </i>
    <i name="Edipol_quadrupol">      0.00000000 </i>
    <i name="Eion">      0.00000000 </i>
   </dipole>
   <energy>
    <i name="e_fr_energy">   -190.12824136 </i>
    <i name="e_wo_entrp">   -189.85931232 </i>
    <i name="e_0_energy">   -189.99377684 </i>
   </energy>
  </scstep>
  <scstep>
   <time name="diag">    1.27    1.28</time>
   <time name="diis">    3.45    3.46</time>
   <time name="orth">    0.34    0.34</time>
   <time name="total">    5.34    5.35</time>
   <dipole>
    <v name="dipole">      0.00000000       0.00000000      -0.02454776 </v>
    <i name="Tr[quadrupol]"> -10297.49866543 </i>
    <i name="Echarged">      0.00000000 </i>
    <i name="Edipol_quadrupol">      0.00000000 </i>
    <i name="Eion">      0.00000000 </i>
   </dipole>
   <energy>
    <i name="e_fr_energy">   -190.12644020 </i>
    <i name="e_wo_entrp">   -189.85977538 </i>
    <i name="e_0_energy">   -189.99310779 </i>
   </energy>
  </scstep>
  <scstep>
   <time name="diag">    1.28    1.28</time>
   <time name="diis">    3.44    3.45</time>
   <time name="orth">    0.34    0.35</time>
   <time name="total">    5.34    5.36</time>
   <dipole>
    <v name="dipole">      0.00000000       0.00000000      -0.02580707 </v>
    <i name="Tr[quadrupol]"> -10297.48783213 </i>
    <i name="Echarged">      0.00000000 </i>
    <i name="Edipol_quadrupol">      0.00000000 </i>
    <i name="Eion">      0.00000000 </i>
   </dipole>
   <energy>
    <i name="e_fr_energy">   -190.12530559 </i>
    <i name="e_wo_entrp">   -189.85842814 </i>
    <i name="e_0_energy">   -189.99186686 </i>
   </energy>
  </scstep>
  <scstep>
   <time name="diag">    1.28    1.29</time>
   <time name="diis">    3.37    3.41</time>
   <time name="orth">    0.34    0.34</time>
   <time name="total">    5.26    5.31</time>
   <dipole>
    <v name="dipole">      0.00000000       0.00000000      -0.02395085 </v>
    <i name="Tr[quadrupol]"> -10297.48027973 </i>
    <i name="Echarged">      0.00000000 </i>
    <i name="Edipol_quadrupol">      0.00000000 </i>
    <i name="Eion">      0.00000000 </i>
   </dipole>
   <energy>
    <i name="e_fr_energy">   -190.12508262 </i>
    <i name="e_wo_entrp">   -189.85757081 </i>
    <i name="e_0_energy">   -189.99132672 </i>
   </energy>
  </scstep>
  <scstep>
   <time name="diag">    1.28    1.28</time>
   <time name="diis">    3.47    3.48</time>
   <time name="orth">    0.34    0.35</time>
   <time name="total">    5.36    5.38</time>
   <dipole>
    <v name="dipole">      0.00000000       0.00000000      -0.02396309 </v>
    <i name="Tr[quadrupol]"> -10297.48125558 </i>
    <i name="Echarged">      0.00000000 </i>
    <i name="Edipol_quadrupol">      0.00000000 </i>
    <i name="Eion">      0.00000000 </i>
   </dipole>
   <energy>
    <i name="e_fr_energy">   -190.12500288 </i>
    <i name="e_wo_entrp">   -189.85791124 </i>
    <i name="e_0_energy">   -189.99145706 </i>
   </energy>
  </scstep>
  <scstep>
   <time name="diag">    1.29    1.29</time>
   <time name="diis">    3.42    3.43</time>
   <time name="orth">    0.35    0.35</time>
   <time name="total">    5.32    5.33</time>
   <dipole>
    <v name="dipole">      0.00000000       0.00000000      -0.02428556 </v>
    <i name="Tr[quadrupol]"> -10297.48406097 </i>
    <i name="Echarged">      0.00000000 </i>
    <i name="Edipol_quadrupol">      0.00000000 </i>
    <i name="Eion">      0.00000000 </i>
   </dipole>
   <energy>
    <i name="e_fr_energy">   -190.12499268 </i>
    <i name="e_wo_entrp">   -189.85766344 </i>
    <i name="e_0_energy">   -189.99132806 </i>
   </energy>
  </scstep>
  <scstep>
   <time name="diag">    1.28    1.28</time>
   <time name="diis">    3.39    3.48</time>
   <time name="orth">    0.35    0.35</time>
   <time name="total">    5.29    5.39</time>
   <dipole>
    <v name="dipole">      0.00000000       0.00000000      -0.02435769 </v>
    <i name="Tr[quadrupol]"> -10297.48708901 </i>
    <i name="Echarged">      0.00000000 </i>
    <i name="Edipol_quadrupol">      0.00000000 </i>
    <i name="Eion">      0.00000000 </i>
   </dipole>
   <energy>
    <i name="e_fr_energy">   -190.12498156 </i>
    <i name="e_wo_entrp">   -189.85778027 </i>
    <i name="e_0_energy">   -189.99138092 </i>
   </energy>
  </scstep>
  <scstep>
   <time name="diag">    1.28    1.29</time>
   <time name="diis">    3.40    3.41</time>
   <time name="orth">    0.34    0.34</time>
   <time name="total">    5.30    5.31</time>
   <dipole>
    <v name="dipole">      0.00000000       0.00000000      -0.02415232 </v>
    <i name="Tr[quadrupol]"> -10297.48990327 </i>
    <i name="Echarged">      0.00000000 </i>
    <i name="Edipol_quadrupol">      0.00000000 </i>
    <i name="Eion">      0.00000000 </i>
   </dipole>
   <energy>
    <i name="e_fr_energy">   -190.12497855 </i>
    <i name="e_wo_entrp">   -189.85781339 </i>
    <i name="e_0_energy">   -189.99139597 </i>
   </energy>
  </scstep>
  <scstep>
   <time name="diag">    1.28    1.28</time>
   <time name="diis">    2.73    2.74</time>
   <time name="orth">    0.34    0.34</time>
   <time name="total">    4.62    4.64</time>
   <dipole>
    <v name="dipole">      0.00000000       0.00000000      -0.02421233 </v>
    <i name="Tr[quadrupol]"> -10297.49131068 </i>
    <i name="Echarged">      0.00000000 </i>
    <i name="Edipol_quadrupol">      0.00000000 </i>
    <i name="Eion">      0.00000000 </i>
   </dipole>
   <energy>
    <i name="e_fr_energy">   -190.12497524 </i>
    <i name="e_wo_entrp">   -189.85780689 </i>
    <i name="e_0_energy">   -189.99139106 </i>
   </energy>
  </scstep>
  <scstep>
   <time name="diag">    1.28    1.28</time>
   <time name="diis">    2.04    2.04</time>
   <time name="orth">    0.34    0.34</time>
   <time name="total">    3.70    3.72</time>
   <dipole>
    <v name="dipole">      0.00000000       0.00000000      -0.02424613 </v>
    <i name="Tr[quadrupol]"> -10297.49291083 </i>
    <i name="Echarged">      0.00000000 </i>
    <i name="Edipol_quadrupol">      0.00000000 </i>
    <i name="Eion">      0.00000000 </i>
   </dipole>
   <energy>
    <i name="alphaZ">    805.88104743 </i>
    <i name="ewald"> 197263.78989837 </i>
    <i name="hartreedc">-239467.07157969 </i>
    <i name="XCdc">   -345.70730138 </i>
    <i name="pawpsdc">  48901.44227589 </i>
    <i name="pawaedc"> -46976.95695193 </i>
    <i name="eentropy">     -0.26716027 </i>
    <i name="bandstr">  -2031.02107666 </i>
    <i name="atom">  41659.78587232 </i>
    <i name="e_fr_energy">   -190.12497593 </i>
    <i name="e_wo_entrp">   -189.85781566 </i>
    <i name="e_0_energy">   -189.99139579 </i>
   </energy>
  </scstep>
  <structure>
   <crystal>
    <varray name="basis" >
     <v>      11.00258152       0.00000000       0.00000000 </v>
     <v>       5.50129076       9.52851510       0.00000000 </v>
     <v>       0.00000000       0.00000000      24.49178509 </v>
    </varray>
    <i name="volume">   2567.67623402 </i>
    <varray name="rec_basis" >
     <v>       0.09088776      -0.05247407       0.00000000 </v>
     <v>       0.00000000       0.10494815       0.00000000 </v>
     <v>       0.00000000       0.00000000       0.04083002 </v>
    </varray>
   </crystal>
   <varray name="positions" >
    <v>       0.25017801       0.75032770       0.59357815 </v>
    <v>       0.41464205       0.66666513       0.49995731 </v>
    <v>       0.49966953       0.49970389       0.59396911 </v>
    <v>       0.66754002       0.91666873       0.50002643 </v>
    <v>       0.58503666       0.83334693       0.40567704 </v>
    <v>       0.33114176       0.83366790       0.40611679 </v>
    <v>       0.25075990       0.49838798       0.59324647 </v>
    <v>       0.41545454       0.91842713       0.50083691 </v>
    <v>       0.83391252       0.08230678       0.40648592 </v>
    <v>       0.66507011       0.16731430       0.49957730 </v>
    <v>       0.33329838       0.33406826       0.40685372 </v>
    <v>       0.25008575       0.00113107       0.59347764 </v>
    <v>       0.58333788       0.58249495       0.40566210 </v>
    <v>       0.74906565      -0.00033010       0.59384096 </v>
    <v>      -0.00077724       0.74992386       0.59325764 </v>
    <v>       0.83438993       0.33280144       0.40609705 </v>
    <v>       0.66621672       0.41525332       0.49959914 </v>
    <v>       0.00028363       0.49959261       0.59354845 </v>
    <v>       0.75054904       0.24965401       0.59395103 </v>
    <v>       0.66810076       0.66721986       0.50039965 </v>
    <v>       0.91961782       0.41523818       0.49957781 </v>
    <v>       0.75006896       0.50074067       0.59424666 </v>
    <v>       0.00010308       0.00072562       0.59326176 </v>
    <v>       0.33220951       0.08469792       0.40641684 </v>
    <v>       0.50046620       0.75043070       0.59312436 </v>
    <v>       0.83438114       0.58339900       0.40709026 </v>
    <v>       0.83405174       0.83273478       0.40735959 </v>
    <v>       0.49899253       0.24982031       0.59264484 </v>
    <v>       0.08330065       0.08336530       0.40754794 </v>
    <v>       0.58257675       0.33351127       0.40707537 </v>
    <v>       0.91878998       0.16535016       0.49986491 </v>
    <v>       0.08312556       0.33368768       0.40742606 </v>
    <v>       0.00071346       0.24970840       0.59271680 </v>
    <v>       0.08275807       0.58388349       0.40783392 </v>
    <v>       0.91766797       0.66686099       0.49938237 </v>
    <v>       0.08339998       0.83275934       0.40769038 </v>
    <v>       0.91829722       0.91533537       0.49936596 </v>
    <v>       0.41572447       0.41640924       0.49970977 </v>
    <v>       0.16600481       0.16735855       0.50003658 </v>
    <v>       0.25067649       0.24950546       0.59225096 </v>
    <v>       0.33265189       0.58316261       0.40735178 </v>
    <v>       0.16589686       0.66677528       0.49915950 </v>
    <v>       0.16499835       0.91750158       0.49949363 </v>
    <v>       0.58356640       0.08351796       0.40710264 </v>
    <v>       0.41560210       0.16785486       0.50059013 </v>
    <v>       0.49980795       0.00030618       0.59284167 </v>
    <v>       0.16711126       0.41643915       0.49973647 </v>
    <v>       0.74948318       0.75029424       0.59294223 </v>
   </varray>
  </structure>
  <varray name="forces" >
   <v>       0.02078327       0.07138667       0.95790772 </v>
   <v>      -0.21982145       0.02719763      -0.04117055 </v>
   <v>      -0.02830605      -0.07151780       1.13331927 </v>
   <v>       0.15817493       0.05633070      -0.02156530 </v>
   <v>       0.17860253       0.01296121      -1.26855276 </v>
   <v>      -0.21134751       0.05560704      -1.07099587 </v>
   <v>      -0.02822372      -0.19397801       0.80413992 </v>
   <v>      -0.09503518       0.19753086       0.07178351 </v>
   <v>      -0.00186335      -0.14749232      -0.97700839 </v>
   <v>      -0.10110648      -0.01166273      -0.06867235 </v>
   <v>       0.04163620       0.10189802      -0.85084649 </v>
   <v>       0.10042180       0.18127669       1.00670162 </v>
   <v>      -0.03964075      -0.04059923      -1.26645391 </v>
   <v>      -0.17885611       0.00517758       1.07822917 </v>
   <v>      -0.11328599      -0.02480368       0.79699000 </v>
   <v>       0.12116465      -0.08108237      -1.14882052 </v>
   <v>      -0.02771291      -0.11862021      -0.07847639 </v>
   <v>       0.00280126      -0.06423124       0.95892095 </v>
   <v>       0.04242901      -0.04536708       1.10519195 </v>
   <v>       0.12928418      -0.05387173       0.02745436 </v>
   <v>       0.22081481      -0.13741806      -0.07361805 </v>
   <v>       0.06067433       0.06115622       1.20702010 </v>
   <v>       0.03509303       0.06889740       0.82393288 </v>
   <v>      -0.04157555       0.14480979      -0.94547168 </v>
   <v>       0.10384541       0.05236518       0.72517824 </v>
   <v>       0.16480342      -0.00667841      -0.67066990 </v>
   <v>       0.08941910      -0.08148793      -0.60560712 </v>
   <v>      -0.15137887      -0.06675530       0.55214818 </v>
   <v>      -0.00151956       0.02413791      -0.49467482 </v>
   <v>      -0.10326387       0.00708169      -0.75734471 </v>
   <v>       0.12865902      -0.16304032      -0.06197144 </v>
   <v>       0.03670131       0.07945732      -0.59339656 </v>
   <v>       0.10697345       0.02569308       0.57599303 </v>
   <v>      -0.06771060       0.06992777      -0.38040648 </v>
   <v>       0.25799923      -0.03089397      -0.14050054 </v>
   <v>      -0.07739809      -0.11939388      -0.48259483 </v>
   <v>       0.14994223      -0.12671421      -0.12093760 </v>
   <v>      -0.24912942       0.02908842      -0.04414686 </v>
   <v>       0.00832695       0.03068809      -0.00351751 </v>
   <v>       0.06026294      -0.07365516       0.37070933 </v>
   <v>      -0.14614611      -0.02848916      -0.60585145 </v>
   <v>      -0.14641304      -0.01491369      -0.15189040 </v>
   <v>      -0.14999204       0.10402729      -0.09472490 </v>
   <v>       0.02170480       0.02550844      -0.66399987 </v>
   <v>      -0.16191549       0.17802815       0.14898415 </v>
   <v>       0.02892920       0.03840689       0.69074281 </v>
   <v>       0.12641537      -0.00023714      -0.05965801 </v>
   <v>      -0.05422027       0.05426361       0.70819808 </v>
  </varray>
  <energy>
   <i name="e_fr_energy">   -190.12497593 </i>
   <i name="e_wo_entrp">   -189.99139579 </i>
   <i name="e_0_energy">     -0.26716027 </i>
  </energy>
  <time name="totalsc">   87.75   88.24</time>
 </calculation>
 <calculation>
  <scstep>
   <time name="dav">    7.25    7.27</time>
   <time name="total">    7.51    7.53</time>
   <dipole>
    <v name="dipole">      0.00000000       0.00000000      -0.02425623 </v>
    <i name="Tr[quadrupol]"> -10227.10000091 </i>
    <i name="Echarged">      0.00000000 </i>
    <i name="Edipol_quadrupol">      0.00000000 </i>
    <i name="Eion">      0.00000000 </i>
   </dipole>
   <energy>
    <i name="alphaZ">    805.88162533 </i>
    <i name="ewald"> 189368.49956266 </i>
    <i name="hartreedc">-231613.09816681 </i>
    <i name="XCdc">   -351.11400479 </i>
    <i name="pawpsdc">  48901.35596418 </i>
    <i name="pawaedc"> -46976.87066390 </i>
    <i name="eentropy">     -0.24935017 </i>
    <i name="bandstr">  -1982.61714028 </i>
    <i name="atom">  41659.78587232 </i>
    <i name="e_fr_energy">   -188.42630146 </i>
    <i name="e_wo_entrp">   -188.17695129 </i>
    <i name="e_0_energy">   -188.30162637 </i>
   </energy>
  </scstep>
  <scstep>
   <time name="diag">    1.28    1.28</time>
   <time name="diis">    3.47    3.48</time>
   <time name="orth">    0.34    0.34</time>
   <time name="total">    5.36    5.37</time>
   <dipole>
    <v name="dipole">      0.00000000       0.00000000      -0.02387549 </v>
    <i name="Tr[quadrupol]"> -10226.17905159 </i>
    <i name="Echarged">      0.00000000 </i>
    <i name="Edipol_quadrupol">      0.00000000 </i>
    <i name="Eion">      0.00000000 </i>
   </dipole>
   <energy>
    <i name="e_fr_energy">   -192.18064624 </i>
    <i name="e_wo_entrp">   -191.95279331 </i>
    <i name="e_0_energy">   -192.06671978 </i>
   </energy>
  </scstep>
  <scstep>
   <time name="diag">    1.28    1.29</time>
   <time name="diis">    3.56    3.57</time>
   <time name="orth">    0.34    0.34</time>
   <time name="total">    5.45    5.47</time>
   <dipole>
    <v name="dipole">      0.00000000       0.00000000       0.02882059 </v>
    <i name="Tr[quadrupol]"> -10227.44163020 </i>
    <i name="Echarged">      0.00000000 </i>
    <i name="Edipol_quadrupol">      0.00000000 </i>
    <i name="Eion">      0.00000000 </i>
   </dipole>
   <energy>
    <i name="e_fr_energy">   -192.98626218 </i>
    <i name="e_wo_entrp">   -192.79376317 </i>
    <i name="e_0_energy">   -192.89001267 </i>
   </energy>
  </scstep>
  <scstep>
   <time name="diag">    1.28    1.28</time>
   <time name="diis">    3.39    3.48</time>
   <time name="orth">    0.34    0.34</time>
   <time name="total">    5.27    5.37</time>
   <dipole>
    <v name="dipole">      0.00000000       0.00000000      -0.08401150 </v>
    <i name="Tr[quadrupol]"> -10227.17859004 </i>
    <i name="Echarged">      0.00000000 </i>
    <i name="Edipol_quadrupol">      0.00000000 </i>
    <i name="Eion">      0.00000000 </i>
   </dipole>
   <energy>
    <i name="e_fr_energy">   -191.83571193 </i>
    <i name="e_wo_entrp">   -191.58791430 </i>
    <i name="e_0_energy">   -191.71181312 </i>
   </energy>
  </scstep>
  <scstep>
   <time name="diag">    1.28    1.28</time>
   <time name="diis">    3.45    3.46</time>
   <time name="orth">    0.34    0.35</time>
   <time name="total">    5.33    5.35</time>
   <dipole>
    <v name="dipole">      0.00000000       0.00000000       0.18946495 </v>
    <i name="Tr[quadrupol]"> -10227.25025715 </i>
    <i name="Echarged">      0.00000000 </i>
    <i name="Edipol_quadrupol">      0.00000000 </i>
    <i name="Eion">      0.00000000 </i>
   </dipole>
   <energy>
    <i name="e_fr_energy">   -192.44468388 </i>
    <i name="e_wo_entrp">   -192.20739744 </i>
    <i name="e_0_energy">   -192.32604066 </i>
   </energy>
  </scstep>
  <scstep>
   <time name="diag">    1.28    1.29</time>
   <time name="diis">    3.44    3.45</time>
   <time name="orth">    0.34    0.34</time>
   <time name="total">    5.34    5.35</time>
   <dipole>
    <v name="dipole">      0.00000000       0.00000000      -0.08940639 </v>
    <i name="Tr[quadrupol]"> -10227.33058032 </i>
    <i name="Echarged">      0.00000000 </i>
    <i name="Edipol_quadrupol">      0.00000000 </i>
    <i name="Eion">      0.00000000 </i>
   </dipole>
   <energy>
    <i name="e_fr_energy">   -192.04750488 </i>
    <i name="e_wo_entrp">   -191.80411397 </i>
    <i name="e_0_energy">   -191.92580943 </i>
   </energy>
  </scstep>
  <scstep>
   <time name="diag">    1.28    1.28</time>
   <time name="diis">    3.47    3.48</time>
   <time name="orth">    0.34    0.34</time>
   <time name="total">    5.36    5.38</time>
   <dipole>
    <v name="dipole">      0.00000000       0.00000000      -0.02416235 </v>
    <i name="Tr[quadrupol]"> -10227.27587116 </i>
    <i name="Echarged">      0.00000000 </i>
    <i name="Edipol_quadrupol">      0.00000000 </i>
    <i name="Eion">      0.00000000 </i>
[...]
       <r>    2.3027    0.0000 </r>
       <r>    2.4425    0.0000 </r>
       <r>    2.4743    0.0000 </r>
       <r>    2.6160    0.0000 </r>
       <r>    2.6970    0.0000 </r>
       <r>    3.0197    0.0000 </r>
       <r>    3.0916    0.0000 </r>
       <r>    3.2349    0.0000 </r>
       <r>    3.4734    0.0000 </r>
       <r>    3.6076    0.0000 </r>
       <r>    3.7144    0.0000 </r>
       <r>    3.9491    0.0000 </r>
       <r>    4.1350    0.0000 </r>
       <r>    4.1639    0.0000 </r>
       <r>    4.4322    0.0000 </r>
       <r>    4.4993    0.0000 </r>
       <r>    4.6046    0.0000 </r>
       <r>    4.6232    0.0000 </r>
       <r>    4.7159    0.0000 </r>
       <r>    4.7598    0.0000 </r>
       <r>    4.7797    0.0000 </r>
       <r>    4.8632    0.0000 </r>
       <r>    4.9168    0.0000 </r>
       <r>    5.0294    0.0000 </r>
       <r>    5.0704    0.0000 </r>
       <r>    5.0991    0.0000 </r>
       <r>    5.1767    0.0000 </r>
       <r>    5.2359    0.0000 </r>
      </set>
     </set>
    </set>
   </array>
  </eigenvalues>
  <separator name="orbital magnetization" >
   <v name="MAGDIPOLOUT">      0.00000000      0.00000000      0.00000000</v>
  </separator>
  <dos>
   <i name="efermi">     -1.09768691 </i>
   <total>
    <array>
     <dimension dim="1">gridpoints</dimension>
     <dimension dim="2">spin</dimension>
     <field>energy</field>
     <field>total</field>
     <field>integrated</field>
     <set>
      <set comment="spin 1">
       <r>    -9.7801     0.0000     0.0000 </r>
       <r>    -9.7264     0.0000     0.0000 </r>
       <r>    -9.6727     0.0000     0.0000 </r>
       <r>    -9.6190     0.0000     0.0000 </r>
       <r>    -9.5653     0.0000     0.0000 </r>
       <r>    -9.5116     0.0000     0.0000 </r>
       <r>    -9.4579     0.0000     0.0000 </r>
       <r>    -9.4042     0.0000     0.0000 </r>
       <r>    -9.3505     0.0000     0.0000 </r>
       <r>    -9.2968     0.0000     0.0000 </r>
       <r>    -9.2432     0.0000     0.0000 </r>
       <r>    -9.1895     0.0000     0.0000 </r>
       <r>    -9.1358     0.0000     0.0000 </r>
       <r>    -9.0821     0.0001     0.0000 </r>
       <r>    -9.0284     0.0024     0.0001 </r>
       <r>    -8.9747     0.0334     0.0019 </r>
       <r>    -8.9210     0.2684     0.0163 </r>
       <r>    -8.8673     1.2515     0.0835 </r>
       <r>    -8.8136     3.4009     0.2661 </r>
       <r>    -8.7599     5.4945     0.5611 </r>
       <r>    -8.7062     5.7755     0.8712 </r>
       <r>    -8.6525     5.3104     1.1564 </r>
       <r>    -8.5989     5.6149     1.4578 </r>
       <r>    -8.5452     5.2422     1.7393 </r>
       <r>    -8.4915     3.2680     1.9148 </r>
       <r>    -8.4378     1.2537     1.9821 </r>
       <r>    -8.3841     0.2943     1.9979 </r>
       <r>    -8.3304     0.0825     2.0023 </r>
       <r>    -8.2767     0.2712     2.0169 </r>
       <r>    -8.2230     1.0495     2.0732 </r>
       <r>    -8.1693     2.6892     2.2176 </r>
       <r>    -8.1156     4.8580     2.4784 </r>
       <r>    -8.0619     6.6934     2.8378 </r>
       <r>    -8.0082     7.6362     3.2478 </r>
       <r>    -7.9546     8.0102     3.6779 </r>
       <r>    -7.9009     8.6182     4.1406 </r>
       <r>    -7.8472     9.1546     4.6322 </r>
       <r>    -7.7935     8.1193     5.0681 </r>
       <r>    -7.7398     6.0492     5.3929 </r>
       <r>    -7.6861     4.7730     5.6492 </r>
       <r>    -7.6324     3.9782     5.8628 </r>
       <r>    -7.5787     3.7244     6.0627 </r>
       <r>    -7.5250     6.0116     6.3855 </r>
       <r>    -7.4713    10.2098     6.9337 </r>
       <r>    -7.4176    12.2060     7.5890 </r>
       <r>    -7.3639    11.4518     8.2039 </r>
       <r>    -7.3102    11.7036     8.8323 </r>
       <r>    -7.2566    13.7323     9.5696 </r>
       <r>    -7.2029    15.5363    10.4038 </r>
       <r>    -7.1492    17.1377    11.3239 </r>
       <r>    -7.0955    19.3845    12.3647 </r>
       <r>    -7.0418    21.6444    13.5269 </r>
       <r>    -6.9881    24.0981    14.8207 </r>
       <r>    -6.9344    27.9114    16.3193 </r>
       <r>    -6.8807    33.5080    18.1184 </r>
       <r>    -6.8270    39.9176    20.2617 </r>
       <r>    -6.7733    44.5722    22.6549 </r>
       <r>    -6.7196    45.4269    25.0939 </r>
       <r>    -6.6659    43.2360    27.4153 </r>
       <r>    -6.6123    41.0031    29.6169 </r>
       <r>    -6.5586    40.4713    31.7898 </r>
       <r>    -6.5049    41.9810    34.0439 </r>
       <r>    -6.4512    46.4738    36.5391 </r>
       <r>    -6.3975    52.6964    39.3685 </r>
       <r>    -6.3438    57.3595    42.4482 </r>
       <r>    -6.2901    60.3042    45.6861 </r>
       <r>    -6.2364    63.8145    49.1124 </r>
       <r>    -6.1827    68.6926    52.8006 </r>
       <r>    -6.1290    73.6292    56.7539 </r>
       <r>    -6.0753    76.4233    60.8572 </r>
       <r>    -6.0216    77.1951    65.0020 </r>
       <r>    -5.9680    78.0645    69.1934 </r>
       <r>    -5.9143    79.5548    73.4649 </r>
       <r>    -5.8606    79.7826    77.7485 </r>
       <r>    -5.8069    77.5220    81.9108 </r>
       <r>    -5.7532    74.2099    85.8953 </r>
       <r>    -5.6995    70.5353    89.6825 </r>
       <r>    -5.6458    66.7752    93.2678 </r>
       <r>    -5.5921    65.6877    96.7946 </r>
       <r>    -5.5384    68.4148   100.4680 </r>
       <r>    -5.4847    72.2130   104.3452 </r>
       <r>    -5.4310    75.0562   108.3751 </r>
       <r>    -5.3773    76.7316   112.4950 </r>
       <r>    -5.3237    77.7909   116.6717 </r>
       <r>    -5.2700    79.5642   120.9437 </r>
       <r>    -5.2163    83.1206   125.4066 </r>
       <r>    -5.1626    87.7704   130.1191 </r>
       <r>    -5.1089    90.6529   134.9864 </r>
       <r>    -5.0552    90.2245   139.8308 </r>
       <r>    -5.0015    87.8652   144.5484 </r>
       <r>    -4.9478    85.8572   149.1582 </r>
       <r>    -4.8941    86.0696   153.7795 </r>
       <r>    -4.8404    87.5564   158.4805 </r>
       <r>    -4.7867    87.2587   163.1656 </r>
       <r>    -4.7330    85.4366   167.7529 </r>
       <r>    -4.6793    85.7369   172.3562 </r>
       <r>    -4.6257    88.4686   177.1063 </r>
       <r>    -4.5720    90.2635   181.9527 </r>
       <r>    -4.5183    90.2323   186.7974 </r>
       <r>    -4.4646    89.0996   191.5814 </r>
       <r>    -4.4109    87.4647   196.2775 </r>
       <r>    -4.3572    87.0997   200.9541 </r>
       <r>    -4.3035    88.3912   205.6999 </r>
       <r>    -4.2498    89.7555   210.5191 </r>
       <r>    -4.1961    90.3241   215.3687 </r>
       <r>    -4.1424    90.2975   220.2170 </r>
       <r>    -4.0887    90.8672   225.0958 </r>
       <r>    -4.0350    93.0416   230.0914 </r>
       <r>    -3.9814    95.8914   235.2400 </r>
       <r>    -3.9277    97.9168   240.4973 </r>
       <r>    -3.8740    98.8967   245.8073 </r>
       <r>    -3.8203    99.8906   251.1706 </r>
       <r>    -3.7666   101.6739   256.6296 </r>
       <r>    -3.7129   103.8229   262.2041 </r>
       <r>    -3.6592   105.3749   267.8618 </r>
       <r>    -3.6055   105.5790   273.5306 </r>
       <r>    -3.5518   103.8355   279.1057 </r>
       <r>    -3.4981   100.2941   284.4907 </r>
       <r>    -3.4444    97.4778   289.7244 </r>
       <r>    -3.3907    98.1999   294.9970 </r>
       <r>    -3.3371   100.7350   300.4056 </r>
       <r>    -3.2834   101.8547   305.8744 </r>
       <r>    -3.2297   100.7514   311.2839 </r>
       <r>    -3.1760    97.8056   316.5353 </r>
       <r>    -3.1223    93.7884   321.5709 </r>
       <r>    -3.0686    90.1322   326.4103 </r>
       <r>    -3.0149    88.8485   331.1807 </r>
       <r>    -2.9612    90.5785   336.0441 </r>
       <r>    -2.9075    93.8029   341.0805 </r>
       <r>    -2.8538    95.7998   346.2242 </r>
       <r>    -2.8001    95.3357   351.3429 </r>
       <r>    -2.7464    94.3380   356.4081 </r>
       <r>    -2.6928    94.4449   361.4790 </r>
       <r>    -2.6391    94.9892   366.5792 </r>
       <r>    -2.5854    94.5204   371.6542 </r>
       <r>    -2.5317    92.2802   376.6089 </r>
       <r>    -2.4780    90.2511   381.4546 </r>
       <r>    -2.4243    91.1875   386.3506 </r>
       <r>    -2.3706    93.4621   391.3688 </r>
       <r>    -2.3169    93.1657   396.3710 </r>
       <r>    -2.2632    90.1105   401.2092 </r>
       <r>    -2.2095    86.9665   405.8786 </r>
       <r>    -2.1558    85.3707   410.4623 </r>
       <r>    -2.1021    85.3459   415.0447 </r>
       <r>    -2.0484    86.5164   419.6899 </r>
       <r>    -1.9948    88.1326   424.4219 </r>
       <r>    -1.9411    89.3905   429.2215 </r>
       <r>    -1.8874    91.0041   434.1076 </r>
       <r>    -1.8337    93.4114   439.1231 </r>
       <r>    -1.7800    94.4136   444.1923 </r>
       <r>    -1.7263    92.7018   449.1696 </r>
       <r>    -1.6726    91.2341   454.0682 </r>
       <r>    -1.6189    92.2124   459.0192 </r>
       <r>    -1.5652    94.1518   464.0744 </r>
       <r>    -1.5115    95.7054   469.2130 </r>
       <r>    -1.4578    96.3034   474.3837 </r>
       <r>    -1.4041    95.4743   479.5099 </r>
       <r>    -1.3505    93.8006   484.5462 </r>
       <r>    -1.2968    91.5364   489.4610 </r>
       <r>    -1.2431    86.9115   494.1274 </r>
       <r>    -1.1894    78.2231   498.3274 </r>
       <r>    -1.1357    66.4024   501.8926 </r>
       <r>    -1.0820    53.5410   504.7674 </r>
       <r>    -1.0283    40.1196   506.9215 </r>
       <r>    -0.9746    26.8182   508.3614 </r>
       <r>    -0.9209    17.1471   509.2820 </r>
       <r>    -0.8672    13.2088   509.9912 </r>
       <r>    -0.8135    12.1308   510.6426 </r>
       <r>    -0.7598    10.8590   511.2256 </r>
       <r>    -0.7062     9.6535   511.7439 </r>
       <r>    -0.6525    10.0182   512.2818 </r>
       <r>    -0.5988    12.9543   512.9773 </r>
       <r>    -0.5451    17.8811   513.9374 </r>
       <r>    -0.4914    21.5957   515.0969 </r>
       <r>    -0.4377    21.6080   516.2571 </r>
       <r>    -0.3840    19.0656   517.2808 </r>
       <r>    -0.3303    17.3037   518.2098 </r>
       <r>    -0.2766    19.0202   519.2311 </r>
       <r>    -0.2229    21.3238   520.3760 </r>
       <r>    -0.1692    19.4214   521.4188 </r>
       <r>    -0.1155    15.0790   522.2284 </r>
       <r>    -0.0618    12.3972   522.8940 </r>
       <r>    -0.0082    11.3908   523.5056 </r>
       <r>     0.0455    11.2192   524.1080 </r>
       <r>     0.0992    12.6520   524.7873 </r>
       <r>     0.1529    14.8643   525.5854 </r>
       <r>     0.2066    16.4046   526.4662 </r>
       <r>     0.2603    18.2106   527.4439 </r>
       <r>     0.3140    20.7603   528.5586 </r>
       <r>     0.3677    22.1184   529.7462 </r>
       <r>     0.4214    21.0510   530.8764 </r>
       <r>     0.4751    19.0546   531.8995 </r>
       <r>     0.5288    18.2869   532.8814 </r>
       <r>     0.5825    19.2997   533.9176 </r>
       <r>     0.6361    20.5916   535.0232 </r>
       <r>     0.6898    20.5989   536.1292 </r>
       <r>     0.7435    19.5841   537.1807 </r>
       <r>     0.7972    17.4145   538.1157 </r>
       <r>     0.8509    14.1016   538.8729 </r>
       <r>     0.9046    11.6701   539.4995 </r>
       <r>     0.9583    11.1445   540.0978 </r>
       <r>     1.0120    11.6301   540.7223 </r>
       <r>     1.0657    12.1988   541.3772 </r>
       <r>     1.1194    11.7111   542.0060 </r>
       <r>     1.1731     9.9340   542.5394 </r>
       <r>     1.2268     8.1580   542.9774 </r>
       <r>     1.2804     6.7734   543.3411 </r>
       <r>     1.3341     5.3198   543.6267 </r>
       <r>     1.3878     4.4747   543.8670 </r>
       <r>     1.4415     5.7368   544.1750 </r>
       <r>     1.4952    10.0660   544.7155 </r>
       <r>     1.5489    15.7877   545.5631 </r>
       <r>     1.6026    19.1840   546.5932 </r>
       <r>     1.6563    19.7420   547.6531 </r>
       <r>     1.7100    20.1395   548.7345 </r>
       <r>     1.7637    20.6087   549.8410 </r>
       <r>     1.8174    19.3404   550.8794 </r>
       <r>     1.8711    15.9698   551.7369 </r>
       <r>     1.9247    11.7784   552.3693 </r>
       <r>     1.9784     8.2628   552.8129 </r>
       <r>     2.0321     7.0317   553.1905 </r>
       <r>     2.0858     9.5318   553.7022 </r>
       <r>     2.1395    14.3252   554.4714 </r>
       <r>     2.1932    17.9187   555.4335 </r>
       <r>     2.2469    19.1855   556.4636 </r>
       <r>     2.3006    19.8475   557.5292 </r>
       <r>     2.3543    20.6407   558.6375 </r>
       <r>     2.4080    20.8270   559.7557 </r>
       <r>     2.4617    20.5895   560.8612 </r>
       <r>     2.5154    20.5708   561.9657 </r>
       <r>     2.5691    21.6963   563.1306 </r>
       <r>     2.6227    23.8693   564.4122 </r>
       <r>     2.6764    23.9585   565.6986 </r>
       <r>     2.7301    20.3827   566.7929 </r>
       <r>     2.7838    15.9413   567.6489 </r>
       <r>     2.8375    12.3140   568.3100 </r>
       <r>     2.8912     8.8329   568.7843 </r>
       <r>     2.9449     6.6214   569.1398 </r>
       <r>     2.9986     6.8035   569.5051 </r>
       <r>     3.0523     7.8282   569.9254 </r>
       <r>     3.1060     8.8537   570.4008 </r>
       <r>     3.1597    10.5317   570.9662 </r>
       <r>     3.2134    12.1232   571.6172 </r>
       <r>     3.2670    12.2933   572.2772 </r>
       <r>     3.3207    11.0716   572.8717 </r>
       <r>     3.3744    10.0860   573.4132 </r>
       <r>     3.4281    10.8888   573.9978 </r>
       <r>     3.4818    12.9641   574.6939 </r>
       <r>     3.5355    14.8049   575.4888 </r>
       <r>     3.5892    16.0798   576.3522 </r>
       <r>     3.6429    16.7399   577.2510 </r>
       <r>     3.6966    16.4195   578.1325 </r>
       <r>     3.7503    15.4108   578.9600 </r>
       <r>     3.8040    13.8897   579.7057 </r>
       <r>     3.8577    12.0721   580.3539 </r>
       <r>     3.9113    11.1496   580.9526 </r>
       <r>     3.9650    12.1564   581.6053 </r>
       <r>     4.0187    14.0403   582.3591 </r>
       <r>     4.0724    14.7510   583.1511 </r>
       <r>     4.1261    14.7255   583.9418 </r>
       <r>     4.1798    14.5854   584.7249 </r>
       <r>     4.2335    12.4665   585.3942 </r>
       <r>     4.2872     8.4624   585.8486 </r>
       <r>     4.3409     6.7099   586.2089 </r>
       <r>     4.3946     9.6572   586.7274 </r>
       <r>     4.4483    14.1935   587.4894 </r>
       <r>     4.5020    17.3006   588.4183 </r>
       <r>     4.5556    20.9086   589.5410 </r>
       <r>     4.6093    26.1138   590.9431 </r>
       <r>     4.6630    29.4708   592.5254 </r>
       <r>     4.7167    29.3937   594.1036 </r>
       <r>     4.7704    28.5536   595.6367 </r>
       <r>     4.8241    28.1410   597.1476 </r>
       <r>     4.8778    27.2312   598.6097 </r>
       <r>     4.9315    25.8423   599.9973 </r>
       <r>     4.9852    26.4666   601.4183 </r>
       <r>     5.0389    30.8240   603.0733 </r>
       <r>     5.0926    34.4512   604.9230 </r>
       <r>     5.1463    32.9994   606.6948 </r>
       <r>     5.2000    29.2258   608.2640 </r>
       <r>     5.2536    26.0089   609.6605 </r>
       <r>     5.3073    21.3589   610.8073 </r>
       <r>     5.3610    13.7878   611.5476 </r>
       <r>     5.4147     6.2192   611.8815 </r>
       <r>     5.4684     1.8296   611.9797 </r>
       <r>     5.5221     0.3369   611.9978 </r>
       <r>     5.5758     0.0378   611.9999 </r>
       <r>     5.6295     0.0025   612.0000 </r>
       <r>     5.6832     0.0001   612.0000 </r>
       <r>     5.7369     0.0000   612.0000 </r>
       <r>     5.7906     0.0000   612.0000 </r>
       <r>     5.8443     0.0000   612.0000 </r>
       <r>     5.8979     0.0000   612.0000 </r>
       <r>     5.9516     0.0000   612.0000 </r>
       <r>     6.0053     0.0000   612.0000 </r>
       <r>     6.0590     0.0000   612.0000 </r>
       <r>     6.1127     0.0000   612.0000 </r>
       <r>     6.1664     0.0000   612.0000 </r>
       <r>     6.2201     0.0000   612.0000 </r>
       <r>     6.2738     0.0000   612.0000 </r>
       <r>     6.3275     0.0000   612.0000 </r>
      </set>
     </set>
    </array>
   </total>
  </dos>
 </calculation>
 <structure name="finalpos" >
  <crystal>
   <varray name="basis" >
    <v>      11.00258152       0.00000000       0.00000000 </v>
    <v>       5.50129076       9.52851510       0.00000000 </v>
    <v>       0.00000000       0.00000000      24.49178509 </v>
   </varray>
   <i name="volume">   2567.67623402 </i>
   <varray name="rec_basis" >
    <v>       0.09088776      -0.05247407       0.00000000 </v>
    <v>       0.00000000       0.10494815       0.00000000 </v>
    <v>       0.00000000       0.00000000       0.04083002 </v>
   </varray>
  </crystal>
  <varray name="positions" >
   <v>       0.25074633       0.75114634       0.60422651 </v>
   <v>       0.41350295       0.66643938       0.49951515 </v>
   <v>       0.50005662       0.49951012       0.60633437 </v>
   <v>       0.66786891       0.91657832       0.49851718 </v>
   <v>       0.58740465       0.83296159       0.38962078 </v>
   <v>       0.33000691       0.83350232       0.39537434 </v>
   <v>       0.25155414       0.49704186       0.60242683 </v>
   <v>       0.41405461       0.91929813       0.49727939 </v>
   <v>       0.83496637       0.07997683       0.39877193 </v>
   <v>       0.66531471       0.16700108       0.49939896 </v>
   <v>       0.33338495       0.33558654       0.39906853 </v>
   <v>       0.25067828       0.00291037       0.60108468 </v>
   <v>       0.58323934       0.58218376       0.39056188 </v>
   <v>       0.74617614       0.00042493       0.60384972 </v>
   <v>      -0.00240650       0.75020260       0.60333949 </v>
   <v>       0.83582572       0.33221949       0.39440096 </v>
   <v>       0.66647014       0.41542655       0.49916136 </v>
   <v>       0.00023264       0.49838766       0.60336832 </v>
   <v>       0.74964479       0.25046362       0.60422016 </v>
   <v>       0.66878032       0.66585457       0.49798230 </v>
   <v>       0.92065479       0.41436373       0.49915723 </v>
   <v>       0.74947442       0.50213597       0.60614066 </v>
   <v>      -0.00083392       0.00235026       0.60088347 </v>
   <v>       0.33202021       0.08533811       0.39501336 </v>
   <v>       0.50068601       0.75070937       0.59522964 </v>
   <v>       0.83531918       0.58317872       0.40198035 </v>
   <v>       0.83540029       0.83113554       0.40389173 </v>
   <v>       0.49842755       0.24881492       0.59555981 </v>
   <v>       0.08357649       0.08288438       0.40386303 </v>
   <v>       0.58297582       0.33390360       0.40201266 </v>
   <v>       0.91869838       0.16443985       0.49884177 </v>
   <v>       0.08327615       0.33468547       0.40300952 </v>
   <v>       0.00020988       0.25109873       0.59548909 </v>
   <v>       0.08226799       0.58457577       0.40732268 </v>
   <v>       0.92012739       0.66589599       0.50164036 </v>
   <v>       0.08402740       0.83079610       0.40689289 </v>
   <v>       0.91901451       0.91513397       0.50162894 </v>
   <v>       0.41342251       0.41752742       0.50046979 </v>
   <v>       0.16721140       0.16594371       0.49865139 </v>
   <v>       0.25174608       0.24870506       0.59399990 </v>
   <v>       0.33188070       0.58352727       0.40427908 </v>
   <v>       0.16513247       0.66749342       0.50328881 </v>
   <v>       0.16512281       0.91768008       0.50094208 </v>
   <v>       0.58420508       0.08323316       0.40097818 </v>
   <v>       0.41277437       0.16964066       0.49771972 </v>
   <v>       0.49953268       0.00000279       0.59469102 </v>
   <v>       0.16839671       0.41708502       0.50084199 </v>
   <v>       0.74775062       0.75060487       0.59707804 </v>
  </varray>
 </structure>
</modeling>
