unknown system                          
           1
    11.002582    0.000000    0.000000
     5.501291    9.528515    0.000000
     0.000000    0.000000   24.491785
   Au   Pd
  24  24
Direct configuration=     1
   0.25000000  0.75000000  0.59169983
   0.41666667  0.66666667  0.50000000
   0.50000000  0.50000000  0.59169983
   0.66666667  0.91666667  0.50000000
   0.58333333  0.83333333  0.40830017
   0.33333333  0.83333333  0.40830017
   0.25000000  0.50000000  0.59169983
   0.41666667  0.91666667  0.50000000
   0.83333333  0.08333333  0.40830017
   0.66666667  0.16666667  0.50000000
   0.33333333  0.33333333  0.40830017
   0.25000000  0.00000000  0.59169983
   0.58333333  0.58333333  0.40830017
   0.75000000  0.00000000  0.59169983
   0.00000000  0.75000000  0.59169983
   0.83333333  0.33333333  0.40830017
   0.66666667  0.41666667  0.50000000
   0.00000000  0.50000000  0.59169983
   0.75000000  0.25000000  0.59169983
   0.66666667  0.66666667  0.50000000
   0.91666667  0.41666667  0.50000000
   0.75000000  0.50000000  0.59169983
   0.00000000  0.00000000  0.59169983
   0.33333333  0.08333333  0.40830017
   0.50000000  0.75000000  0.59169983
   0.83333333  0.58333333  0.40830017
   0.83333333  0.83333333  0.40830017
   0.50000000  0.25000000  0.59169983
   0.08333333  0.08333333  0.40830017
   0.58333333  0.33333333  0.40830017
   0.91666667  0.16666667  0.50000000
   0.08333333  0.33333333  0.40830017
   0.00000000  0.25000000  0.59169983
   0.08333333  0.58333333  0.40830017
   0.91666667  0.66666667  0.50000000
   0.08333333  0.83333333  0.40830017
   0.91666667  0.91666667  0.50000000
   0.41666667  0.41666667  0.50000000
   0.16666667  0.16666667  0.50000000
   0.25000000  0.25000000  0.59169983
   0.33333333  0.58333333  0.40830017
   0.16666667  0.66666667  0.50000000
   0.16666667  0.91666667  0.50000000
   0.58333333  0.08333333  0.40830017
   0.41666667  0.16666667  0.50000000
   0.50000000  0.00000000  0.59169983
   0.16666667  0.41666667  0.50000000
   0.75000000  0.75000000  0.59169983
Direct configuration=     2
   0.25017801  0.75032770  0.59357815
   0.41464205  0.66666513  0.49995731
   0.49966953  0.49970389  0.59396911
   0.66754002  0.91666873  0.50002643
   0.58503666  0.83334693  0.40567704
   0.33114176  0.83366790  0.40611679
   0.25075990  0.49838798  0.59324647
   0.41545454  0.91842713  0.50083691
   0.83391252  0.08230678  0.40648592
   0.66507011  0.16731430  0.49957730
   0.33329838  0.33406826  0.40685372
   0.25008575  0.00113107  0.59347764
   0.58333788  0.58249495  0.40566210
   0.74906565 -0.00033010  0.59384096
  -0.00077724  0.74992386  0.59325764
   0.83438993  0.33280144  0.40609705
   0.66621672  0.41525332  0.49959914
   0.00028363  0.49959261  0.59354845
   0.75054904  0.24965401  0.59395103
   0.66810076  0.66721986  0.50039965
   0.91961782  0.41523818  0.49957781
   0.75006896  0.50074067  0.59424666
   0.00010308  0.00072562  0.59326176
   0.33220951  0.08469792  0.40641684
   0.50046620  0.75043070  0.59312436
   0.83438114  0.58339900  0.40709026
   0.83405174  0.83273478  0.40735959
   0.49899253  0.24982031  0.59264484
   0.08330065  0.08336530  0.40754794
   0.58257675  0.33351127  0.40707537
   0.91878998  0.16535016  0.49986491
   0.08312556  0.33368768  0.40742606
   0.00071346  0.24970840  0.59271680
   0.08275807  0.58388349  0.40783392
   0.91766797  0.66686099  0.49938237
   0.08339998  0.83275934  0.40769038
   0.91829722  0.91533537  0.49936596
   0.41572447  0.41640924  0.49970977
   0.16600481  0.16735855  0.50003658
   0.25067649  0.24950546  0.59225096
   0.33265189  0.58316261  0.40735178
   0.16589686  0.66677528  0.49915950
   0.16499835  0.91750158  0.49949363
   0.58356640  0.08351796  0.40710264
   0.41560210  0.16785486  0.50059013
   0.49980795  0.00030618  0.59284167
   0.16711126  0.41643915  0.49973647
   0.74948318  0.75029424  0.59294223
Direct configuration=     3
   0.25071202  0.75131081  0.59921309
   0.40856822  0.66666054  0.49982922
   0.49867812  0.49881554  0.60077693
   0.67016009  0.91667493  0.50010570
   0.59014665  0.83338770  0.39780764
   0.32456704  0.83467159  0.39956665
   0.25303958  0.49355193  0.59788637
   0.41181814  0.92370851  0.50334764
   0.83565007  0.07922710  0.40104319
   0.66028044  0.16925721  0.49830919
   0.33319353  0.33627304  0.40251437
   0.25034301  0.00452426  0.59881106
   0.58335153  0.57997982  0.39774790
   0.74626262 -0.00132041  0.60026434
  -0.00310894  0.74969543  0.59793106
   0.83755972  0.33120578  0.39948768
   0.66486689  0.41101327  0.49839655
   0.00113453  0.49837044  0.59909433
   0.75219615  0.24861605  0.60070462
   0.67240304  0.66887943  0.50159858
   0.92847126  0.41095271  0.49831125
   0.75027583  0.50296266  0.60188717
   0.00041232  0.00290248  0.59794755
   0.32883804  0.08879167  0.40076686
   0.50186481  0.75172280  0.59739795
   0.83752455  0.58359599  0.40346054
   0.83620695  0.83093911  0.40453784
   0.49597012  0.24928123  0.59547987
   0.08320260  0.08346119  0.40529125
   0.58030700  0.33404506  0.40340096
   0.92515990  0.16140065  0.49945965
   0.08250225  0.33475070  0.40480375
   0.00285382  0.24883359  0.59576772
   0.08103226  0.58553398  0.40643519
   0.92067190  0.66744394  0.49752950
   0.08359991  0.83103737  0.40586103
   0.92318890  0.91134147  0.49746385
   0.41289789  0.41563695  0.49883909
   0.16401924  0.16943420  0.50014632
   0.25270597  0.24802183  0.59390434
   0.33060758  0.58265045  0.40450662
   0.16358746  0.66710112  0.49663799
   0.15999342  0.92000632  0.49797450
   0.58426559  0.08407185  0.40351006
   0.41240840  0.17141943  0.50236053
   0.49923180  0.00122473  0.59626721
   0.16844506  0.41575658  0.49894590
   0.74793271  0.75117697  0.59666943
Direct configuration=     4
   0.25004664  0.75149313  0.60042496
   0.41068540  0.66743027  0.49985823
   0.49995643  0.49853223  0.60224336
   0.66939716  0.91798092  0.49997929
   0.58802028  0.83340774  0.39621305
   0.32749784  0.83429364  0.39817025
   0.25162095  0.49556529  0.59893123
   0.41208372  0.92193685  0.50232046
   0.83509425  0.07996627  0.39963823
   0.66333209  0.16684917  0.49872142
   0.33280472  0.33575225  0.40094217
   0.25024046  0.00382156  0.60056576
   0.58313808  0.58161988  0.39622511
   0.74633151 -0.00008164  0.60167049
  -0.00213654  0.74960071  0.59884704
   0.83664769  0.33149095  0.39785617
   0.66662230  0.41317015  0.49865198
   0.00098140  0.49831739  0.60037935
   0.75120134  0.24926163  0.60199334
   0.67115437  0.66619972  0.50107818
   0.92322080  0.41383331  0.49881113
   0.75026997  0.50188014  0.60331247
   0.00024312  0.00167673  0.59908091
   0.33050505  0.08702366  0.39964966
   0.50142300  0.75129681  0.59810101
   0.83657296  0.58312552  0.40251636
   0.83603666  0.83151614  0.40326386
   0.49817996  0.24837427  0.59638569
   0.08290540  0.08393860  0.40418045
   0.58136432  0.33358011  0.40198330
   0.92151276  0.16303208  0.49944223
   0.08314135  0.33507888  0.40333144
   0.00175931  0.25050825  0.59658674
   0.08146670  0.58465861  0.40506117
   0.92138143  0.66626298  0.49836921
   0.08306100  0.83085981  0.40424531
   0.92109735  0.91358638  0.49828232
   0.41155892  0.41711788  0.49921166
   0.16702275  0.16684504  0.50000512
   0.25170004  0.24841722  0.59480451
   0.33099760  0.58279422  0.40326030
   0.16421356  0.66608051  0.49792422
   0.16274427  0.91874971  0.49863610
   0.58372014  0.08390945  0.40257206
   0.41184269  0.17058638  0.50169116
   0.49991046  0.00088893  0.59753936
   0.16919552  0.41661604  0.49928596
   0.74823284  0.75115423  0.59775626
Direct configuration=     5
   0.24966223  0.75159846  0.60112508
   0.41190855  0.66787497  0.49987499
   0.50069494  0.49836856  0.60309054
   0.66895640  0.91873543  0.49990626
   0.58679183  0.83341932  0.39529182
   0.32919103  0.83407529  0.39736351
   0.25080137  0.49672845  0.59953487
   0.41223714  0.92091331  0.50172703
   0.83477314  0.08039331  0.39882655
   0.66509509  0.16545799  0.49895958
   0.33258009  0.33545138  0.40003387
   0.25018122  0.00341560  0.60157949
   0.58301476  0.58256739  0.39534536
   0.74637132  0.00063403  0.60248285
  -0.00157475  0.74954599  0.59937621
   0.83612079  0.33165570  0.39691361
   0.66763643  0.41441623  0.49879954
   0.00089294  0.49828673  0.60112173
   0.75062661  0.24963460  0.60273786
   0.67043298  0.66465159  0.50077754
   0.92018749  0.41549750  0.49909993
   0.75026659  0.50125474  0.60413590
   0.00014537  0.00096858  0.59973568
   0.33146812  0.08600223  0.39900424
   0.50116775  0.75105070  0.59850718
   0.83602319  0.58285372  0.40197088
   0.83593827  0.83184951  0.40252786
   0.49945663  0.24785030  0.59690900
   0.08273371  0.08421440  0.40353871
   0.58197516  0.33331150  0.40116428
   0.91940572  0.16397460  0.49943216
   0.08351058  0.33526848  0.40248085
   0.00112698  0.25147574  0.59705990
   0.08171768  0.58415289  0.40426737
   0.92179135  0.66558071  0.49885433
   0.08274966  0.83075724  0.40331187
   0.91988901  0.91488332  0.49875517
   0.41078536  0.41797345  0.49942691
   0.16875794  0.16534923  0.49992355
   0.25111890  0.24864565  0.59532457
   0.33122293  0.58287727  0.40254027
   0.16457527  0.66549088  0.49866731
   0.16433349  0.91802373  0.49901832
   0.58340501  0.08381563  0.40203016
   0.41151587  0.17010510  0.50130444
   0.50030253  0.00069492  0.59827431
   0.16962908  0.41711257  0.49948242
   0.74840623  0.75114108  0.59838415
Direct configuration=     6
   0.25036490  0.75096175  0.60152195
   0.41328786  0.66710779  0.49982351
   0.50039493  0.49873732  0.60347056
   0.66815862  0.91673794  0.49984710
   0.58629527  0.83332873  0.39477807
   0.32992785  0.83401363  0.39699093
   0.25134489  0.49712817  0.59997499
   0.41459368  0.91883722  0.50126797
   0.83443368  0.08083185  0.39835594
   0.66513628  0.16742534  0.49914635
   0.33303047  0.33502113  0.39948554
   0.25017597  0.00299368  0.60221947
   0.58299664  0.58281548  0.39476373
   0.74721065  0.00041117  0.60301968
  -0.00184874  0.74988627  0.59968523
   0.83560407  0.33209481  0.39633046
   0.66661410  0.41460407  0.49882015
   0.00031952  0.49876125  0.60157688
   0.75067083  0.24969236  0.60312432
   0.66882133  0.66630522  0.50048264
   0.92101574  0.41437569  0.49919409
   0.75010997  0.50124035  0.60473415
  -0.00034620  0.00146951  0.59996916
   0.33212316  0.08509701  0.39856616
   0.50091311  0.75085243  0.59838977
   0.83523138  0.58301604  0.40183039
   0.83512793  0.83194731  0.40229622
   0.49945374  0.24842326  0.59692267
   0.08293660  0.08398116  0.40339732
   0.58243412  0.33338309  0.40107422
   0.91878639  0.16451441  0.49943394
   0.08321699  0.33522429  0.40233348
   0.00060173  0.25134006  0.59696510
   0.08174977  0.58410201  0.40379182
   0.92066446  0.66581519  0.49931879
   0.08322764  0.83077903  0.40304432
   0.91994654  0.91523697  0.49911447
   0.41309253  0.41764456  0.49958047
   0.16715377  0.16633060  0.49974959
   0.25113284  0.24885614  0.59564050
   0.33162852  0.58324936  0.40232396
   0.16496731  0.66664819  0.49931168
   0.16451600  0.91771076  0.49925975
   0.58332018  0.08370287  0.40180859
   0.41236154  0.16961516  0.50079805
   0.50025476  0.00013963  0.59844298
   0.16833092  0.41670525  0.49962283
   0.74851573  0.75090451  0.59840007
Direct configuration=     7
   0.25043674  0.75089664  0.60156253
   0.41342889  0.66702935  0.49981825
   0.50036426  0.49877503  0.60350942
   0.66807705  0.91653370  0.49984105
   0.58624450  0.83331947  0.39472554
   0.33000319  0.83400733  0.39695284
   0.25140047  0.49716905  0.60001999
   0.41483463  0.91862495  0.50122103
   0.83439898  0.08087670  0.39830782
   0.66514049  0.16762650  0.49916545
   0.33307652  0.33497714  0.39942948
   0.25017543  0.00295054  0.60228490
   0.58299479  0.58284085  0.39470426
   0.74729647  0.00038839  0.60307457
  -0.00187675  0.74992106  0.59971682
   0.83555124  0.33213970  0.39627083
   0.66650957  0.41462327  0.49882226
   0.00026089  0.49880976  0.60162342
   0.75067536  0.24969826  0.60316384
   0.66865654  0.66647430  0.50045249
   0.92110043  0.41426099  0.49920371
   0.75009396  0.50123887  0.60479532
  -0.00039646  0.00152073  0.59999303
   0.33219014  0.08500445  0.39852137
   0.50088707  0.75083216  0.59837777
   0.83515042  0.58303263  0.40181602
   0.83504507  0.83195731  0.40227253
   0.49945345  0.24848185  0.59692407
   0.08295735  0.08395731  0.40338286
   0.58248105  0.33339041  0.40106501
   0.91872306  0.16456960  0.49943413
   0.08318697  0.33521977  0.40231841
   0.00054803  0.25132619  0.59695541
   0.08175305  0.58409681  0.40374319
   0.92054924  0.66583917  0.49936628
   0.08327651  0.83078126  0.40301697
   0.91995242  0.91527313  0.49915121
   0.41332844  0.41761093  0.49959617
   0.16698975  0.16643094  0.49973181
   0.25113427  0.24887767  0.59567280
   0.33167000  0.58328740  0.40230184
   0.16500739  0.66676652  0.49937756
   0.16453466  0.91767876  0.49928444
   0.58331151  0.08369134  0.40178594
   0.41244801  0.16956506  0.50074627
   0.50024988  0.00008285  0.59846023
   0.16819819  0.41666360  0.49963718
   0.74852692  0.75088032  0.59840170
Direct configuration=     8
   0.25066314  0.75085668  0.60175944
   0.41354340  0.66658258  0.49971279
   0.50033408  0.49889810  0.60373011
   0.66828908  0.91660201  0.49980620
   0.58647167  0.83324690  0.39431733
   0.32974216  0.83403486  0.39684349
   0.25163312  0.49702258  0.60015008
   0.41444579  0.91902293  0.50105060
   0.83440989  0.08076378  0.39820291
   0.66497822  0.16739663  0.49922574
   0.33331684  0.33503619  0.39932984
   0.25022199  0.00297583  0.60240790
   0.58306052  0.58253527  0.39431915
   0.74726658  0.00018085  0.60324549
  -0.00200158  0.75005473  0.59989153
   0.83553933  0.33233912  0.39601174
   0.66635618  0.41510723  0.49881141
   0.00016916  0.49898645  0.60182920
   0.75060420  0.24990673  0.60338700
   0.66903990  0.66601414  0.50028479
   0.92100094  0.41409050  0.49917112
   0.74987459  0.50150913  0.60506774
  -0.00025390  0.00177448  0.60003250
   0.33199471  0.08504812  0.39833016
   0.50089167  0.75069528  0.59819347
   0.83488617  0.58320462  0.40193690
   0.83468066  0.83194599  0.40242393
   0.49914907  0.24863534  0.59673428
   0.08306961  0.08368640  0.40349945
   0.58252029  0.33358883  0.40115023
   0.91897067  0.16452870  0.49934411
   0.08297433  0.33505225  0.40239791
   0.00052314  0.25100320  0.59675705
   0.08170971  0.58435035  0.40384026
   0.92014370  0.66600293  0.49950094
   0.08350507  0.83088739  0.40319217
   0.91962687  0.91529141  0.49919841
   0.41379289  0.41742465  0.49959474
   0.16680804  0.16614382  0.49964399
   0.25141963  0.24883446  0.59565659
   0.33180484  0.58340116  0.40243516
   0.16518405  0.66712902  0.49957850
   0.16458250  0.91783832  0.49939147
   0.58358156  0.08360290  0.40185731
   0.41292651  0.16938998  0.50047111
   0.50009553  0.00000416  0.59831303
   0.16808252  0.41659409  0.49968471
   0.74837098  0.75077896  0.59828603
Direct configuration=     9
   0.25092629  0.75081022  0.60198830
   0.41367649  0.66606329  0.49959022
   0.50029901  0.49904114  0.60398662
   0.66853552  0.91668140  0.49976569
   0.58673572  0.83316255  0.39384286
   0.32943877  0.83406687  0.39671640
   0.25190355  0.49685233  0.60030129
   0.41399383  0.91948553  0.50085250
   0.83442257  0.08063253  0.39808097
   0.66478962  0.16712946  0.49929581
   0.33359617  0.33510483  0.39921403
   0.25027610  0.00300522  0.60255087
   0.58313692  0.58218008  0.39387151
   0.74723184 -0.00006037  0.60344415
  -0.00214668  0.75021009  0.60009460
   0.83552550  0.33257091  0.39571060
   0.66617789  0.41566974  0.49879881
   0.00006254  0.49919182  0.60206839
   0.75052149  0.25014905  0.60364639
   0.66948549  0.66547929  0.50008987
   0.92088530  0.41389234  0.49913324
   0.74961961  0.50182325  0.60538437
  -0.00008819  0.00206943  0.60007837
   0.33176755  0.08509887  0.39810791
   0.50089701  0.75053619  0.59797927
   0.83457902  0.58340453  0.40207739
   0.83425710  0.83193283  0.40259991
   0.49879528  0.24881374  0.59651368
   0.08320009  0.08337151  0.40363496
   0.58256591  0.33381947  0.40124928
   0.91925848  0.16448116  0.49923947
   0.08272717  0.33485753  0.40249032
   0.00049421  0.25062778  0.59652648
   0.08165933  0.58464504  0.40395308
   0.91967232  0.66619327  0.49965746
   0.08377073  0.83101075  0.40339582
   0.91924848  0.91531266  0.49925327
   0.41433273  0.41720813  0.49959307
   0.16659684  0.16581009  0.49954191
   0.25175131  0.24878423  0.59563774
   0.33196157  0.58353338  0.40259011
   0.16538938  0.66755036  0.49981205
   0.16463810  0.91802377  0.49951588
   0.58389544  0.08350010  0.40194027
   0.41348269  0.16918649  0.50015128
   0.49991612 -0.00008730  0.59814194
   0.16794808  0.41651329  0.49973995
   0.74818973  0.75066114  0.59815159
Direct configuration=    10
   0.25092293  0.75090622  0.60220006
   0.41362065  0.66625076  0.49950232
   0.50036772  0.49901915  0.60426978
   0.66847325  0.91662686  0.49976216
   0.58665322  0.83315535  0.39337142
   0.32951988  0.83398313  0.39659780
   0.25182588  0.49688469  0.60039900
   0.41387337  0.91957640  0.50065949
   0.83449524  0.08056381  0.39802876
   0.66510898  0.16706725  0.49937893
   0.33354278  0.33524866  0.39917623
   0.25047386  0.00302578  0.60262538
   0.58307274  0.58218833  0.39337874
   0.74704415  0.00000675  0.60360924
  -0.00206996  0.75030838  0.60028569
   0.83564234  0.33246886  0.39541058
   0.66649111  0.41544305  0.49880484
   0.00014481  0.49904488  0.60224622
   0.75032501  0.25024293  0.60385102
   0.66944211  0.66550791  0.49991050
   0.92086296  0.41379923  0.49914871
   0.74961610  0.50191400  0.60567587
  -0.00007202  0.00208114  0.60009895
   0.33169294  0.08523145  0.39789864
   0.50086769  0.75055742  0.59768953
   0.83453078  0.58347041  0.40219277
   0.83427892  0.83185770  0.40277427
   0.49879142  0.24871610  0.59630687
   0.08306479  0.08325562  0.40372798
   0.58272076  0.33380084  0.40135899
   0.91900270  0.16447264  0.49910071
   0.08271336  0.33480550  0.40260717
   0.00050374  0.25074808  0.59630151
   0.08163930  0.58482793  0.40422513
   0.91985437  0.66608608  0.49980610
   0.08369823  0.83111538  0.40367987
   0.91916709  0.91536757  0.49931787
   0.41420641  0.41707539  0.49960200
   0.16676957  0.16566690  0.49951047
   0.25181556  0.24876022  0.59549754
   0.33196404  0.58356170  0.40275843
   0.16528423  0.66761681  0.50004342
   0.16471381  0.91794853  0.49968136
   0.58401854  0.08346282  0.40197696
   0.41342536  0.16920105  0.49985282
   0.49983544 -0.00012517  0.59789068
   0.16809121  0.41654805  0.49979259
   0.74797266  0.75065744  0.59801463
Direct configuration=    11
   0.25091585  0.75110843  0.60264612
   0.41350301  0.66664566  0.49931717
   0.50051247  0.49897284  0.60486627
   0.66834206  0.91651198  0.49975471
   0.58647944  0.83314017  0.39237832
   0.32969074  0.83380674  0.39634797
   0.25166227  0.49695286  0.60060482
   0.41361964  0.91976782  0.50025291
   0.83464830  0.08041905  0.39791880
   0.66578170  0.16693621  0.49955402
   0.33343033  0.33555164  0.39909660
   0.25089043  0.00306908  0.60278233
   0.58293756  0.58220571  0.39234072
   0.74664878  0.00014815  0.60395701
  -0.00190835  0.75051541  0.60068823
   0.83588847  0.33225388  0.39477859
   0.66715089  0.41496550  0.49881755
   0.00031812  0.49873535  0.60262082
   0.74991111  0.25044069  0.60428208
   0.66935073  0.66556819  0.49953264
   0.92081589  0.41360310  0.49918129
   0.74960870  0.50210518  0.60628992
  -0.00003796  0.00210581  0.60014230
   0.33153577  0.08551072  0.39745779
   0.50080593  0.75060215  0.59707920
   0.83442915  0.58360918  0.40243581
   0.83432487  0.83169943  0.40314154
   0.49878330  0.24851042  0.59587122
   0.08277979  0.08301149  0.40392393
   0.58304695  0.33376161  0.40159010
   0.91846390  0.16445469  0.49880839
   0.08268427  0.33469591  0.40285330
   0.00052380  0.25100149  0.59582760
   0.08159711  0.58521319  0.40479821
   0.92023787  0.66586028  0.50011923
   0.08354553  0.83133580  0.40427820
   0.91899564  0.91548324  0.49945395
   0.41394030  0.41679577  0.49962080
   0.16713343  0.16536527  0.49944424
   0.25195091  0.24870963  0.59520222
   0.33196924  0.58362135  0.40311300
   0.16506271  0.66775680  0.50053081
   0.16487331  0.91779002  0.50002994
   0.58427784  0.08338429  0.40205425
   0.41330458  0.16923174  0.49922413
   0.49966549 -0.00020492  0.59736140
   0.16839273  0.41662129  0.49990346
   0.74751541  0.75064967  0.59772611
Direct configuration=    12
   0.25090170  0.75151286  0.60353825
   0.41326773  0.66743547  0.49894687
   0.50080196  0.49888022  0.60605926
   0.66807969  0.91628221  0.49973980
   0.58613188  0.83310982  0.39039214
   0.33003246  0.83345396  0.39584830
   0.25133505  0.49708920  0.60101646
   0.41311216  0.92015066  0.49943976
   0.83495442  0.08012954  0.39769887
   0.66712715  0.16667414  0.49990420
   0.33320542  0.33615758  0.39893733
   0.25172359  0.00315568  0.60309623
   0.58266719  0.58224047  0.39026467
   0.74585804  0.00043095  0.60465253
  -0.00158512  0.75092948  0.60149331
   0.83638073  0.33182393  0.39351461
   0.66847045  0.41401042  0.49884297
   0.00066473  0.49811631  0.60337001
   0.74908332  0.25083621  0.60514419
   0.66916796  0.66568876  0.49877694
   0.92072175  0.41321085  0.49924644
   0.74959392  0.50248754  0.60751801
   0.00003015  0.00215517  0.60022900
   0.33122144  0.08606926  0.39657610
   0.50068240  0.75069161  0.59585854
   0.83422589  0.58388674  0.40292189
   0.83441679  0.83138290  0.40387609
   0.49876705  0.24809905  0.59499991
   0.08220980  0.08252322  0.40431583
   0.58369934  0.33368313  0.40205231
   0.91738629  0.16441879  0.49822375
   0.08262609  0.33447671  0.40334557
   0.00056392  0.25150832  0.59487980
   0.08151274  0.58598370  0.40594436
   0.92100485  0.66540868  0.50074547
   0.08324011  0.83177663  0.40547487
   0.91865275  0.91571459  0.49972612
   0.41340808  0.41623653  0.49965839
   0.16786116  0.16476202  0.49931176
   0.25222161  0.24860846  0.59461157
   0.33197964  0.58374065  0.40382213
   0.16461969  0.66803678  0.50150558
   0.16519230  0.91747302  0.50072711
   0.58479645  0.08322722  0.40220883
   0.41306303  0.16929312  0.49796673
   0.49932559 -0.00036443  0.59630285
   0.16899577  0.41676776  0.50012521
   0.74660090  0.75063412  0.59714906
Direct configuration=    13
   0.25091192  0.75122084  0.60289408
   0.41343762  0.66686518  0.49921425
   0.50059293  0.49894710  0.60519785
   0.66826914  0.91644812  0.49975056
   0.58638284  0.83313174  0.39182629
   0.32978571  0.83370869  0.39620909
   0.25157132  0.49699076  0.60071923
   0.41347859  0.91987422  0.50002691
   0.83473338  0.08033858  0.39785767
   0.66615565  0.16686337  0.49965135
   0.33336782  0.33572005  0.39905233
   0.25112200  0.00309315  0.60286958
   0.58286241  0.58221537  0.39176371
   0.74642901  0.00022675  0.60415032
  -0.00181851  0.75063050  0.60091200
   0.83602529  0.33213438  0.39442728
   0.66751764  0.41470005  0.49882462
   0.00041445  0.49856330  0.60282905
   0.74968104  0.25055062  0.60452169
   0.66929993  0.66560170  0.49932261
   0.92078972  0.41349408  0.49919940
   0.74960459  0.50221145  0.60663125
  -0.00001903  0.00211953  0.60016640
   0.33144841  0.08566596  0.39721273
   0.50077160  0.75062702  0.59673993
   0.83437266  0.58368633  0.40257091
   0.83435042  0.83161146  0.40334570
   0.49877878  0.24839608  0.59562905
   0.08262137  0.08287578  0.40403285
   0.58322828  0.33373979  0.40171857
   0.91816439  0.16444472  0.49864589
   0.08266810  0.33463499  0.40299012
   0.00053495  0.25114236  0.59556417
   0.08157366  0.58542734  0.40511676
   0.92045104  0.66573476  0.50029328
   0.08346064  0.83145832  0.40461080
   0.91890034  0.91554754  0.49952960
   0.41379237  0.41664034  0.49963125
   0.16733570  0.16519761  0.49940742
   0.25202615  0.24868151  0.59503806
   0.33197213  0.58365451  0.40331010
   0.16493958  0.66783462  0.50080174
   0.16496197  0.91770192  0.50022371
   0.58442198  0.08334063  0.40209722
   0.41323744  0.16924880  0.49887465
   0.49957102 -0.00024925  0.59706719
   0.16856034  0.41666200  0.49996510
   0.74726123  0.75064535  0.59756572
Direct configuration=    14
   0.25113502  0.75109834  0.60318424
   0.41388781  0.66641011  0.49924346
   0.50029769  0.49910895  0.60556206
   0.66796042  0.91647550  0.49965763
   0.58621379  0.83340354  0.39118646
   0.32985292  0.83389248  0.39602537
   0.25160884  0.49719717  0.60087820
   0.41400491  0.91944754  0.49956750
   0.83454576  0.08031327  0.39780123
   0.66614227  0.16678735  0.49971068
   0.33312164  0.33584230  0.39899341
   0.25086053  0.00320642  0.60286257
   0.58304240  0.58218435  0.39110934
   0.74655805  0.00019928  0.60431100
  -0.00219906  0.75060800  0.60121741
   0.83582621  0.33227746  0.39401025
   0.66695603  0.41508124  0.49889243
   0.00035661  0.49864223  0.60296808
   0.74994636  0.25032273  0.60472460
   0.66881778  0.66579295  0.49901733
   0.92105708  0.41373826  0.49925309
   0.74979939  0.50194126  0.60694117
  -0.00052985  0.00255911  0.60017185
   0.33151691  0.08561354  0.39682681
   0.50068194  0.75042577  0.59628292
   0.83450022  0.58342094  0.40260682
   0.83443885  0.83158496  0.40351706
   0.49876754  0.24841459  0.59542066
   0.08292076  0.08283054  0.40407174
   0.58338484  0.33362632  0.40185976
   0.91835431  0.16418050  0.49856250
   0.08284916  0.33490894  0.40315213
   0.00035158  0.25126220  0.59536362
   0.08166059  0.58521292  0.40559915
   0.92080020  0.66536298  0.50068175
   0.08344529  0.83132021  0.40503566
   0.91908007  0.91545459  0.49983613
   0.41376442  0.41710943  0.49974057
   0.16729625  0.16549559  0.49936313
   0.25190771  0.24871364  0.59470080
   0.33186397  0.58361755  0.40350902
   0.16510928  0.66752546  0.50130279
   0.16479175  0.91764786  0.50050954
   0.58426347  0.08329305  0.40205626
   0.41300680  0.16926633  0.49851899
   0.49971607 -0.00008508  0.59669303
   0.16851636  0.41669264  0.50007849
   0.74774908  0.75057469  0.59742133
Direct configuration=    15
   0.25122522  0.75104881  0.60330156
   0.41406984  0.66622611  0.49925527
   0.50017832  0.49917440  0.60570933
   0.66783559  0.91648658  0.49962005
   0.58614544  0.83351345  0.39092775
   0.32988010  0.83396679  0.39595108
   0.25162402  0.49728064  0.60094248
   0.41421773  0.91927502  0.49938174
   0.83446990  0.08030304  0.39777841
   0.66613685  0.16675662  0.49973467
   0.33302210  0.33589173  0.39896958
   0.25075480  0.00325222  0.60285974
   0.58311517  0.58217180  0.39084474
   0.74661023  0.00018818  0.60437597
  -0.00235293  0.75059890  0.60134091
   0.83574571  0.33233531  0.39384162
   0.66672894  0.41523537  0.49891985
   0.00033323  0.49867414  0.60302430
   0.75005364  0.25023058  0.60480665
   0.66862282  0.66587029  0.49889390
   0.92116518  0.41383700  0.49927480
   0.74987816  0.50183200  0.60706649
  -0.00073640  0.00273685  0.60017405
   0.33154461  0.08559235  0.39667077
   0.50064568  0.75034440  0.59609813
   0.83455180  0.58331363  0.40262134
   0.83447461  0.83157424  0.40358635
   0.49876299  0.24842208  0.59533639
   0.08304181  0.08281224  0.40408746
   0.58344814  0.33358044  0.40191685
   0.91843111  0.16407367  0.49852877
   0.08292237  0.33501971  0.40321764
   0.00027743  0.25131065  0.59528253
   0.08169574  0.58512622  0.40579419
   0.92094138  0.66521265  0.50083882
   0.08343908  0.83126437  0.40520746
   0.91915274  0.91541701  0.49996007
   0.41375312  0.41729911  0.49978477
   0.16728030  0.16561608  0.49934523
   0.25185982  0.24872663  0.59456443
   0.33182023  0.58360260  0.40358945
   0.16517790  0.66740045  0.50150539
   0.16472293  0.91762600  0.50062511
   0.58419937  0.08327381  0.40203970
   0.41291354  0.16927342  0.49837518
   0.49977472 -0.00001870  0.59654174
   0.16849858  0.41670503  0.50012434
   0.74794634  0.75054613  0.59736294
Direct configuration=    16
   0.25086356  0.75126931  0.60346040
   0.41388784  0.66615761  0.49931577
   0.50033210  0.49901798  0.60592057
   0.66808765  0.91643360  0.49943486
   0.58647114  0.83350548  0.39056699
   0.32977684  0.83392544  0.39586912
   0.25165710  0.49727250  0.60111492
   0.41402314  0.91920278  0.49896102
   0.83439837  0.08030259  0.39781455
   0.66574832  0.16677197  0.49968333
   0.33313612  0.33579059  0.39892462
   0.25050513  0.00324448  0.60266379
   0.58319067  0.58223807  0.39052593
   0.74666734  0.00021112  0.60438598
  -0.00243230  0.75060996  0.60164357
   0.83574161  0.33235844  0.39372252
   0.66670409  0.41535146  0.49902427
   0.00035501  0.49865755  0.60308776
   0.74997448  0.25040232  0.60481161
   0.66885988  0.66561707  0.49866004
   0.92067358  0.41419655  0.49929046
   0.74981262  0.50166093  0.60708429
  -0.00079824  0.00262892  0.60021463
   0.33155499  0.08557935  0.39635212
   0.50091122  0.75021422  0.59589441
   0.83456376  0.58325346  0.40253296
   0.83450484  0.83143127  0.40368181
   0.49873240  0.24865065  0.59532113
   0.08325888  0.08304418  0.40405568
   0.58325340  0.33364493  0.40197232
   0.91860361  0.16434727  0.49849702
   0.08299825  0.33510357  0.40324153
   0.00009199  0.25133928  0.59530982
   0.08168767  0.58491629  0.40615595
   0.92052776  0.66542490  0.50108679
   0.08366215  0.83098399  0.40551871
   0.91913130  0.91518048  0.50030187
   0.41381644  0.41752792  0.49992359
   0.16736717  0.16548522  0.49923263
   0.25175867  0.24885518  0.59430962
   0.33183569  0.58368328  0.40366641
   0.16558903  0.66719315  0.50189114
   0.16511018  0.91744558  0.50081088
   0.58389645  0.08332865  0.40190317
   0.41278854  0.16942464  0.49826414
   0.49983164  0.00006173  0.59629322
   0.16867203  0.41664255  0.50028757
   0.74821588  0.75041153  0.59731455
Direct configuration=    17
   0.25072259  0.75135526  0.60352231
   0.41381690  0.66613090  0.49933935
   0.50039205  0.49895701  0.60600291
   0.66818591  0.91641295  0.49936267