  48  48   0   0
  0.5349325E+02  0.1100258E-08  0.1100258E-08  0.2449179E-08  0.3500000E-15
  1.000000000000000E-004
  CAR 
 unknown system                          
      6.38882390     -9.79830651  301     -1.08440667      1.00000000
     -9.798  0.0000E+00  0.0000E+00
     -9.744  0.0000E+00  0.0000E+00
     -9.690  0.0000E+00  0.0000E+00
     -9.636  0.0000E+00  0.0000E+00
     -9.582  0.0000E+00  0.0000E+00
     -9.529  0.0000E+00  0.0000E+00
     -9.475  0.0000E+00  0.0000E+00
     -9.421  0.0000E+00  0.0000E+00
     -9.367  0.8916E-17  0.4811E-18
     -9.313  0.3720E-14  0.2012E-15
     -9.259  0.8301E-12  0.4499E-13
     -9.205  0.1048E-09  0.5702E-11
     -9.151  0.7506E-08  0.4107E-09
     -9.097  0.3053E-06  0.1688E-07
     -9.043  0.7069E-05  0.3983E-06
     -8.989  0.9342E-04  0.5439E-05
     -8.935  0.7064E-03  0.4355E-04
     -8.881  0.3064E-02  0.2089E-03
     -8.827  0.7664E-02  0.6224E-03
     -8.773  0.1127E-01  0.1231E-02
     -8.719  0.1084E-01  0.1815E-02
     -8.665  0.9863E-02  0.2348E-02
     -8.611  0.1111E-01  0.2947E-02
     -8.557  0.1050E-01  0.3514E-02
     -8.503  0.6276E-02  0.3852E-02
     -8.449  0.2225E-02  0.3972E-02
     -8.395  0.5091E-03  0.4000E-02
     -8.341  0.4188E-03  0.4022E-02
     -8.288  0.1625E-02  0.4110E-02
     -8.234  0.4566E-02  0.4356E-02
     -8.180  0.8466E-02  0.4813E-02
     -8.126  0.1098E-01  0.5405E-02
     -8.072  0.1189E-01  0.6047E-02
     -8.018  0.1443E-01  0.6825E-02
     -7.964  0.1844E-01  0.7821E-02
     -7.910  0.1892E-01  0.8841E-02
     -7.856  0.1503E-01  0.9652E-02
     -7.802  0.1179E-01  0.1029E-01
     -7.748  0.1152E-01  0.1091E-01
     -7.694  0.1121E-01  0.1151E-01
     -7.640  0.1022E-01  0.1207E-01
     -7.586  0.1271E-01  0.1275E-01
     -7.532  0.1860E-01  0.1376E-01
     -7.478  0.2193E-01  0.1494E-01
     -7.424  0.2038E-01  0.1604E-01
     -7.370  0.1763E-01  0.1699E-01
     -7.316  0.1835E-01  0.1798E-01
     -7.262  0.2428E-01  0.1929E-01
     -7.208  0.3198E-01  0.2102E-01
     -7.154  0.3684E-01  0.2300E-01
     -7.100  0.3969E-01  0.2514E-01
     -7.046  0.4500E-01  0.2757E-01
     -6.993  0.5516E-01  0.3055E-01
     -6.939  0.6890E-01  0.3427E-01
     -6.885  0.8245E-01  0.3871E-01
     -6.831  0.8867E-01  0.4350E-01
     -6.777  0.8298E-01  0.4798E-01
     -6.723  0.7306E-01  0.5192E-01
     -6.669  0.7006E-01  0.5570E-01
     -6.615  0.7691E-01  0.5985E-01
     -6.561  0.9040E-01  0.6473E-01
     -6.507  0.1053E+00  0.7041E-01
     -6.453  0.1184E+00  0.7680E-01
     -6.399  0.1270E+00  0.8365E-01
     -6.345  0.1285E+00  0.9058E-01
     -6.291  0.1268E+00  0.9742E-01
     -6.237  0.1271E+00  0.1043E+00
     -6.183  0.1317E+00  0.1114E+00
     -6.129  0.1407E+00  0.1190E+00
     -6.075  0.1509E+00  0.1271E+00
     -6.021  0.1578E+00  0.1356E+00
     -5.967  0.1606E+00  0.1443E+00
     -5.913  0.1602E+00  0.1529E+00
     -5.859  0.1562E+00  0.1614E+00
     -5.805  0.1478E+00  0.1693E+00
     -5.752  0.1384E+00  0.1768E+00
     -5.698  0.1332E+00  0.1840E+00
     -5.644  0.1331E+00  0.1912E+00
     -5.590  0.1354E+00  0.1985E+00
     -5.536  0.1378E+00  0.2059E+00
     -5.482  0.1387E+00  0.2134E+00
     -5.428  0.1387E+00  0.2209E+00
     -5.374  0.1420E+00  0.2285E+00
     -5.320  0.1500E+00  0.2366E+00
     -5.266  0.1574E+00  0.2451E+00
     -5.212  0.1612E+00  0.2538E+00
     -5.158  0.1634E+00  0.2626E+00
     -5.104  0.1673E+00  0.2717E+00
     -5.050  0.1730E+00  0.2810E+00
     -4.996  0.1770E+00  0.2906E+00
     -4.942  0.1780E+00  0.3002E+00
     -4.888  0.1776E+00  0.3097E+00
     -4.834  0.1772E+00  0.3193E+00
     -4.780  0.1764E+00  0.3288E+00
     -4.726  0.1748E+00  0.3383E+00
     -4.672  0.1730E+00  0.3476E+00
     -4.618  0.1723E+00  0.3569E+00
     -4.564  0.1729E+00  0.3662E+00
     -4.511  0.1740E+00  0.3756E+00
     -4.457  0.1752E+00  0.3851E+00
     -4.403  0.1752E+00  0.3945E+00
     -4.349  0.1727E+00  0.4038E+00
     -4.295  0.1701E+00  0.4130E+00
     -4.241  0.1697E+00  0.4222E+00
     -4.187  0.1704E+00  0.4314E+00
     -4.133  0.1699E+00  0.4405E+00
     -4.079  0.1699E+00  0.4497E+00
     -4.025  0.1733E+00  0.4590E+00
     -3.971  0.1792E+00  0.4687E+00
     -3.917  0.1835E+00  0.4786E+00
     -3.863  0.1842E+00  0.4886E+00
     -3.809  0.1856E+00  0.4986E+00
     -3.755  0.1906E+00  0.5089E+00
     -3.701  0.1950E+00  0.5194E+00
     -3.647  0.1958E+00  0.5299E+00
     -3.593  0.1954E+00  0.5405E+00
     -3.539  0.1948E+00  0.5510E+00
     -3.485  0.1942E+00  0.5615E+00
     -3.431  0.1968E+00  0.5721E+00
     -3.377  0.2014E+00  0.5830E+00
     -3.323  0.2031E+00  0.5939E+00
     -3.269  0.2006E+00  0.6048E+00
     -3.216  0.1944E+00  0.6152E+00
     -3.162  0.1854E+00  0.6252E+00
     -3.108  0.1777E+00  0.6348E+00
     -3.054  0.1736E+00  0.6442E+00
     -3.000  0.1721E+00  0.6535E+00
     -2.946  0.1731E+00  0.6628E+00
     -2.892  0.1777E+00  0.6724E+00
     -2.838  0.1839E+00  0.6823E+00
     -2.784  0.1887E+00  0.6925E+00
     -2.730  0.1921E+00  0.7029E+00
     -2.676  0.1947E+00  0.7134E+00
     -2.622  0.1960E+00  0.7240E+00
     -2.568  0.1937E+00  0.7344E+00
     -2.514  0.1877E+00  0.7445E+00
     -2.460  0.1834E+00  0.7544E+00
     -2.406  0.1836E+00  0.7643E+00
     -2.352  0.1829E+00  0.7742E+00
     -2.298  0.1789E+00  0.7839E+00
     -2.244  0.1777E+00  0.7934E+00
     -2.190  0.1806E+00  0.8032E+00
     -2.136  0.1839E+00  0.8131E+00
     -2.082  0.1857E+00  0.8231E+00
     -2.028  0.1876E+00  0.8333E+00
     -1.975  0.1907E+00  0.8435E+00
     -1.921  0.1922E+00  0.8539E+00
     -1.867  0.1912E+00  0.8642E+00
     -1.813  0.1915E+00  0.8746E+00
     -1.759  0.1944E+00  0.8851E+00
     -1.705  0.1968E+00  0.8957E+00
     -1.651  0.1986E+00  0.9064E+00
     -1.597  0.2048E+00  0.9174E+00
     -1.543  0.2145E+00  0.9290E+00
     -1.489  0.2192E+00  0.9408E+00
     -1.435  0.2159E+00  0.9525E+00
     -1.381  0.2076E+00  0.9637E+00
     -1.327  0.1942E+00  0.9742E+00
     -1.273  0.1756E+00  0.9837E+00
     -1.219  0.1561E+00  0.9921E+00
     -1.165  0.1359E+00  0.9994E+00
     -1.111  0.1123E+00  0.1005E+01
     -1.057  0.8946E-01  0.1010E+01
     -1.003  0.7011E-01  0.1014E+01
     -0.949  0.4973E-01  0.1017E+01
     -0.895  0.3157E-01  0.1018E+01
     -0.841  0.2271E-01  0.1020E+01
     -0.787  0.2139E-01  0.1021E+01
     -0.734  0.2144E-01  0.1022E+01
     -0.680  0.1942E-01  0.1023E+01
     -0.626  0.1714E-01  0.1024E+01
     -0.572  0.2042E-01  0.1025E+01
     -0.518  0.3160E-01  0.1027E+01
     -0.464  0.4475E-01  0.1029E+01
     -0.410  0.5002E-01  0.1032E+01
     -0.356  0.4349E-01  0.1034E+01
     -0.302  0.3452E-01  0.1036E+01
     -0.248  0.3515E-01  0.1038E+01
     -0.194  0.4175E-01  0.1040E+01
     -0.140  0.4139E-01  0.1042E+01
     -0.086  0.3260E-01  0.1044E+01
     -0.032  0.2364E-01  0.1046E+01
      0.022  0.1964E-01  0.1047E+01
      0.076  0.2125E-01  0.1048E+01
      0.130  0.2690E-01  0.1049E+01
      0.184  0.3294E-01  0.1051E+01
      0.238  0.3560E-01  0.1053E+01
      0.292  0.3648E-01  0.1055E+01
      0.346  0.3913E-01  0.1057E+01
      0.400  0.4136E-01  0.1059E+01
      0.454  0.4084E-01  0.1061E+01
      0.507  0.4050E-01  0.1064E+01
      0.561  0.4242E-01  0.1066E+01
      0.615  0.4467E-01  0.1068E+01
      0.669  0.4467E-01  0.1071E+01
      0.723  0.4136E-01  0.1073E+01
      0.777  0.3664E-01  0.1075E+01
      0.831  0.3199E-01  0.1077E+01
      0.885  0.2661E-01  0.1078E+01
      0.939  0.2171E-01  0.1079E+01
      0.993  0.1999E-01  0.1080E+01
      1.047  0.2173E-01  0.1081E+01
      1.101  0.2297E-01  0.1083E+01
      1.155  0.2069E-01  0.1084E+01
      1.209  0.1707E-01  0.1085E+01
      1.263  0.1372E-01  0.1085E+01
      1.317  0.1103E-01  0.1086E+01
      1.371  0.1196E-01  0.1087E+01
      1.425  0.1859E-01  0.1088E+01
      1.479  0.2877E-01  0.1089E+01
      1.533  0.3561E-01  0.1091E+01
      1.587  0.3328E-01  0.1093E+01
      1.641  0.2673E-01  0.1094E+01
      1.695  0.2533E-01  0.1096E+01
      1.749  0.3092E-01  0.1097E+01
      1.802  0.3817E-01  0.1100E+01
      1.856  0.3827E-01  0.1102E+01
      1.910  0.2822E-01  0.1103E+01
      1.964  0.1703E-01  0.1104E+01
      2.018  0.1389E-01  0.1105E+01
      2.072  0.1730E-01  0.1106E+01
      2.126  0.2295E-01  0.1107E+01
      2.180  0.2989E-01  0.1109E+01
      2.234  0.3716E-01  0.1111E+01
      2.288  0.4396E-01  0.1113E+01
      2.342  0.4902E-01  0.1116E+01
      2.396  0.5069E-01  0.1118E+01
      2.450  0.4877E-01  0.1121E+01
      2.504  0.4513E-01  0.1123E+01
      2.558  0.4228E-01  0.1126E+01
      2.612  0.4235E-01  0.1128E+01
      2.666  0.4658E-01  0.1130E+01
      2.720  0.4935E-01  0.1133E+01
      2.774  0.4260E-01  0.1135E+01
      2.828  0.2883E-01  0.1137E+01
      2.882  0.1765E-01  0.1138E+01
      2.936  0.1360E-01  0.1139E+01
      2.990  0.1250E-01  0.1139E+01
      3.043  0.1020E-01  0.1140E+01
      3.097  0.1007E-01  0.1140E+01
      3.151  0.1514E-01  0.1141E+01
      3.205  0.2234E-01  0.1142E+01
      3.259  0.2624E-01  0.1144E+01
      3.313  0.2222E-01  0.1145E+01
      3.367  0.1324E-01  0.1146E+01
      3.421  0.8911E-02  0.1146E+01
      3.475  0.1340E-01  0.1147E+01
      3.529  0.2258E-01  0.1148E+01
      3.583  0.3160E-01  0.1150E+01
      3.637  0.3917E-01  0.1152E+01
      3.691  0.4324E-01  0.1154E+01
      3.745  0.4137E-01  0.1157E+01
      3.799  0.3481E-01  0.1158E+01
      3.853  0.2757E-01  0.1160E+01
      3.907  0.2442E-01  0.1161E+01
      3.961  0.2655E-01  0.1163E+01
      4.015  0.3035E-01  0.1164E+01
      4.069  0.3055E-01  0.1166E+01
      4.123  0.2600E-01  0.1167E+01
      4.177  0.2203E-01  0.1169E+01
      4.231  0.2143E-01  0.1170E+01
      4.284  0.2059E-01  0.1171E+01
      4.338  0.1800E-01  0.1172E+01
      4.392  0.1773E-01  0.1173E+01
      4.446  0.2189E-01  0.1174E+01
      4.500  0.2872E-01  0.1176E+01
      4.554  0.3885E-01  0.1178E+01
      4.608  0.5139E-01  0.1180E+01
      4.662  0.5857E-01  0.1184E+01
      4.716  0.5617E-01  0.1187E+01
      4.770  0.5017E-01  0.1189E+01
      4.824  0.4743E-01  0.1192E+01
      4.878  0.4838E-01  0.1194E+01
      4.932  0.5028E-01  0.1197E+01
      4.986  0.5483E-01  0.1200E+01
      5.040  0.6354E-01  0.1204E+01
      5.094  0.6887E-01  0.1207E+01
      5.148  0.6528E-01  0.1211E+01
      5.202  0.6076E-01  0.1214E+01
      5.256  0.5981E-01  0.1217E+01
      5.310  0.5325E-01  0.1220E+01
      5.364  0.3761E-01  0.1222E+01
      5.418  0.2074E-01  0.1223E+01
      5.472  0.8870E-02  0.1224E+01
      5.526  0.2749E-02  0.1224E+01
      5.579  0.5629E-03  0.1224E+01
      5.633  0.7098E-04  0.1224E+01
      5.687  0.5298E-05  0.1224E+01
      5.741  0.2293E-06  0.1224E+01
      5.795  0.5693E-08  0.1224E+01
      5.849  0.8055E-10  0.1224E+01
      5.903  0.6471E-12  0.1224E+01
      5.957  0.2942E-14  0.1224E+01
      6.011  0.8230E-17  0.1224E+01
      6.065  0.0000E+00  0.1224E+01
      6.119  0.0000E+00  0.1224E+01
      6.173  0.0000E+00  0.1224E+01
      6.227  0.0000E+00  0.1224E+01
      6.281  0.0000E+00  0.1224E+01
      6.335  0.0000E+00  0.1224E+01
      6.389  0.0000E+00  0.1224E+01
