  56  56   0   0
  0.4903395E+02  0.1100258E-08  0.1100258E-08  0.2619179E-08  0.3500000E-15
  1.000000000000000E-004
  CAR 
 unknown system                          
      6.42920412    -21.88494213  301     -1.42308456      1.00000000
    -21.885  0.0000E+00  0.0000E+00
    -21.791  0.0000E+00  0.0000E+00
    -21.696  0.0000E+00  0.0000E+00
    -21.602  0.0000E+00  0.0000E+00
    -21.507  0.0000E+00  0.0000E+00
    -21.413  0.0000E+00  0.0000E+00
    -21.319  0.0000E+00  0.0000E+00
    -21.224  0.0000E+00  0.0000E+00
    -21.130  0.1053E-14  0.9936E-16
    -21.036  0.1211E-10  0.1143E-11
    -20.941  0.2445E-07  0.2308E-08
    -20.847  0.8827E-05  0.8354E-06
    -20.752  0.5897E-03  0.5649E-04
    -20.658  0.7685E-02  0.7818E-03
    -20.564  0.2151E-01  0.2812E-02
    -20.469  0.2215E-01  0.4903E-02
    -20.375  0.3299E-01  0.8016E-02
    -20.280  0.3249E-01  0.1108E-01
    -20.186  0.2074E-01  0.1304E-01
    -20.092  0.2585E-01  0.1548E-01
    -19.997  0.3154E-01  0.1846E-01
    -19.903  0.3702E-01  0.2195E-01
    -19.809  0.1894E-01  0.2374E-01
    -19.714  0.4827E-02  0.2419E-01
    -19.620  0.1432E-01  0.2554E-01
    -19.525  0.2486E-01  0.2789E-01
    -19.431  0.2503E-01  0.3025E-01
    -19.337  0.1576E-01  0.3174E-01
    -19.242  0.2649E-02  0.3199E-01
    -19.148  0.9140E-04  0.3200E-01
    -19.054  0.5983E-06  0.3200E-01
    -18.959  0.7112E-09  0.3200E-01
    -18.865  0.1496E-12  0.3200E-01
    -18.770  0.4705E-17  0.3200E-01
    -18.676  0.0000E+00  0.3200E-01
    -18.582  0.0000E+00  0.3200E-01
    -18.487  0.0000E+00  0.3200E-01
    -18.393  0.0000E+00  0.3200E-01
    -18.298  0.0000E+00  0.3200E-01
    -18.204  0.0000E+00  0.3200E-01
    -18.110  0.0000E+00  0.3200E-01
    -18.015  0.0000E+00  0.3200E-01
    -17.921  0.0000E+00  0.3200E-01
    -17.827  0.0000E+00  0.3200E-01
    -17.732  0.0000E+00  0.3200E-01
    -17.638  0.0000E+00  0.3200E-01
    -17.543  0.0000E+00  0.3200E-01
    -17.449  0.0000E+00  0.3200E-01
    -17.355  0.0000E+00  0.3200E-01
    -17.260  0.0000E+00  0.3200E-01
    -17.166  0.0000E+00  0.3200E-01
    -17.072  0.0000E+00  0.3200E-01
    -16.977  0.0000E+00  0.3200E-01
    -16.883  0.0000E+00  0.3200E-01
    -16.788  0.0000E+00  0.3200E-01
    -16.694  0.0000E+00  0.3200E-01
    -16.600  0.0000E+00  0.3200E-01
    -16.505  0.0000E+00  0.3200E-01
    -16.411  0.0000E+00  0.3200E-01
    -16.316  0.0000E+00  0.3200E-01
    -16.222  0.0000E+00  0.3200E-01
    -16.128  0.0000E+00  0.3200E-01
    -16.033  0.0000E+00  0.3200E-01
    -15.939  0.0000E+00  0.3200E-01
    -15.845  0.0000E+00  0.3200E-01
    -15.750  0.0000E+00  0.3200E-01
    -15.656  0.0000E+00  0.3200E-01
    -15.561  0.0000E+00  0.3200E-01
    -15.467  0.0000E+00  0.3200E-01
    -15.373  0.0000E+00  0.3200E-01
    -15.278  0.0000E+00  0.3200E-01
    -15.184  0.0000E+00  0.3200E-01
    -15.090  0.0000E+00  0.3200E-01
    -14.995  0.0000E+00  0.3200E-01
    -14.901  0.0000E+00  0.3200E-01
    -14.806  0.0000E+00  0.3200E-01
    -14.712  0.0000E+00  0.3200E-01
    -14.618  0.0000E+00  0.3200E-01
    -14.523  0.0000E+00  0.3200E-01
    -14.429  0.0000E+00  0.3200E-01
    -14.335  0.0000E+00  0.3200E-01
    -14.240  0.0000E+00  0.3200E-01
    -14.146  0.0000E+00  0.3200E-01
    -14.051  0.0000E+00  0.3200E-01
    -13.957  0.0000E+00  0.3200E-01
    -13.863  0.0000E+00  0.3200E-01
    -13.768  0.0000E+00  0.3200E-01
    -13.674  0.0000E+00  0.3200E-01
    -13.579  0.0000E+00  0.3200E-01
    -13.485  0.0000E+00  0.3200E-01
    -13.391  0.0000E+00  0.3200E-01
    -13.296  0.0000E+00  0.3200E-01
    -13.202  0.0000E+00  0.3200E-01
    -13.108  0.0000E+00  0.3200E-01
    -13.013  0.0000E+00  0.3200E-01
    -12.919  0.0000E+00  0.3200E-01
    -12.824  0.0000E+00  0.3200E-01
    -12.730  0.0000E+00  0.3200E-01
    -12.636  0.0000E+00  0.3200E-01
    -12.541  0.0000E+00  0.3200E-01
    -12.447  0.0000E+00  0.3200E-01
    -12.353  0.0000E+00  0.3200E-01
    -12.258  0.0000E+00  0.3200E-01
    -12.164  0.0000E+00  0.3200E-01
    -12.069  0.0000E+00  0.3200E-01
    -11.975  0.0000E+00  0.3200E-01
    -11.881  0.0000E+00  0.3200E-01
    -11.786  0.0000E+00  0.3200E-01
    -11.692  0.0000E+00  0.3200E-01
    -11.597  0.0000E+00  0.3200E-01
    -11.503  0.0000E+00  0.3200E-01
    -11.409  0.0000E+00  0.3200E-01
    -11.314  0.0000E+00  0.3200E-01
    -11.220  0.0000E+00  0.3200E-01
    -11.126  0.0000E+00  0.3200E-01
    -11.031  0.0000E+00  0.3200E-01
    -10.937  0.0000E+00  0.3200E-01
    -10.842  0.0000E+00  0.3200E-01
    -10.748  0.0000E+00  0.3200E-01
    -10.654  0.0000E+00  0.3200E-01
    -10.559  0.0000E+00  0.3200E-01
    -10.465  0.0000E+00  0.3200E-01
    -10.371  0.0000E+00  0.3200E-01
    -10.276  0.0000E+00  0.3200E-01
    -10.182  0.0000E+00  0.3200E-01
    -10.087  0.2745E-17  0.3200E-01
     -9.993  0.8192E-13  0.3200E-01
     -9.899  0.3799E-09  0.3200E-01
     -9.804  0.3128E-06  0.3200E-01
     -9.710  0.4695E-04  0.3200E-01
     -9.615  0.1340E-02  0.3213E-01
     -9.521  0.7756E-02  0.3286E-01
     -9.427  0.1063E-01  0.3387E-01
     -9.332  0.9685E-02  0.3478E-01
     -9.238  0.9852E-02  0.3571E-01
     -9.144  0.2975E-02  0.3599E-01
     -9.049  0.1906E-02  0.3617E-01
     -8.955  0.7954E-02  0.3692E-01
     -8.860  0.9507E-02  0.3782E-01
     -8.766  0.8133E-02  0.3859E-01
     -8.672  0.1179E-01  0.3970E-01
     -8.577  0.1185E-01  0.4082E-01
     -8.483  0.1202E-01  0.4195E-01
     -8.389  0.1321E-01  0.4320E-01
     -8.294  0.2743E-01  0.4579E-01
     -8.200  0.4416E-01  0.4996E-01
     -8.105  0.5951E-01  0.5557E-01
     -8.011  0.7163E-01  0.6233E-01
     -7.917  0.7336E-01  0.6926E-01
     -7.822  0.8560E-01  0.7734E-01
     -7.728  0.8881E-01  0.8572E-01
     -7.633  0.9488E-01  0.9467E-01
     -7.539  0.9484E-01  0.1036E+00
     -7.445  0.9255E-01  0.1124E+00
     -7.350  0.1121E+00  0.1229E+00
     -7.256  0.1291E+00  0.1351E+00
     -7.162  0.1303E+00  0.1474E+00
     -7.067  0.1371E+00  0.1604E+00
     -6.973  0.1521E+00  0.1747E+00
     -6.878  0.1620E+00  0.1900E+00
     -6.784  0.1680E+00  0.2059E+00
     -6.690  0.1671E+00  0.2216E+00
     -6.595  0.1641E+00  0.2371E+00
     -6.501  0.1551E+00  0.2518E+00
     -6.407  0.1497E+00  0.2659E+00
     -6.312  0.1532E+00  0.2803E+00
     -6.218  0.1539E+00  0.2949E+00
     -6.123  0.1521E+00  0.3092E+00
     -6.029  0.1555E+00  0.3239E+00
     -5.935  0.1666E+00  0.3396E+00
     -5.840  0.1686E+00  0.3555E+00
     -5.746  0.1655E+00  0.3712E+00
     -5.651  0.1604E+00  0.3863E+00
     -5.557  0.1595E+00  0.4014E+00
     -5.463  0.1654E+00  0.4170E+00
     -5.368  0.1686E+00  0.4329E+00
     -5.274  0.1705E+00  0.4490E+00
     -5.180  0.1744E+00  0.4654E+00
     -5.085  0.1780E+00  0.4822E+00
     -4.991  0.1789E+00  0.4991E+00
     -4.896  0.1783E+00  0.5159E+00
     -4.802  0.1774E+00  0.5327E+00
     -4.708  0.1769E+00  0.5494E+00
     -4.613  0.1721E+00  0.5656E+00
     -4.519  0.1685E+00  0.5815E+00
     -4.425  0.1745E+00  0.5980E+00
     -4.330  0.1825E+00  0.6152E+00
     -4.236  0.1873E+00  0.6329E+00
     -4.141  0.1879E+00  0.6506E+00
     -4.047  0.1868E+00  0.6683E+00
     -3.953  0.1904E+00  0.6862E+00
     -3.858  0.1896E+00  0.7041E+00
     -3.764  0.1855E+00  0.7216E+00
     -3.670  0.1823E+00  0.7388E+00
     -3.575  0.1758E+00  0.7554E+00
     -3.481  0.1705E+00  0.7715E+00
     -3.386  0.1660E+00  0.7872E+00
     -3.292  0.1723E+00  0.8035E+00
     -3.198  0.1769E+00  0.8202E+00
     -3.103  0.1748E+00  0.8367E+00
     -3.009  0.1808E+00  0.8537E+00
     -2.914  0.1844E+00  0.8711E+00
     -2.820  0.1870E+00  0.8888E+00
     -2.726  0.1912E+00  0.9068E+00
     -2.631  0.1810E+00  0.9239E+00
     -2.537  0.1754E+00  0.9405E+00
     -2.443  0.1749E+00  0.9570E+00
     -2.348  0.1762E+00  0.9736E+00
     -2.254  0.1836E+00  0.9909E+00
     -2.159  0.1925E+00  0.1009E+01
     -2.065  0.1793E+00  0.1026E+01
     -1.971  0.1617E+00  0.1041E+01
     -1.876  0.1523E+00  0.1056E+01
     -1.782  0.1401E+00  0.1069E+01
     -1.688  0.1198E+00  0.1080E+01
     -1.593  0.1010E+00  0.1090E+01
     -1.499  0.9015E-01  0.1098E+01
     -1.404  0.7491E-01  0.1105E+01
     -1.310  0.6317E-01  0.1111E+01
     -1.216  0.5657E-01  0.1117E+01
     -1.121  0.5128E-01  0.1121E+01
     -1.027  0.5596E-01  0.1127E+01
     -0.932  0.5318E-01  0.1132E+01
     -0.838  0.5297E-01  0.1137E+01
     -0.744  0.6491E-01  0.1143E+01
     -0.649  0.6514E-01  0.1149E+01
     -0.555  0.6221E-01  0.1155E+01
     -0.461  0.5090E-01  0.1160E+01
     -0.366  0.3099E-01  0.1163E+01
     -0.272  0.2037E-01  0.1165E+01
     -0.177  0.2443E-01  0.1167E+01
     -0.083  0.2329E-01  0.1169E+01
      0.011  0.1994E-01  0.1171E+01
      0.106  0.2397E-01  0.1173E+01
      0.200  0.2486E-01  0.1176E+01
      0.294  0.3197E-01  0.1179E+01
      0.389  0.4119E-01  0.1182E+01
      0.483  0.4402E-01  0.1187E+01
      0.578  0.3898E-01  0.1190E+01
      0.672  0.3214E-01  0.1193E+01
      0.766  0.2818E-01  0.1196E+01
      0.861  0.1974E-01  0.1198E+01
      0.955  0.2294E-01  0.1200E+01
      1.050  0.2238E-01  0.1202E+01
      1.144  0.2173E-01  0.1204E+01
      1.238  0.2529E-01  0.1207E+01
      1.333  0.2861E-01  0.1209E+01
      1.427  0.3271E-01  0.1212E+01
      1.521  0.3271E-01  0.1215E+01
      1.616  0.3508E-01  0.1219E+01
      1.710  0.3123E-01  0.1222E+01
      1.805  0.3401E-01  0.1225E+01
      1.899  0.3579E-01  0.1228E+01
      1.993  0.3200E-01  0.1231E+01
      2.088  0.3117E-01  0.1234E+01
      2.182  0.2962E-01  0.1237E+01
      2.276  0.2275E-01  0.1239E+01
      2.371  0.2135E-01  0.1241E+01
      2.465  0.2279E-01  0.1243E+01
      2.560  0.1992E-01  0.1245E+01
      2.654  0.9837E-02  0.1246E+01
      2.748  0.1228E-01  0.1247E+01
      2.843  0.2390E-01  0.1250E+01
      2.937  0.3059E-01  0.1252E+01
      3.032  0.2976E-01  0.1255E+01
      3.126  0.2976E-01  0.1258E+01
      3.220  0.3538E-01  0.1261E+01
      3.315  0.3805E-01  0.1265E+01
      3.409  0.3089E-01  0.1268E+01
      3.503  0.2838E-01  0.1271E+01
      3.598  0.3088E-01  0.1273E+01
      3.692  0.3269E-01  0.1277E+01
      3.787  0.3554E-01  0.1280E+01
      3.881  0.2845E-01  0.1283E+01
      3.975  0.2906E-01  0.1285E+01
      4.070  0.3650E-01  0.1289E+01
      4.164  0.3843E-01  0.1292E+01
      4.258  0.3100E-01  0.1295E+01
      4.353  0.3749E-01  0.1299E+01
      4.447  0.4811E-01  0.1303E+01
      4.542  0.4799E-01  0.1308E+01
      4.636  0.4916E-01  0.1313E+01
      4.730  0.4862E-01  0.1317E+01
      4.825  0.5112E-01  0.1322E+01
      4.919  0.5742E-01  0.1327E+01
      5.013  0.6753E-01  0.1334E+01
      5.108  0.6549E-01  0.1340E+01
      5.202  0.3525E-01  0.1343E+01
      5.297  0.6893E-02  0.1344E+01
      5.391  0.3634E-03  0.1344E+01
      5.485  0.4343E-05  0.1344E+01
      5.580  0.1053E-07  0.1344E+01
      5.674  0.4827E-11  0.1344E+01
      5.769  0.3992E-15  0.1344E+01
      5.863  0.0000E+00  0.1344E+01
      5.957  0.0000E+00  0.1344E+01
      6.052  0.0000E+00  0.1344E+01
      6.146  0.0000E+00  0.1344E+01
      6.240  0.0000E+00  0.1344E+01
      6.335  0.0000E+00  0.1344E+01
      6.429  0.0000E+00  0.1344E+01
