<?xml version="1.0" encoding="ISO-8859-1"?>
<modeling>
 <generator>
  <i name="program" type="string">vasp </i>
  <i name="version" type="string">5.4.1  </i>
  <i name="subversion" type="string">24Jun15 (build Mar 14 2019 10:18:33) complex                          parallel </i>
  <i name="platform" type="string">INTEL-19.0.2+OPENMPI-3.1.3 </i>
  <i name="date" type="string">2023 01 22 </i>
  <i name="time" type="string">00:49:03 </i>
 </generator>
 <incar>
  <i type="int" name="ISTART">     0</i>
  <i type="string" name="PREC">normal</i>
  <i type="string" name="ALGO"> Fast</i>
  <i type="int" name="NELM">   500</i>
  <i type="int" name="IBRION">     2</i>
  <i type="int" name="NFREE">     2</i>
  <i name="EDIFF">      0.00000100</i>
  <i name="EDIFFG">     -0.02000000</i>
  <i type="int" name="NSW">   500</i>
  <i type="int" name="ISIF">     0</i>
  <i type="int" name="ISYM">     2</i>
  <i name="ENCUT">    400.00000000</i>
  <i name="POTIM">      0.35000000</i>
  <i type="string" name="LREAL"> Auto</i>
  <i type="logical" name="LPLANE"> T  </i>
  <i type="int" name="ISMEAR">     0</i>
  <i name="SIGMA">      0.10000000</i>
  <i type="int" name="NWRITE">     1</i>
  <i type="logical" name="LWAVE"> F  </i>
  <i type="logical" name="LCHARG"> F  </i>
  <i type="logical" name="LVTOT"> F  </i>
  <i type="logical" name="LORBIT"> F  </i>
  <i type="logical" name="LAECHG"> F  </i>
  <v type="int" name="KPOINT_BSE">    -1     0     0     0</v>
  <i type="int" name="NELM">   500</i>
  <i type="string" name="GGA"> PE          ! optPBE-vdW XC-functional</i>
  <i type="int" name="VOSKOWN">     1</i>
  <i type="logical" name="LDIPOL"> T  </i>
  <i type="logical" name="LMONO"> F  </i>
  <i type="int" name="IDIPOL">     3</i>
  <v name="DIPOL">      0.00000000      0.00000000      0.50000000</v>
 </incar>
 <kpoints>
  <generation param="Monkhorst-Pack">
   <v type="int" name="divisions">       2        2        1 </v>
   <v name="usershift">      0.00000000       0.00000000       0.00000000 </v>
   <v name="genvec1">      0.50000000       0.00000000       0.00000000 </v>
   <v name="genvec2">      0.00000000       0.50000000       0.00000000 </v>
   <v name="genvec3">      0.00000000       0.00000000       1.00000000 </v>
   <v name="shift">      0.50000000       0.50000000       0.00000000 </v>
  </generation>
  <varray name="kpointlist" >
   <v>       0.25000000       0.25000000       0.00000000 </v>
   <v>       0.00000000       0.25000000       0.00000000 </v>
   <v>      -0.25000000       0.00000000       0.00000000 </v>
   <v>      -0.25000000       0.25000000       0.00000000 </v>
   <v>       0.50000000      -0.25000000       0.00000000 </v>
   <v>      -0.25000000       0.50000000       0.00000000 </v>
  </varray>
  <varray name="weights" >
   <v>       0.16666667 </v>
   <v>       0.16666667 </v>
   <v>       0.16666667 </v>
   <v>       0.16666667 </v>
   <v>       0.16666667 </v>
   <v>       0.16666667 </v>
  </varray>
 </kpoints>
 <parameters>
  <separator name="general" >
   <i type="string" name="SYSTEM">unknown system</i>
   <i type="logical" name="LCOMPAT"> F  </i>
  </separator>
  <separator name="electronic" >
   <i type="string" name="PREC">normal</i>
   <i name="ENMAX">    400.00000000</i>
   <i name="ENAUG">    605.39200000</i>
   <i name="EDIFF">      0.00000100</i>
   <i type="int" name="IALGO">    68</i>
   <i type="int" name="IWAVPR">    11</i>
   <i type="int" name="NBANDS">   336</i>
   <i name="NELECT">    552.00000000</i>
   <i type="int" name="TURBO">     0</i>
   <i type="int" name="IRESTART">     0</i>
   <i type="int" name="NREBOOT">     0</i>
   <i type="int" name="NMIN">     0</i>
   <i name="EREF">      0.00000000</i>
   <separator name="electronic smearing" >
    <i type="int" name="ISMEAR">     0</i>
    <i name="SIGMA">      0.10000000</i>
    <i name="KSPACING">      0.50000000</i>
    <i type="logical" name="KGAMMA"> T  </i>
   </separator>
   <separator name="electronic projectors" >
    <i type="logical" name="LREAL"> T  </i>
    <v name="ROPT">     -0.00050000     -0.00050000     -0.00050000</v>
    <i type="int" name="LMAXPAW">  -100</i>
    <i type="int" name="LMAXMIX">     2</i>
    <i type="logical" name="NLSPLINE"> F  </i>
   </separator>
   <separator name="electronic startup" >
    <i type="int" name="ISTART">     0</i>
    <i type="int" name="ICHARG">     2</i>
    <i type="int" name="INIWAV">     1</i>
   </separator>
   <separator name="electronic spin" >
    <i type="int" name="ISPIN">     1</i>
    <i type="logical" name="LNONCOLLINEAR"> F  </i>
    <v name="MAGMOM">      1.00000000      1.00000000      1.00000000      1.00000000      1.00000000      1.00000000      1.00000000      1.00000000      1.00000000      1.00000000      1.00000000      1.00000000      1.00000000      1.00000000      1.00000000      1.00000000      1.00000000      1.00000000      1.00000000      1.00000000
      1.00000000      1.00000000      1.00000000      1.00000000      1.00000000      1.00000000      1.00000000      1.00000000      1.00000000      1.00000000      1.00000000      1.00000000      1.00000000      1.00000000      1.00000000      1.00000000      1.00000000      1.00000000      1.00000000      1.00000000
      1.00000000      1.00000000      1.00000000      1.00000000      1.00000000      1.00000000      1.00000000      1.00000000      1.00000000      1.00000000      1.00000000      1.00000000      1.00000000      1.00000000      1.00000000      1.00000000</v>
    <i name="NUPDOWN">     -1.00000000</i>
    <i type="logical" name="LSORBIT"> F  </i>
    <v name="SAXIS">      0.00000000      0.00000000      1.00000000</v>
    <i type="logical" name="LSPIRAL"> F  </i>
    <v name="QSPIRAL">      0.00000000      0.00000000      0.00000000</v>
    <i type="logical" name="LZEROZ"> F  </i>
   </separator>
   <separator name="electronic exchange-correlation" >
    <i type="logical" name="LASPH"> F  </i>
    <i type="logical" name="LMETAGGA"> F  </i>
   </separator>
   <separator name="electronic convergence" >
    <i type="int" name="NELM">   500</i>
    <i type="int" name="NELMDL">    -5</i>
    <i type="int" name="NELMIN">     2</i>
    <i name="ENINI">    400.00000000</i>
    <separator name="electronic convergence detail" >
     <i type="logical" name="LDIAG"> T  </i>
     <i type="logical" name="LSUBROT"> F  </i>
     <i name="WEIMIN">      0.00100000</i>
     <i name="EBREAK">      0.00000000</i>
     <i name="DEPER">      0.30000000</i>
     <i type="int" name="NRMM">     4</i>
     <i name="TIME">      0.40000000</i>
    </separator>
   </separator>
   <separator name="electronic mixer" >
    <i name="AMIX">      0.40000000</i>
    <i name="BMIX">      1.00000000</i>
    <i name="AMIN">      0.10000000</i>
    <i name="AMIX_MAG">      1.60000000</i>
    <i name="BMIX_MAG">      1.00000000</i>
    <separator name="electronic mixer details" >
     <i type="int" name="IMIX">     4</i>
     <i type="logical" name="MIXFIRST"> F  </i>
     <i type="int" name="MAXMIX">   -45</i>
     <i name="WC">    100.00000000</i>
     <i type="int" name="INIMIX">     1</i>
     <i type="int" name="MIXPRE">     1</i>
     <i type="int" name="MREMOVE">     5</i>
    </separator>
   </separator>
   <separator name="electronic dipolcorrection" >
    <i type="logical" name="LDIPOL"> T  </i>
    <i type="logical" name="LMONO"> F  </i>
    <i type="int" name="IDIPOL">     3</i>
    <i name="EPSILON">      1.00000000</i>
    <v name="DIPOL">      0.00000000      0.00000000      0.50000000</v>
    <i name="EFIELD">      0.00000000</i>
   </separator>
  </separator>
  <separator name="grids" >
   <i type="int" name="NGX">    54</i>
   <i type="int" name="NGY">    54</i>
   <i type="int" name="NGZ">   128</i>
   <i type="int" name="NGXF">   108</i>
   <i type="int" name="NGYF">   108</i>
   <i type="int" name="NGZF">   256</i>
   <i type="logical" name="ADDGRID"> F  </i>
  </separator>
  <separator name="ionic" >
   <i type="int" name="NSW">   500</i>
   <i type="int" name="IBRION">     2</i>
   <i type="int" name="ISIF">     0</i>
   <i name="PSTRESS">      0.00000000</i>
   <i name="EDIFFG">     -0.02000000</i>
   <i type="int" name="NFREE">     2</i>
   <i name="POTIM">      0.35000000</i>
   <i name="SMASS">     -3.00000000</i>
   <i name="SCALEE">      1.00000000</i>
  </separator>
  <separator name="ionic md" >
   <i name="TEBEG">      0.00010000</i>
   <i name="TEEND">      0.00010000</i>
   <i type="int" name="NBLOCK">     1</i>
   <i type="int" name="KBLOCK">   500</i>
   <i type="int" name="NPACO">   256</i>
   <i name="APACO">     16.00000000</i>
  </separator>
  <separator name="symmetry" >
   <i type="int" name="ISYM">     2</i>
   <i name="SYMPREC">      0.00001000</i>
  </separator>
  <separator name="dos" >
   <i type="logical" name="LORBIT"> F  </i>
   <v name="RWIGS">     -1.00000000     -1.00000000     -1.00000000</v>
   <i type="int" name="NEDOS">   301</i>
   <i name="EMIN">     10.00000000</i>
   <i name="EMAX">    -10.00000000</i>
   <i name="EFERMI">      0.00000000</i>
  </separator>
  <separator name="writing" >
   <i type="int" name="NWRITE">     1</i>
   <i type="logical" name="LWAVE"> F  </i>
   <i type="logical" name="LCHARG"> F  </i>
   <i type="logical" name="LPARD"> F  </i>
   <i type="logical" name="LVTOT"> F  </i>
   <i type="logical" name="LVHAR"> F  </i>
   <i type="logical" name="LELF"> F  </i>
   <i type="logical" name="LOPTICS"> F  </i>
   <v name="STM">      0.00000000      0.00000000      0.00000000      0.00000000      0.00000000      0.00000000      0.00000000</v>
  </separator>
  <separator name="performance" >
   <i type="int" name="NPAR">     6</i>
   <i type="int" name="NSIM">     4</i>
   <i type="int" name="NBLK">    -1</i>
   <i type="logical" name="LPLANE"> T  </i>
   <i type="logical" name="LSCALAPACK"> T  </i>
   <i type="logical" name="LSCAAWARE"> F  </i>
   <i type="logical" name="LSCALU"> F  </i>
   <i type="logical" name="LASYNC"> F  </i>
   <i type="logical" name="LORBITALREAL"> F  </i>
  </separator>
  <separator name="miscellaneous" >
   <i type="int" name="IDIOT">     3</i>
   <i type="logical" name="LMUSIC"> F  </i>
   <v name="POMASS">    196.96600000     16.00000000    106.42000000</v>
   <v name="DARWINR">      0.00000000      0.00000000      0.00000000</v>
   <v name="DARWINV">      1.00000000      1.00000000      1.00000000</v>
   <i type="logical" name="LCORR"> T  </i>
  </separator>
  <i type="logical" name="GGA_COMPAT"> T  </i>
  <i type="logical" name="LBERRY"> F  </i>
  <i type="int" name="ICORELEVEL">     0</i>
  <i type="logical" name="LDAU"> F  </i>
  <i type="int" name="I_CONSTRAINED_M">     0</i>
  <separator name="electronic exchange-correlation" >
   <i type="string" name="GGA">PE</i>
   <i type="int" name="VOSKOWN">     1</i>
   <i type="logical" name="LHFCALC"> F  </i>
   <i type="string" name="PRECFOCK"></i>
   <i type="logical" name="LSYMGRAD"> F  </i>
   <i type="logical" name="LHFONE"> F  </i>
   <i type="logical" name="LRHFCALC"> F  </i>
   <i type="logical" name="LTHOMAS"> F  </i>
   <i type="logical" name="LMODELHF"> F  </i>
   <i name="ENCUT4O">     -1.00000000</i>
   <i type="int" name="EXXOEP">     0</i>
   <i type="int" name="FOURORBIT">     0</i>
   <i name="AEXX">      0.00000000</i>
   <i name="HFALPHA">      0.00000000</i>
   <i name="MCALPHA">      0.00000000</i>
   <i name="ALDAX">      1.00000000</i>
   <i name="AGGAX">      1.00000000</i>
   <i name="ALDAC">      1.00000000</i>
   <i name="AGGAC">      1.00000000</i>
   <i type="int" name="NKREDX">     1</i>
   <i type="int" name="NKREDY">     1</i>
   <i type="int" name="NKREDZ">     1</i>
   <i type="logical" name="SHIFTRED"> F  </i>
   <i type="logical" name="ODDONLY"> F  </i>
   <i type="logical" name="EVENONLY"> F  </i>
   <i type="int" name="LMAXFOCK">     0</i>
   <i type="int" name="NMAXFOCKAE">     0</i>
   <i type="logical" name="LFOCKAEDFT"> F  </i>
   <i name="HFSCREEN">      0.00000000</i>
   <i name="HFSCREENC">      0.00000000</i>
   <i type="int" name="NBANDSGWLOW">     0</i>
  </separator>
  <separator name="vdW DFT" >
   <i type="logical" name="LUSE_VDW"> F  </i>
   <i name="Zab_VDW">     -0.84910000</i>
   <i name="PARAM1">      0.12340000</i>
   <i name="PARAM2">      1.00000000</i>
   <i name="PARAM3">      0.00000000</i>
  </separator>
  <separator name="model GW" >
   <i type="int" name="MODEL_GW">     0</i>
   <i name="MODEL_EPS0">     29.42037089</i>
   <i name="MODEL_ALPHA">      1.00000000</i>
  </separator>
  <separator name="linear response parameters" >
   <i type="logical" name="LEPSILON"> F  </i>
   <i type="logical" name="LRPA"> F  </i>
   <i type="logical" name="LNABLA"> F  </i>
   <i type="logical" name="LVEL"> F  </i>
   <i type="int" name="KINTER">     0</i>
   <i name="CSHIFT">      0.10000000</i>
   <i name="OMEGAMAX">     -1.00000000</i>
   <i name="DEG_THRESHOLD">      0.00200000</i>
  </separator>
  <separator name="orbital magnetization" >
   <i type="logical" name="NUCIND"> F  </i>
   <v name="MAGPOS">      0.00000000      0.00000000      0.00000000</v>
   <i type="logical" name="LNICSALL"> T  </i>
   <i type="logical" name="ORBITALMAG"> F  </i>
   <i type="logical" name="LMAGBLOCH"> F  </i>
   <i type="logical" name="LCHIMAG"> F  </i>
   <i type="logical" name="LGAUGE"> T  </i>
   <i type="int" name="MAGATOM">     0</i>
   <v name="MAGDIPOL">      0.00000000      0.00000000      0.00000000</v>
   <v name="AVECCONST">      0.00000000      0.00000000      0.00000000</v>
  </separator>
  <separator name="response functions" >
   <i type="logical" name="LADDER"> F  </i>
   <i type="logical" name="LFXC"> F  </i>
   <i type="logical" name="LHARTREE"> T  </i>
   <i type="int" name="IBSE">     0</i>
   <v type="int" name="KPOINT">    -1     0     0     0</v>
   <i type="logical" name="LTCTE"> F  </i>
   <i type="logical" name="LTETE"> F  </i>
   <i type="logical" name="LTRIPLET"> F  </i>
   <i type="logical" name="LFXCEPS"> F  </i>
   <i type="logical" name="LFXHEG"> F  </i>
   <i type="int" name="NATURALO">     0</i>
   <i type="logical" name="L2ORDER"> F  </i>
   <i type="logical" name="LUSEW"> F  </i>
   <i name="ENCUTGW">     -2.00000000</i>
   <i name="ENCUTGWSOFT">     -2.00000000</i>
   <i name="ENCUTLF">     -1.00000000</i>
   <i type="int" name="LMAXMP2">    -1</i>
   <i name="SCISSOR">      0.00000000</i>
   <i type="int" name="NOMEGA">     0</i>
   <i type="int" name="NOMEGAR">     0</i>
   <i type="int" name="NBANDSGW">    -1</i>
   <i type="int" name="NBANDSO">    -1</i>
   <i type="int" name="NBANDSV">    -1</i>
   <i type="int" name="NELM">   500</i>
   <i type="int" name="NELMHF">     1</i>
   <i type="int" name="DIM">     3</i>
   <i type="int" name="ANTIRES">     0</i>
   <i name="OMEGAMAX">    -30.00000000</i>
   <i name="OMEGAMIN">    -30.00000000</i>
   <i name="OMEGATL">   -200.00000000</i>
   <i type="int" name="OMEGAGRID">     0</i>
   <i name="CSHIFT">     -0.10000000</i>
   <i type="logical" name="SELFENERGY"> F  </i>
   <i type="logical" name="LSPECTRAL"> F  </i>
   <i type="logical" name="LSPECTRALGW"> F  </i>
   <i type="logical" name="LSINGLES"> F  </i>
   <i type="logical" name="LFERMIGW"> F  </i>
   <i type="logical" name="ODDONLYGW"> F  </i>
   <i type="logical" name="EVENONLYGW"> F  </i>
   <i type="int" name="NKREDLFX">     1</i>
   <i type="int" name="NKREDLFY">     1</i>
   <i type="int" name="NKREDLFZ">     1</i>
   <i type="int" name="MAXMEM">  1800</i>
   <i type="int" name="TELESCOPE">     0</i>
   <i type="int" name="TAUPAR">     1</i>
   <i type="int" name="OMEGAPAR">    -1</i>
   <i name="LAMBDA">      1.00000000</i>
  </separator>
  <separator name="External order field" >
   <i name="OFIELD_KAPPA">      0.00000000</i>
   <v name="OFIELD_K">      0.00000000      0.00000000      0.00000000</v>
   <i name="OFIELD_Q6_NEAR">      0.00000000</i>
   <i name="OFIELD_Q6_FAR">      0.00000000</i>
   <i name="OFIELD_A">      0.00000000</i>
  </separator>
 </parameters>
 <atominfo>
  <atoms>      56 </atoms>
  <types>       3 </types>
  <array name="atoms" >
   <dimension dim="1">ion</dimension>
   <field type="string">element</field>
   <field type="int">atomtype</field>
   <set>
    <rc><c>Au</c><c>   1</c></rc>
    <rc><c>Au</c><c>   1</c></rc>
    <rc><c>Au</c><c>   1</c></rc>
    <rc><c>Au</c><c>   1</c></rc>
    <rc><c>Au</c><c>   1</c></rc>
    <rc><c>Au</c><c>   1</c></rc>
    <rc><c>Au</c><c>   1</c></rc>
    <rc><c>Au</c><c>   1</c></rc>
    <rc><c>Au</c><c>   1</c></rc>
    <rc><c>Au</c><c>   1</c></rc>
    <rc><c>Au</c><c>   1</c></rc>
    <rc><c>Au</c><c>   1</c></rc>
    <rc><c>Au</c><c>   1</c></rc>
    <rc><c>Au</c><c>   1</c></rc>
    <rc><c>Au</c><c>   1</c></rc>
    <rc><c>Au</c><c>   1</c></rc>
    <rc><c>Au</c><c>   1</c></rc>
    <rc><c>Au</c><c>   1</c></rc>
    <rc><c>Au</c><c>   1</c></rc>
    <rc><c>Au</c><c>   1</c></rc>
    <rc><c>Au</c><c>   1</c></rc>
    <rc><c>Au</c><c>   1</c></rc>
    <rc><c>Au</c><c>   1</c></rc>
    <rc><c>Au</c><c>   1</c></rc>
    <rc><c>O </c><c>   2</c></rc>
    <rc><c>O </c><c>   2</c></rc>
    <rc><c>O </c><c>   2</c></rc>
    <rc><c>O </c><c>   2</c></rc>
    <rc><c>O </c><c>   2</c></rc>
    <rc><c>O </c><c>   2</c></rc>
    <rc><c>O </c><c>   2</c></rc>
    <rc><c>O </c><c>   2</c></rc>
    <rc><c>Pd</c><c>   3</c></rc>
    <rc><c>Pd</c><c>   3</c></rc>
    <rc><c>Pd</c><c>   3</c></rc>
    <rc><c>Pd</c><c>   3</c></rc>
    <rc><c>Pd</c><c>   3</c></rc>
    <rc><c>Pd</c><c>   3</c></rc>
    <rc><c>Pd</c><c>   3</c></rc>
    <rc><c>Pd</c><c>   3</c></rc>
    <rc><c>Pd</c><c>   3</c></rc>
    <rc><c>Pd</c><c>   3</c></rc>
    <rc><c>Pd</c><c>   3</c></rc>
    <rc><c>Pd</c><c>   3</c></rc>
    <rc><c>Pd</c><c>   3</c></rc>
    <rc><c>Pd</c><c>   3</c></rc>
    <rc><c>Pd</c><c>   3</c></rc>
    <rc><c>Pd</c><c>   3</c></rc>
    <rc><c>Pd</c><c>   3</c></rc>
    <rc><c>Pd</c><c>   3</c></rc>
    <rc><c>Pd</c><c>   3</c></rc>
    <rc><c>Pd</c><c>   3</c></rc>
    <rc><c>Pd</c><c>   3</c></rc>
    <rc><c>Pd</c><c>   3</c></rc>
    <rc><c>Pd</c><c>   3</c></rc>
    <rc><c>Pd</c><c>   3</c></rc>
   </set>
  </array>
  <array name="atomtypes" >
   <dimension dim="1">type</dimension>
   <field type="int">atomspertype</field>
   <field type="string">element</field>
   <field>mass</field>
   <field>valence</field>
   <field type="string">pseudopotential</field>
   <set>
    <rc><c>  24</c><c>Au</c><c>    196.96600000</c><c>     11.00000000</c><c>  PAW_PBE Au 04Oct2007                  </c></rc>
    <rc><c>   8</c><c>O </c><c>     16.00000000</c><c>      6.00000000</c><c>  PAW_PBE O 08Apr2002                   </c></rc>
    <rc><c>  24</c><c>Pd</c><c>    106.42000000</c><c>     10.00000000</c><c>  PAW_PBE Pd 04Jan2005                  </c></rc>
   </set>
  </array>
 </atominfo>
 <structure name="initialpos" >
  <crystal>
   <varray name="basis" >
    <v>      11.00258152       0.00000000       0.00000000 </v>
    <v>       5.50129076       9.52851510       0.00000000 </v>
    <v>       0.00000000       0.00000000      26.19178509 </v>
   </varray>
   <i name="volume">   2745.90128299 </i>
   <varray name="rec_basis" >
    <v>       0.09088776      -0.05247407       0.00000000 </v>
    <v>       0.00000000       0.10494815       0.00000000 </v>
    <v>       0.00000000       0.00000000       0.03817991 </v>
   </varray>
  </crystal>
  <varray name="positions" >
   <v>       0.91666667       0.91666667       0.46754708 </v>
   <v>       0.75000000       0.00000000       0.55329505 </v>
   <v>       0.91666667       0.16666667       0.46754708 </v>
   <v>       0.66666667       0.91666667       0.46754708 </v>
   <v>       0.66666667       0.66666667       0.46754708 </v>
   <v>       0.91666667       0.41666667       0.46754708 </v>
   <v>       0.00000000       0.25000000       0.55329505 </v>
   <v>       0.83333333       0.58333333       0.38179910 </v>
   <v>       0.08333333       0.58333333       0.38179910 </v>
   <v>       0.91666667       0.66666667       0.46754708 </v>
   <v>       0.66666667       0.41666667       0.46754708 </v>
   <v>       0.33333333       0.83333333       0.38179910 </v>
   <v>       0.83333333       0.33333333       0.38179910 </v>
   <v>       0.41666667       0.91666667       0.46754708 </v>
   <v>       0.58333333       0.83333333       0.38179910 </v>
   <v>       0.33333333       0.08333333       0.38179910 </v>
   <v>       0.16666667       0.16666667       0.46754708 </v>
   <v>       0.50000000       0.50000000       0.55329505 </v>
   <v>       0.33333333       0.33333333       0.38179910 </v>
   <v>       0.50000000       0.25000000       0.55329505 </v>
   <v>       0.58333333       0.33333333       0.38179910 </v>
   <v>       0.33333333       0.58333333       0.38179910 </v>
   <v>       0.75000000       0.75000000       0.55329505 </v>
   <v>       0.16666667       0.91666667       0.46754708 </v>
   <v>       0.08333333       0.33333333       0.61820090 </v>
   <v>       0.33333333       0.08333333       0.61820090 </v>
   <v>       0.08333333       0.83333333       0.61820090 </v>
   <v>       0.83333333       0.83333333       0.61820090 </v>
   <v>       0.33333333       0.83333333       0.61820090 </v>
   <v>       0.83333333       0.58333333       0.61820090 </v>
   <v>       0.58333333       0.33333333       0.61820090 </v>
   <v>       0.58333333       0.58333333       0.61820090 </v>
   <v>       0.25000000       0.25000000       0.55329505 </v>
   <v>       0.41666667       0.41666667       0.46754708 </v>
   <v>       0.08333333       0.08333333       0.38179910 </v>
   <v>       0.25000000       0.00000000       0.55329505 </v>
   <v>       0.50000000       0.00000000       0.55329505 </v>
   <v>       0.41666667       0.16666667       0.46754708 </v>
   <v>       0.58333333       0.08333333       0.38179910 </v>
   <v>       0.16666667       0.66666667       0.46754708 </v>
   <v>       0.25000000       0.75000000       0.55329505 </v>
   <v>       0.41666667       0.66666667       0.46754708 </v>
   <v>       0.50000000       0.75000000       0.55329505 </v>
   <v>       0.00000000       0.75000000       0.55329505 </v>
   <v>       0.83333333       0.08333333       0.38179910 </v>
   <v>       0.66666667       0.16666667       0.46754708 </v>
   <v>       0.08333333       0.83333333       0.38179910 </v>
   <v>       0.00000000       0.50000000       0.55329505 </v>
   <v>       0.75000000       0.25000000       0.55329505 </v>
   <v>       0.08333333       0.33333333       0.38179910 </v>
   <v>       0.75000000       0.50000000       0.55329505 </v>
   <v>       0.83333333       0.83333333       0.38179910 </v>
   <v>       0.00000000       0.00000000       0.55329505 </v>
   <v>       0.25000000       0.50000000       0.55329505 </v>
   <v>       0.16666667       0.41666667       0.46754708 </v>
   <v>       0.58333333       0.58333333       0.38179910 </v>
  </varray>
  <varray name="selective"  type="logical" >
   <v type="logical" >  T  T  T </v>
   <v type="logical" >  T  T  T </v>
   <v type="logical" >  T  T  T </v>
   <v type="logical" >  T  T  T </v>
   <v type="logical" >  T  T  T </v>
   <v type="logical" >  T  T  T </v>
   <v type="logical" >  T  T  T </v>
   <v type="logical" >  F  F  F </v>
   <v type="logical" >  F  F  F </v>
   <v type="logical" >  T  T  T </v>
   <v type="logical" >  T  T  T </v>
   <v type="logical" >  F  F  F </v>
   <v type="logical" >  F  F  F </v>
   <v type="logical" >  T  T  T </v>
   <v type="logical" >  F  F  F </v>
   <v type="logical" >  F  F  F </v>
   <v type="logical" >  T  T  T </v>
   <v type="logical" >  T  T  T </v>
   <v type="logical" >  F  F  F </v>
   <v type="logical" >  T  T  T </v>
   <v type="logical" >  F  F  F </v>
   <v type="logical" >  F  F  F </v>
   <v type="logical" >  T  T  T </v>
   <v type="logical" >  T  T  T </v>
   <v type="logical" >  T  T  T </v>
   <v type="logical" >  T  T  T </v>
   <v type="logical" >  T  T  T </v>
   <v type="logical" >  T  T  T </v>
   <v type="logical" >  T  T  T </v>
   <v type="logical" >  T  T  T </v>
   <v type="logical" >  T  T  T </v>
   <v type="logical" >  T  T  T </v>
   <v type="logical" >  T  T  T </v>
   <v type="logical" >  T  T  T </v>
   <v type="logical" >  F  F  F </v>
   <v type="logical" >  T  T  T </v>
   <v type="logical" >  T  T  T </v>
   <v type="logical" >  T  T  T </v>
   <v type="logical" >  F  F  F </v>
   <v type="logical" >  T  T  T </v>
   <v type="logical" >  T  T  T </v>
   <v type="logical" >  T  T  T </v>
   <v type="logical" >  T  T  T </v>
   <v type="logical" >  T  T  T </v>
   <v type="logical" >  F  F  F </v>
   <v type="logical" >  T  T  T </v>
   <v type="logical" >  F  F  F </v>
   <v type="logical" >  T  T  T </v>
   <v type="logical" >  T  T  T </v>
   <v type="logical" >  F  F  F </v>
   <v type="logical" >  T  T  T </v>
   <v type="logical" >  F  F  F </v>
   <v type="logical" >  T  T  T </v>
   <v type="logical" >  T  T  T </v>
   <v type="logical" >  T  T  T </v>
   <v type="logical" >  F  F  F </v>
  </varray>
  <nose>
   <v>      -3.00000000       0.00000000       0.00010000       0.00010000 </v>
  </nose>
 </structure>
 <calculation>
  <scstep>
   <time name="dav">    8.70    8.75</time>
   <time name="total">    8.76    8.82</time>
   <dipole>
    <v name="dipole">      0.00000000       0.00000000       0.00011314 </v>
    <i name="Tr[quadrupol]"> -11214.59930429 </i>
    <i name="Echarged">      0.00000000 </i>
    <i name="Edipol_quadrupol">      0.00000000 </i>
    <i name="Eion">      0.00000000 </i>
   </dipole>
   <energy>
    <i name="alphaZ">    862.57863453 </i>
    <i name="ewald"> 255535.33029171 </i>
    <i name="hartreedc">-301110.20103922 </i>
    <i name="XCdc">   -109.76978604 </i>
    <i name="pawpsdc">  43112.45544455 </i>
    <i name="pawaedc"> -41079.41300390 </i>
    <i name="eentropy">     -0.12120334 </i>
    <i name="bandstr">   1334.87287730 </i>
    <i name="atom">  45117.89144060 </i>
    <i name="e_fr_energy">   3663.62365619 </i>
    <i name="e_wo_entrp">   3663.74485954 </i>
    <i name="e_0_energy">   3663.68425786 </i>
   </energy>
  </scstep>
  <scstep>
   <time name="dav">   10.27   10.32</time>
   <time name="total">   10.27   10.33</time>
   <dipole>
    <v name="dipole">      0.00000000       0.00000000       0.00011314 </v>
    <i name="Tr[quadrupol]"> -11214.59930429 </i>
    <i name="Echarged">      0.00000000 </i>
    <i name="Edipol_quadrupol">      0.00000000 </i>
    <i name="Eion">      0.00000000 </i>
   </dipole>
   <energy>
    <i name="e_fr_energy">     53.65629095 </i>
    <i name="e_wo_entrp">     53.81444158 </i>
    <i name="e_0_energy">     53.73536626 </i>
   </energy>
  </scstep>
  <scstep>
   <time name="dav">    9.98   10.10</time>
   <time name="total">    9.98   10.11</time>
   <dipole>
    <v name="dipole">      0.00000000       0.00000000       0.00011314 </v>
    <i name="Tr[quadrupol]"> -11214.59930429 </i>
    <i name="Echarged">      0.00000000 </i>
    <i name="Edipol_quadrupol">      0.00000000 </i>
    <i name="Eion">      0.00000000 </i>
   </dipole>
   <energy>
    <i name="e_fr_energy">   -252.21015556 </i>
    <i name="e_wo_entrp">   -251.76011626 </i>
    <i name="e_0_energy">   -251.98513591 </i>
   </energy>
  </scstep>
  <scstep>
   <time name="dav">    9.75    9.80</time>
   <time name="total">    9.75    9.81</time>
   <dipole>
    <v name="dipole">      0.00000000       0.00000000       0.00011314 </v>
    <i name="Tr[quadrupol]"> -11214.59930429 </i>
    <i name="Echarged">      0.00000000 </i>
    <i name="Edipol_quadrupol">      0.00000000 </i>
    <i name="Eion">      0.00000000 </i>
   </dipole>
   <energy>
    <i name="e_fr_energy">   -263.30287251 </i>
    <i name="e_wo_entrp">   -262.83970163 </i>
    <i name="e_0_energy">   -263.07128707 </i>
   </energy>
  </scstep>
  <scstep>
   <time name="dav">   10.27   10.34</time>
   <time name="total">   10.55   10.62</time>
   <dipole>
    <v name="dipole">      0.00000000       0.00000000       0.00011314 </v>
    <i name="Tr[quadrupol]"> -11214.59930429 </i>
    <i name="Echarged">      0.00000000 </i>
    <i name="Edipol_quadrupol">      0.00000000 </i>
    <i name="Eion">      0.00000000 </i>
   </dipole>
   <energy>
    <i name="e_fr_energy">   -263.65133328 </i>
    <i name="e_wo_entrp">   -263.18780854 </i>
    <i name="e_0_energy">   -263.41957091 </i>
   </energy>
  </scstep>
  <scstep>
   <time name="diag">    1.61    1.63</time>
   <time name="diis">    4.20    4.22</time>
   <time name="orth">    0.47    0.47</time>
   <time name="total">    6.60    6.65</time>
   <dipole>
    <v name="dipole">      0.00000000       0.00000000       5.51859281 </v>
    <i name="Tr[quadrupol]"> -11209.76415404 </i>
    <i name="Echarged">      0.00000000 </i>
    <i name="Edipol_quadrupol">      0.00000000 </i>
    <i name="Eion">      0.00000000 </i>
   </dipole>
   <energy>
    <i name="e_fr_energy">   -444.07980368 </i>
    <i name="e_wo_entrp">   -443.96049117 </i>
    <i name="e_0_energy">   -444.02014742 </i>
   </energy>
  </scstep>
  <scstep>
   <time name="diag">    1.60    1.61</time>
   <time name="diis">    4.20    4.22</time>
   <time name="orth">    0.45    0.49</time>
   <time name="total">    6.58    6.67</time>
   <dipole>
    <v name="dipole">      0.00000000       0.00000000       0.31985164 </v>
    <i name="Tr[quadrupol]"> -11209.37047126 </i>
    <i name="Echarged">      0.00000000 </i>
    <i name="Edipol_quadrupol">      0.00000000 </i>
    <i name="Eion">      0.00000000 </i>
   </dipole>
   <energy>
    <i name="e_fr_energy">   -233.67228622 </i>
    <i name="e_wo_entrp">   -233.38004492 </i>
    <i name="e_0_energy">   -233.52616557 </i>
   </energy>
  </scstep>
  <scstep>
   <time name="diag">    1.59    1.61</time>
   <time name="diis">    4.20    4.23</time>
   <time name="orth">    0.46    0.47</time>
   <time name="total">    6.58    6.63</time>
   <dipole>
    <v name="dipole">      0.00000000       0.00000000       2.93783174 </v>
    <i name="Tr[quadrupol]"> -11211.33758357 </i>
    <i name="Echarged">      0.00000000 </i>
    <i name="Edipol_quadrupol">      0.00000000 </i>
    <i name="Eion">      0.00000000 </i>
   </dipole>
   <energy>
    <i name="e_fr_energy">   -276.74942735 </i>
    <i name="e_wo_entrp">   -276.55872578 </i>
    <i name="e_0_energy">   -276.65407656 </i>
   </energy>
  </scstep>
  <scstep>
   <time name="diag">    1.60    1.61</time>
   <time name="diis">    4.22    4.24</time>
   <time name="orth">    0.46    0.47</time>
   <time name="total">    6.60    6.64</time>
   <dipole>
    <v name="dipole">      0.00000000       0.00000000       1.80933419 </v>
    <i name="Tr[quadrupol]"> -11208.94088449 </i>
    <i name="Echarged">      0.00000000 </i>
    <i name="Edipol_quadrupol">      0.00000000 </i>
    <i name="Eion">      0.00000000 </i>
   </dipole>
   <energy>
    <i name="e_fr_energy">   -279.35370333 </i>
    <i name="e_wo_entrp">   -279.20251099 </i>
    <i name="e_0_energy">   -279.27810716 </i>
   </energy>
  </scstep>
  <scstep>
   <time name="diag">    1.60    1.61</time>
   <time name="diis">    4.19    4.21</time>
   <time name="orth">    0.46    0.47</time>
   <time name="total">    6.58    6.62</time>
   <dipole>
    <v name="dipole">      0.00000000       0.00000000       1.91623348 </v>
    <i name="Tr[quadrupol]"> -11209.09262662 </i>
    <i name="Echarged">      0.00000000 </i>
    <i name="Edipol_quadrupol">      0.00000000 </i>
    <i name="Eion">      0.00000000 </i>
   </dipole>
   <energy>
    <i name="e_fr_energy">   -249.61781177 </i>
    <i name="e_wo_entrp">   -249.40007238 </i>
    <i name="e_0_energy">   -249.50894207 </i>
   </energy>
  </scstep>
  <scstep>
   <time name="diag">    1.60    1.61</time>
   <time name="diis">    4.19    4.21</time>
   <time name="orth">    0.46    0.46</time>
   <time name="total">    6.57    6.61</time>
   <dipole>
    <v name="dipole">      0.00000000       0.00000000       1.98283993 </v>
    <i name="Tr[quadrupol]"> -11211.11951118 </i>
    <i name="Echarged">      0.00000000 </i>
    <i name="Edipol_quadrupol">      0.00000000 </i>
    <i name="Eion">      0.00000000 </i>
   </dipole>
   <energy>
    <i name="e_fr_energy">   -235.72362725 </i>
    <i name="e_wo_entrp">   -235.52354200 </i>
    <i name="e_0_energy">   -235.62358462 </i>
   </energy>
  </scstep>
  <scstep>
   <time name="diag">    1.59    1.59</time>
   <time name="diis">    4.22    4.24</time>
   <time name="orth">    0.46    0.46</time>
   <time name="total">    6.59    6.63</time>
   <dipole>
    <v name="dipole">      0.00000000       0.00000000       1.81237209 </v>
    <i name="Tr[quadrupol]"> -11211.48008289 </i>
    <i name="Echarged">      0.00000000 </i>
    <i name="Edipol_quadrupol">      0.00000000 </i>
    <i name="Eion">      0.00000000 </i>
   </dipole>
   <energy>
    <i name="e_fr_energy">   -232.32025556 </i>
    <i name="e_wo_entrp">   -232.10447415 </i>
    <i name="e_0_energy">   -232.21236486 </i>
   </energy>
  </scstep>
  <scstep>
   <time name="diag">    1.59    1.60</time>
   <time name="diis">    4.24    4.26</time>
   <time name="orth">    0.45    0.47</time>
   <time name="total">    6.61    6.69</time>
   <dipole>
    <v name="dipole">      0.00000000       0.00000000       1.46947954 </v>
    <i name="Tr[quadrupol]"> -11210.93935833 </i>
    <i name="Echarged">      0.00000000 </i>
    <i name="Edipol_quadrupol">      0.00000000 </i>
    <i name="Eion">      0.00000000 </i>
   </dipole>
   <energy>
    <i name="e_fr_energy">   -223.54952414 </i>
    <i name="e_wo_entrp">   -223.28839697 </i>
    <i name="e_0_energy">   -223.41896056 </i>
   </energy>
  </scstep>
  <scstep>
   <time name="diag">    1.58    1.61</time>
   <time name="diis">    4.21    4.23</time>
   <time name="orth">    0.46    0.46</time>
   <time name="total">    6.57    6.64</time>
   <dipole>
    <v name="dipole">      0.00000000       0.00000000       1.43403799 </v>
    <i name="Tr[quadrupol]"> -11211.06287787 </i>
    <i name="Echarged">      0.00000000 </i>
    <i name="Edipol_quadrupol">      0.00000000 </i>
    <i name="Eion">      0.00000000 </i>
   </dipole>
   <energy>
    <i name="e_fr_energy">   -222.22839093 </i>
    <i name="e_wo_entrp">   -221.97204406 </i>
    <i name="e_0_energy">   -222.10021749 </i>
   </energy>
  </scstep>
  <scstep>
   <time name="diag">    1.58    1.61</time>
   <time name="diis">    4.18    4.21</time>
   <time name="orth">    0.45    0.46</time>
   <time name="total">    6.54    6.61</time>
   <dipole>
    <v name="dipole">      0.00000000       0.00000000       1.40738489 </v>
    <i name="Tr[quadrupol]"> -11211.16005276 </i>
    <i name="Echarged">      0.00000000 </i>
    <i name="Edipol_quadrupol">      0.00000000 </i>
    <i name="Eion">      0.00000000 </i>
   </dipole>
   <energy>
    <i name="e_fr_energy">   -222.06750457 </i>
    <i name="e_wo_entrp">   -221.78380652 </i>
    <i name="e_0_energy">   -221.92565555 </i>
   </energy>
  </scstep>
  <scstep>
   <time name="diag">    1.59    1.60</time>
   <time name="diis">    4.23    4.25</time>
   <time name="orth">    0.45    0.46</time>
   <time name="total">    6.61    6.64</time>
   <dipole>
    <v name="dipole">      0.00000000       0.00000000       1.33894600 </v>
    <i name="Tr[quadrupol]"> -11211.09826885 </i>
    <i name="Echarged">      0.00000000 </i>
    <i name="Edipol_quadrupol">      0.00000000 </i>
    <i name="Eion">      0.00000000 </i>
   </dipole>
   <energy>
    <i name="e_fr_energy">   -221.88215050 </i>
    <i name="e_wo_entrp">   -221.60593471 </i>
    <i name="e_0_energy">   -221.74404261 </i>
   </energy>
  </scstep>
  <scstep>
   <time name="diag">    1.59    1.60</time>
   <time name="diis">    4.20    4.22</time>
   <time name="orth">    0.45    0.46</time>
   <time name="total">    6.57    6.61</time>
   <dipole>
    <v name="dipole">      0.00000000       0.00000000       1.32096588 </v>
    <i name="Tr[quadrupol]"> -11211.10543434 </i>
    <i name="Echarged">      0.00000000 </i>
    <i name="Edipol_quadrupol">      0.00000000 </i>
    <i name="Eion">      0.00000000 </i>
   </dipole>
   <energy>
    <i name="e_fr_energy">   -221.78731800 </i>
    <i name="e_wo_entrp">   -221.52274533 </i>
    <i name="e_0_energy">   -221.65503166 </i>
   </energy>
  </scstep>
  <scstep>
   <time name="diag">    1.59    1.60</time>
   <time name="diis">    4.24    4.27</time>
   <time name="orth">    0.45    0.46</time>
   <time name="total">    6.62    6.65</time>
   <dipole>
    <v name="dipole">      0.00000000       0.00000000       1.36093576 </v>
    <i name="Tr[quadrupol]"> -11211.37793461 </i>
    <i name="Echarged">      0.00000000 </i>
    <i name="Edipol_quadrupol">      0.00000000 </i>
    <i name="Eion">      0.00000000 </i>
   </dipole>
   <energy>
    <i name="e_fr_energy">   -221.62343695 </i>
    <i name="e_wo_entrp">   -221.33183914 </i>
    <i name="e_0_energy">   -221.47763804 </i>
   </energy>
  </scstep>
  <scstep>
   <time name="diag">    1.59    1.60</time>
   <time name="diis">    4.19    4.21</time>
   <time name="orth">    0.45    0.46</time>
   <time name="total">    6.56    6.63</time>
   <dipole>
    <v name="dipole">      0.00000000       0.00000000       1.37083420 </v>
    <i name="Tr[quadrupol]"> -11211.55623219 </i>
    <i name="Echarged">      0.00000000 </i>
    <i name="Edipol_quadrupol">      0.00000000 </i>
    <i name="Eion">      0.00000000 </i>
   </dipole>
   <energy>
    <i name="e_fr_energy">   -221.60065538 </i>
    <i name="e_wo_entrp">   -221.31705397 </i>
    <i name="e_0_energy">   -221.45885468 </i>
   </energy>
  </scstep>
  <scstep>
   <time name="diag">    1.57    1.62</time>
   <time name="diis">    4.18    4.20</time>
   <time name="orth">    0.46    0.46</time>
   <time name="total">    6.53    6.62</time>
   <dipole>
    <v name="dipole">      0.00000000       0.00000000       1.37186521 </v>
    <i name="Tr[quadrupol]"> -11211.75715549 </i>
    <i name="Echarged">      0.00000000 </i>
    <i name="Edipol_quadrupol">      0.00000000 </i>
    <i name="Eion">      0.00000000 </i>
   </dipole>
   <energy>
    <i name="e_fr_energy">   -221.51148750 </i>
    <i name="e_wo_entrp">   -221.20553543 </i>
    <i name="e_0_energy">   -221.35851147 </i>
   </energy>
  </scstep>
  <scstep>
   <time name="diag">    1.59    1.60</time>
   <time name="diis">    4.24    4.26</time>
   <time name="orth">    0.45    0.46</time>
   <time name="total">    6.61    6.65</time>
   <dipole>
    <v name="dipole">      0.00000000       0.00000000       1.35074836 </v>
    <i name="Tr[quadrupol]"> -11211.85029109 </i>
    <i name="Echarged">      0.00000000 </i>
    <i name="Edipol_quadrupol">      0.00000000 </i>
    <i name="Eion">      0.00000000 </i>
   </dipole>
   <energy>
    <i name="e_fr_energy">   -221.47497754 </i>
    <i name="e_wo_entrp">   -221.16088206 </i>
    <i name="e_0_energy">   -221.31792980 </i>
   </energy>
  </scstep>
  <scstep>
   <time name="diag">    1.59    1.60</time>
   <time name="diis">    4.23    4.25</time>
   <time name="orth">    0.45    0.46</time>
   <time name="total">    6.61    6.64</time>
   <dipole>
    <v name="dipole">      0.00000000       0.00000000       1.34244257 </v>
    <i name="Tr[quadrupol]"> -11211.90363449 </i>
    <i name="Echarged">      0.00000000 </i>
    <i name="Edipol_quadrupol">      0.00000000 </i>
    <i name="Eion">      0.00000000 </i>
   </dipole>
   <energy>
    <i name="e_fr_energy">   -221.38332172 </i>
    <i name="e_wo_entrp">   -221.08628314 </i>
    <i name="e_0_energy">   -221.23480243 </i>
   </energy>
  </scstep>
  <scstep>
   <time name="diag">    1.59    1.60</time>
   <time name="diis">    4.23    4.25</time>
   <time name="orth">    0.46    0.46</time>
   <time name="total">    6.60    6.64</time>
   <dipole>
    <v name="dipole">      0.00000000       0.00000000       1.33983974 </v>
    <i name="Tr[quadrupol]"> -11211.94613694 </i>
    <i name="Echarged">      0.00000000 </i>
    <i name="Edipol_quadrupol">      0.00000000 </i>
    <i name="Eion">      0.00000000 </i>
   </dipole>
   <energy>
    <i name="e_fr_energy">   -221.35447797 </i>
    <i name="e_wo_entrp">   -221.04549268 </i>
    <i name="e_0_energy">   -221.19998532 </i>
   </energy>
  </scstep>
  <scstep>
   <time name="diag">    1.57    1.60</time>
   <time name="diis">    4.26    4.28</time>
   <time name="orth">    0.45    0.46</time>
   <time name="total">    6.61    6.67</time>
   <dipole>
    <v name="dipole">      0.00000000       0.00000000       1.34105648 </v>
    <i name="Tr[quadrupol]"> -11211.96606090 </i>
    <i name="Echarged">      0.00000000 </i>
    <i name="Edipol_quadrupol">      0.00000000 </i>
    <i name="Eion">      0.00000000 </i>
   </dipole>
   <energy>
    <i name="e_fr_energy">   -221.35344733 </i>
    <i name="e_wo_entrp">   -221.04454303 </i>
    <i name="e_0_energy">   -221.19899518 </i>
   </energy>
  </scstep>
  <scstep>
   <time name="diag">    1.59    1.60</time>
   <time name="diis">    4.23    4.25</time>
   <time name="orth">    0.45    0.46</time>
   <time name="total">    6.60    6.64</time>
   <dipole>
    <v name="dipole">      0.00000000       0.00000000       1.34490489 </v>
    <i name="Tr[quadrupol]"> -11212.01504469 </i>
    <i name="Echarged">      0.00000000 </i>
    <i name="Edipol_quadrupol">      0.00000000 </i>
    <i name="Eion">      0.00000000 </i>
   </dipole>
   <energy>
    <i name="e_fr_energy">   -221.35234950 </i>
    <i name="e_wo_entrp">   -221.04398239 </i>
    <i name="e_0_energy">   -221.19816595 </i>
   </energy>
  </scstep>
  <scstep>
   <time name="diag">    1.56    1.65</time>
   <time name="diis">    4.23    4.26</time>
   <time name="orth">    0.46    0.46</time>
   <time name="total">    6.58    6.70</time>
   <dipole>
    <v name="dipole">      0.00000000       0.00000000       1.34864031 </v>
    <i name="Tr[quadrupol]"> -11212.05379755 </i>
    <i name="Echarged">      0.00000000 </i>
    <i name="Edipol_quadrupol">      0.00000000 </i>
    <i name="Eion">      0.00000000 </i>
   </dipole>
   <energy>
    <i name="e_fr_energy">   -221.35079792 </i>
    <i name="e_wo_entrp">   -221.04146744 </i>
    <i name="e_0_energy">   -221.19613268 </i>
   </energy>
  </scstep>
  <scstep>
   <time name="diag">    1.59    1.60</time>
   <time name="diis">    4.24    4.26</time>
   <time name="orth">    0.45    0.46</time>
   <time name="total">    6.62    6.65</time>
   <dipole>
    <v name="dipole">      0.00000000       0.00000000       1.35421378 </v>
    <i name="Tr[quadrupol]"> -11212.10928116 </i>
    <i name="Echarged">      0.00000000 </i>
    <i name="Edipol_quadrupol">      0.00000000 </i>
    <i name="Eion">      0.00000000 </i>
   </dipole>
   <energy>
    <i name="e_fr_energy">   -221.34754831 </i>
    <i name="e_wo_entrp">   -221.04041745 </i>
    <i name="e_0_energy">   -221.19398288 </i>
   </energy>
  </scstep>
  <scstep>
   <time name="diag">    1.59    1.59</time>
   <time name="diis">    4.21    4.23</time>
   <time name="orth">    0.45    0.46</time>
   <time name="total">    6.58    6.62</time>
   <dipole>
    <v name="dipole">      0.00000000       0.00000000       1.35666627 </v>
    <i name="Tr[quadrupol]"> -11212.14828469 </i>
    <i name="Echarged">      0.00000000 </i>
    <i name="Edipol_quadrupol">      0.00000000 </i>
    <i name="Eion">      0.00000000 </i>
   </dipole>
   <energy>
    <i name="e_fr_energy">   -221.34645909 </i>
    <i name="e_wo_entrp">   -221.03904812 </i>
    <i name="e_0_energy">   -221.19275360 </i>
   </energy>
  </scstep>
  <scstep>
   <time name="diag">    1.59    1.59</time>
   <time name="diis">    4.17    4.19</time>
   <time name="orth">    0.45    0.46</time>
   <time name="total">    6.54    6.58</time>
   <dipole>
    <v name="dipole">      0.00000000       0.00000000       1.35742033 </v>
    <i name="Tr[quadrupol]"> -11212.16833822 </i>
    <i name="Echarged">      0.00000000 </i>
    <i name="Edipol_quadrupol">      0.00000000 </i>
    <i name="Eion">      0.00000000 </i>
   </dipole>
   <energy>
    <i name="e_fr_energy">   -221.34621765 </i>
    <i name="e_wo_entrp">   -221.03857393 </i>
    <i name="e_0_energy">   -221.19239579 </i>
   </energy>
  </scstep>
  <scstep>
   <time name="diag">    1.60    1.61</time>
   <time name="diis">    4.19    4.21</time>
   <time name="orth">    0.45    0.45</time>
   <time name="total">    6.57    6.61</time>
   <dipole>
    <v name="dipole">      0.00000000       0.00000000       1.35829198 </v>
    <i name="Tr[quadrupol]"> -11212.18985146 </i>
    <i name="Echarged">      0.00000000 </i>
    <i name="Edipol_quadrupol">      0.00000000 </i>
    <i name="Eion">      0.00000000 </i>
   </dipole>
   <energy>
    <i name="e_fr_energy">   -221.34614342 </i>
    <i name="e_wo_entrp">   -221.03818251 </i>
    <i name="e_0_energy">   -221.19216297 </i>
   </energy>
  </scstep>
  <scstep>
   <time name="diag">    1.59    1.60</time>
   <time name="diis">    4.19    4.22</time>
   <time name="orth">    0.45    0.45</time>
   <time name="total">    6.56    6.60</time>
   <dipole>
    <v name="dipole">      0.00000000       0.00000000       1.36053017 </v>
    <i name="Tr[quadrupol]"> -11212.21548343 </i>
    <i name="Echarged">      0.00000000 </i>
    <i name="Edipol_quadrupol">      0.00000000 </i>
    <i name="Eion">      0.00000000 </i>
   </dipole>
   <energy>
    <i name="e_fr_energy">   -221.34632951 </i>
    <i name="e_wo_entrp">   -221.03848287 </i>
    <i name="e_0_energy">   -221.19240619 </i>
   </energy>
  </scstep>
  <scstep>
   <time name="diag">    1.56    1.65</time>
   <time name="diis">    4.22    4.24</time>
   <time name="orth">    0.45    0.45</time>
   <time name="total">    6.56    6.67</time>
   <dipole>
    <v name="dipole">      0.00000000       0.00000000       1.36499601 </v>
    <i name="Tr[quadrupol]"> -11212.25152750 </i>
    <i name="Echarged">      0.00000000 </i>
    <i name="Edipol_quadrupol">      0.00000000 </i>
    <i name="Eion">      0.00000000 </i>
   </dipole>
   <energy>
    <i name="e_fr_energy">   -221.34657600 </i>
    <i name="e_wo_entrp">   -221.03887745 </i>
    <i name="e_0_energy">   -221.19272672 </i>
   </energy>
  </scstep>
  <scstep>
   <time name="diag">    1.60    1.61</time>
   <time name="diis">    4.32    4.34</time>
   <time name="orth">    0.45    0.45</time>
   <time name="total">    6.69    6.73</time>
   <dipole>
    <v name="dipole">      0.00000000       0.00000000       1.36785534 </v>
    <i name="Tr[quadrupol]"> -11212.27607687 </i>
    <i name="Echarged">      0.00000000 </i>
    <i name="Edipol_quadrupol">      0.00000000 </i>
    <i name="Eion">      0.00000000 </i>
   </dipole>
   <energy>
    <i name="e_fr_energy">   -221.34677571 </i>
    <i name="e_wo_entrp">   -221.03901309 </i>
    <i name="e_0_energy">   -221.19289440 </i>
   </energy>
  </scstep>
  <scstep>
   <time name="diag">    1.59    1.60</time>
   <time name="diis">    4.09    4.11</time>
   <time name="orth">    0.45    0.45</time>
   <time name="total">    6.47    6.50</time>
   <dipole>
    <v name="dipole">      0.00000000       0.00000000       1.37043967 </v>
    <i name="Tr[quadrupol]"> -11212.29930110 </i>
    <i name="Echarged">      0.00000000 </i>
    <i name="Edipol_quadrupol">      0.00000000 </i>
    <i name="Eion">      0.00000000 </i>
   </dipole>
   <energy>
    <i name="e_fr_energy">   -221.34696087 </i>
    <i name="e_wo_entrp">   -221.03906705 </i>
    <i name="e_0_energy">   -221.19301396 </i>
   </energy>
  </scstep>
  <scstep>
   <time name="diag">    1.59    1.60</time>
   <time name="diis">    3.69    3.71</time>
   <time name="orth">    0.45    0.45</time>
   <time name="total">    6.07    6.10</time>
   <dipole>
    <v name="dipole">      0.00000000       0.00000000       1.37290946 </v>
    <i name="Tr[quadrupol]"> -11212.31769233 </i>
    <i name="Echarged">      0.00000000 </i>
    <i name="Edipol_quadrupol">      0.00000000 </i>
    <i name="Eion">      0.00000000 </i>
   </dipole>
   <energy>
    <i name="e_fr_energy">   -221.34713187 </i>
    <i name="e_wo_entrp">   -221.03915007 </i>
    <i name="e_0_energy">   -221.19314097 </i>
   </energy>
  </scstep>
  <scstep>
   <time name="diag">    1.59    1.59</time>
   <time name="diis">    3.70    3.72</time>
   <time name="orth">    0.45    0.45</time>
   <time name="total">    6.07    6.10</time>
   <dipole>
    <v name="dipole">      0.00000000       0.00000000       1.37571031 </v>
    <i name="Tr[quadrupol]"> -11212.33835579 </i>
    <i name="Echarged">      0.00000000 </i>
    <i name="Edipol_quadrupol">      0.00000000 </i>
    <i name="Eion">      0.00000000 </i>
   </dipole>
   <energy>
    <i name="e_fr_energy">   -221.34731309 </i>
    <i name="e_wo_entrp">   -221.03930553 </i>
    <i name="e_0_energy">   -221.19330931 </i>
   </energy>
  </scstep>
  <scstep>
   <time name="diag">    1.59    1.60</time>
   <time name="diis">    3.72    3.74</time>
   <time name="orth">    0.45    0.45</time>
   <time name="total">    6.09    6.13</time>
   <dipole>
    <v name="dipole">      0.00000000       0.00000000       1.38017026 </v>
    <i name="Tr[quadrupol]"> -11212.36851163 </i>
    <i name="Echarged">      0.00000000 </i>
    <i name="Edipol_quadrupol">      0.00000000 </i>
    <i name="Eion">      0.00000000 </i>
   </dipole>
   <energy>
    <i name="e_fr_energy">   -221.34754164 </i>
    <i name="e_wo_entrp">   -221.03959189 </i>
    <i name="e_0_energy">   -221.19356676 </i>
   </energy>
  </scstep>
  <scstep>
   <time name="diag">    1.59    1.60</time>
   <time name="diis">    3.43    3.53</time>
   <time name="orth">    0.45    0.45</time>
   <time name="total">    5.81    5.92</time>
   <dipole>
    <v name="dipole">      0.00000000       0.00000000       1.38369151 </v>
    <i name="Tr[quadrupol]"> -11212.39058113 </i>
    <i name="Echarged">      0.00000000 </i>
    <i name="Edipol_quadrupol">      0.00000000 </i>
    <i name="Eion">      0.00000000 </i>
   </dipole>
   <energy>
    <i name="e_fr_energy">   -221.34766734 </i>
    <i name="e_wo_entrp">   -221.03974491 </i>
    <i name="e_0_energy">   -221.19370612 </i>
   </energy>
  </scstep>
  <scstep>
   <time name="diag">    1.59    1.60</time>
   <time name="diis">    3.15    3.17</time>
   <time name="orth">    0.45    0.45</time>
   <time name="total">    5.53    5.56</time>
   <dipole>
    <v name="dipole">      0.00000000       0.00000000       1.38641572 </v>
    <i name="Tr[quadrupol]"> -11212.40632730 </i>
    <i name="Echarged">      0.00000000 </i>
    <i name="Edipol_quadrupol">      0.00000000 </i>
    <i name="Eion">      0.00000000 </i>
   </dipole>
   <energy>
    <i name="e_fr_energy">   -221.34773181 </i>
    <i name="e_wo_entrp">   -221.03977673 </i>
    <i name="e_0_energy">   -221.19375427 </i>
   </energy>
  </scstep>
  <scstep>
   <time name="diag">    1.59    1.60</time>
   <time name="diis">    2.80    2.82</time>
   <time name="orth">    0.45    0.45</time>
   <time name="total">    5.18    5.20</time>
   <dipole>
    <v name="dipole">      0.00000000       0.00000000       1.38857767 </v>
    <i name="Tr[quadrupol]"> -11212.41760113 </i>
    <i name="Echarged">      0.00000000 </i>
    <i name="Edipol_quadrupol">      0.00000000 </i>
    <i name="Eion">      0.00000000 </i>
   </dipole>
   <energy>
    <i name="e_fr_energy">   -221.34776854 </i>
    <i name="e_wo_entrp">   -221.03979247 </i>
    <i name="e_0_energy">   -221.19378051 </i>
   </energy>
  </scstep>
  <scstep>
   <time name="diag">    1.59    1.60</time>
   <time name="diis">    2.65    2.67</time>
   <time name="orth">    0.45    0.45</time>
   <time name="total">    5.03    5.05</time>
   <dipole>
    <v name="dipole">      0.00000000       0.00000000       1.39072725 </v>
    <i name="Tr[quadrupol]"> -11212.42762949 </i>
    <i name="Echarged">      0.00000000 </i>
    <i name="Edipol_quadrupol">      0.00000000 </i>
    <i name="Eion">      0.00000000 </i>
   </dipole>
   <energy>
    <i name="e_fr_energy">   -221.34779573 </i>
    <i name="e_wo_entrp">   -221.03981511 </i>
    <i name="e_0_energy">   -221.19380542 </i>
   </energy>
  </scstep>
  <scstep>
   <time name="diag">    1.59    1.60</time>
   <time name="diis">    2.52    2.53</time>
   <time name="orth">    0.45    0.45</time>
   <time name="total">    4.90    4.93</time>
   <dipole>
    <v name="dipole">      0.00000000       0.00000000       1.39179930 </v>
    <i name="Tr[quadrupol]"> -11212.43180824 </i>
    <i name="Echarged">      0.00000000 </i>
    <i name="Edipol_quadrupol">      0.00000000 </i>
    <i name="Eion">      0.00000000 </i>
   </dipole>
   <energy>
    <i name="e_fr_energy">   -221.34780770 </i>
    <i name="e_wo_entrp">   -221.03982710 </i>
    <i name="e_0_energy">   -221.19381740 </i>
   </energy>
  </scstep>
  <scstep>
   <time name="diag">    1.59    1.60</time>
   <time name="diis">    2.51    2.53</time>
   <time name="orth">    0.45    0.45</time>
   <time name="total">    4.89    4.92</time>
   <dipole>
    <v name="dipole">      0.00000000       0.00000000       1.39353061 </v>
    <i name="Tr[quadrupol]"> -11212.43730475 </i>
    <i name="Echarged">      0.00000000 </i>
    <i name="Edipol_quadrupol">      0.00000000 </i>
    <i name="Eion">      0.00000000 </i>
   </dipole>
   <energy>
    <i name="e_fr_energy">   -221.34782731 </i>
    <i name="e_wo_entrp">   -221.03984637 </i>
    <i name="e_0_energy">   -221.19383684 </i>
   </energy>
  </scstep>
  <scstep>
   <time name="diag">    1.59    1.60</time>
   <time name="diis">    2.47    2.49</time>
   <time name="orth">    0.45    0.45</time>
   <time name="total">    4.85    4.88</time>
   <dipole>
    <v name="dipole">      0.00000000       0.00000000       1.39468678 </v>
    <i name="Tr[quadrupol]"> -11212.44053975 </i>
    <i name="Echarged">      0.00000000 </i>
    <i name="Edipol_quadrupol">      0.00000000 </i>
    <i name="Eion">      0.00000000 </i>
   </dipole>
   <energy>
    <i name="e_fr_energy">   -221.34783983 </i>
    <i name="e_wo_entrp">   -221.03984944 </i>
    <i name="e_0_energy">   -221.19384464 </i>
   </energy>
  </scstep>
  <scstep>
   <time name="diag">    1.60    1.60</time>
   <time name="diis">    2.53    2.54</time>
   <time name="orth">    0.45    0.45</time>
   <time name="total">    4.91    4.93</time>
   <dipole>
    <v name="dipole">      0.00000000       0.00000000       1.39621747 </v>
    <i name="Tr[quadrupol]"> -11212.44428530 </i>
    <i name="Echarged">      0.00000000 </i>
    <i name="Edipol_quadrupol">      0.00000000 </i>
    <i name="Eion">      0.00000000 </i>
   </dipole>
   <energy>
    <i name="e_fr_energy">   -221.34785484 </i>
    <i name="e_wo_entrp">   -221.03986265 </i>
    <i name="e_0_energy">   -221.19385874 </i>
   </energy>
  </scstep>
  <scstep>
   <time name="diag">    1.56    1.64</time>
   <time name="diis">    2.12    2.13</time>
   <time name="orth">    0.45    0.45</time>
   <time name="total">    4.47    4.56</time>
   <dipole>
    <v name="dipole">      0.00000000       0.00000000       1.39701144 </v>
    <i name="Tr[quadrupol]"> -11212.44607823 </i>
    <i name="Echarged">      0.00000000 </i>
    <i name="Edipol_quadrupol">      0.00000000 </i>
    <i name="Eion">      0.00000000 </i>
   </dipole>
   <energy>
    <i name="e_fr_energy">   -221.34786136 </i>
    <i name="e_wo_entrp">   -221.03986284 </i>
    <i name="e_0_energy">   -221.19386210 </i>
   </energy>
  </scstep>
  <scstep>
   <time name="diag">    1.59    1.60</time>
   <time name="diis">    2.49    2.51</time>
   <time name="orth">    0.45    0.45</time>
   <time name="total">    4.87    4.90</time>
   <dipole>
    <v name="dipole">      0.00000000       0.00000000       1.39817933 </v>
    <i name="Tr[quadrupol]"> -11212.44845497 </i>
    <i name="Echarged">      0.00000000 </i>
    <i name="Edipol_quadrupol">      0.00000000 </i>
    <i name="Eion">      0.00000000 </i>
   </dipole>
   <energy>
    <i name="e_fr_energy">   -221.34786891 </i>
    <i name="e_wo_entrp">   -221.03986104 </i>
    <i name="e_0_energy">   -221.19386497 </i>
   </energy>
  </scstep>
  <scstep>
   <time name="diag">    1.59    1.60</time>
   <time name="diis">    1.80    1.81</time>
   <time name="orth">    0.46    0.46</time>
   <time name="total">    4.18    4.21</time>
   <dipole>
    <v name="dipole">      0.00000000       0.00000000       1.39868574 </v>
    <i name="Tr[quadrupol]"> -11212.44931046 </i>
    <i name="Echarged">      0.00000000 </i>
    <i name="Edipol_quadrupol">      0.00000000 </i>
    <i name="Eion">      0.00000000 </i>
   </dipole>
   <energy>
    <i name="e_fr_energy">   -221.34787100 </i>
    <i name="e_wo_entrp">   -221.03986202 </i>
    <i name="e_0_energy">   -221.19386651 </i>
   </energy>
  </scstep>
  <scstep>
   <time name="diag">    1.59    1.60</time>
   <time name="diis">    1.77    1.78</time>
   <time name="orth">    0.45    0.45</time>
   <time name="total">    3.87    3.89</time>
   <dipole>
    <v name="dipole">      0.00000000       0.00000000       1.39891496 </v>
    <i name="Tr[quadrupol]"> -11212.44969280 </i>
    <i name="Echarged">      0.00000000 </i>
    <i name="Edipol_quadrupol">      0.00000000 </i>
    <i name="Eion">      0.00000000 </i>
   </dipole>
   <energy>
    <i name="alphaZ">    889.13404573 </i>
    <i name="ewald"> 255535.33029171 </i>
    <i name="hartreedc">-300521.29643936 </i>
    <i name="XCdc">   -124.14317359 </i>
    <i name="pawpsdc">  52889.82328387 </i>
    <i name="pawaedc"> -50988.91022608 </i>
    <i name="eentropy">     -0.30801036 </i>
    <i name="bandstr">  -3018.86908423 </i>
    <i name="atom">  45117.89144060 </i>
    <i name="e_fr_energy">   -221.34787171 </i>
    <i name="e_wo_entrp">   -221.03986135 </i>
    <i name="e_0_energy">   -221.19386653 </i>
   </energy>
  </scstep>
  <structure>
   <crystal>
    <varray name="basis" >
     <v>      11.00258152       0.00000000       0.00000000 </v>
     <v>       5.50129076       9.52851510       0.00000000 </v>
     <v>       0.00000000       0.00000000      26.19178509 </v>
    </varray>
    <i name="volume">   2745.90128299 </i>
    <varray name="rec_basis" >
     <v>       0.09088776      -0.05247407       0.00000000 </v>
     <v>       0.00000000       0.10494815       0.00000000 </v>
     <v>       0.00000000       0.00000000       0.03817991 </v>
    </varray>
   </crystal>
   <varray name="positions" >
    <v>       0.91666667       0.91666667       0.46754708 </v>
    <v>       0.75000000       0.00000000       0.55329505 </v>
    <v>       0.91666667       0.16666667       0.46754708 </v>
    <v>       0.66666667       0.91666667       0.46754708 </v>
    <v>       0.66666667       0.66666667       0.46754708 </v>
    <v>       0.91666667       0.41666667       0.46754708 </v>
    <v>       0.00000000       0.25000000       0.55329505 </v>
    <v>       0.83333333       0.58333333       0.38179910 </v>
    <v>       0.08333333       0.58333333       0.38179910 </v>
    <v>       0.91666667       0.66666667       0.46754708 </v>
    <v>       0.66666667       0.41666667       0.46754708 </v>
    <v>       0.33333333       0.83333333       0.38179910 </v>
    <v>       0.83333333       0.33333333       0.38179910 </v>
    <v>       0.41666667       0.91666667       0.46754708 </v>
    <v>       0.58333333       0.83333333       0.38179910 </v>
    <v>       0.33333333       0.08333333       0.38179910 </v>
    <v>       0.16666667       0.16666667       0.46754708 </v>
    <v>       0.50000000       0.50000000       0.55329505 </v>
    <v>       0.33333333       0.33333333       0.38179910 </v>
    <v>       0.50000000       0.25000000       0.55329505 </v>
    <v>       0.58333333       0.33333333       0.38179910 </v>
    <v>       0.33333333       0.58333333       0.38179910 </v>
    <v>       0.75000000       0.75000000       0.55329505 </v>
    <v>       0.16666667       0.91666667       0.46754708 </v>
    <v>       0.08333333       0.33333333       0.61820090 </v>
    <v>       0.33333333       0.08333333       0.61820090 </v>
    <v>       0.08333333       0.83333333       0.61820090 </v>
    <v>       0.83333333       0.83333333       0.61820090 </v>
    <v>       0.33333333       0.83333333       0.61820090 </v>
    <v>       0.83333333       0.58333333       0.61820090 </v>
    <v>       0.58333333       0.33333333       0.61820090 </v>
    <v>       0.58333333       0.58333333       0.61820090 </v>
    <v>       0.25000000       0.25000000       0.55329505 </v>
    <v>       0.41666667       0.41666667       0.46754708 </v>
    <v>       0.08333333       0.08333333       0.38179910 </v>
    <v>       0.25000000       0.00000000       0.55329505 </v>
    <v>       0.50000000       0.00000000       0.55329505 </v>
    <v>       0.41666667       0.16666667       0.46754708 </v>
    <v>       0.58333333       0.08333333       0.38179910 </v>
    <v>       0.16666667       0.66666667       0.46754708 </v>
    <v>       0.25000000       0.75000000       0.55329505 </v>
    <v>       0.41666667       0.66666667       0.46754708 </v>
    <v>       0.50000000       0.75000000       0.55329505 </v>
    <v>       0.00000000       0.75000000       0.55329505 </v>
    <v>       0.83333333       0.08333333       0.38179910 </v>
    <v>       0.66666667       0.16666667       0.46754708 </v>
    <v>       0.08333333       0.83333333       0.38179910 </v>
    <v>       0.00000000       0.50000000       0.55329505 </v>
    <v>       0.75000000       0.25000000       0.55329505 </v>
    <v>       0.08333333       0.33333333       0.38179910 </v>
    <v>       0.75000000       0.50000000       0.55329505 </v>
    <v>       0.83333333       0.83333333       0.38179910 </v>
    <v>       0.00000000       0.00000000       0.55329505 </v>
    <v>       0.25000000       0.50000000       0.55329505 </v>
    <v>       0.16666667       0.41666667       0.46754708 </v>
    <v>       0.58333333       0.58333333       0.38179910 </v>
   </varray>
  </structure>
  <varray name="forces" >
   <v>       0.19153517      -0.03704011      -0.44689885 </v>
   <v>       0.22502216       0.35705810       2.08000997 </v>
   <v>      -0.38926556      -0.28984264       0.54747130 </v>
   <v>      -0.06560879       0.66118618       0.07167049 </v>
   <v>      -0.61727724      -0.04103341       0.55511013 </v>
   <v>       0.34001818       0.10976435       0.28943396 </v>
   <v>      -0.26775822      -0.13906637       2.25761353 </v>
   <v>       0.05346581       0.04911270      -1.86029399 </v>
   <v>       0.08296422       0.11372886      -1.36213570 </v>
   <v>       0.77652048      -0.19132179       0.44234421 </v>
   <v>      -0.34753516       0.10974963       0.29255296 </v>
   <v>      -0.28045009      -0.20975989      -1.57791505 </v>
   <v>       0.11237067      -0.32425904      -1.84966729 </v>
   <v>      -0.02576856      -0.08548259       0.86966784 </v>
   <v>       0.24295267       0.04220139      -1.89512977 </v>
   <v>       0.06028154       0.29042751      -1.55110723 </v>
   <v>       0.46760995       0.12708779       0.02084643 </v>
   <v>      -0.44899264       0.36011085       2.08407224 </v>
   <v>      -0.08598151      -0.16093229      -1.07399919 </v>
   <v>      -0.23355201      -0.00687425       1.61402824 </v>
   <v>      -0.00615381      -0.35085956      -1.22907700 </v>
   <v>       0.03325137       0.23314559      -1.06966735 </v>
   <v>      -0.46957311       0.04071160       2.51275661 </v>
   <v>      -0.11279606      -0.39477643       0.21340295 </v>
   <v>       0.23461875       0.17088741      -2.85106743 </v>
   <v>       0.23890751       0.10560978      -3.31543697 </v>
   <v>       0.06363267       0.08572054      -3.30089785 </v>
   <v>       0.27804442       0.11456518      -2.34782980 </v>
   <v>      -0.06875631      -0.11847118      -3.20017432 </v>
   <v>       0.04939797      -0.44637692      -2.69102312 </v>
   <v>       0.12312800      -0.50179118      -2.44065987 </v>
   <v>       0.32896842       0.28022677      -2.64232930 </v>
   <v>       0.08170538      -0.07462842       2.60587374 </v>
   <v>      -0.21218373       0.16455362       0.41431728 </v>
   <v>      -0.19448048       0.03295679      -0.98309813 </v>
   <v>       0.38569563      -0.21676774       3.02177300 </v>
   <v>      -0.56187531       0.25994432       1.79794566 </v>
   <v>       0.20295065       0.35046499       0.60186341 </v>
   <v>       0.22040252      -0.02671780      -0.63144847 </v>
   <v>       0.14843414      -0.12790040       0.80011941 </v>
   <v>      -0.20436153       0.17933200       2.54089695 </v>
   <v>      -0.30952122      -0.16609230       0.47364648 </v>
   <v>      -0.40272072       0.06098634       2.93829003 </v>
   <v>       0.49620363       0.00337785       2.79304903 </v>
   <v>      -0.04230905      -0.15040913      -0.75106819 </v>
   <v>      -0.15261359      -0.12977423      -0.06179476 </v>
   <v>      -0.08749982       0.10939480      -0.77348796 </v>
   <v>       0.27162237      -0.13235422       2.78605379 </v>
   <v>      -0.20957929      -0.01300479       1.76882274 </v>
   <v>       0.00700445      -0.06436404      -0.86629378 </v>
   <v>       0.05795209       0.13991872       3.09153726 </v>
   <v>       0.11886076       0.20773197      -0.95422163 </v>
   <v>      -0.00276825      -0.47799725       2.07461193 </v>
   <v>      -0.29353763       0.14121846       0.26113953 </v>
   <v>       0.25245204      -0.08019230       0.81286968 </v>
   <v>      -0.05305392       0.05691618      -0.90706779 </v>
  </varray>
  <energy>
   <i name="e_fr_energy">   -221.34787171 </i>
   <i name="e_wo_entrp">   -221.19386653 </i>
   <i name="e_0_energy">     -0.30801036 </i>
  </energy>
  <time name="totalsc">  319.94  322.44</time>
 </calculation>
 <calculation>
  <scstep>
   <time name="dav">    9.02    9.06</time>
   <time name="total">    9.34    9.40</time>
   <dipole>
    <v name="dipole">      0.00000000       0.00000000       1.39901606 </v>
    <i name="Tr[quadrupol]"> -11205.79339213 </i>
    <i name="Echarged">      0.00000000 </i>
    <i name="Edipol_quadrupol">      0.00000000 </i>
    <i name="Eion">      0.00000000 </i>
   </dipole>
   <energy>
    <i name="alphaZ">    888.20842301 </i>
    <i name="ewald"> 254698.88853436 </i>
    <i name="hartreedc">-299674.95543121 </i>
    <i name="XCdc">   -123.87236234 </i>
    <i name="pawpsdc">  52889.82428536 </i>
    <i name="pawaedc"> -50988.91130434 </i>
    <i name="eentropy">     -0.23479139 </i>
    <i name="bandstr">  -3030.89141308 </i>
    <i name="atom">  45117.89144060 </i>
    <i name="e_fr_energy">   -224.05261902 </i>
    <i name="e_wo_entrp">   -223.81782763 </i>
    <i name="e_0_energy">   -223.93522333 </i>
   </energy>
  </scstep>
  <scstep>
   <time name="diag">    1.59    1.60</time>
   <time name="diis">    4.21    4.23</time>
   <time name="orth">    0.45    0.45</time>
   <time name="total">    6.58    6.61</time>
   <dipole>
    <v name="dipole">      0.00000000       0.00000000       0.98165497 </v>
    <i name="Tr[quadrupol]"> -11205.39491568 </i>
    <i name="Echarged">      0.00000000 </i>
    <i name="Edipol_quadrupol">      0.00000000 </i>
    <i name="Eion">      0.00000000 </i>
   </dipole>
   <energy>
    <i name="e_fr_energy">   -229.81977484 </i>
    <i name="e_wo_entrp">   -229.47088070 </i>
    <i name="e_0_energy">   -229.64532777 </i>
   </energy>
  </scstep>
  <scstep>
   <time name="diag">    1.58    1.59</time>
   <time name="diis">    4.12    4.22</time>
   <time name="orth">    0.45    0.45</time>
   <time name="total">    6.48    6.60</time>
   <dipole>
    <v name="dipole">      0.00000000       0.00000000       1.42501625 </v>
    <i name="Tr[quadrupol]"> -11205.71720430 </i>
    <i name="Echarged">      0.00000000 </i>
    <i name="Edipol_quadrupol">      0.00000000 </i>
    <i name="Eion">      0.00000000 </i>
   </dipole>
   <energy>
    <i name="e_fr_energy">   -226.82879347 </i>
    <i name="e_wo_entrp">   -226.59553123 </i>
    <i name="e_0_energy">   -226.71216235 </i>
   </energy>
  </scstep>
  <scstep>
   <time name="diag">    1.59    1.60</time>
   <time name="diis">    4.20    4.25</time>
   <time name="orth">    0.45    0.45</time>
   <time name="total">    6.57    6.63</time>
   <dipole>
    <v name="dipole">      0.00000000       0.00000000       0.99260159 </v>
    <i name="Tr[quadrupol]"> -11205.96960672 </i>
    <i name="Echarged">      0.00000000 </i>
    <i name="Edipol_quadrupol">      0.00000000 </i>
    <i name="Eion">      0.00000000 </i>
   </dipole>
   <energy>
    <i name="e_fr_energy">   -227.65706374 </i>
    <i name="e_wo_entrp">   -227.31479886 </i>
    <i name="e_0_energy">   -227.48593130 </i>
   </energy>
  </scstep>
  <scstep>
   <time name="diag">    1.58    1.59</time>
   <time name="diis">    4.24    4.26</time>
   <time name="orth">    0.45    0.45</time>
   <time name="total">    6.59    6.63</time>
   <dipole>
    <v name="dipole">      0.00000000       0.00000000       1.11876345 </v>
    <i name="Tr[quadrupol]"> -11206.31276075 </i>
    <i name="Echarged">      0.00000000 </i>
    <i name="Edipol_quadrupol">      0.00000000 </i>
    <i name="Eion">      0.00000000 </i>
   </dipole>
   <energy>
    <i name="e_fr_energy">   -226.80510378 </i>
    <i name="e_wo_entrp">   -226.47282263 </i>
    <i name="e_0_energy">   -226.63896320 </i>
   </energy>
  </scstep>
  <scstep>
   <time name="diag">    1.59    1.59</time>
   <time name="diis">    4.21    4.23</time>
   <time name="orth">    0.45    0.45</time>
   <time name="total">    6.58    6.61</time>
   <dipole>
    <v name="dipole">      0.00000000       0.00000000       1.10255452 </v>
    <i name="Tr[quadrupol]"> -11206.21895202 </i>
    <i name="Echarged">      0.00000000 </i>
    <i name="Edipol_quadrupol">      0.00000000 </i>
    <i name="Eion">      0.00000000 </i>
   </dipole>
   <energy>
    <i name="e_fr_energy">   -226.58292903 </i>
    <i name="e_wo_entrp">   -226.27255441 </i>
    <i name="e_0_energy">   -226.42774172 </i>
   </energy>
  </scstep>
  <scstep>
   <time name="diag">    1.58    1.59</time>
   <time name="diis">    4.20    4.22</time>
   <time name="orth">    0.45    0.45</time>
   <time name="total">    6.56    6.60</time>
   <dipole>
    <v name="dipole">      0.00000000       0.00000000       1.08489076 </v>
    <i name="Tr[quadrupol]"> -11206.27113681 </i>
    <i name="Echarged">      0.00000000 </i>
    <i name="Edipol_quadrupol">      0.00000000 </i>
    <i name="Eion">      0.00000000 </i>
   </dipole>
   <energy>
    <i name="e_fr_energy">   -226.62608572 </i>
    <i name="e_wo_entrp">   -226.33578735 </i>
    <i name="e_0_energy">   -226.48093654 </i>
   </energy>
  </scstep>
  <scstep>
   <time name="diag">    1.59    1.60</time>
   <time name="diis">    4.22    4.24</time>
   <time name="orth">    0.46    0.46</time>
   <time name="total">    6.59    6.62</time>
   <dipole>
    <v name="dipole">      0.00000000       0.00000000       1.15232334 </v>
    <i name="Tr[quadrupol]"> -11206.63207009 </i>
    <i name="Echarged">      0.00000000 </i>
    <i name="Edipol_quadrupol">      0.00000000 </i>
    <i name="Eion">      0.00000000 </i>
   </dipole>
   <energy>
    <i name="e_fr_energy">   -226.38890935 </i>
    <i name="e_wo_entrp">   -226.11144371 </i>
    <i name="e_0_energy">   -226.25017653 </i>
   </energy>
  </scstep>
  <scstep>
   <time name="diag">    1.59    1.60</time>
   <time name="diis">    4.12    4.23</time>
   <time name="orth">    0.46    0.46</time>
   <time name="total">    6.50    6.62</time>
   <dipole>
    <v name="dipole">      0.00000000       0.00000000       1.15690690 </v>
    <i name="Tr[quadrupol]"> -11206.67710346 </i>
    <i name="Echarged">      0.00000000 </i>
    <i name="Edipol_quadrupol">      0.00000000 </i>
    <i name="Eion">      0.00000000 </i>
   </dipole>
   <energy>
    <i name="e_fr_energy">   -226.37137546 </i>
    <i name="e_wo_entrp">   -226.10333133 </i>
    <i name="e_0_energy">   -226.23735339 </i>
   </energy>
  </scstep>
  <scstep>
   <time name="diag">    1.58    1.60</time>
   <time name="diis">    4.19    4.21</time>
   <time name="orth">    0.45    0.45</time>
   <time name="total">    6.55    6.59</time>
   <dipole>
    <v name="dipole">      0.00000000       0.00000000       1.15707014 </v>
    <i name="Tr[quadrupol]"> -11206.68513012 </i>
    <i name="Echarged">      0.00000000 </i>
    <i name="Edipol_quadrupol">      0.00000000 </i>
    <i name="Eion">      0.00000000 </i>
   </dipole>
   <energy>
    <i name="e_fr_energy">   -226.36174129 </i>
    <i name="e_wo_entrp">   -226.09384539 </i>
    <i name="e_0_energy">   -226.22779334 </i>
   </energy>
  </scstep>
  <scstep>
   <time name="diag">    1.58    1.58</time>
   <time name="diis">    4.17    4.19</time>
   <time name="orth">    0.45    0.45</time>
   <time name="total">    6.53    6.56</time>
   <dipole>
    <v name="dipole">      0.00000000       0.00000000       1.16258090 </v>
    <i name="Tr[quadrupol]"> -11206.71255890 </i>
    <i name="Echarged">      0.00000000 </i>
    <i name="Edipol_quadrupol">      0.00000000 </i>
    <i name="Eion">      0.00000000 </i>
   </dipole>
   <energy>
    <i name="e_fr_energy">   -226.35731490 </i>
    <i name="e_wo_entrp">   -226.09155399 </i>
    <i name="e_0_energy">   -226.22443445 </i>
   </energy>
  </scstep>
  <scstep>
   <time name="diag">    1.58    1.59</time>
   <time name="diis">    4.23    4.25</time>
   <time name="orth">    0.45    0.45</time>
   <time name="total">    6.59    6.63</time>
   <dipole>
    <v name="dipole">      0.00000000       0.00000000       1.16069600 </v>
    <i name="Tr[quadrupol]"> -11206.71498900 </i>
    <i name="Echarged">      0.00000000 </i>
    <i name="Edipol_quadrupol">      0.00000000 </i>
    <i name="Eion">      0.00000000 </i>
   </dipole>
   <energy>
    <i name="e_fr_energy">   -226.35632435 </i>
    <i name="e_wo_entrp">   -226.09311889 </i>
    <i name="e_0_energy">   -226.22472162 </i>
   </energy>
  </scstep>
  <scstep>
   <time name="diag">    1.58    1.59</time>
   <time name="diis">    4.19    4.21</time>
   <time name="orth">    0.45    0.45</time>
   <time name="total">    6.54    6.58</time>
   <dipole>
    <v name="dipole">      0.00000000       0.00000000       1.16306694 </v>
    <i name="Tr[quadrupol]"> -11206.72083834 </i>
    <i name="Echarged">      0.00000000 </i>
    <i name="Edipol_quadrupol">      0.00000000 </i>
    <i name="Eion">      0.00000000 </i>
   </dipole>
   <energy>
    <i name="e_fr_energy">   -226.35582232 </i>
    <i name="e_wo_entrp">   -226.09090528 </i>
    <i name="e_0_energy">   -226.22336380 </i>
   </energy>
  </scstep>
  <scstep>
   <time name="diag">    1.59    1.59</time>
   <time name="diis">    4.25    4.27</time>
   <time name="orth">    0.45    0.45</time>
   <time name="total">    6.61    6.65</time>
   <dipole>
    <v name="dipole">      0.00000000       0.00000000       1.16177842 </v>
    <i name="Tr[quadrupol]"> -11206.72938416 </i>
    <i name="Echarged">      0.00000000 </i>
    <i name="Edipol_quadrupol">      0.00000000 </i>
    <i name="Eion">      0.00000000 </i>
   </dipole>
   <energy>
    <i name="e_fr_energy">   -226.35553929 </i>
    <i name="e_wo_entrp">   -226.09227163 </i>
    <i name="e_0_energy">   -226.22390546 </i>
   </energy>
  </scstep>
  <scstep>
   <time name="diag">    1.58    1.59</time>
   <time name="diis">    4.13    4.23</time>
   <time name="orth">    0.45    0.45</time>
   <time name="total">    6.49    6.61</time>
   <dipole>
    <v name="dipole">      0.00000000       0.00000000       1.16157001 </v>
    <i name="Tr[quadrupol]"> -11206.74819439 </i>
    <i name="Echarged">      0.00000000 </i>
    <i name="Edipol_quadrupol">      0.00000000 </i>
    <i name="Eion">      0.00000000 </i>
   </dipole>
   <energy>
    <i name="e_fr_energy">   -226.35533714 </i>
    <i name="e_wo_entrp">   -226.09237178 </i>
    <i name="e_0_energy">   -226.22385446 </i>
   </energy>
  </scstep>
  <scstep>
   <time name="diag">    1.58    1.59</time>
   <time name="diis">    4.23    4.25</time>
   <time name="orth">    0.45    0.45</time>
   <time name="total">    6.59    6.63</time>
   <dipole>
    <v name="dipole">      0.00000000       0.00000000       1.16077971 </v>
    <i name="Tr[quadrupol]"> -11206.76079283 </i>
    <i name="Echarged">      0.00000000 </i>
    <i name="Edipol_quadrupol">      0.00000000 </i>
    <i name="Eion">      0.00000000 </i>
   </dipole>
   <energy>
    <i name="e_fr_energy">   -226.35517591 </i>
    <i name="e_wo_entrp">   -226.09223402 </i>
    <i name="e_0_energy">   -226.22370497 </i>
   </energy>
  </scstep>
  <scstep>
   <time name="diag">    1.58    1.58</time>
   <time name="diis">    4.22    4.24</time>
   <time name="orth">    0.45    0.45</time>
   <time name="total">    6.57    6.61</time>
   <dipole>
    <v name="dipole">      0.00000000       0.00000000       1.15925887 </v>
    <i name="Tr[quadrupol]"> -11206.77189412 </i>
    <i name="Echarged">      0.00000000 </i>
    <i name="Edipol_quadrupol">      0.00000000 </i>
    <i name="Eion">      0.00000000 </i>
   </dipole>
   <energy>
    <i name="e_fr_energy">   -226.35523545 </i>
    <i name="e_wo_entrp">   -226.09230790 </i>
    <i name="e_0_energy">   -226.22377167 </i>
   </energy>
  </scstep>
  <scstep>
   <time name="diag">    1.58    1.59</time>
   <time name="diis">    4.19    4.21</time>
   <time name="orth">    0.45    0.45</time>
   <time name="total">    6.57    6.60</time>
   <dipole>
    <v name="dipole">      0.00000000       0.00000000       1.15785900 </v>
    <i name="Tr[quadrupol]"> -11206.78893736 </i>
    <i name="Echarged">      0.00000000 </i>
    <i name="Edipol_quadrupol">      0.00000000 </i>
    <i name="Eion">      0.00000000 </i>
   </dipole>
   <energy>
    <i name="e_fr_energy">   -226.35533996 </i>
    <i name="e_wo_entrp">   -226.09253425 </i>
    <i name="e_0_energy">   -226.22393711 </i>
   </energy>
  </scstep>
  <scstep>
   <time name="diag">    1.58    1.59</time>
   <time name="diis">    4.15    4.17</time>
   <time name="orth">    0.45    0.45</time>
   <time name="total">    6.51    6.55</time>
   <dipole>
    <v name="dipole">      0.00000000       0.00000000       1.15667142 </v>
    <i name="Tr[quadrupol]"> -11206.79934129 </i>
    <i name="Echarged">      0.00000000 </i>
    <i name="Edipol_quadrupol">      0.00000000 </i>
    <i name="Eion">      0.00000000 </i>
   </dipole>
   <energy>
    <i name="e_fr_energy">   -226.35542595 </i>
    <i name="e_wo_entrp">   -226.09262509 </i>
    <i name="e_0_energy">   -226.22402552 </i>
   </energy>
  </scstep>
  <scstep>
   <time name="diag">    1.58    1.59</time>
   <time name="diis">    3.88    3.90</time>
   <time name="orth">    0.45    0.45</time>
   <time name="total">    6.25    6.29</time>
   <dipole>
    <v name="dipole">      0.00000000       0.00000000       1.15580775 </v>
    <i name="Tr[quadrupol]"> -11206.81265238 </i>
    <i name="Echarged">      0.00000000 </i>
    <i name="Edipol_quadrupol">      0.00000000 </i>
    <i name="Eion">      0.00000000 </i>
   </dipole>
   <energy>
    <i name="e_fr_energy">   -226.35553314 </i>
    <i name="e_wo_entrp">   -226.09274746 </i>
    <i name="e_0_energy">   -226.22414030 </i>
   </energy>
  </scstep>
  <scstep>
   <time name="diag">    1.58    1.59</time>
   <time name="diis">    3.33    3.34</time>
   <time name="orth">    0.45    0.45</time>
   <time name="total">    5.68    5.72</time>
   <dipole>
    <v name="dipole">      0.00000000       0.00000000       1.15516938 </v>
    <i name="Tr[quadrupol]"> -11206.82196069 </i>
    <i name="Echarged">      0.00000000 </i>
    <i name="Edipol_quadrupol">      0.00000000 </i>
    <i name="Eion">      0.00000000 </i>
   </dipole>
[...]
       <r>   -19.5254    12.4317    13.9456 </r>
       <r>   -19.4310    12.5159    15.1269 </r>
       <r>   -19.3367     7.8802    15.8706 </r>
       <r>   -19.2423     1.3246    15.9957 </r>
       <r>   -19.1479     0.0457    16.0000 </r>
       <r>   -19.0535     0.0003    16.0000 </r>
       <r>   -18.9591     0.0000    16.0000 </r>
       <r>   -18.8648     0.0000    16.0000 </r>
       <r>   -18.7704     0.0000    16.0000 </r>
       <r>   -18.6760     0.0000    16.0000 </r>
       <r>   -18.5816     0.0000    16.0000 </r>
       <r>   -18.4872     0.0000    16.0000 </r>
       <r>   -18.3929     0.0000    16.0000 </r>
       <r>   -18.2985     0.0000    16.0000 </r>
       <r>   -18.2041     0.0000    16.0000 </r>
       <r>   -18.1097     0.0000    16.0000 </r>
       <r>   -18.0153     0.0000    16.0000 </r>
       <r>   -17.9210     0.0000    16.0000 </r>
       <r>   -17.8266     0.0000    16.0000 </r>
       <r>   -17.7322     0.0000    16.0000 </r>
       <r>   -17.6378     0.0000    16.0000 </r>
       <r>   -17.5434     0.0000    16.0000 </r>
       <r>   -17.4491     0.0000    16.0000 </r>
       <r>   -17.3547     0.0000    16.0000 </r>
       <r>   -17.2603     0.0000    16.0000 </r>
       <r>   -17.1659     0.0000    16.0000 </r>
       <r>   -17.0715     0.0000    16.0000 </r>
       <r>   -16.9772     0.0000    16.0000 </r>
       <r>   -16.8828     0.0000    16.0000 </r>
       <r>   -16.7884     0.0000    16.0000 </r>
       <r>   -16.6940     0.0000    16.0000 </r>
       <r>   -16.5996     0.0000    16.0000 </r>
       <r>   -16.5053     0.0000    16.0000 </r>
       <r>   -16.4109     0.0000    16.0000 </r>
       <r>   -16.3165     0.0000    16.0000 </r>
       <r>   -16.2221     0.0000    16.0000 </r>
       <r>   -16.1277     0.0000    16.0000 </r>
       <r>   -16.0334     0.0000    16.0000 </r>
       <r>   -15.9390     0.0000    16.0000 </r>
       <r>   -15.8446     0.0000    16.0000 </r>
       <r>   -15.7502     0.0000    16.0000 </r>
       <r>   -15.6558     0.0000    16.0000 </r>
       <r>   -15.5614     0.0000    16.0000 </r>
       <r>   -15.4671     0.0000    16.0000 </r>
       <r>   -15.3727     0.0000    16.0000 </r>
       <r>   -15.2783     0.0000    16.0000 </r>
       <r>   -15.1839     0.0000    16.0000 </r>
       <r>   -15.0895     0.0000    16.0000 </r>
       <r>   -14.9952     0.0000    16.0000 </r>
       <r>   -14.9008     0.0000    16.0000 </r>
       <r>   -14.8064     0.0000    16.0000 </r>
       <r>   -14.7120     0.0000    16.0000 </r>
       <r>   -14.6176     0.0000    16.0000 </r>
       <r>   -14.5233     0.0000    16.0000 </r>
       <r>   -14.4289     0.0000    16.0000 </r>
       <r>   -14.3345     0.0000    16.0000 </r>
       <r>   -14.2401     0.0000    16.0000 </r>
       <r>   -14.1457     0.0000    16.0000 </r>
       <r>   -14.0514     0.0000    16.0000 </r>
       <r>   -13.9570     0.0000    16.0000 </r>
       <r>   -13.8626     0.0000    16.0000 </r>
       <r>   -13.7682     0.0000    16.0000 </r>
       <r>   -13.6738     0.0000    16.0000 </r>
       <r>   -13.5795     0.0000    16.0000 </r>
       <r>   -13.4851     0.0000    16.0000 </r>
       <r>   -13.3907     0.0000    16.0000 </r>
       <r>   -13.2963     0.0000    16.0000 </r>
       <r>   -13.2019     0.0000    16.0000 </r>
       <r>   -13.1076     0.0000    16.0000 </r>
       <r>   -13.0132     0.0000    16.0000 </r>
       <r>   -12.9188     0.0000    16.0000 </r>
       <r>   -12.8244     0.0000    16.0000 </r>
       <r>   -12.7300     0.0000    16.0000 </r>
       <r>   -12.6357     0.0000    16.0000 </r>
       <r>   -12.5413     0.0000    16.0000 </r>
       <r>   -12.4469     0.0000    16.0000 </r>
       <r>   -12.3525     0.0000    16.0000 </r>
       <r>   -12.2581     0.0000    16.0000 </r>
       <r>   -12.1638     0.0000    16.0000 </r>
       <r>   -12.0694     0.0000    16.0000 </r>
       <r>   -11.9750     0.0000    16.0000 </r>
       <r>   -11.8806     0.0000    16.0000 </r>
       <r>   -11.7862     0.0000    16.0000 </r>
       <r>   -11.6918     0.0000    16.0000 </r>
       <r>   -11.5975     0.0000    16.0000 </r>
       <r>   -11.5031     0.0000    16.0000 </r>
       <r>   -11.4087     0.0000    16.0000 </r>
       <r>   -11.3143     0.0000    16.0000 </r>
       <r>   -11.2199     0.0000    16.0000 </r>
       <r>   -11.1256     0.0000    16.0000 </r>
       <r>   -11.0312     0.0000    16.0000 </r>
       <r>   -10.9368     0.0000    16.0000 </r>
       <r>   -10.8424     0.0000    16.0000 </r>
       <r>   -10.7480     0.0000    16.0000 </r>
       <r>   -10.6537     0.0000    16.0000 </r>
       <r>   -10.5593     0.0000    16.0000 </r>
       <r>   -10.4649     0.0000    16.0000 </r>
       <r>   -10.3705     0.0000    16.0000 </r>
       <r>   -10.2761     0.0000    16.0000 </r>
       <r>   -10.1818     0.0000    16.0000 </r>
       <r>   -10.0874     0.0000    16.0000 </r>
       <r>    -9.9930     0.0000    16.0000 </r>
       <r>    -9.8986     0.0000    16.0000 </r>
       <r>    -9.8042     0.0002    16.0000 </r>
       <r>    -9.7099     0.0235    16.0022 </r>
       <r>    -9.6155     0.6701    16.0655 </r>
       <r>    -9.5211     3.8780    16.4315 </r>
       <r>    -9.4267     5.3130    16.9329 </r>
       <r>    -9.3323     4.8424    17.3900 </r>
       <r>    -9.2380     4.9260    17.8549 </r>
       <r>    -9.1436     1.4877    17.9953 </r>
       <r>    -9.0492     0.9530    18.0852 </r>
       <r>    -8.9548     3.9768    18.4606 </r>
       <r>    -8.8604     4.7533    18.9092 </r>
       <r>    -8.7661     4.0666    19.2930 </r>
       <r>    -8.6717     5.8972    19.8496 </r>
       <r>    -8.5773     5.9266    20.4089 </r>
       <r>    -8.4829     6.0102    20.9762 </r>
       <r>    -8.3885     6.6065    21.5997 </r>
       <r>    -8.2942    13.7158    22.8942 </r>
       <r>    -8.1998    22.0818    24.9783 </r>
       <r>    -8.1054    29.7561    27.7867 </r>
       <r>    -8.0110    35.8138    31.1668 </r>
       <r>    -7.9166    36.6811    34.6288 </r>
       <r>    -7.8222    42.8011    38.6684 </r>
       <r>    -7.7279    44.4032    42.8592 </r>
       <r>    -7.6335    47.4423    47.3368 </r>
       <r>    -7.5391    47.4190    51.8122 </r>
       <r>    -7.4447    46.2748    56.1797 </r>
       <r>    -7.3503    56.0439    61.4691 </r>
       <r>    -7.2560    64.5550    67.5619 </r>
       <r>    -7.1616    65.1489    73.7106 </r>
       <r>    -7.0672    68.5544    80.1808 </r>
       <r>    -6.9728    76.0484    87.3583 </r>
       <r>    -6.8784    80.9870    95.0019 </r>
       <r>    -6.7841    84.0021   102.9301 </r>
       <r>    -6.6897    83.5732   110.8178 </r>
       <r>    -6.5953    82.0272   118.5595 </r>
       <r>    -6.5009    77.5632   125.8800 </r>
       <r>    -6.4065    74.8405   132.9435 </r>
       <r>    -6.3122    76.6182   140.1747 </r>
       <r>    -6.2178    76.9570   147.4380 </r>
       <r>    -6.1234    76.0716   154.6176 </r>
       <r>    -6.0290    77.7544   161.9561 </r>
       <r>    -5.9346    83.2794   169.8161 </r>
       <r>    -5.8403    84.2848   177.7709 </r>
       <r>    -5.7459    82.7586   185.5817 </r>
       <r>    -5.6515    80.2173   193.1527 </r>
       <r>    -5.5571    79.7484   200.6794 </r>
       <r>    -5.4627    82.6772   208.4825 </r>
       <r>    -5.3684    84.3057   216.4393 </r>
       <r>    -5.2740    85.2584   224.4860 </r>
       <r>    -5.1796    87.2099   232.7169 </r>
       <r>    -5.0852    88.9900   241.1159 </r>
       <r>    -4.9908    89.4592   249.5591 </r>
       <r>    -4.8965    89.1371   257.9719 </r>
       <r>    -4.8021    88.6860   266.3421 </r>
       <r>    -4.7077    88.4527   274.6903 </r>
       <r>    -4.6133    86.0432   282.8111 </r>
       <r>    -4.5189    84.2556   290.7632 </r>
       <r>    -4.4246    87.2263   298.9956 </r>
       <r>    -4.3302    91.2494   307.6078 </r>
       <r>    -4.2358    93.6484   316.4464 </r>
       <r>    -4.1414    93.9457   325.3130 </r>
       <r>    -4.0470    93.3810   334.1264 </r>
       <r>    -3.9526    95.2226   343.1135 </r>
       <r>    -3.8583    94.8184   352.0625 </r>
       <r>    -3.7639    92.7628   360.8175 </r>
       <r>    -3.6695    91.1687   369.4221 </r>
       <r>    -3.5751    87.9240   377.7204 </r>
       <r>    -3.4807    85.2561   385.7669 </r>
       <r>    -3.3864    82.9948   393.6000 </r>
       <r>    -3.2920    86.1304   401.7290 </r>
       <r>    -3.1976    88.4431   410.0763 </r>
       <r>    -3.1032    87.4191   418.3270 </r>
       <r>    -3.0088    90.3762   426.8567 </r>
       <r>    -2.9145    92.2208   435.5606 </r>
       <r>    -2.8201    93.4868   444.3839 </r>
       <r>    -2.7257    95.5949   453.4062 </r>
       <r>    -2.6313    90.5066   461.9483 </r>
       <r>    -2.5369    87.7082   470.2262 </r>
       <r>    -2.4426    87.4674   478.4814 </r>
       <r>    -2.3482    88.0944   486.7958 </r>
       <r>    -2.2538    91.8231   495.4621 </r>
       <r>    -2.1594    96.2529   504.5465 </r>
       <r>    -2.0650    89.6308   513.0059 </r>
       <r>    -1.9707    80.8290   520.6346 </r>
       <r>    -1.8763    76.1610   527.8227 </r>
       <r>    -1.7819    70.0732   534.4363 </r>
       <r>    -1.6875    59.8844   540.0882 </r>
       <r>    -1.5931    50.4955   544.8540 </r>
       <r>    -1.4988    45.0761   549.1083 </r>
       <r>    -1.4044    37.4527   552.6431 </r>
       <r>    -1.3100    31.5870   555.6243 </r>
       <r>    -1.2156    28.2845   558.2938 </r>
       <r>    -1.1212    25.6407   560.7138 </r>
       <r>    -1.0269    27.9824   563.3547 </r>
       <r>    -0.9325    26.5904   565.8644 </r>
       <r>    -0.8381    26.4875   568.3643 </r>
       <r>    -0.7437    32.4541   571.4273 </r>
       <r>    -0.6493    32.5716   574.5014 </r>
       <r>    -0.5550    31.1029   577.4369 </r>
       <r>    -0.4606    25.4501   579.8389 </r>
       <r>    -0.3662    15.4968   581.3015 </r>
       <r>    -0.2718    10.1860   582.2629 </r>
       <r>    -0.1774    12.2168   583.4159 </r>
       <r>    -0.0830    11.6443   584.5149 </r>
       <r>     0.0113     9.9690   585.4558 </r>
       <r>     0.1057    11.9860   586.5870 </r>
       <r>     0.2001    12.4279   587.7600 </r>
       <r>     0.2945    15.9841   589.2686 </r>
       <r>     0.3889    20.5925   591.2121 </r>
       <r>     0.4832    22.0119   593.2896 </r>
       <r>     0.5776    19.4882   595.1289 </r>
       <r>     0.6720    16.0699   596.6456 </r>
       <r>     0.7664    14.0904   597.9754 </r>
       <r>     0.8608     9.8706   598.9070 </r>
       <r>     0.9551    11.4702   599.9896 </r>
       <r>     1.0495    11.1915   601.0458 </r>
       <r>     1.1439    10.8629   602.0711 </r>
       <r>     1.2383    12.6455   603.2646 </r>
       <r>     1.3327    14.3057   604.6148 </r>
       <r>     1.4270    16.3567   606.1585 </r>
       <r>     1.5214    16.3541   607.7020 </r>
       <r>     1.6158    17.5421   609.3577 </r>
       <r>     1.7102    15.6141   610.8313 </r>
       <r>     1.8046    17.0059   612.4363 </r>
       <r>     1.8989    17.8937   614.1252 </r>
       <r>     1.9933    16.0012   615.6354 </r>
       <r>     2.0877    15.5841   617.1062 </r>
       <r>     2.1821    14.8086   618.5038 </r>
       <r>     2.2765    11.3744   619.5774 </r>
       <r>     2.3708    10.6732   620.5847 </r>
       <r>     2.4652    11.3934   621.6600 </r>
       <r>     2.5596     9.9622   622.6003 </r>
       <r>     2.6540     4.9185   623.0645 </r>
       <r>     2.7484     6.1406   623.6440 </r>
       <r>     2.8427    11.9520   624.7721 </r>
       <r>     2.9371    15.2970   626.2158 </r>
       <r>     3.0315    14.8795   627.6201 </r>
       <r>     3.1259    14.8812   629.0246 </r>
       <r>     3.2203    17.6900   630.6942 </r>
       <r>     3.3146    19.0244   632.4897 </r>
       <r>     3.4090    15.4464   633.9476 </r>
       <r>     3.5034    14.1880   635.2867 </r>
       <r>     3.5978    15.4408   636.7440 </r>
       <r>     3.6922    16.3436   638.2865 </r>
       <r>     3.7866    17.7711   639.9637 </r>
       <r>     3.8809    14.2258   641.3064 </r>
       <r>     3.9753    14.5279   642.6775 </r>
       <r>     4.0697    18.2517   644.4001 </r>
       <r>     4.1641    19.2150   646.2137 </r>
       <r>     4.2585    15.5007   647.6766 </r>
       <r>     4.3528    18.7435   649.4456 </r>
       <r>     4.4472    24.0559   651.7161 </r>
       <r>     4.5416    23.9944   653.9807 </r>
       <r>     4.6360    24.5786   656.3004 </r>
       <r>     4.7304    24.3098   658.5948 </r>
       <r>     4.8247    25.5591   661.0071 </r>
       <r>     4.9191    28.7114   663.7168 </r>
       <r>     5.0135    33.7639   666.9035 </r>
       <r>     5.1079    32.7449   669.9940 </r>
       <r>     5.2023    17.6244   671.6574 </r>
       <r>     5.2966     3.4463   671.9826 </r>
       <r>     5.3910     0.1817   671.9998 </r>
       <r>     5.4854     0.0022   672.0000 </r>
       <r>     5.5798     0.0000   672.0000 </r>
       <r>     5.6742     0.0000   672.0000 </r>
       <r>     5.7685     0.0000   672.0000 </r>
       <r>     5.8629     0.0000   672.0000 </r>
       <r>     5.9573     0.0000   672.0000 </r>
       <r>     6.0517     0.0000   672.0000 </r>
       <r>     6.1461     0.0000   672.0000 </r>
       <r>     6.2404     0.0000   672.0000 </r>
       <r>     6.3348     0.0000   672.0000 </r>
       <r>     6.4292     0.0000   672.0000 </r>
      </set>
     </set>
    </array>
   </total>
  </dos>
 </calculation>
 <structure name="finalpos" >
  <crystal>
   <varray name="basis" >
    <v>      11.00258152       0.00000000       0.00000000 </v>
    <v>       5.50129076       9.52851510       0.00000000 </v>
    <v>       0.00000000       0.00000000      26.19178509 </v>
   </varray>
   <i name="volume">   2745.90128299 </i>
   <varray name="rec_basis" >
    <v>       0.09088776      -0.05247407       0.00000000 </v>
    <v>       0.00000000       0.10494815       0.00000000 </v>
    <v>       0.00000000       0.00000000       0.03817991 </v>
   </varray>
  </crystal>
  <varray name="positions" >
   <v>       0.91579886       0.91578940       0.47108237 </v>
   <v>       0.74682390       0.01392878       0.56455015 </v>
   <v>       0.91308026       0.16780146       0.47639052 </v>
   <v>       0.66174156       0.91992054       0.47369094 </v>
   <v>       0.66107704       0.66632293       0.48122507 </v>
   <v>       0.91491798       0.41797017       0.48090878 </v>
   <v>      -0.00851324       0.24772269       0.57702067 </v>
   <v>       0.83333333       0.58333333       0.38179910 </v>
   <v>       0.08333333       0.58333333       0.38179910 </v>
   <v>       0.91868208       0.66583427       0.47939879 </v>
   <v>       0.66136280       0.41890581       0.47620998 </v>
   <v>       0.33333333       0.83333333       0.38179910 </v>
   <v>       0.83333333       0.33333333       0.38179910 </v>
   <v>       0.41143595       0.91687433       0.48185729 </v>
   <v>       0.58333333       0.83333333       0.38179910 </v>
   <v>       0.33333333       0.08333333       0.38179910 </v>
   <v>       0.16474898       0.16886692       0.47611932 </v>
   <v>       0.48525745       0.50673988       0.56663882 </v>
   <v>       0.33333333       0.33333333       0.38179910 </v>
   <v>       0.49246670       0.25077269       0.56368719 </v>
   <v>       0.58333333       0.33333333       0.38179910 </v>
   <v>       0.33333333       0.58333333       0.38179910 </v>
   <v>       0.73544414       0.75987716       0.56887002 </v>
   <v>       0.16463635       0.91594037       0.47469432 </v>
   <v>       0.09217207       0.33794104       0.61793779 </v>
   <v>       0.34658292       0.08736620       0.61408274 </v>
   <v>       0.07968582       0.84180662       0.61177241 </v>
   <v>       0.83035985       0.84849886       0.61718230 </v>
   <v>       0.32380986       0.83159568       0.61610836 </v>
   <v>       0.83856392       0.58476981       0.61958679 </v>
   <v>       0.59435655       0.31493725       0.61639261 </v>
   <v>       0.57686912       0.58979464       0.62076323 </v>
   <v>       0.25031245       0.25417173       0.56796030 </v>
   <v>       0.41177200       0.41929337       0.47465876 </v>
   <v>       0.08333333       0.08333333       0.38179910 </v>
   <v>       0.23669586       0.01058127       0.57846619 </v>
   <v>       0.50441199      -0.00005506       0.56670375 </v>
   <v>       0.41285143       0.17038532       0.47568882 </v>
   <v>       0.58333333       0.08333333       0.38179910 </v>
   <v>       0.16570761       0.66629334       0.47636841 </v>
   <v>       0.24695658       0.74832147       0.56648356 </v>
   <v>       0.41227567       0.66690224       0.47625293 </v>
   <v>       0.49783883       0.75860720       0.57578453 </v>
   <v>       0.00168857       0.74480674       0.57196128 </v>
   <v>       0.83333333       0.08333333       0.38179910 </v>
   <v>       0.66335672       0.16780374       0.47244869 </v>
   <v>       0.08333333       0.83333333       0.38179910 </v>
   <v>       0.00186750       0.50529366       0.57199049 </v>
   <v>       0.75025366       0.25362467       0.56667933 </v>
   <v>       0.08333333       0.33333333       0.38179910 </v>
   <v>       0.75319079       0.48853099       0.58288424 </v>
   <v>       0.83333333       0.83333333       0.38179910 </v>
   <v>      -0.00478948       0.00796077       0.56687157 </v>
   <v>       0.24424479       0.50199223       0.56305592 </v>
   <v>       0.16504479       0.41748079       0.47681040 </v>
   <v>       0.58333333       0.58333333       0.38179910 </v>
  </varray>
  <varray name="selective"  type="logical" >
   <v type="logical" >  T  T  T </v>
   <v type="logical" >  T  T  T </v>
   <v type="logical" >  T  T  T </v>
   <v type="logical" >  T  T  T </v>
   <v type="logical" >  T  T  T </v>
   <v type="logical" >  T  T  T </v>
   <v type="logical" >  T  T  T </v>
   <v type="logical" >  F  F  F </v>
   <v type="logical" >  F  F  F </v>
   <v type="logical" >  T  T  T </v>
   <v type="logical" >  T  T  T </v>
   <v type="logical" >  F  F  F </v>
   <v type="logical" >  F  F  F </v>
   <v type="logical" >  T  T  T </v>
   <v type="logical" >  F  F  F </v>
   <v type="logical" >  F  F  F </v>
   <v type="logical" >  T  T  T </v>
   <v type="logical" >  T  T  T </v>
   <v type="logical" >  F  F  F </v>
   <v type="logical" >  T  T  T </v>
   <v type="logical" >  F  F  F </v>
   <v type="logical" >  F  F  F </v>
   <v type="logical" >  T  T  T </v>
   <v type="logical" >  T  T  T </v>
   <v type="logical" >  T  T  T </v>
   <v type="logical" >  T  T  T </v>
   <v type="logical" >  T  T  T </v>
   <v type="logical" >  T  T  T </v>
   <v type="logical" >  T  T  T </v>
   <v type="logical" >  T  T  T </v>
   <v type="logical" >  T  T  T </v>
   <v type="logical" >  T  T  T </v>
   <v type="logical" >  T  T  T </v>
   <v type="logical" >  T  T  T </v>
   <v type="logical" >  F  F  F </v>
   <v type="logical" >  T  T  T </v>
   <v type="logical" >  T  T  T </v>
   <v type="logical" >  T  T  T </v>
   <v type="logical" >  F  F  F </v>
   <v type="logical" >  T  T  T </v>
   <v type="logical" >  T  T  T </v>
   <v type="logical" >  T  T  T </v>
   <v type="logical" >  T  T  T </v>
   <v type="logical" >  T  T  T </v>
   <v type="logical" >  F  F  F </v>
   <v type="logical" >  T  T  T </v>
   <v type="logical" >  F  F  F </v>
   <v type="logical" >  T  T  T </v>
   <v type="logical" >  T  T  T </v>
   <v type="logical" >  F  F  F </v>
   <v type="logical" >  T  T  T </v>
   <v type="logical" >  F  F  F </v>
   <v type="logical" >  T  T  T </v>
   <v type="logical" >  T  T  T </v>
   <v type="logical" >  T  T  T </v>
   <v type="logical" >  F  F  F </v>
  </varray>
  <nose>
   <v>      -3.00000000       0.00000000       0.00010000       0.00010000 </v>
  </nose>
 </structure>
</modeling>
