  48  48   0   0
  0.5349325E+02  0.1100258E-08  0.1100258E-08  0.2449179E-08  0.3500000E-15
  1.000000000000000E-004
  CAR 
 unknown system                          
      6.40392349     -9.73583206  301     -1.09339187      1.00000000
     -9.736  0.0000E+00  0.0000E+00
     -9.682  0.0000E+00  0.0000E+00
     -9.628  0.0000E+00  0.0000E+00
     -9.574  0.0000E+00  0.0000E+00
     -9.521  0.0000E+00  0.0000E+00
     -9.467  0.0000E+00  0.0000E+00
     -9.413  0.0000E+00  0.0000E+00
     -9.359  0.0000E+00  0.0000E+00
     -9.305  0.6191E-17  0.3331E-18
     -9.252  0.2355E-14  0.1270E-15
     -9.198  0.5266E-12  0.2846E-13
     -9.144  0.6717E-10  0.3642E-11
     -9.090  0.4900E-08  0.2673E-09
     -9.036  0.2049E-06  0.1129E-07
     -8.983  0.4925E-05  0.2762E-06
     -8.929  0.6822E-04  0.3947E-05
     -8.875  0.5461E-03  0.3333E-04
     -8.821  0.2532E-02  0.1695E-03
     -8.767  0.6818E-02  0.5363E-03
     -8.714  0.1075E-01  0.1115E-02
     -8.660  0.1045E-01  0.1677E-02
     -8.606  0.8199E-02  0.2118E-02
     -8.552  0.8746E-02  0.2589E-02
     -8.498  0.1038E-01  0.3147E-02
     -8.445  0.8861E-02  0.3624E-02
     -8.391  0.4914E-02  0.3888E-02
     -8.337  0.1995E-02  0.3996E-02
     -8.283  0.1724E-02  0.4088E-02
     -8.229  0.3964E-02  0.4302E-02
     -8.176  0.7595E-02  0.4710E-02
     -8.122  0.1054E-01  0.5277E-02
     -8.068  0.1171E-01  0.5907E-02
     -8.014  0.1303E-01  0.6608E-02
     -7.960  0.1659E-01  0.7501E-02
     -7.907  0.2033E-01  0.8595E-02
     -7.853  0.2034E-01  0.9689E-02
     -7.799  0.1650E-01  0.1058E-01
     -7.745  0.1208E-01  0.1123E-01
     -7.691  0.9120E-02  0.1172E-01
     -7.638  0.9064E-02  0.1220E-01
     -7.584  0.1363E-01  0.1294E-01
     -7.530  0.1970E-01  0.1400E-01
     -7.476  0.2058E-01  0.1511E-01
     -7.422  0.1721E-01  0.1603E-01
     -7.369  0.1735E-01  0.1696E-01
     -7.315  0.2265E-01  0.1818E-01
     -7.261  0.2800E-01  0.1969E-01
     -7.207  0.2970E-01  0.2129E-01
     -7.153  0.2764E-01  0.2277E-01
     -7.100  0.2527E-01  0.2413E-01
     -7.046  0.2717E-01  0.2560E-01
     -6.992  0.3289E-01  0.2737E-01
     -6.938  0.3977E-01  0.2951E-01
     -6.884  0.4948E-01  0.3217E-01
     -6.831  0.6398E-01  0.3561E-01
     -6.777  0.8090E-01  0.3996E-01
     -6.723  0.9743E-01  0.4520E-01
     -6.669  0.1122E+00  0.5124E-01
     -6.615  0.1211E+00  0.5776E-01
     -6.562  0.1205E+00  0.6424E-01
     -6.508  0.1141E+00  0.7037E-01
     -6.454  0.1102E+00  0.7630E-01
     -6.400  0.1113E+00  0.8229E-01
     -6.346  0.1153E+00  0.8850E-01
     -6.293  0.1229E+00  0.9511E-01
     -6.239  0.1379E+00  0.1025E+00
     -6.185  0.1579E+00  0.1110E+00
     -6.131  0.1705E+00  0.1202E+00
     -6.077  0.1689E+00  0.1293E+00
     -6.024  0.1606E+00  0.1379E+00
     -5.970  0.1547E+00  0.1462E+00
     -5.916  0.1509E+00  0.1544E+00
     -5.862  0.1444E+00  0.1621E+00
     -5.808  0.1362E+00  0.1695E+00
     -5.755  0.1316E+00  0.1765E+00
     -5.701  0.1330E+00  0.1837E+00
     -5.647  0.1355E+00  0.1910E+00
     -5.593  0.1338E+00  0.1982E+00
     -5.539  0.1299E+00  0.2052E+00
     -5.486  0.1299E+00  0.2122E+00
     -5.432  0.1357E+00  0.2195E+00
     -5.378  0.1440E+00  0.2272E+00
     -5.324  0.1525E+00  0.2354E+00
     -5.270  0.1616E+00  0.2441E+00
     -5.217  0.1698E+00  0.2532E+00
     -5.163  0.1752E+00  0.2627E+00
     -5.109  0.1784E+00  0.2723E+00
     -5.055  0.1781E+00  0.2818E+00
     -5.002  0.1738E+00  0.2912E+00
     -4.948  0.1706E+00  0.3004E+00
     -4.894  0.1717E+00  0.3096E+00
     -4.840  0.1743E+00  0.3190E+00
     -4.786  0.1743E+00  0.3284E+00
     -4.733  0.1714E+00  0.3376E+00
     -4.679  0.1692E+00  0.3467E+00
     -4.625  0.1716E+00  0.3559E+00
     -4.571  0.1769E+00  0.3654E+00
     -4.517  0.1791E+00  0.3751E+00
     -4.464  0.1772E+00  0.3846E+00
     -4.410  0.1767E+00  0.3941E+00
     -4.356  0.1791E+00  0.4037E+00
     -4.302  0.1805E+00  0.4134E+00
     -4.248  0.1787E+00  0.4231E+00
     -4.195  0.1778E+00  0.4326E+00
     -4.141  0.1804E+00  0.4423E+00
     -4.087  0.1830E+00  0.4522E+00
     -4.033  0.1839E+00  0.4621E+00
     -3.979  0.1848E+00  0.4720E+00
     -3.926  0.1850E+00  0.4820E+00
     -3.872  0.1849E+00  0.4919E+00
     -3.818  0.1851E+00  0.5019E+00
     -3.764  0.1840E+00  0.5118E+00
     -3.710  0.1815E+00  0.5215E+00
     -3.657  0.1791E+00  0.5312E+00
     -3.603  0.1780E+00  0.5407E+00
     -3.549  0.1806E+00  0.5505E+00
     -3.495  0.1862E+00  0.5605E+00
     -3.441  0.1908E+00  0.5708E+00
     -3.388  0.1942E+00  0.5812E+00
     -3.334  0.1967E+00  0.5918E+00
     -3.280  0.1978E+00  0.6024E+00
     -3.226  0.1970E+00  0.6130E+00
     -3.172  0.1933E+00  0.6234E+00
     -3.119  0.1878E+00  0.6335E+00
     -3.065  0.1827E+00  0.6434E+00
     -3.011  0.1791E+00  0.6530E+00
     -2.957  0.1777E+00  0.6625E+00
     -2.903  0.1794E+00  0.6722E+00
     -2.850  0.1843E+00  0.6821E+00
     -2.796  0.1884E+00  0.6923E+00
     -2.742  0.1887E+00  0.7024E+00
     -2.688  0.1887E+00  0.7126E+00
     -2.634  0.1913E+00  0.7228E+00
     -2.581  0.1939E+00  0.7333E+00
     -2.527  0.1921E+00  0.7436E+00
     -2.473  0.1877E+00  0.7537E+00
     -2.419  0.1855E+00  0.7637E+00
     -2.365  0.1868E+00  0.7737E+00
     -2.312  0.1905E+00  0.7840E+00
     -2.258  0.1942E+00  0.7944E+00
     -2.204  0.1940E+00  0.8049E+00
     -2.150  0.1891E+00  0.8151E+00
     -2.096  0.1851E+00  0.8250E+00
     -2.043  0.1871E+00  0.8351E+00
     -1.989  0.1922E+00  0.8454E+00
     -1.935  0.1947E+00  0.8559E+00
     -1.881  0.1935E+00  0.8663E+00
     -1.827  0.1889E+00  0.8765E+00
     -1.774  0.1828E+00  0.8863E+00
     -1.720  0.1802E+00  0.8960E+00
     -1.666  0.1845E+00  0.9059E+00
     -1.612  0.1932E+00  0.9163E+00
     -1.558  0.1999E+00  0.9271E+00
     -1.505  0.2018E+00  0.9379E+00
     -1.451  0.2001E+00  0.9487E+00
     -1.397  0.1964E+00  0.9593E+00
     -1.343  0.1933E+00  0.9697E+00
     -1.289  0.1881E+00  0.9798E+00
     -1.236  0.1741E+00  0.9891E+00
     -1.182  0.1524E+00  0.9973E+00
     -1.128  0.1285E+00  0.1004E+01
     -1.074  0.1039E+00  0.1010E+01
     -1.020  0.7848E-01  0.1014E+01
     -0.967  0.5337E-01  0.1017E+01
     -0.913  0.3379E-01  0.1019E+01
     -0.859  0.2348E-01  0.1020E+01
     -0.805  0.1942E-01  0.1021E+01
     -0.751  0.1769E-01  0.1022E+01
     -0.698  0.1716E-01  0.1023E+01
     -0.644  0.1771E-01  0.1024E+01
     -0.590  0.2141E-01  0.1025E+01
     -0.536  0.3067E-01  0.1027E+01
     -0.482  0.4211E-01  0.1029E+01
     -0.429  0.4778E-01  0.1032E+01
     -0.375  0.4325E-01  0.1034E+01
     -0.321  0.3478E-01  0.1036E+01
     -0.267  0.3464E-01  0.1038E+01
     -0.213  0.4276E-01  0.1040E+01
     -0.160  0.4489E-01  0.1042E+01
     -0.106  0.3545E-01  0.1044E+01
     -0.052  0.2349E-01  0.1045E+01
      0.002  0.1796E-01  0.1046E+01
      0.056  0.2129E-01  0.1048E+01
      0.109  0.3028E-01  0.1049E+01
      0.163  0.3900E-01  0.1051E+01
      0.217  0.4253E-01  0.1054E+01
      0.271  0.4084E-01  0.1056E+01
      0.325  0.3904E-01  0.1058E+01
      0.378  0.3787E-01  0.1060E+01
      0.432  0.3454E-01  0.1062E+01
      0.486  0.3220E-01  0.1064E+01
      0.540  0.3405E-01  0.1065E+01
      0.594  0.3749E-01  0.1067E+01
      0.647  0.3929E-01  0.1069E+01
      0.701  0.4003E-01  0.1072E+01
      0.755  0.4085E-01  0.1074E+01
      0.809  0.3755E-01  0.1076E+01
      0.863  0.2765E-01  0.1077E+01
      0.916  0.1952E-01  0.1078E+01
      0.970  0.2046E-01  0.1080E+01
      1.024  0.2513E-01  0.1081E+01
      1.078  0.2573E-01  0.1082E+01
      1.132  0.2163E-01  0.1083E+01
      1.185  0.1605E-01  0.1084E+01
      1.239  0.1299E-01  0.1085E+01
      1.293  0.1450E-01  0.1086E+01
      1.347  0.1741E-01  0.1087E+01
      1.401  0.1816E-01  0.1088E+01
      1.454  0.1912E-01  0.1089E+01
      1.508  0.2472E-01  0.1090E+01
      1.562  0.3281E-01  0.1092E+01
      1.616  0.3645E-01  0.1094E+01
      1.670  0.3461E-01  0.1096E+01
      1.723  0.3261E-01  0.1097E+01
      1.777  0.3357E-01  0.1099E+01
      1.831  0.3458E-01  0.1101E+01
      1.885  0.3023E-01  0.1103E+01
      1.939  0.2160E-01  0.1104E+01
      1.992  0.1710E-01  0.1105E+01
      2.046  0.1953E-01  0.1106E+01
      2.100  0.2310E-01  0.1107E+01
      2.154  0.2409E-01  0.1108E+01
      2.208  0.2585E-01  0.1110E+01
      2.261  0.3247E-01  0.1111E+01
      2.315  0.4112E-01  0.1114E+01
      2.369  0.4689E-01  0.1116E+01
      2.423  0.4902E-01  0.1119E+01
      2.477  0.4857E-01  0.1121E+01
      2.530  0.4626E-01  0.1124E+01
      2.584  0.4421E-01  0.1126E+01
      2.638  0.4569E-01  0.1129E+01
      2.692  0.4923E-01  0.1131E+01
      2.746  0.4784E-01  0.1134E+01
      2.799  0.3812E-01  0.1136E+01
      2.853  0.2551E-01  0.1137E+01
      2.907  0.1736E-01  0.1138E+01
      2.961  0.1403E-01  0.1139E+01
      3.015  0.1126E-01  0.1140E+01
      3.068  0.9815E-02  0.1140E+01
      3.122  0.1391E-01  0.1141E+01
      3.176  0.2213E-01  0.1142E+01
      3.230  0.2697E-01  0.1144E+01
      3.284  0.2410E-01  0.1145E+01
      3.337  0.1784E-01  0.1146E+01
      3.391  0.1376E-01  0.1147E+01
      3.445  0.1338E-01  0.1147E+01
      3.499  0.1685E-01  0.1148E+01
      3.553  0.2317E-01  0.1149E+01
      3.606  0.3093E-01  0.1151E+01
      3.660  0.3811E-01  0.1153E+01
      3.714  0.4012E-01  0.1155E+01
      3.768  0.3644E-01  0.1157E+01
      3.822  0.3138E-01  0.1159E+01
      3.875  0.2665E-01  0.1160E+01
      3.929  0.2379E-01  0.1162E+01
      3.983  0.2635E-01  0.1163E+01
      4.037  0.3155E-01  0.1165E+01
      4.091  0.3141E-01  0.1167E+01
      4.144  0.2605E-01  0.1168E+01
      4.198  0.2244E-01  0.1169E+01
      4.252  0.2149E-01  0.1170E+01
      4.306  0.1934E-01  0.1171E+01
      4.360  0.1726E-01  0.1172E+01
      4.413  0.1956E-01  0.1173E+01
      4.467  0.2572E-01  0.1175E+01
      4.521  0.3431E-01  0.1177E+01
      4.575  0.4597E-01  0.1179E+01
      4.629  0.5556E-01  0.1182E+01
      4.682  0.5502E-01  0.1185E+01
      4.736  0.4691E-01  0.1188E+01
      4.790  0.4215E-01  0.1190E+01
      4.844  0.4611E-01  0.1192E+01
      4.898  0.5447E-01  0.1195E+01
      4.951  0.6169E-01  0.1198E+01
      5.005  0.6559E-01  0.1202E+01
      5.059  0.6615E-01  0.1206E+01
      5.113  0.6424E-01  0.1209E+01
      5.167  0.6041E-01  0.1212E+01
      5.220  0.5666E-01  0.1215E+01
      5.274  0.5258E-01  0.1218E+01
      5.328  0.4461E-01  0.1221E+01
      5.382  0.3246E-01  0.1222E+01
      5.436  0.1933E-01  0.1223E+01
      5.489  0.8704E-02  0.1224E+01
      5.543  0.2688E-02  0.1224E+01
      5.597  0.5283E-03  0.1224E+01
      5.651  0.6316E-04  0.1224E+01
      5.705  0.4479E-05  0.1224E+01
      5.758  0.1857E-06  0.1224E+01
      5.812  0.4460E-08  0.1224E+01
      5.866  0.6164E-10  0.1224E+01
      5.920  0.4880E-12  0.1224E+01
      5.974  0.2204E-14  0.1224E+01
      6.027  0.5503E-17  0.1224E+01
      6.081  0.0000E+00  0.1224E+01
      6.135  0.0000E+00  0.1224E+01
      6.189  0.0000E+00  0.1224E+01
      6.243  0.0000E+00  0.1224E+01
      6.296  0.0000E+00  0.1224E+01
      6.350  0.0000E+00  0.1224E+01
      6.404  0.0000E+00  0.1224E+01
