<?xml version="1.0" encoding="ISO-8859-1"?>
<modeling>
 <generator>
  <i name="program" type="string">vasp </i>
  <i name="version" type="string">5.4.1  </i>
  <i name="subversion" type="string">24Jun15 (build Mar 14 2019 10:18:33) complex                          parallel </i>
  <i name="platform" type="string">INTEL-19.0.2+OPENMPI-3.1.3 </i>
  <i name="date" type="string">2023 01 31 </i>
  <i name="time" type="string">01:51:45 </i>
 </generator>
 <incar>
  <i type="int" name="ISTART">     0</i>
  <i type="string" name="PREC">normal</i>
  <i type="string" name="ALGO"> Fast</i>
  <i type="int" name="NELM">   500</i>
  <i type="int" name="IBRION">     2</i>
  <i type="int" name="NFREE">     2</i>
  <i name="EDIFF">      0.00000100</i>
  <i name="EDIFFG">     -0.02000000</i>
  <i type="int" name="NSW">   500</i>
  <i type="int" name="ISIF">     0</i>
  <i type="int" name="ISYM">     2</i>
  <i name="ENCUT">    400.00000000</i>
  <i name="POTIM">      0.35000000</i>
  <i type="string" name="LREAL"> Auto</i>
  <i type="logical" name="LPLANE"> T  </i>
  <i type="int" name="ISMEAR">     0</i>
  <i name="SIGMA">      0.10000000</i>
  <i type="int" name="NWRITE">     1</i>
  <i type="logical" name="LWAVE"> F  </i>
  <i type="logical" name="LCHARG"> F  </i>
  <i type="logical" name="LVTOT"> F  </i>
  <i type="logical" name="LORBIT"> F  </i>
  <i type="logical" name="LAECHG"> F  </i>
  <v type="int" name="KPOINT_BSE">    -1     0     0     0</v>
  <i type="int" name="NELM">   500</i>
  <i type="string" name="GGA"> PE          ! optPBE-vdW XC-functional</i>
  <i type="int" name="VOSKOWN">     1</i>
  <i type="logical" name="LDIPOL"> T  </i>
  <i type="logical" name="LMONO"> F  </i>
  <i type="int" name="IDIPOL">     3</i>
  <v name="DIPOL">      0.00000000      0.00000000      0.50000000</v>
 </incar>
 <kpoints>
  <generation param="Monkhorst-Pack">
   <v type="int" name="divisions">       2        2        1 </v>
   <v name="usershift">      0.00000000       0.00000000       0.00000000 </v>
   <v name="genvec1">      0.50000000      -0.00000000       0.00000000 </v>
   <v name="genvec2">      0.00000000       0.50000000       0.00000000 </v>
   <v name="genvec3">      0.00000000       0.00000000       1.00000000 </v>
   <v name="shift">      0.50000000       0.50000000       0.00000000 </v>
  </generation>
  <varray name="kpointlist" >
   <v>       0.25000000       0.25000000       0.00000000 </v>
   <v>       0.00000000       0.25000000       0.00000000 </v>
   <v>      -0.25000000       0.00000000       0.00000000 </v>
   <v>      -0.25000000       0.25000000       0.00000000 </v>
   <v>       0.50000000      -0.25000000       0.00000000 </v>
   <v>      -0.25000000       0.50000000       0.00000000 </v>
  </varray>
  <varray name="weights" >
   <v>       0.16666667 </v>
   <v>       0.16666667 </v>
   <v>       0.16666667 </v>
   <v>       0.16666667 </v>
   <v>       0.16666667 </v>
   <v>       0.16666667 </v>
  </varray>
 </kpoints>
 <parameters>
  <separator name="general" >
   <i type="string" name="SYSTEM">unknown system</i>
   <i type="logical" name="LCOMPAT"> F  </i>
  </separator>
  <separator name="electronic" >
   <i type="string" name="PREC">normal</i>
   <i name="ENMAX">    400.00000000</i>
   <i name="ENAUG">    416.23000000</i>
   <i name="EDIFF">      0.00000100</i>
   <i type="int" name="IALGO">    68</i>
   <i type="int" name="IWAVPR">    11</i>
   <i type="int" name="NBANDS">   306</i>
   <i name="NELECT">    504.00000000</i>
   <i type="int" name="TURBO">     0</i>
   <i type="int" name="IRESTART">     0</i>
   <i type="int" name="NREBOOT">     0</i>
   <i type="int" name="NMIN">     0</i>
   <i name="EREF">      0.00000000</i>
   <separator name="electronic smearing" >
    <i type="int" name="ISMEAR">     0</i>
    <i name="SIGMA">      0.10000000</i>
    <i name="KSPACING">      0.50000000</i>
    <i type="logical" name="KGAMMA"> T  </i>
   </separator>
   <separator name="electronic projectors" >
    <i type="logical" name="LREAL"> T  </i>
    <v name="ROPT">     -0.00050000     -0.00050000</v>
    <i type="int" name="LMAXPAW">  -100</i>
    <i type="int" name="LMAXMIX">     2</i>
    <i type="logical" name="NLSPLINE"> F  </i>
   </separator>
   <separator name="electronic startup" >
    <i type="int" name="ISTART">     0</i>
    <i type="int" name="ICHARG">     2</i>
    <i type="int" name="INIWAV">     1</i>
   </separator>
   <separator name="electronic spin" >
    <i type="int" name="ISPIN">     1</i>
    <i type="logical" name="LNONCOLLINEAR"> F  </i>
    <v name="MAGMOM">      1.00000000      1.00000000      1.00000000      1.00000000      1.00000000      1.00000000      1.00000000      1.00000000      1.00000000      1.00000000      1.00000000      1.00000000      1.00000000      1.00000000      1.00000000      1.00000000      1.00000000      1.00000000      1.00000000      1.00000000
      1.00000000      1.00000000      1.00000000      1.00000000      1.00000000      1.00000000      1.00000000      1.00000000      1.00000000      1.00000000      1.00000000      1.00000000      1.00000000      1.00000000      1.00000000      1.00000000      1.00000000      1.00000000      1.00000000      1.00000000
      1.00000000      1.00000000      1.00000000      1.00000000      1.00000000      1.00000000      1.00000000      1.00000000</v>
    <i name="NUPDOWN">     -1.00000000</i>
    <i type="logical" name="LSORBIT"> F  </i>
    <v name="SAXIS">      0.00000000      0.00000000      1.00000000</v>
    <i type="logical" name="LSPIRAL"> F  </i>
    <v name="QSPIRAL">      0.00000000      0.00000000      0.00000000</v>
    <i type="logical" name="LZEROZ"> F  </i>
   </separator>
   <separator name="electronic exchange-correlation" >
    <i type="logical" name="LASPH"> F  </i>
    <i type="logical" name="LMETAGGA"> F  </i>
   </separator>
   <separator name="electronic convergence" >
    <i type="int" name="NELM">   500</i>
    <i type="int" name="NELMDL">    -5</i>
    <i type="int" name="NELMIN">     2</i>
    <i name="ENINI">    400.00000000</i>
    <separator name="electronic convergence detail" >
     <i type="logical" name="LDIAG"> T  </i>
     <i type="logical" name="LSUBROT"> F  </i>
     <i name="WEIMIN">      0.00100000</i>
     <i name="EBREAK">      0.00000000</i>
     <i name="DEPER">      0.30000000</i>
     <i type="int" name="NRMM">     4</i>
     <i name="TIME">      0.40000000</i>
    </separator>
   </separator>
   <separator name="electronic mixer" >
    <i name="AMIX">      0.40000000</i>
    <i name="BMIX">      1.00000000</i>
    <i name="AMIN">      0.10000000</i>
    <i name="AMIX_MAG">      1.60000000</i>
    <i name="BMIX_MAG">      1.00000000</i>
    <separator name="electronic mixer details" >
     <i type="int" name="IMIX">     4</i>
     <i type="logical" name="MIXFIRST"> F  </i>
     <i type="int" name="MAXMIX">   -45</i>
     <i name="WC">    100.00000000</i>
     <i type="int" name="INIMIX">     1</i>
     <i type="int" name="MIXPRE">     1</i>
     <i type="int" name="MREMOVE">     5</i>
    </separator>
   </separator>
   <separator name="electronic dipolcorrection" >
    <i type="logical" name="LDIPOL"> T  </i>
    <i type="logical" name="LMONO"> F  </i>
    <i type="int" name="IDIPOL">     3</i>
    <i name="EPSILON">      1.00000000</i>
    <v name="DIPOL">      0.00000000      0.00000000      0.50000000</v>
    <i name="EFIELD">      0.00000000</i>
   </separator>
  </separator>
  <separator name="grids" >
   <i type="int" name="NGX">    54</i>
   <i type="int" name="NGY">    54</i>
   <i type="int" name="NGZ">   120</i>
   <i type="int" name="NGXF">   108</i>
   <i type="int" name="NGYF">   108</i>
   <i type="int" name="NGZF">   240</i>
   <i type="logical" name="ADDGRID"> F  </i>
  </separator>
  <separator name="ionic" >
   <i type="int" name="NSW">   500</i>
   <i type="int" name="IBRION">     2</i>
   <i type="int" name="ISIF">     0</i>
   <i name="PSTRESS">      0.00000000</i>
   <i name="EDIFFG">     -0.02000000</i>
   <i type="int" name="NFREE">     2</i>
   <i name="POTIM">      0.35000000</i>
   <i name="SMASS">     -3.00000000</i>
   <i name="SCALEE">      1.00000000</i>
  </separator>
  <separator name="ionic md" >
   <i name="TEBEG">      0.00010000</i>
   <i name="TEEND">      0.00010000</i>
   <i type="int" name="NBLOCK">     1</i>
   <i type="int" name="KBLOCK">   500</i>
   <i type="int" name="NPACO">   256</i>
   <i name="APACO">     16.00000000</i>
  </separator>
  <separator name="symmetry" >
   <i type="int" name="ISYM">     2</i>
   <i name="SYMPREC">      0.00001000</i>
  </separator>
  <separator name="dos" >
   <i type="logical" name="LORBIT"> F  </i>
   <v name="RWIGS">     -1.00000000     -1.00000000</v>
   <i type="int" name="NEDOS">   301</i>
   <i name="EMIN">     10.00000000</i>
   <i name="EMAX">    -10.00000000</i>
   <i name="EFERMI">      0.00000000</i>
  </separator>
  <separator name="writing" >
   <i type="int" name="NWRITE">     1</i>
   <i type="logical" name="LWAVE"> F  </i>
   <i type="logical" name="LCHARG"> F  </i>
   <i type="logical" name="LPARD"> F  </i>
   <i type="logical" name="LVTOT"> F  </i>
   <i type="logical" name="LVHAR"> F  </i>
   <i type="logical" name="LELF"> F  </i>
   <i type="logical" name="LOPTICS"> F  </i>
   <v name="STM">      0.00000000      0.00000000      0.00000000      0.00000000      0.00000000      0.00000000      0.00000000</v>
  </separator>
  <separator name="performance" >
   <i type="int" name="NPAR">     6</i>
   <i type="int" name="NSIM">     4</i>
   <i type="int" name="NBLK">    -1</i>
   <i type="logical" name="LPLANE"> T  </i>
   <i type="logical" name="LSCALAPACK"> T  </i>
   <i type="logical" name="LSCAAWARE"> F  </i>
   <i type="logical" name="LSCALU"> F  </i>
   <i type="logical" name="LASYNC"> F  </i>
   <i type="logical" name="LORBITALREAL"> F  </i>
  </separator>
  <separator name="miscellaneous" >
   <i type="int" name="IDIOT">     3</i>
   <i type="logical" name="LMUSIC"> F  </i>
   <v name="POMASS">    196.96600000    106.42000000</v>
   <v name="DARWINR">      0.00000000      0.00000000</v>
   <v name="DARWINV">      1.00000000      1.00000000</v>
   <i type="logical" name="LCORR"> T  </i>
  </separator>
  <i type="logical" name="GGA_COMPAT"> T  </i>
  <i type="logical" name="LBERRY"> F  </i>
  <i type="int" name="ICORELEVEL">     0</i>
  <i type="logical" name="LDAU"> F  </i>
  <i type="int" name="I_CONSTRAINED_M">     0</i>
  <separator name="electronic exchange-correlation" >
   <i type="string" name="GGA">PE</i>
   <i type="int" name="VOSKOWN">     1</i>
   <i type="logical" name="LHFCALC"> F  </i>
   <i type="string" name="PRECFOCK"></i>
   <i type="logical" name="LSYMGRAD"> F  </i>
   <i type="logical" name="LHFONE"> F  </i>
   <i type="logical" name="LRHFCALC"> F  </i>
   <i type="logical" name="LTHOMAS"> F  </i>
   <i type="logical" name="LMODELHF"> F  </i>
   <i name="ENCUT4O">     -1.00000000</i>
   <i type="int" name="EXXOEP">     0</i>
   <i type="int" name="FOURORBIT">     0</i>
   <i name="AEXX">      0.00000000</i>
   <i name="HFALPHA">      0.00000000</i>
   <i name="MCALPHA">      0.00000000</i>
   <i name="ALDAX">      1.00000000</i>
   <i name="AGGAX">      1.00000000</i>
   <i name="ALDAC">      1.00000000</i>
   <i name="AGGAC">      1.00000000</i>
   <i type="int" name="NKREDX">     1</i>
   <i type="int" name="NKREDY">     1</i>
   <i type="int" name="NKREDZ">     1</i>
   <i type="logical" name="SHIFTRED"> F  </i>
   <i type="logical" name="ODDONLY"> F  </i>
   <i type="logical" name="EVENONLY"> F  </i>
   <i type="int" name="LMAXFOCK">     0</i>
   <i type="int" name="NMAXFOCKAE">     0</i>
   <i type="logical" name="LFOCKAEDFT"> F  </i>
   <i name="HFSCREEN">      0.00000000</i>
   <i name="HFSCREENC">      0.00000000</i>
   <i type="int" name="NBANDSGWLOW">     0</i>
  </separator>
  <separator name="vdW DFT" >
   <i type="logical" name="LUSE_VDW"> F  </i>
   <i name="Zab_VDW">     -0.84910000</i>
   <i name="PARAM1">      0.12340000</i>
   <i name="PARAM2">      1.00000000</i>
   <i name="PARAM3">      0.00000000</i>
  </separator>
  <separator name="model GW" >
   <i type="int" name="MODEL_GW">     0</i>
   <i name="MODEL_EPS0">     32.09595293</i>
   <i name="MODEL_ALPHA">      1.00000000</i>
  </separator>
  <separator name="linear response parameters" >
   <i type="logical" name="LEPSILON"> F  </i>
   <i type="logical" name="LRPA"> F  </i>
   <i type="logical" name="LNABLA"> F  </i>
   <i type="logical" name="LVEL"> F  </i>
   <i type="int" name="KINTER">     0</i>
   <i name="CSHIFT">      0.10000000</i>
   <i name="OMEGAMAX">     -1.00000000</i>
   <i name="DEG_THRESHOLD">      0.00200000</i>
  </separator>
  <separator name="orbital magnetization" >
   <i type="logical" name="NUCIND"> F  </i>
   <v name="MAGPOS">      0.00000000      0.00000000      0.00000000</v>
   <i type="logical" name="LNICSALL"> T  </i>
   <i type="logical" name="ORBITALMAG"> F  </i>
   <i type="logical" name="LMAGBLOCH"> F  </i>
   <i type="logical" name="LCHIMAG"> F  </i>
   <i type="logical" name="LGAUGE"> T  </i>
   <i type="int" name="MAGATOM">     0</i>
   <v name="MAGDIPOL">      0.00000000      0.00000000      0.00000000</v>
   <v name="AVECCONST">      0.00000000      0.00000000      0.00000000</v>
  </separator>
  <separator name="response functions" >
   <i type="logical" name="LADDER"> F  </i>
   <i type="logical" name="LFXC"> F  </i>
   <i type="logical" name="LHARTREE"> T  </i>
   <i type="int" name="IBSE">     0</i>
   <v type="int" name="KPOINT">    -1     0     0     0</v>
   <i type="logical" name="LTCTE"> F  </i>
   <i type="logical" name="LTETE"> F  </i>
   <i type="logical" name="LTRIPLET"> F  </i>
   <i type="logical" name="LFXCEPS"> F  </i>
   <i type="logical" name="LFXHEG"> F  </i>
   <i type="int" name="NATURALO">     0</i>
   <i type="logical" name="L2ORDER"> F  </i>
   <i type="logical" name="LUSEW"> F  </i>
   <i name="ENCUTGW">     -2.00000000</i>
   <i name="ENCUTGWSOFT">     -2.00000000</i>
   <i name="ENCUTLF">     -1.00000000</i>
   <i type="int" name="LMAXMP2">    -1</i>
   <i name="SCISSOR">      0.00000000</i>
   <i type="int" name="NOMEGA">     0</i>
   <i type="int" name="NOMEGAR">     0</i>
   <i type="int" name="NBANDSGW">    -1</i>
   <i type="int" name="NBANDSO">    -1</i>
   <i type="int" name="NBANDSV">    -1</i>
   <i type="int" name="NELM">   500</i>
   <i type="int" name="NELMHF">     1</i>
   <i type="int" name="DIM">     3</i>
   <i type="int" name="ANTIRES">     0</i>
   <i name="OMEGAMAX">    -30.00000000</i>
   <i name="OMEGAMIN">    -30.00000000</i>
   <i name="OMEGATL">   -200.00000000</i>
   <i type="int" name="OMEGAGRID">     0</i>
   <i name="CSHIFT">     -0.10000000</i>
   <i type="logical" name="SELFENERGY"> F  </i>
   <i type="logical" name="LSPECTRAL"> F  </i>
   <i type="logical" name="LSPECTRALGW"> F  </i>
   <i type="logical" name="LSINGLES"> F  </i>
   <i type="logical" name="LFERMIGW"> F  </i>
   <i type="logical" name="ODDONLYGW"> F  </i>
   <i type="logical" name="EVENONLYGW"> F  </i>
   <i type="int" name="NKREDLFX">     1</i>
   <i type="int" name="NKREDLFY">     1</i>
   <i type="int" name="NKREDLFZ">     1</i>
   <i type="int" name="MAXMEM">  1800</i>
   <i type="int" name="TELESCOPE">     0</i>
   <i type="int" name="TAUPAR">     1</i>
   <i type="int" name="OMEGAPAR">    -1</i>
   <i name="LAMBDA">      1.00000000</i>
  </separator>
  <separator name="External order field" >
   <i name="OFIELD_KAPPA">      0.00000000</i>
   <v name="OFIELD_K">      0.00000000      0.00000000      0.00000000</v>
   <i name="OFIELD_Q6_NEAR">      0.00000000</i>
   <i name="OFIELD_Q6_FAR">      0.00000000</i>
   <i name="OFIELD_A">      0.00000000</i>
  </separator>
 </parameters>
 <atominfo>
  <atoms>      48 </atoms>
  <types>       2 </types>
  <array name="atoms" >
   <dimension dim="1">ion</dimension>
   <field type="string">element</field>
   <field type="int">atomtype</field>
   <set>
    <rc><c>Au</c><c>   1</c></rc>
    <rc><c>Au</c><c>   1</c></rc>
    <rc><c>Au</c><c>   1</c></rc>
    <rc><c>Au</c><c>   1</c></rc>
    <rc><c>Au</c><c>   1</c></rc>
    <rc><c>Au</c><c>   1</c></rc>
    <rc><c>Au</c><c>   1</c></rc>
    <rc><c>Au</c><c>   1</c></rc>
    <rc><c>Au</c><c>   1</c></rc>
    <rc><c>Au</c><c>   1</c></rc>
    <rc><c>Au</c><c>   1</c></rc>
    <rc><c>Au</c><c>   1</c></rc>
    <rc><c>Au</c><c>   1</c></rc>
    <rc><c>Au</c><c>   1</c></rc>
    <rc><c>Au</c><c>   1</c></rc>
    <rc><c>Au</c><c>   1</c></rc>
    <rc><c>Au</c><c>   1</c></rc>
    <rc><c>Au</c><c>   1</c></rc>
    <rc><c>Au</c><c>   1</c></rc>
    <rc><c>Au</c><c>   1</c></rc>
    <rc><c>Au</c><c>   1</c></rc>
    <rc><c>Au</c><c>   1</c></rc>
    <rc><c>Au</c><c>   1</c></rc>
    <rc><c>Au</c><c>   1</c></rc>
    <rc><c>Pd</c><c>   2</c></rc>
    <rc><c>Pd</c><c>   2</c></rc>
    <rc><c>Pd</c><c>   2</c></rc>
    <rc><c>Pd</c><c>   2</c></rc>
    <rc><c>Pd</c><c>   2</c></rc>
    <rc><c>Pd</c><c>   2</c></rc>
    <rc><c>Pd</c><c>   2</c></rc>
    <rc><c>Pd</c><c>   2</c></rc>
    <rc><c>Pd</c><c>   2</c></rc>
    <rc><c>Pd</c><c>   2</c></rc>
    <rc><c>Pd</c><c>   2</c></rc>
    <rc><c>Pd</c><c>   2</c></rc>
    <rc><c>Pd</c><c>   2</c></rc>
    <rc><c>Pd</c><c>   2</c></rc>
    <rc><c>Pd</c><c>   2</c></rc>
    <rc><c>Pd</c><c>   2</c></rc>
    <rc><c>Pd</c><c>   2</c></rc>
    <rc><c>Pd</c><c>   2</c></rc>
    <rc><c>Pd</c><c>   2</c></rc>
    <rc><c>Pd</c><c>   2</c></rc>
    <rc><c>Pd</c><c>   2</c></rc>
    <rc><c>Pd</c><c>   2</c></rc>
    <rc><c>Pd</c><c>   2</c></rc>
    <rc><c>Pd</c><c>   2</c></rc>
   </set>
  </array>
  <array name="atomtypes" >
   <dimension dim="1">type</dimension>
   <field type="int">atomspertype</field>
   <field type="string">element</field>
   <field>mass</field>
   <field>valence</field>
   <field type="string">pseudopotential</field>
   <set>
    <rc><c>  24</c><c>Au</c><c>    196.96600000</c><c>     11.00000000</c><c>  PAW_PBE Au 04Oct2007                  </c></rc>
    <rc><c>  24</c><c>Pd</c><c>    106.42000000</c><c>     10.00000000</c><c>  PAW_PBE Pd 04Jan2005                  </c></rc>
   </set>
  </array>
 </atominfo>
 <structure name="initialpos" >
  <crystal>
   <varray name="basis" >
    <v>      11.00258152       0.00000000       0.00000000 </v>
    <v>       5.50129076       9.52851510       0.00000000 </v>
    <v>       0.00000000       0.00000000      24.49178509 </v>
   </varray>
   <i name="volume">   2567.67623402 </i>
   <varray name="rec_basis" >
    <v>       0.09088776      -0.05247407       0.00000000 </v>
    <v>       0.00000000       0.10494815       0.00000000 </v>
    <v>       0.00000000       0.00000000       0.04083002 </v>
   </varray>
  </crystal>
  <varray name="positions" >
   <v>       0.75000000       0.00000000       0.59169983 </v>
   <v>       0.00000000       0.25000000       0.59169983 </v>
   <v>       0.16666667       0.16666667       0.50000000 </v>
   <v>       0.08333333       0.58333333       0.40830017 </v>
   <v>       0.75000000       0.50000000       0.59169983 </v>
   <v>       0.00000000       0.50000000       0.59169983 </v>
   <v>       0.66666667       0.66666667       0.50000000 </v>
   <v>       0.83333333       0.58333333       0.40830017 </v>
   <v>       0.00000000       0.00000000       0.59169983 </v>
   <v>       0.91666667       0.16666667       0.50000000 </v>
   <v>       0.58333333       0.58333333       0.40830017 </v>
   <v>       0.50000000       0.25000000       0.59169983 </v>
   <v>       0.08333333       0.33333333       0.40830017 </v>
   <v>       0.25000000       0.25000000       0.59169983 </v>
   <v>       0.33333333       0.58333333       0.40830017 </v>
   <v>       0.66666667       0.16666667       0.50000000 </v>
   <v>       0.83333333       0.08333333       0.40830017 </v>
   <v>       0.50000000       0.75000000       0.59169983 </v>
   <v>       0.58333333       0.83333333       0.40830017 </v>
   <v>       0.58333333       0.08333333       0.40830017 </v>
   <v>       0.41666667       0.16666667       0.50000000 </v>
   <v>       0.58333333       0.33333333       0.40830017 </v>
   <v>       0.41666667       0.66666667       0.50000000 </v>
   <v>       0.16666667       0.41666667       0.50000000 </v>
   <v>       0.16666667       0.66666667       0.50000000 </v>
   <v>       0.33333333       0.33333333       0.40830017 </v>
   <v>       0.25000000       0.00000000       0.59169983 </v>
   <v>       0.33333333       0.08333333       0.40830017 </v>
   <v>       0.91666667       0.41666667       0.50000000 </v>
   <v>       0.91666667       0.91666667       0.50000000 </v>
   <v>       0.08333333       0.83333333       0.40830017 </v>
   <v>       0.91666667       0.66666667       0.50000000 </v>
   <v>       0.25000000       0.50000000       0.59169983 </v>
   <v>       0.00000000       0.75000000       0.59169983 </v>
   <v>       0.33333333       0.83333333       0.40830017 </v>
   <v>       0.08333333       0.08333333       0.40830017 </v>
   <v>       0.66666667       0.91666667       0.50000000 </v>
   <v>       0.50000000       0.00000000       0.59169983 </v>
   <v>       0.25000000       0.75000000       0.59169983 </v>
   <v>       0.83333333       0.83333333       0.40830017 </v>
   <v>       0.66666667       0.41666667       0.50000000 </v>
   <v>       0.75000000       0.25000000       0.59169983 </v>
   <v>       0.41666667       0.91666667       0.50000000 </v>
   <v>       0.50000000       0.50000000       0.59169983 </v>
   <v>       0.83333333       0.33333333       0.40830017 </v>
   <v>       0.41666667       0.41666667       0.50000000 </v>
   <v>       0.16666667       0.91666667       0.50000000 </v>
   <v>       0.75000000       0.75000000       0.59169983 </v>
  </varray>
  <varray name="selective"  type="logical" >
   <v type="logical" >  T  T  T </v>
   <v type="logical" >  T  T  T </v>
   <v type="logical" >  T  T  T </v>
   <v type="logical" >  F  F  F </v>
   <v type="logical" >  T  T  T </v>
   <v type="logical" >  T  T  T </v>
   <v type="logical" >  T  T  T </v>
   <v type="logical" >  F  F  F </v>
   <v type="logical" >  T  T  T </v>
   <v type="logical" >  T  T  T </v>
   <v type="logical" >  F  F  F </v>
   <v type="logical" >  T  T  T </v>
   <v type="logical" >  F  F  F </v>
   <v type="logical" >  T  T  T </v>
   <v type="logical" >  F  F  F </v>
   <v type="logical" >  T  T  T </v>
   <v type="logical" >  F  F  F </v>
   <v type="logical" >  T  T  T </v>
   <v type="logical" >  F  F  F </v>
   <v type="logical" >  F  F  F </v>
   <v type="logical" >  T  T  T </v>
   <v type="logical" >  F  F  F </v>
   <v type="logical" >  T  T  T </v>
   <v type="logical" >  T  T  T </v>
   <v type="logical" >  T  T  T </v>
   <v type="logical" >  F  F  F </v>
   <v type="logical" >  T  T  T </v>
   <v type="logical" >  F  F  F </v>
   <v type="logical" >  T  T  T </v>
   <v type="logical" >  T  T  T </v>
   <v type="logical" >  F  F  F </v>
   <v type="logical" >  T  T  T </v>
   <v type="logical" >  T  T  T </v>
   <v type="logical" >  T  T  T </v>
   <v type="logical" >  F  F  F </v>
   <v type="logical" >  F  F  F </v>
   <v type="logical" >  T  T  T </v>
   <v type="logical" >  T  T  T </v>
   <v type="logical" >  T  T  T </v>
   <v type="logical" >  F  F  F </v>
   <v type="logical" >  T  T  T </v>
   <v type="logical" >  T  T  T </v>
   <v type="logical" >  T  T  T </v>
   <v type="logical" >  T  T  T </v>
   <v type="logical" >  F  F  F </v>
   <v type="logical" >  T  T  T </v>
   <v type="logical" >  T  T  T </v>
   <v type="logical" >  T  T  T </v>
  </varray>
  <nose>
   <v>      -3.00000000       0.00000000       0.00010000       0.00010000 </v>
  </nose>
 </structure>
 <calculation>
  <scstep>
   <time name="dav">    6.78    6.81</time>
   <time name="total">    6.84    6.87</time>
   <dipole>
    <v name="dipole">      0.00000000       0.00000000       0.00000074 </v>
    <i name="Tr[quadrupol]"> -10314.31169927 </i>
    <i name="Echarged">      0.00000000 </i>
    <i name="Edipol_quadrupol">      0.00000000 </i>
    <i name="Eion">      0.00000000 </i>
   </dipole>
   <energy>
    <i name="alphaZ">    805.86936440 </i>
    <i name="ewald"> 199927.79546446 </i>
    <i name="hartreedc">-242341.16823642 </i>
    <i name="XCdc">   -327.68984331 </i>
    <i name="pawpsdc">  40340.05962942 </i>
    <i name="pawaedc"> -38292.62782345 </i>
    <i name="eentropy">     -0.13771963 </i>
    <i name="bandstr">   1428.17871669 </i>
    <i name="atom">  41659.78587232 </i>
    <i name="e_fr_energy">   3200.06542449 </i>
    <i name="e_wo_entrp">   3200.20314412 </i>
    <i name="e_0_energy">   3200.13428430 </i>
   </energy>
  </scstep>
  <scstep>
   <time name="dav">    7.96    7.99</time>
   <time name="total">    7.96    7.99</time>
   <dipole>
    <v name="dipole">      0.00000000       0.00000000       0.00000074 </v>
    <i name="Tr[quadrupol]"> -10314.31169927 </i>
    <i name="Echarged">      0.00000000 </i>
    <i name="Edipol_quadrupol">      0.00000000 </i>
    <i name="Eion">      0.00000000 </i>
   </dipole>
   <energy>
    <i name="e_fr_energy">     15.47909213 </i>
    <i name="e_wo_entrp">     15.59831036 </i>
    <i name="e_0_energy">     15.53870125 </i>
   </energy>
  </scstep>
  <scstep>
   <time name="dav">    7.73    7.75</time>
   <time name="total">    7.73    7.75</time>
   <dipole>
    <v name="dipole">      0.00000000       0.00000000       0.00000074 </v>
    <i name="Tr[quadrupol]"> -10314.31169927 </i>
    <i name="Echarged">      0.00000000 </i>
    <i name="Edipol_quadrupol">      0.00000000 </i>
    <i name="Eion">      0.00000000 </i>
   </dipole>
   <energy>
    <i name="e_fr_energy">   -201.12769293 </i>
    <i name="e_wo_entrp">   -200.93510278 </i>
    <i name="e_0_energy">   -201.03139786 </i>
   </energy>
  </scstep>
  <scstep>
   <time name="dav">    7.85    7.87</time>
   <time name="total">    7.85    7.88</time>
   <dipole>
    <v name="dipole">      0.00000000       0.00000000       0.00000074 </v>
    <i name="Tr[quadrupol]"> -10314.31169927 </i>
    <i name="Echarged">      0.00000000 </i>
    <i name="Edipol_quadrupol">      0.00000000 </i>
    <i name="Eion">      0.00000000 </i>
   </dipole>
   <energy>
    <i name="e_fr_energy">   -206.97558784 </i>
    <i name="e_wo_entrp">   -206.77961729 </i>
    <i name="e_0_energy">   -206.87760256 </i>
   </energy>
  </scstep>
  <scstep>
   <time name="dav">    8.14    8.18</time>
   <time name="total">    8.39    8.45</time>
   <dipole>
    <v name="dipole">      0.00000000       0.00000000       0.00000074 </v>
    <i name="Tr[quadrupol]"> -10314.31169927 </i>
    <i name="Echarged">      0.00000000 </i>
    <i name="Edipol_quadrupol">      0.00000000 </i>
    <i name="Eion">      0.00000000 </i>
   </dipole>
   <energy>
    <i name="e_fr_energy">   -207.17288783 </i>
    <i name="e_wo_entrp">   -206.97722394 </i>
    <i name="e_0_energy">   -207.07505589 </i>
   </energy>
  </scstep>
  <scstep>
   <time name="diag">    1.20    1.24</time>
   <time name="diis">    3.30    3.31</time>
   <time name="orth">    0.29    0.29</time>
   <time name="total">    5.07    5.13</time>
   <dipole>
    <v name="dipole">      0.00000000       0.00000000       0.33931947 </v>
    <i name="Tr[quadrupol]"> -10316.39686981 </i>
    <i name="Echarged">      0.00000000 </i>
    <i name="Edipol_quadrupol">      0.00000000 </i>
    <i name="Eion">      0.00000000 </i>
   </dipole>
   <energy>
    <i name="e_fr_energy">   -200.94936471 </i>
    <i name="e_wo_entrp">   -200.67523932 </i>
    <i name="e_0_energy">   -200.81230202 </i>
   </energy>
  </scstep>
  <scstep>
   <time name="diag">    1.21    1.22</time>
   <time name="diis">    3.35    3.36</time>
   <time name="orth">    0.29    0.29</time>
   <time name="total">    5.13    5.15</time>
   <dipole>
    <v name="dipole">      0.00000000       0.00000000      -0.54067929 </v>
    <i name="Tr[quadrupol]"> -10314.01239805 </i>
    <i name="Echarged">      0.00000000 </i>
    <i name="Edipol_quadrupol">      0.00000000 </i>
    <i name="Eion">      0.00000000 </i>
   </dipole>
   <energy>
    <i name="e_fr_energy">   -204.46773684 </i>
    <i name="e_wo_entrp">   -204.27357900 </i>
    <i name="e_0_energy">   -204.37065792 </i>
   </energy>
  </scstep>
  <scstep>
   <time name="diag">    1.21    1.21</time>
   <time name="diis">    3.29    3.30</time>
   <time name="orth">    0.29    0.29</time>
   <time name="total">    5.08    5.09</time>
   <dipole>
    <v name="dipole">      0.00000000       0.00000000       1.57476621 </v>
    <i name="Tr[quadrupol]"> -10315.89591787 </i>
    <i name="Echarged">      0.00000000 </i>
    <i name="Edipol_quadrupol">      0.00000000 </i>
    <i name="Eion">      0.00000000 </i>
   </dipole>
   <energy>
    <i name="e_fr_energy">   -217.33962752 </i>
    <i name="e_wo_entrp">   -217.09831813 </i>
    <i name="e_0_energy">   -217.21897283 </i>
   </energy>
  </scstep>
  <scstep>
   <time name="diag">    1.20    1.21</time>
   <time name="diis">    3.37    3.38</time>
   <time name="orth">    0.29    0.29</time>
   <time name="total">    5.15    5.17</time>
   <dipole>
    <v name="dipole">      0.00000000       0.00000000      -1.00884952 </v>
    <i name="Tr[quadrupol]"> -10317.31555188 </i>
    <i name="Echarged">      0.00000000 </i>
    <i name="Edipol_quadrupol">      0.00000000 </i>
    <i name="Eion">      0.00000000 </i>
   </dipole>
   <energy>
    <i name="e_fr_energy">   -208.89313842 </i>
    <i name="e_wo_entrp">   -208.68327970 </i>
    <i name="e_0_energy">   -208.78820906 </i>
   </energy>
  </scstep>
  <scstep>
   <time name="diag">    1.21    1.21</time>
   <time name="diis">    3.36    3.37</time>
   <time name="orth">    0.29    0.29</time>
   <time name="total">    5.14    5.16</time>
   <dipole>
    <v name="dipole">      0.00000000       0.00000000       0.36718537 </v>
    <i name="Tr[quadrupol]"> -10316.99472810 </i>
    <i name="Echarged">      0.00000000 </i>
    <i name="Edipol_quadrupol">      0.00000000 </i>
    <i name="Eion">      0.00000000 </i>
   </dipole>
   <energy>
    <i name="e_fr_energy">   -196.58991923 </i>
    <i name="e_wo_entrp">   -196.39900290 </i>
    <i name="e_0_energy">   -196.49446107 </i>
   </energy>
  </scstep>
  <scstep>
   <time name="diag">    1.21    1.21</time>
   <time name="diis">    3.32    3.36</time>
   <time name="orth">    0.29    0.29</time>
   <time name="total">    5.10    5.14</time>
   <dipole>
    <v name="dipole">      0.00000000       0.00000000       0.09991050 </v>
    <i name="Tr[quadrupol]"> -10316.85022552 </i>
    <i name="Echarged">      0.00000000 </i>
    <i name="Edipol_quadrupol">      0.00000000 </i>
    <i name="Eion">      0.00000000 </i>
   </dipole>
   <energy>
    <i name="e_fr_energy">   -190.84347523 </i>
    <i name="e_wo_entrp">   -190.60679898 </i>
    <i name="e_0_energy">   -190.72513710 </i>
   </energy>
  </scstep>
  <scstep>
   <time name="diag">    1.21    1.22</time>
   <time name="diis">    3.33    3.34</time>
   <time name="orth">    0.29    0.29</time>
   <time name="total">    5.12    5.14</time>
   <dipole>
    <v name="dipole">      0.00000000       0.00000000       0.12329296 </v>
    <i name="Tr[quadrupol]"> -10317.22528220 </i>
    <i name="Echarged">      0.00000000 </i>
    <i name="Edipol_quadrupol">      0.00000000 </i>
    <i name="Eion">      0.00000000 </i>
   </dipole>
   <energy>
    <i name="e_fr_energy">   -189.68779557 </i>
    <i name="e_wo_entrp">   -189.46382582 </i>
    <i name="e_0_energy">   -189.57581069 </i>
   </energy>
  </scstep>
  <scstep>
   <time name="diag">    1.20    1.21</time>
   <time name="diis">    3.32    3.33</time>
   <time name="orth">    0.29    0.29</time>
   <time name="total">    5.10    5.15</time>
   <dipole>
    <v name="dipole">      0.00000000       0.00000000       0.00044713 </v>
    <i name="Tr[quadrupol]"> -10317.73338376 </i>
    <i name="Echarged">      0.00000000 </i>
    <i name="Edipol_quadrupol">      0.00000000 </i>
    <i name="Eion">      0.00000000 </i>
   </dipole>
   <energy>
    <i name="e_fr_energy">   -189.34787762 </i>
    <i name="e_wo_entrp">   -189.11431398 </i>
    <i name="e_0_energy">   -189.23109580 </i>
   </energy>
  </scstep>
  <scstep>
   <time name="diag">    1.22    1.27</time>
   <time name="diis">    3.38    3.39</time>
   <time name="orth">    0.29    0.29</time>
   <time name="total">    5.16    5.23</time>
   <dipole>
    <v name="dipole">      0.00000000       0.00000000      -0.01473661 </v>
    <i name="Tr[quadrupol]"> -10317.83457444 </i>
    <i name="Echarged">      0.00000000 </i>
    <i name="Edipol_quadrupol">      0.00000000 </i>
    <i name="Eion">      0.00000000 </i>
   </dipole>
   <energy>
    <i name="e_fr_energy">   -189.20183828 </i>
    <i name="e_wo_entrp">   -188.94547873 </i>
    <i name="e_0_energy">   -189.07365851 </i>
   </energy>
  </scstep>
  <scstep>
   <time name="diag">    1.21    1.22</time>
   <time name="diis">    3.34    3.35</time>
   <time name="orth">    0.28    0.28</time>
   <time name="total">    5.12    5.13</time>
   <dipole>
    <v name="dipole">      0.00000000       0.00000000       0.00880143 </v>
    <i name="Tr[quadrupol]"> -10317.89329124 </i>
    <i name="Echarged">      0.00000000 </i>
    <i name="Edipol_quadrupol">      0.00000000 </i>
    <i name="Eion">      0.00000000 </i>
   </dipole>
   <energy>
    <i name="e_fr_energy">   -189.19032316 </i>
    <i name="e_wo_entrp">   -188.94722150 </i>
    <i name="e_0_energy">   -189.06877233 </i>
   </energy>
  </scstep>
  <scstep>
   <time name="diag">    1.20    1.20</time>
   <time name="diis">    3.39    3.39</time>
   <time name="orth">    0.28    0.28</time>
   <time name="total">    5.15    5.17</time>
   <dipole>
    <v name="dipole">      0.00000000       0.00000000       0.04185139 </v>
    <i name="Tr[quadrupol]"> -10318.17657019 </i>
    <i name="Echarged">      0.00000000 </i>
    <i name="Edipol_quadrupol">      0.00000000 </i>
    <i name="Eion">      0.00000000 </i>
   </dipole>
   <energy>
    <i name="e_fr_energy">   -189.09682910 </i>
    <i name="e_wo_entrp">   -188.84223583 </i>
    <i name="e_0_energy">   -188.96953247 </i>
   </energy>
  </scstep>
  <scstep>
   <time name="diag">    1.20    1.21</time>
   <time name="diis">    3.39    3.39</time>
   <time name="orth">    0.28    0.28</time>
   <time name="total">    5.16    5.18</time>
   <dipole>
    <v name="dipole">      0.00000000       0.00000000       0.04742305 </v>
    <i name="Tr[quadrupol]"> -10318.34095184 </i>
    <i name="Echarged">      0.00000000 </i>
    <i name="Edipol_quadrupol">      0.00000000 </i>
    <i name="Eion">      0.00000000 </i>
   </dipole>
   <energy>
    <i name="e_fr_energy">   -189.00595833 </i>
    <i name="e_wo_entrp">   -188.75183868 </i>
    <i name="e_0_energy">   -188.87889851 </i>
   </energy>
  </scstep>
  <scstep>
   <time name="diag">    1.20    1.21</time>
   <time name="diis">    3.34    3.35</time>
   <time name="orth">    0.28    0.28</time>
   <time name="total">    5.11    5.13</time>
   <dipole>
    <v name="dipole">      0.00000000       0.00000000       0.03880510 </v>
    <i name="Tr[quadrupol]"> -10318.59894217 </i>
    <i name="Echarged">      0.00000000 </i>
    <i name="Edipol_quadrupol">      0.00000000 </i>
    <i name="Eion">      0.00000000 </i>
   </dipole>
   <energy>
    <i name="e_fr_energy">   -188.98154373 </i>
    <i name="e_wo_entrp">   -188.72018493 </i>
    <i name="e_0_energy">   -188.85086433 </i>
   </energy>
  </scstep>
  <scstep>
   <time name="diag">    1.20    1.21</time>
   <time name="diis">    3.40    3.41</time>
   <time name="orth">    0.29    0.29</time>
   <time name="total">    5.18    5.20</time>
   <dipole>
    <v name="dipole">      0.00000000       0.00000000       0.01984217 </v>
    <i name="Tr[quadrupol]"> -10318.76235998 </i>
    <i name="Echarged">      0.00000000 </i>
    <i name="Edipol_quadrupol">      0.00000000 </i>
    <i name="Eion">      0.00000000 </i>
   </dipole>
   <energy>
    <i name="e_fr_energy">   -188.95600101 </i>
    <i name="e_wo_entrp">   -188.69182503 </i>
    <i name="e_0_energy">   -188.82391302 </i>
   </energy>
  </scstep>
  <scstep>
   <time name="diag">    1.20    1.20</time>
   <time name="diis">    3.35    3.36</time>
   <time name="orth">    0.28    0.28</time>
   <time name="total">    5.12    5.13</time>
   <dipole>
    <v name="dipole">      0.00000000       0.00000000       0.01612629 </v>
    <i name="Tr[quadrupol]"> -10318.87295004 </i>
    <i name="Echarged">      0.00000000 </i>
    <i name="Edipol_quadrupol">      0.00000000 </i>
    <i name="Eion">      0.00000000 </i>
   </dipole>
   <energy>
    <i name="e_fr_energy">   -188.95094276 </i>
    <i name="e_wo_entrp">   -188.68642856 </i>
    <i name="e_0_energy">   -188.81868566 </i>
   </energy>
  </scstep>
  <scstep>
   <time name="diag">    1.20    1.20</time>
   <time name="diis">    3.31    3.41</time>
   <time name="orth">    0.28    0.28</time>
   <time name="total">    5.09    5.19</time>
   <dipole>
    <v name="dipole">      0.00000000       0.00000000       0.01321908 </v>
    <i name="Tr[quadrupol]"> -10318.99937439 </i>
    <i name="Echarged">      0.00000000 </i>
    <i name="Edipol_quadrupol">      0.00000000 </i>
    <i name="Eion">      0.00000000 </i>
   </dipole>
   <energy>
    <i name="e_fr_energy">   -188.94711417 </i>
    <i name="e_wo_entrp">   -188.68120297 </i>
    <i name="e_0_energy">   -188.81415857 </i>
   </energy>
  </scstep>
  <scstep>
   <time name="diag">    1.20    1.21</time>
   <time name="diis">    3.35    3.36</time>
   <time name="orth">    0.28    0.28</time>
   <time name="total">    5.12    5.13</time>
   <dipole>
    <v name="dipole">      0.00000000       0.00000000       0.01683873 </v>
    <i name="Tr[quadrupol]"> -10319.10661254 </i>
    <i name="Echarged">      0.00000000 </i>
    <i name="Edipol_quadrupol">      0.00000000 </i>
    <i name="Eion">      0.00000000 </i>
   </dipole>
   <energy>
    <i name="e_fr_energy">   -188.94661309 </i>
    <i name="e_wo_entrp">   -188.68184541 </i>
    <i name="e_0_energy">   -188.81422925 </i>
   </energy>
  </scstep>
  <scstep>
   <time name="diag">    1.20    1.21</time>
   <time name="diis">    3.33    3.34</time>
   <time name="orth">    0.28    0.28</time>
   <time name="total">    5.10    5.12</time>
   <dipole>
    <v name="dipole">      0.00000000       0.00000000       0.01956623 </v>
    <i name="Tr[quadrupol]"> -10319.21715391 </i>
    <i name="Echarged">      0.00000000 </i>
    <i name="Edipol_quadrupol">      0.00000000 </i>
    <i name="Eion">      0.00000000 </i>
   </dipole>
   <energy>
    <i name="e_fr_energy">   -188.94575991 </i>
    <i name="e_wo_entrp">   -188.68090120 </i>
    <i name="e_0_energy">   -188.81333056 </i>
   </energy>
  </scstep>
  <scstep>
   <time name="diag">    1.20    1.20</time>
   <time name="diis">    3.36    3.37</time>
   <time name="orth">    0.28    0.28</time>
   <time name="total">    5.13    5.15</time>
   <dipole>
    <v name="dipole">      0.00000000       0.00000000       0.01664384 </v>
    <i name="Tr[quadrupol]"> -10319.28670127 </i>
    <i name="Echarged">      0.00000000 </i>
    <i name="Edipol_quadrupol">      0.00000000 </i>
    <i name="Eion">      0.00000000 </i>
   </dipole>
   <energy>
    <i name="e_fr_energy">   -188.94557232 </i>
    <i name="e_wo_entrp">   -188.67973743 </i>
    <i name="e_0_energy">   -188.81265488 </i>
   </energy>
  </scstep>
  <scstep>
   <time name="diag">    1.20    1.21</time>
   <time name="diis">    3.35    3.36</time>
   <time name="orth">    0.28    0.28</time>
   <time name="total">    5.12    5.14</time>
   <dipole>
    <v name="dipole">      0.00000000       0.00000000       0.01576572 </v>
    <i name="Tr[quadrupol]"> -10319.33590662 </i>
    <i name="Echarged">      0.00000000 </i>
    <i name="Edipol_quadrupol">      0.00000000 </i>
    <i name="Eion">      0.00000000 </i>
   </dipole>
   <energy>
    <i name="e_fr_energy">   -188.94560304 </i>
    <i name="e_wo_entrp">   -188.68005481 </i>
    <i name="e_0_energy">   -188.81282893 </i>
   </energy>
  </scstep>
  <scstep>
   <time name="diag">    1.20    1.20</time>
   <time name="diis">    3.38    3.39</time>
   <time name="orth">    0.28    0.28</time>
   <time name="total">    5.15    5.16</time>
   <dipole>
    <v name="dipole">      0.00000000       0.00000000       0.01520320 </v>
    <i name="Tr[quadrupol]"> -10319.38695972 </i>
    <i name="Echarged">      0.00000000 </i>
    <i name="Edipol_quadrupol">      0.00000000 </i>
    <i name="Eion">      0.00000000 </i>
   </dipole>
   <energy>
    <i name="e_fr_energy">   -188.94585219 </i>
    <i name="e_wo_entrp">   -188.68020130 </i>
    <i name="e_0_energy">   -188.81302675 </i>
   </energy>
  </scstep>
  <scstep>
   <time name="diag">    1.20    1.21</time>
   <time name="diis">    3.40    3.41</time>
   <time name="orth">    0.28    0.28</time>
   <time name="total">    5.17    5.18</time>
   <dipole>
    <v name="dipole">      0.00000000       0.00000000       0.01484267 </v>
    <i name="Tr[quadrupol]"> -10319.45668043 </i>
    <i name="Echarged">      0.00000000 </i>
    <i name="Edipol_quadrupol">      0.00000000 </i>
    <i name="Eion">      0.00000000 </i>
   </dipole>
   <energy>
    <i name="e_fr_energy">   -188.94642627 </i>
    <i name="e_wo_entrp">   -188.68098545 </i>
    <i name="e_0_energy">   -188.81370586 </i>
   </energy>
  </scstep>
  <scstep>
   <time name="diag">    1.20    1.20</time>
   <time name="diis">    3.51    3.52</time>
   <time name="orth">    0.28    0.28</time>
   <time name="total">    5.28    5.29</time>
   <dipole>
    <v name="dipole">      0.00000000       0.00000000       0.01468977 </v>
    <i name="Tr[quadrupol]"> -10319.48270412 </i>
    <i name="Echarged">      0.00000000 </i>
    <i name="Edipol_quadrupol">      0.00000000 </i>
    <i name="Eion">      0.00000000 </i>
   </dipole>
   <energy>
    <i name="e_fr_energy">   -188.94669915 </i>
    <i name="e_wo_entrp">   -188.68110636 </i>
    <i name="e_0_energy">   -188.81390276 </i>
   </energy>
  </scstep>
  <scstep>
   <time name="diag">    1.20    1.20</time>
   <time name="diis">    3.32    3.42</time>
   <time name="orth">    0.28    0.28</time>
   <time name="total">    5.09    5.20</time>
   <dipole>
    <v name="dipole">      0.00000000       0.00000000       0.01429238 </v>
    <i name="Tr[quadrupol]"> -10319.53687456 </i>
    <i name="Echarged">      0.00000000 </i>
    <i name="Edipol_quadrupol">      0.00000000 </i>
    <i name="Eion">      0.00000000 </i>
   </dipole>
   <energy>
    <i name="e_fr_energy">   -188.94729129 </i>
    <i name="e_wo_entrp">   -188.68181142 </i>
    <i name="e_0_energy">   -188.81455136 </i>
   </energy>
  </scstep>
  <scstep>
   <time name="diag">    1.20    1.20</time>
   <time name="diis">    3.50    3.51</time>
   <time name="orth">    0.28    0.28</time>
   <time name="total">    5.26    5.28</time>
   <dipole>
    <v name="dipole">      0.00000000       0.00000000       0.01359520 </v>
    <i name="Tr[quadrupol]"> -10319.58987477 </i>
    <i name="Echarged">      0.00000000 </i>
    <i name="Edipol_quadrupol">      0.00000000 </i>
    <i name="Eion">      0.00000000 </i>
   </dipole>
   <energy>
    <i name="e_fr_energy">   -188.94786993 </i>
    <i name="e_wo_entrp">   -188.68237596 </i>
    <i name="e_0_energy">   -188.81512294 </i>
   </energy>
  </scstep>
  <scstep>
   <time name="diag">    1.20    1.20</time>
   <time name="diis">    3.46    3.46</time>
   <time name="orth">    0.28    0.28</time>
   <time name="total">    5.22    5.24</time>
   <dipole>
    <v name="dipole">      0.00000000       0.00000000       0.01254547 </v>
    <i name="Tr[quadrupol]"> -10319.64815782 </i>
    <i name="Echarged">      0.00000000 </i>
    <i name="Edipol_quadrupol">      0.00000000 </i>
    <i name="Eion">      0.00000000 </i>
   </dipole>
   <energy>
    <i name="e_fr_energy">   -188.94845527 </i>
    <i name="e_wo_entrp">   -188.68297599 </i>
    <i name="e_0_energy">   -188.81571563 </i>
   </energy>
  </scstep>
  <scstep>
   <time name="diag">    1.20    1.20</time>
   <time name="diis">    2.66    2.66</time>
   <time name="orth">    0.28    0.28</time>
   <time name="total">    4.43    4.44</time>
   <dipole>
    <v name="dipole">      0.00000000       0.00000000       0.01213510 </v>
    <i name="Tr[quadrupol]"> -10319.66308605 </i>
    <i name="Echarged">      0.00000000 </i>
    <i name="Edipol_quadrupol">      0.00000000 </i>
    <i name="Eion">      0.00000000 </i>
   </dipole>
   <energy>
    <i name="e_fr_energy">   -188.94858251 </i>
    <i name="e_wo_entrp">   -188.68307006 </i>
    <i name="e_0_energy">   -188.81582628 </i>
   </energy>
  </scstep>
  <scstep>
   <time name="diag">    1.20    1.20</time>
   <time name="diis">    2.53    2.54</time>
   <time name="orth">    0.28    0.28</time>
   <time name="total">    4.30    4.32</time>
   <dipole>
    <v name="dipole">      0.00000000       0.00000000       0.01184173 </v>
    <i name="Tr[quadrupol]"> -10319.68098387 </i>
    <i name="Echarged">      0.00000000 </i>
    <i name="Edipol_quadrupol">      0.00000000 </i>
    <i name="Eion">      0.00000000 </i>
   </dipole>
   <energy>
    <i name="e_fr_energy">   -188.94872809 </i>
    <i name="e_wo_entrp">   -188.68321424 </i>
    <i name="e_0_energy">   -188.81597116 </i>
   </energy>
  </scstep>
  <scstep>
   <time name="diag">    1.20    1.20</time>
   <time name="diis">    2.27    2.28</time>
   <time name="orth">    0.28    0.28</time>
   <time name="total">    4.04    4.05</time>
   <dipole>
    <v name="dipole">      0.00000000       0.00000000       0.01159875 </v>
    <i name="Tr[quadrupol]"> -10319.68898112 </i>
    <i name="Echarged">      0.00000000 </i>
    <i name="Edipol_quadrupol">      0.00000000 </i>
    <i name="Eion">      0.00000000 </i>
   </dipole>
   <energy>
    <i name="e_fr_energy">   -188.94879324 </i>
    <i name="e_wo_entrp">   -188.68326589 </i>
    <i name="e_0_energy">   -188.81602956 </i>
   </energy>
  </scstep>
  <scstep>
   <time name="diag">    1.21    1.21</time>
   <time name="diis">    2.13    2.18</time>
   <time name="orth">    0.28    0.28</time>
   <time name="total">    3.91    3.96</time>
   <dipole>
    <v name="dipole">      0.00000000       0.00000000       0.01137992 </v>
    <i name="Tr[quadrupol]"> -10319.69923091 </i>
    <i name="Echarged">      0.00000000 </i>
    <i name="Edipol_quadrupol">      0.00000000 </i>
    <i name="Eion">      0.00000000 </i>
   </dipole>
   <energy>
    <i name="e_fr_energy">   -188.94886118 </i>
    <i name="e_wo_entrp">   -188.68332279 </i>
    <i name="e_0_energy">   -188.81609199 </i>
   </energy>
  </scstep>
  <scstep>
   <time name="diag">    1.20    1.20</time>
   <time name="diis">    2.04    2.04</time>
   <time name="orth">    0.28    0.28</time>
   <time name="total">    3.81    3.82</time>
   <dipole>
    <v name="dipole">      0.00000000       0.00000000       0.01126956 </v>
    <i name="Tr[quadrupol]"> -10319.70284768 </i>
    <i name="Echarged">      0.00000000 </i>
    <i name="Edipol_quadrupol">      0.00000000 </i>
    <i name="Eion">      0.00000000 </i>
   </dipole>
   <energy>
    <i name="e_fr_energy">   -188.94888725 </i>
    <i name="e_wo_entrp">   -188.68335208 </i>
    <i name="e_0_energy">   -188.81611967 </i>
   </energy>
  </scstep>
  <scstep>
   <time name="diag">    1.20    1.21</time>
   <time name="diis">    1.94    1.94</time>
   <time name="orth">    0.28    0.28</time>
   <time name="total">    3.72    3.73</time>
   <dipole>
    <v name="dipole">      0.00000000       0.00000000       0.01116191 </v>
    <i name="Tr[quadrupol]"> -10319.70652262 </i>
    <i name="Echarged">      0.00000000 </i>
    <i name="Edipol_quadrupol">      0.00000000 </i>
    <i name="Eion">      0.00000000 </i>
   </dipole>
   <energy>
    <i name="e_fr_energy">   -188.94890671 </i>
    <i name="e_wo_entrp">   -188.68336751 </i>
    <i name="e_0_energy">   -188.81613711 </i>
   </energy>
  </scstep>
  <scstep>
   <time name="diag">    1.20    1.20</time>
   <time name="diis">    1.89    1.90</time>
   <time name="orth">    0.28    0.29</time>
   <time name="total">    3.67    3.71</time>
   <dipole>
    <v name="dipole">      0.00000000       0.00000000       0.01107389 </v>
    <i name="Tr[quadrupol]"> -10319.70943610 </i>
    <i name="Echarged">      0.00000000 </i>
    <i name="Edipol_quadrupol">      0.00000000 </i>
    <i name="Eion">      0.00000000 </i>
   </dipole>
   <energy>
    <i name="e_fr_energy">   -188.94892006 </i>
    <i name="e_wo_entrp">   -188.68338402 </i>
    <i name="e_0_energy">   -188.81615204 </i>
   </energy>
  </scstep>
  <scstep>
   <time name="diag">    1.20    1.24</time>
   <time name="diis">    1.95    1.95</time>
   <time name="orth">    0.28    0.28</time>
   <time name="total">    3.71    3.76</time>
   <dipole>
    <v name="dipole">      0.00000000       0.00000000       0.01096939 </v>
    <i name="Tr[quadrupol]"> -10319.71336517 </i>
    <i name="Echarged">      0.00000000 </i>
    <i name="Edipol_quadrupol">      0.00000000 </i>
    <i name="Eion">      0.00000000 </i>
   </dipole>
   <energy>
    <i name="e_fr_energy">   -188.94893077 </i>
    <i name="e_wo_entrp">   -188.68339315 </i>
    <i name="e_0_energy">   -188.81616196 </i>
   </energy>
  </scstep>
  <scstep>
   <time name="diag">    1.20    1.20</time>
   <time name="diis">    1.50    1.50</time>
   <time name="orth">    0.28    0.28</time>
   <time name="total">    3.26    3.28</time>
   <dipole>
    <v name="dipole">      0.00000000       0.00000000       0.01092321 </v>
    <i name="Tr[quadrupol]"> -10319.71522710 </i>
    <i name="Echarged">      0.00000000 </i>
    <i name="Edipol_quadrupol">      0.00000000 </i>
    <i name="Eion">      0.00000000 </i>
   </dipole>
   <energy>
    <i name="e_fr_energy">   -188.94893230 </i>
    <i name="e_wo_entrp">   -188.68339387 </i>
    <i name="e_0_energy">   -188.81616308 </i>
   </energy>
  </scstep>
  <scstep>
   <time name="diag">    1.20    1.20</time>
   <time name="diis">    1.39    1.40</time>
   <time name="orth">    0.28    0.28</time>
   <time name="total">    2.92    2.93</time>
   <dipole>
    <v name="dipole">      0.00000000       0.00000000       0.01090294 </v>
    <i name="Tr[quadrupol]"> -10319.71615803 </i>
    <i name="Echarged">      0.00000000 </i>
    <i name="Edipol_quadrupol">      0.00000000 </i>
    <i name="Eion">      0.00000000 </i>
   </dipole>
   <energy>
    <i name="alphaZ">    805.87108580 </i>
    <i name="ewald"> 199927.79546446 </i>
    <i name="hartreedc">-242117.52487086 </i>
    <i name="XCdc">   -343.57131418 </i>
    <i name="pawpsdc">  49326.52419233 </i>
    <i name="pawaedc"> -47404.91577953 </i>
    <i name="eentropy">     -0.26553713 </i>
    <i name="bandstr">  -2042.64804590 </i>
    <i name="atom">  41659.78587232 </i>
    <i name="e_fr_energy">   -188.94893269 </i>
    <i name="e_wo_entrp">   -188.68339557 </i>
    <i name="e_0_energy">   -188.81616413 </i>
   </energy>
  </scstep>
  <structure>
   <crystal>
    <varray name="basis" >
     <v>      11.00258152       0.00000000       0.00000000 </v>
     <v>       5.50129076       9.52851510       0.00000000 </v>
     <v>       0.00000000       0.00000000      24.49178509 </v>
    </varray>
    <i name="volume">   2567.67623402 </i>
    <varray name="rec_basis" >
     <v>       0.09088776      -0.05247407       0.00000000 </v>
     <v>       0.00000000       0.10494815       0.00000000 </v>
     <v>       0.00000000       0.00000000       0.04083002 </v>
    </varray>
   </crystal>
   <varray name="positions" >
    <v>       0.75000000       0.00000000       0.59169983 </v>
    <v>       0.00000000       0.25000000       0.59169983 </v>
    <v>       0.16666667       0.16666667       0.50000000 </v>
    <v>       0.08333333       0.58333333       0.40830017 </v>
    <v>       0.75000000       0.50000000       0.59169983 </v>
    <v>       0.00000000       0.50000000       0.59169983 </v>
    <v>       0.66666667       0.66666667       0.50000000 </v>
    <v>       0.83333333       0.58333333       0.40830017 </v>
    <v>       0.00000000       0.00000000       0.59169983 </v>
    <v>       0.91666667       0.16666667       0.50000000 </v>
    <v>       0.58333333       0.58333333       0.40830017 </v>
    <v>       0.50000000       0.25000000       0.59169983 </v>
    <v>       0.08333333       0.33333333       0.40830017 </v>
    <v>       0.25000000       0.25000000       0.59169983 </v>
    <v>       0.33333333       0.58333333       0.40830017 </v>
    <v>       0.66666667       0.16666667       0.50000000 </v>
    <v>       0.83333333       0.08333333       0.40830017 </v>
    <v>       0.50000000       0.75000000       0.59169983 </v>
    <v>       0.58333333       0.83333333       0.40830017 </v>
    <v>       0.58333333       0.08333333       0.40830017 </v>
    <v>       0.41666667       0.16666667       0.50000000 </v>
    <v>       0.58333333       0.33333333       0.40830017 </v>
    <v>       0.41666667       0.66666667       0.50000000 </v>
    <v>       0.16666667       0.41666667       0.50000000 </v>
    <v>       0.16666667       0.66666667       0.50000000 </v>
    <v>       0.33333333       0.33333333       0.40830017 </v>
    <v>       0.25000000       0.00000000       0.59169983 </v>
    <v>       0.33333333       0.08333333       0.40830017 </v>
    <v>       0.91666667       0.41666667       0.50000000 </v>
    <v>       0.91666667       0.91666667       0.50000000 </v>
    <v>       0.08333333       0.83333333       0.40830017 </v>
    <v>       0.91666667       0.66666667       0.50000000 </v>
    <v>       0.25000000       0.50000000       0.59169983 </v>
    <v>       0.00000000       0.75000000       0.59169983 </v>
    <v>       0.33333333       0.83333333       0.40830017 </v>
    <v>       0.08333333       0.08333333       0.40830017 </v>
    <v>       0.66666667       0.91666667       0.50000000 </v>
    <v>       0.50000000       0.00000000       0.59169983 </v>
    <v>       0.25000000       0.75000000       0.59169983 </v>
    <v>       0.83333333       0.83333333       0.40830017 </v>
    <v>       0.66666667       0.41666667       0.50000000 </v>
    <v>       0.75000000       0.25000000       0.59169983 </v>
    <v>       0.41666667       0.91666667       0.50000000 </v>
    <v>       0.50000000       0.50000000       0.59169983 </v>
    <v>       0.83333333       0.33333333       0.40830017 </v>
    <v>       0.41666667       0.41666667       0.50000000 </v>
    <v>       0.16666667       0.91666667       0.50000000 </v>
    <v>       0.75000000       0.75000000       0.59169983 </v>
   </varray>
  </structure>
  <varray name="forces" >
   <v>      -0.12554677      -0.39082036       1.33978001 </v>
   <v>      -0.14473702      -0.05677309       1.63454817 </v>
   <v>      -0.11588466      -0.71097213      -0.34443253 </v>
   <v>       0.13530282       0.36269884      -1.31018441 </v>
   <v>      -0.22558084      -0.15723832       1.35178598 </v>
   <v>       0.13537593       0.53183565       1.33661915 </v>
   <v>       0.48998421       0.12172977       0.25895639 </v>
   <v>       0.13182501      -0.07358955      -1.37132725 </v>
   <v>       0.13829118      -0.40537050       1.35430364 </v>
   <v>       0.02227478       0.20385097      -0.29681415 </v>
   <v>      -0.01117322      -0.14675112      -1.60241161 </v>
   <v>       0.13737033       0.36142216       1.56522109 </v>
   <v>      -0.16104333      -0.33890478      -1.53808184 </v>
   <v>       0.14092310      -0.22704420       1.84929319 </v>
   <v>      -0.24581870       0.13576892      -1.34243056 </v>
   <v>       0.18794557       0.13912756       0.28286800 </v>
   <v>       0.37734564      -0.39397576      -1.52833077 </v>
   <v>      -0.10727250       0.36744031       1.48230868 </v>
   <v>      -0.13040374       0.37429394      -1.38865549 </v>
   <v>      -0.26338075      -0.17324392      -1.56968814 </v>
   <v>      -0.06623435      -0.34815293      -0.24201110 </v>
   <v>       0.00167792       0.15658637      -1.40910864 </v>
   <v>      -0.54125260       0.13423009       0.28771863 </v>
   <v>       0.40866808       0.55243659      -0.01415301 </v>
   <v>      -0.10354305       0.28663811       0.33490544 </v>
   <v>       0.01078939      -0.06570200      -0.89294860 </v>
   <v>       0.04285657      -0.20832580       0.72663895 </v>
   <v>      -0.14420584      -0.13900949      -0.81741895 </v>
   <v>      -0.26663706       0.12441832      -0.18297525 </v>
   <v>       0.04788673      -0.72479905      -0.12740572 </v>
   <v>       0.08818742       0.12744584      -0.46475210 </v>
   <v>       0.15265767       0.45634910       0.19025320 </v>
   <v>       0.20858219       0.39089159       0.67576841 </v>
   <v>       0.05201990      -0.09937938       0.50759977 </v>
   <v>      -0.19389080       0.38792350      -0.68923765 </v>
   <v>       0.07554253      -0.30779706      -0.76665606 </v>
   <v>       0.09180063      -0.33352482       0.19023726 </v>
   <v>      -0.08314171      -0.21560292       0.77059906 </v>
   <v>      -0.20654419      -0.07794156       0.55706321 </v>
   <v>       0.21160872       0.00440245      -0.55726109 </v>
   <v>       0.00392105      -0.12915938       0.17195461 </v>
   <v>      -0.09648200       0.24226247       0.91159015 </v>
   <v>      -0.14843680       0.17843584       0.01878604 </v>
   <v>      -0.17709188      -0.09905932       0.68414195 </v>
   <v>       0.07481717      -0.03405041      -0.74853453 </v>
   <v>      -0.01751589       0.29528377       0.22359889 </v>
   <v>       0.00988987      -0.27288167      -0.18503169 </v>
   <v>       0.19827330       0.19459733       0.68331130 </v>
  </varray>
  <energy>
   <i name="e_fr_energy">   -188.94893269 </i>
   <i name="e_wo_entrp">   -188.81616413 </i>
   <i name="e_0_energy">     -0.26553713 </i>
  </energy>
  <time name="totalsc">  212.61  213.80</time>
 </calculation>
 <calculation>
  <scstep>
   <time name="dav">    6.98    7.00</time>
   <time name="total">    7.27    7.29</time>
   <dipole>
    <v name="dipole">      0.00000000       0.00000000       0.01086010 </v>
    <i name="Tr[quadrupol]"> -10308.00877089 </i>
    <i name="Echarged">      0.00000000 </i>
    <i name="Edipol_quadrupol">      0.00000000 </i>
    <i name="Eion">      0.00000000 </i>
   </dipole>
   <energy>
    <i name="alphaZ">    805.86612134 </i>
    <i name="ewald"> 198605.22909581 </i>
    <i name="hartreedc">-240803.14420886 </i>
    <i name="XCdc">   -344.66917288 </i>
    <i name="pawpsdc">  49326.52352263 </i>
    <i name="pawaedc"> -47404.91531654 </i>
    <i name="eentropy">     -0.26544922 </i>
    <i name="bandstr">  -2033.93342689 </i>
    <i name="atom">  41659.78587232 </i>
    <i name="e_fr_energy">   -189.52296229 </i>
    <i name="e_wo_entrp">   -189.25751308 </i>
    <i name="e_0_energy">   -189.39023769 </i>
   </energy>
  </scstep>
  <scstep>
   <time name="diag">    1.20    1.20</time>
   <time name="diis">    3.34    3.35</time>
   <time name="orth">    0.28    0.28</time>
   <time name="total">    5.10    5.12</time>
   <dipole>
    <v name="dipole">      0.00000000       0.00000000       0.04977716 </v>
    <i name="Tr[quadrupol]"> -10307.87229125 </i>
    <i name="Echarged">      0.00000000 </i>
    <i name="Edipol_quadrupol">      0.00000000 </i>
    <i name="Eion">      0.00000000 </i>
   </dipole>
   <energy>
    <i name="e_fr_energy">   -189.73773704 </i>
    <i name="e_wo_entrp">   -189.47647043 </i>
    <i name="e_0_energy">   -189.60710374 </i>
   </energy>
  </scstep>
  <scstep>
   <time name="diag">    1.20    1.21</time>
   <time name="diis">    3.42    3.43</time>
   <time name="orth">    0.28    0.28</time>
   <time name="total">    5.18    5.21</time>
   <dipole>
    <v name="dipole">      0.00000000       0.00000000      -0.07861805 </v>
    <i name="Tr[quadrupol]"> -10308.07426526 </i>
    <i name="Echarged">      0.00000000 </i>
    <i name="Edipol_quadrupol">      0.00000000 </i>
    <i name="Eion">      0.00000000 </i>
   </dipole>
   <energy>
    <i name="e_fr_energy">   -189.86758698 </i>
    <i name="e_wo_entrp">   -189.60469109 </i>
    <i name="e_0_energy">   -189.73613904 </i>
   </energy>
  </scstep>
  <scstep>
   <time name="diag">    1.20    1.20</time>
   <time name="diis">    3.40    3.41</time>
   <time name="orth">    0.28    0.28</time>
   <time name="total">    5.15    5.18</time>
   <dipole>
    <v name="dipole">      0.00000000       0.00000000       0.03482107 </v>
    <i name="Tr[quadrupol]"> -10308.09343950 </i>
    <i name="Echarged">      0.00000000 </i>
    <i name="Edipol_quadrupol">      0.00000000 </i>
    <i name="Eion">      0.00000000 </i>
   </dipole>
   <energy>
    <i name="e_fr_energy">   -189.74218593 </i>
    <i name="e_wo_entrp">   -189.48213690 </i>
    <i name="e_0_energy">   -189.61216141 </i>
   </energy>
  </scstep>
  <scstep>
   <time name="diag">    1.20    1.21</time>
   <time name="diis">    3.34    3.37</time>
   <time name="orth">    0.27    0.30</time>
   <time name="total">    5.11    5.19</time>
   <dipole>
    <v name="dipole">      0.00000000       0.00000000      -0.00446683 </v>
    <i name="Tr[quadrupol]"> -10308.02214677 </i>
    <i name="Echarged">      0.00000000 </i>
    <i name="Edipol_quadrupol">      0.00000000 </i>
    <i name="Eion">      0.00000000 </i>
   </dipole>
   <energy>
    <i name="e_fr_energy">   -189.72620695 </i>
    <i name="e_wo_entrp">   -189.45993950 </i>
    <i name="e_0_energy">   -189.59307322 </i>
   </energy>
  </scstep>
  <scstep>
   <time name="diag">    1.20    1.21</time>
   <time name="diis">    3.34    3.35</time>
   <time name="orth">    0.28    0.28</time>
   <time name="total">    5.10    5.13</time>
   <dipole>
    <v name="dipole">      0.00000000       0.00000000       0.03046414 </v>
    <i name="Tr[quadrupol]"> -10308.02654029 </i>
    <i name="Echarged">      0.00000000 </i>
    <i name="Edipol_quadrupol">      0.00000000 </i>
    <i name="Eion">      0.00000000 </i>
   </dipole>
   <energy>
    <i name="e_fr_energy">   -189.72636331 </i>
    <i name="e_wo_entrp">   -189.46015191 </i>
    <i name="e_0_energy">   -189.59325761 </i>
   </energy>
  </scstep>
  <scstep>
   <time name="diag">    1.19    1.21</time>
   <time name="diis">    3.35    3.38</time>
   <time name="orth">    0.28    0.28</time>
   <time name="total">    5.11    5.16</time>
   <dipole>
    <v name="dipole">      0.00000000       0.00000000       0.02789667 </v>
    <i name="Tr[quadrupol]"> -10308.03858592 </i>
    <i name="Echarged">      0.00000000 </i>
    <i name="Edipol_quadrupol">      0.00000000 </i>
    <i name="Eion">      0.00000000 </i>
   </dipole>
   <energy>
    <i name="e_fr_energy">   -189.71486775 </i>
    <i name="e_wo_entrp">   -189.45058175 </i>
    <i name="e_0_energy">   -189.58272475 </i>
   </energy>
  </scstep>
  <scstep>
   <time name="diag">    1.20    1.20</time>
   <time name="diis">    3.34    3.34</time>
   <time name="orth">    0.28    0.28</time>
   <time name="total">    5.10    5.11</time>
   <dipole>
    <v name="dipole">      0.00000000       0.00000000       0.01885109 </v>
    <i name="Tr[quadrupol]"> -10308.02180187 </i>
    <i name="Echarged">      0.00000000 </i>
    <i name="Edipol_quadrupol">      0.00000000 </i>
    <i name="Eion">      0.00000000 </i>
   </dipole>
   <energy>
    <i name="e_fr_energy">   -189.71372309 </i>
    <i name="e_wo_entrp">   -189.44739271 </i>
    <i name="e_0_energy">   -189.58055790 </i>
   </energy>
  </scstep>
  <scstep>
   <time name="diag">    1.20    1.21</time>
   <time name="diis">    3.36    3.37</time>
   <time name="orth">    0.28    0.28</time>
   <time name="total">    5.12    5.14</time>
   <dipole>
    <v name="dipole">      0.00000000       0.00000000       0.01778302 </v>
    <i name="Tr[quadrupol]"> -10308.01737252 </i>
    <i name="Echarged">      0.00000000 </i>
    <i name="Edipol_quadrupol">      0.00000000 </i>
    <i name="Eion">      0.00000000 </i>
   </dipole>
   <energy>
    <i name="e_fr_energy">   -189.71341654 </i>
    <i name="e_wo_entrp">   -189.44757263 </i>
    <i name="e_0_energy">   -189.58049459 </i>
   </energy>
  </scstep>
  <scstep>
   <time name="diag">    1.20    1.20</time>
   <time name="diis">    3.34    3.34</time>
   <time name="orth">    0.28    0.28</time>
   <time name="total">    5.10    5.11</time>
   <dipole>
    <v name="dipole">      0.00000000       0.00000000       0.01769023 </v>
    <i name="Tr[quadrupol]"> -10308.01509629 </i>
    <i name="Echarged">      0.00000000 </i>
    <i name="Edipol_quadrupol">      0.00000000 </i>
    <i name="Eion">      0.00000000 </i>
   </dipole>
   <energy>
    <i name="e_fr_energy">   -189.71328480 </i>
    <i name="e_wo_entrp">   -189.44712946 </i>
    <i name="e_0_energy">   -189.58020713 </i>
   </energy>
  </scstep>
  <scstep>
   <time name="diag">    1.20    1.21</time>
   <time name="diis">    3.34    3.35</time>
   <time name="orth">    0.28    0.28</time>
   <time name="total">    5.10    5.12</time>
   <dipole>
    <v name="dipole">      0.00000000       0.00000000       0.01866089 </v>
    <i name="Tr[quadrupol]"> -10308.01564128 </i>
    <i name="Echarged">      0.00000000 </i>
    <i name="Edipol_quadrupol">      0.00000000 </i>
    <i name="Eion">      0.00000000 </i>
   </dipole>
   <energy>
    <i name="e_fr_energy">   -189.71321032 </i>
    <i name="e_wo_entrp">   -189.44715116 </i>
    <i name="e_0_energy">   -189.58018074 </i>
   </energy>
  </scstep>
  <scstep>
   <time name="diag">    1.20    1.20</time>
   <time name="diis">    3.38    3.39</time>
   <time name="orth">    0.28    0.28</time>
   <time name="total">    5.14    5.15</time>
   <dipole>
    <v name="dipole">      0.00000000       0.00000000       0.01830539 </v>
    <i name="Tr[quadrupol]"> -10308.01737419 </i>
    <i name="Echarged">      0.00000000 </i>
    <i name="Edipol_quadrupol">      0.00000000 </i>
    <i name="Eion">      0.00000000 </i>
   </dipole>
   <energy>
    <i name="e_fr_energy">   -189.71321042 </i>
    <i name="e_wo_entrp">   -189.44727046 </i>
    <i name="e_0_energy">   -189.58024044 </i>
   </energy>
  </scstep>
  <scstep>
   <time name="diag">    1.20    1.20</time>
   <time name="diis">    3.16    3.27</time>
   <time name="orth">    0.28    0.28</time>
   <time name="total">    4.93    5.04</time>
   <dipole>
    <v name="dipole">      0.00000000       0.00000000       0.01840341 </v>
    <i name="Tr[quadrupol]"> -10308.01926441 </i>
    <i name="Echarged">      0.00000000 </i>
    <i name="Edipol_quadrupol">      0.00000000 </i>
    <i name="Eion">      0.00000000 </i>
   </dipole>
   <energy>
    <i name="e_fr_energy">   -189.71320280 </i>
    <i name="e_wo_entrp">   -189.44719699 </i>
    <i name="e_0_energy">   -189.58019989 </i>
   </energy>
  </scstep>
  <scstep>
   <time name="diag">    1.20    1.20</time>
   <time name="diis">    2.46    2.46</time>
   <time name="orth">    0.28    0.28</time>
   <time name="total">    3.98    4.00</time>
   <dipole>
    <v name="dipole">      0.00000000       0.00000000       0.01845635 </v>
    <i name="Tr[quadrupol]"> -10308.02116067 </i>
    <i name="Echarged">      0.00000000 </i>
    <i name="Edipol_quadrupol">      0.00000000 </i>
    <i name="Eion">      0.00000000 </i>
   </dipole>
   <energy>
    <i name="alphaZ">    805.86384807 </i>
    <i name="ewald"> 198605.22909581 </i>
    <i name="hartreedc">-240803.70950783 </i>
    <i name="XCdc">   -344.64210316 </i>
    <i name="pawpsdc">  49099.63159239 </i>
    <i name="pawaedc"> -47176.56063554 </i>
    <i name="eentropy">     -0.26595906 </i>
    <i name="bandstr">  -2035.04540607 </i>
    <i name="atom">  41659.78587232 </i>
    <i name="e_fr_energy">   -189.71320306 </i>
    <i name="e_wo_entrp">   -189.44724400 </i>
    <i name="e_0_energy">   -189.58022353 </i>
   </energy>
  </scstep>
  <structure>
   <crystal>
    <varray name="basis" >
     <v>      11.00258152       0.00000000       0.00000000 </v>
     <v>       5.50129076       9.52851510       0.00000000 </v>
     <v>       0.00000000       0.00000000      24.49178509 </v>
    </varray>
    <i name="volume">   2567.67623402 </i>
    <varray name="rec_basis" >
     <v>       0.09088776      -0.05247407       0.00000000 </v>
     <v>       0.00000000       0.10494815       0.00000000 </v>
     <v>       0.00000000       0.00000000       0.04083002 </v>
    </varray>
   </crystal>
   <varray name="positions" >
    <v>       0.75030721      -0.00138510       0.59354715 </v>
    <v>      -0.00034363       0.24979879       0.59395358 </v>
    <v>       0.16757086       0.16414692       0.49952509 </v>
    <v>       0.08333333       0.58333333       0.40830017 </v>
    <v>       0.74958627       0.49944273       0.59356371 </v>
    <v>      -0.00052693       0.50188487       0.59354279 </v>
    <v>       0.66795485       0.66709809       0.50035706 </v>
    <v>       0.83333333       0.58333333       0.40830017 </v>
    <v>       0.00114279      -0.00143667       0.59356718 </v>
    <v>       0.91637380       0.16738913       0.49959075 </v>
    <v>       0.58333333       0.58333333       0.40830017 </v>
    <v>       0.49978117       0.25128091       0.59385799 </v>
    <v>       0.08333333       0.33333333       0.40830017 </v>
    <v>       0.25083486       0.24919534       0.59424968 </v>
    <v>       0.33333333       0.58333333       0.40830017 </v>
    <v>       0.66699698       0.16715975       0.50039003 </v>
    <v>       0.83333333       0.08333333       0.40830017 </v>
    <v>       0.49901963       0.75130224       0.59374367 </v>
    <v>       0.58333333       0.83333333       0.40830017 </v>
    <v>       0.58333333       0.08333333       0.40830017 </v>
    <v>       0.41708032       0.16543278       0.49966631 </v>
    <v>       0.58333333       0.33333333       0.40830017 </v>
    <v>       0.41476756       0.66714239       0.50039671 </v>
    <v>       0.16694204       0.41862455       0.49998049 </v>
    <v>       0.16584093       0.66768254       0.50046178 </v>
    <v>       0.33333333       0.33333333       0.40830017 </v>
    <v>       0.25050070      -0.00073832       0.59270174 </v>
    <v>       0.33333333       0.08333333       0.40830017 </v>
    <v>       0.91562781       0.41710762       0.49974771 </v>
    <v>       0.91809802       0.91409792       0.49982433 </v>
    <v>       0.08333333       0.83333333       0.40830017 </v>
    <v>       0.91632654       0.66828401       0.50026233 </v>
    <v>       0.24994752       0.50138535       0.59263160 </v>
    <v>       0.00033577       0.74964779       0.59239972 </v>
    <v>       0.33333333       0.83333333       0.40830017 </v>
    <v>       0.08333333       0.08333333       0.40830017 </v>
    <v>       0.66753945       0.91548463       0.50026230 </v>
    <v>       0.50012687      -0.00076411       0.59276235 </v>
    <v>       0.24950418       0.74972377       0.59246792 </v>
    <v>       0.83333333       0.83333333       0.40830017 </v>
    <v>       0.66690758       0.41620891       0.50023710 </v>
    <v>       0.74927457       0.25085860       0.59295675 </v>
    <v>       0.41589488       0.91729906       0.50002590 </v>
    <v>       0.49963200       0.49964893       0.59264314 </v>
    <v>       0.83333333       0.33333333       0.40830017 </v>
    <v>       0.41608965       0.41771318       0.50030830 </v>
    <v>       0.16718058       0.91569955       0.49974487 </v>
    <v>       0.75026372       0.75068967       0.59264200 </v>
   </varray>
  </structure>
  <varray name="forces" >
   <v>      -0.03985294      -0.16358449       0.98699164 </v>
   <v>      -0.01421504      -0.04522801       1.10873413 </v>
   <v>      -0.04935121      -0.19995845       0.22105600 </v>
   <v>       0.13215227       0.39210926      -1.31087557 </v>
   <v>      -0.14051798      -0.02108903       1.02247337 </v>
   <v>       0.07144456       0.21635441       0.93744445 </v>
   <v>       0.10904918       0.05026812       0.50072225 </v>
   <v>       0.14712304      -0.05312037      -1.35610595 </v>
   <v>       0.04815222      -0.18363603       0.92101891 </v>
   <v>       0.06268736       0.00921108       0.21844952 </v>
   <v>      -0.01685056      -0.11319899      -1.43765574 </v>
   <v>       0.03192112       0.15678364       1.12529637 </v>
   <v>      -0.13228361      -0.32811583      -1.44644502 </v>
   <v>       0.04729453      -0.08829416       1.21493230 </v>
   <v>      -0.25626453       0.13912156      -1.30824956 </v>
   <v>       0.04507160      -0.01999140       0.54067002 </v>
   <v>       0.33767119      -0.41475902      -1.48740370 </v>
   <v>      -0.06051819       0.15414934       1.07615689 </v>
   <v>      -0.14252523       0.36239371      -1.34364460 </v>
   <v>      -0.20580581      -0.18652665      -1.51443750 </v>
   <v>      -0.01810575      -0.08095857       0.26559983 </v>
   <v>      -0.01403350       0.15308557      -1.34887308 </v>
   <v>      -0.12065036       0.09502541       0.40558493 </v>
   <v>       0.11989393       0.15024068       0.40035934 </v>
   <v>      -0.07866373       0.21055077       0.29458780 </v>
   <v>       0.02286368      -0.06590214      -0.86372358 </v>
   <v>      -0.01503439      -0.08887091       0.57405508 </v>
   <v>      -0.13246281      -0.15051395      -0.90721313 </v>
   <v>      -0.02892868       0.03399768       0.25245324 </v>
   <v>       0.06413691      -0.31570539       0.14003102 </v>
   <v>       0.09412164       0.11389625      -0.50274042 </v>
   <v>       0.10496504       0.20123505       0.26019965 </v>
   <v>       0.10513235       0.23060802       0.59321183 </v>
   <v>       0.05015451      -0.04253304       0.50033474 </v>
   <v>      -0.17091572       0.35913304      -0.69210060 </v>
   <v>       0.04866969      -0.32634295      -0.84801559 </v>
   <v>       0.10892869      -0.10086088       0.28394245 </v>
   <v>      -0.01491060      -0.06624754       0.59341630 </v>
   <v>      -0.11542539      -0.05674465       0.53853024 </v>
   <v>       0.19222326       0.00950874      -0.59004588 </v>
   <v>       0.01372326       0.06237798       0.29389925 </v>
   <v>      -0.04477212       0.03494910       0.72186918 </v>
   <v>      -0.06970127      -0.07423163       0.19053031 </v>
   <v>      -0.07877241       0.01656592       0.57909644 </v>
   <v>       0.06133131      -0.01152781      -0.79562556 </v>
   <v>      -0.01520793       0.08999383       0.32449001 </v>
   <v>      -0.11031614      -0.12617876       0.03935454 </v>
   <v>       0.06737458       0.08256150       0.62766347 </v>
  </varray>
  <energy>
   <i name="e_fr_energy">   -189.71320306 </i>
   <i name="e_wo_entrp">   -189.58022353 </i>
   <i name="e_0_energy">     -0.26595906 </i>
  </energy>
  <time name="totalsc">   74.93   75.39</time>
 </calculation>
 <calculation>
  <scstep>
   <time name="dav">    6.85    6.87</time>
   <time name="total">    7.14    7.16</time>
   <dipole>
    <v name="dipole">      0.00000000       0.00000000       0.01837988 </v>
    <i name="Tr[quadrupol]"> -10276.50760035 </i>
    <i name="Echarged">      0.00000000 </i>
    <i name="Edipol_quadrupol">      0.00000000 </i>
    <i name="Eion">      0.00000000 </i>
   </dipole>
   <energy>
    <i name="alphaZ">    805.84070468 </i>
    <i name="ewald"> 195000.06429399 </i>
    <i name="hartreedc">-237217.50885761 </i>
    <i name="XCdc">   -347.12943394 </i>
    <i name="pawpsdc">  49099.53353246 </i>
    <i name="pawaedc"> -47176.46260990 </i>
    <i name="eentropy">     -0.26365148 </i>
    <i name="bandstr">  -2012.81680830 </i>
    <i name="atom">  41659.78587232 </i>
    <i name="e_fr_energy">   -188.95695778 </i>
    <i name="e_wo_entrp">   -188.69330630 </i>
    <i name="e_0_energy">   -188.82513204 </i>
   </energy>
  </scstep>
  <scstep>
   <time name="diag">    1.21    1.21</time>
   <time name="diis">    3.35    3.36</time>
   <time name="orth">    0.28    0.28</time>
   <time name="total">    5.11    5.13</time>
   <dipole>
    <v name="dipole">      0.00000000       0.00000000       0.09559231 </v>
    <i name="Tr[quadrupol]"> -10276.05061226 </i>
    <i name="Echarged">      0.00000000 </i>
    <i name="Edipol_quadrupol">      0.00000000 </i>
    <i name="Eion">      0.00000000 </i>
   </dipole>
   <energy>
    <i name="e_fr_energy">   -190.61160280 </i>
    <i name="e_wo_entrp">   -190.36063095 </i>
    <i name="e_0_energy">   -190.48611687 </i>
   </energy>
  </scstep>
  <scstep>
   <time name="diag">    1.20    1.20</time>
   <time name="diis">    3.42    3.43</time>
   <time name="orth">    0.28    0.28</time>
   <time name="total">    5.18    5.19</time>
   <dipole>
    <v name="dipole">      0.00000000       0.00000000      -0.09183127 </v>
    <i name="Tr[quadrupol]"> -10276.64467395 </i>
    <i name="Echarged">      0.00000000 </i>
    <i name="Edipol_quadrupol">      0.00000000 </i>
    <i name="Eion">      0.00000000 </i>
   </dipole>
   <energy>
    <i name="e_fr_energy">   -191.00235625 </i>
    <i name="e_wo_entrp">   -190.75914830 </i>
    <i name="e_0_energy">   -190.88075227 </i>
   </energy>
  </scstep>
  <scstep>
   <time name="diag">    1.20    1.22</time>
   <time name="diis">    3.32    3.35</time>
   <time name="orth">    0.28    0.28</time>
   <time name="total">    5.08    5.13</time>
   <dipole>
    <v name="dipole">      0.00000000       0.00000000       0.07095143 </v>
    <i name="Tr[quadrupol]"> -10276.53034649 </i>
    <i name="Echarged">      0.00000000 </i>
    <i name="Edipol_quadrupol">      0.00000000 </i>
    <i name="Eion">      0.00000000 </i>
   </dipole>
   <energy>
    <i name="e_fr_energy">   -190.52187716 </i>
    <i name="e_wo_entrp">   -190.27089013 </i>
    <i name="e_0_energy">   -190.39638364 </i>
   </energy>
  </scstep>
  <scstep>
   <time name="diag">    1.20    1.21</time>
   <time name="diis">    3.33    3.34</time>
   <time name="orth">    0.28    0.28</time>
   <time name="total">    5.09    5.11</time>
   <dipole>
    <v name="dipole">      0.00000000       0.00000000      -0.05038019 </v>
    <i name="Tr[quadrupol]"> -10276.48888861 </i>
    <i name="Echarged">      0.00000000 </i>
    <i name="Edipol_quadrupol">      0.00000000 </i>
    <i name="Eion">      0.00000000 </i>
   </dipole>
   <energy>
    <i name="e_fr_energy">   -190.57954244 </i>
    <i name="e_wo_entrp">   -190.31437058 </i>
    <i name="e_0_energy">   -190.44695651 </i>
   </energy>
  </scstep>
  <scstep>
   <time name="diag">    1.21    1.21</time>
   <time name="diis">    3.30    3.36</time>
   <time name="orth">    0.27    0.29</time>
   <time name="total">    5.06    5.16</time>
   <dipole>
    <v name="dipole">      0.00000000       0.00000000       0.10501579 </v>
    <i name="Tr[quadrupol]"> -10276.55987564 </i>
    <i name="Echarged">      0.00000000 </i>
    <i name="Edipol_quadrupol">      0.00000000 </i>
    <i name="Eion">      0.00000000 </i>
   </dipole>
   <energy>
    <i name="e_fr_energy">   -190.54433534 </i>
    <i name="e_wo_entrp">   -190.29114710 </i>
    <i name="e_0_energy">   -190.41774122 </i>
   </energy>
  </scstep>
  <scstep>
   <time name="diag">    1.20    1.20</time>
   <time name="diis">    3.37    3.38</time>
   <time name="orth">    0.28    0.28</time>
   <time name="total">    5.12    5.14</time>
   <dipole>
    <v name="dipole">      0.00000000       0.00000000       0.05905443 </v>
    <i name="Tr[quadrupol]"> -10276.55748006 </i>
    <i name="Echarged">      0.00000000 </i>
    <i name="Edipol_quadrupol">      0.00000000 </i>
    <i name="Eion">      0.00000000 </i>
   </dipole>
   <energy>
[...]
       <r>    -9.2516     0.0000     0.0000 </r>
       <r>    -9.1978     0.0000     0.0000 </r>
       <r>    -9.1440     0.0000     0.0000 </r>
       <r>    -9.0902     0.0000     0.0000 </r>
       <r>    -9.0364     0.0001     0.0000 </r>
       <r>    -8.9826     0.0025     0.0001 </r>
       <r>    -8.9288     0.0341     0.0020 </r>
       <r>    -8.8750     0.2730     0.0167 </r>
       <r>    -8.8212     1.2659     0.0848 </r>
       <r>    -8.7674     3.4090     0.2682 </r>
       <r>    -8.7136     5.3772     0.5575 </r>
       <r>    -8.6598     5.2264     0.8386 </r>
       <r>    -8.6060     4.0996     1.0592 </r>
       <r>    -8.5522     4.3728     1.2944 </r>
       <r>    -8.4985     5.1896     1.5736 </r>
       <r>    -8.4447     4.4306     1.8120 </r>
       <r>    -8.3909     2.4568     1.9442 </r>
       <r>    -8.3371     0.9975     1.9978 </r>
       <r>    -8.2833     0.8619     2.0442 </r>
       <r>    -8.2295     1.9822     2.1508 </r>
       <r>    -8.1757     3.7973     2.3551 </r>
       <r>    -8.1219     5.2712     2.6387 </r>
       <r>    -8.0681     5.8535     2.9536 </r>
       <r>    -8.0143     6.5143     3.3041 </r>
       <r>    -7.9605     8.2961     3.7504 </r>
       <r>    -7.9067    10.1648     4.2973 </r>
       <r>    -7.8529    10.1705     4.8444 </r>
       <r>    -7.7991     8.2523     5.2884 </r>
       <r>    -7.7453     6.0378     5.6132 </r>
       <r>    -7.6915     4.5599     5.8586 </r>
       <r>    -7.6377     4.5319     6.1024 </r>
       <r>    -7.5839     6.8175     6.4691 </r>
       <r>    -7.5301     9.8508     6.9991 </r>
       <r>    -7.4763    10.2882     7.5526 </r>
       <r>    -7.4225     8.6054     8.0156 </r>
       <r>    -7.3687     8.6768     8.4824 </r>
       <r>    -7.3149    11.3236     9.0916 </r>
       <r>    -7.2611    14.0024     9.8449 </r>
       <r>    -7.2073    14.8521    10.6439 </r>
       <r>    -7.1535    13.8200    11.3874 </r>
       <r>    -7.0997    12.6366    12.0673 </r>
       <r>    -7.0459    13.5854    12.7981 </r>
       <r>    -6.9921    16.4469    13.6830 </r>
       <r>    -6.9383    19.8826    14.7526 </r>
       <r>    -6.8845    24.7424    16.0838 </r>
       <r>    -6.8307    31.9892    17.8048 </r>
       <r>    -6.7769    40.4496    19.9809 </r>
       <r>    -6.7231    48.7136    22.6017 </r>
       <r>    -6.6693    56.0979    25.6197 </r>
       <r>    -6.6155    60.5709    28.8783 </r>
       <r>    -6.5617    60.2339    32.1189 </r>
       <r>    -6.5079    57.0353    35.1873 </r>
       <r>    -6.4541    55.1135    38.1524 </r>
       <r>    -6.4003    55.6605    41.1469 </r>
       <r>    -6.3465    57.6546    44.2487 </r>
       <r>    -6.2927    61.4323    47.5537 </r>
       <r>    -6.2389    68.9361    51.2624 </r>
       <r>    -6.1851    78.9641    55.5106 </r>
       <r>    -6.1313    85.2397    60.0964 </r>
       <r>    -6.0775    84.4444    64.6394 </r>
       <r>    -6.0237    80.2920    68.9591 </r>
       <r>    -5.9699    77.3682    73.1214 </r>
       <r>    -5.9161    75.4479    77.1805 </r>
       <r>    -5.8623    72.2096    81.0653 </r>
       <r>    -5.8085    68.0867    84.7283 </r>
       <r>    -5.7547    65.7751    88.2669 </r>
       <r>    -5.7009    66.5051    91.8449 </r>
       <r>    -5.6471    67.7528    95.4899 </r>
       <r>    -5.5933    66.8995    99.0890 </r>
       <r>    -5.5395    64.9503   102.5833 </r>
       <r>    -5.4857    64.9518   106.0777 </r>
       <r>    -5.4319    67.8724   109.7291 </r>
       <r>    -5.3781    71.9974   113.6025 </r>
       <r>    -5.3243    76.2292   117.7036 </r>
       <r>    -5.2705    80.7876   122.0499 </r>
       <r>    -5.2167    84.9193   126.6185 </r>
       <r>    -5.1629    87.5978   131.3312 </r>
       <r>    -5.1091    89.2022   136.1302 </r>
       <r>    -5.0553    89.0602   140.9216 </r>
       <r>    -5.0015    86.9149   145.5975 </r>
       <r>    -4.9477    85.2875   150.1859 </r>
       <r>    -4.8939    85.8340   154.8037 </r>
       <r>    -4.8401    87.1487   159.4922 </r>
       <r>    -4.7863    87.1609   164.1814 </r>
       <r>    -4.7325    85.6886   168.7914 </r>
       <r>    -4.6787    84.6042   173.3430 </r>
       <r>    -4.6249    85.7793   177.9579 </r>
       <r>    -4.5711    88.4495   182.7164 </r>
       <r>    -4.5173    89.5272   187.5329 </r>
       <r>    -4.4635    88.5921   192.2991 </r>
       <r>    -4.4097    88.3413   197.0518 </r>
       <r>    -4.3559    89.5355   201.8687 </r>
       <r>    -4.3021    90.2261   206.7228 </r>
       <r>    -4.2483    89.3668   211.5307 </r>
       <r>    -4.1945    88.8967   216.3132 </r>
       <r>    -4.1407    90.2092   221.1664 </r>
       <r>    -4.0869    91.4762   226.0878 </r>
       <r>    -4.0331    91.9652   231.0354 </r>
       <r>    -3.9793    92.4218   236.0076 </r>
       <r>    -3.9255    92.5187   240.9851 </r>
       <r>    -3.8717    92.4420   245.9584 </r>
       <r>    -3.8179    92.5332   250.9366 </r>
       <r>    -3.7641    91.9964   255.8859 </r>
       <r>    -3.7103    90.7497   260.7682 </r>
       <r>    -3.6565    89.5610   265.5865 </r>
       <r>    -3.6027    88.9954   270.3744 </r>
       <r>    -3.5489    90.3119   275.2331 </r>
       <r>    -3.4951    93.1133   280.2425 </r>
       <r>    -3.4413    95.4223   285.3761 </r>
       <r>    -3.3875    97.0754   290.5987 </r>
       <r>    -3.3337    98.3610   295.8904 </r>
       <r>    -3.2799    98.9125   301.2118 </r>
       <r>    -3.2261    98.4814   306.5101 </r>
       <r>    -3.1723    96.6743   311.7111 </r>
       <r>    -3.1185    93.8962   316.7626 </r>
       <r>    -3.0647    91.3416   321.6767 </r>
       <r>    -3.0109    89.5524   326.4946 </r>
       <r>    -2.9571    88.8278   331.2734 </r>
       <r>    -2.9033    89.7217   336.1004 </r>
       <r>    -2.8495    92.1603   341.0585 </r>
       <r>    -2.7957    94.1918   346.1260 </r>
       <r>    -2.7419    94.3719   351.2031 </r>
       <r>    -2.6881    94.3285   356.2779 </r>
       <r>    -2.6343    95.6593   361.4243 </r>
       <r>    -2.5805    96.9344   366.6393 </r>
       <r>    -2.5267    96.0347   371.8059 </r>
       <r>    -2.4729    93.8716   376.8561 </r>
       <r>    -2.4191    92.7654   381.8468 </r>
       <r>    -2.3653    93.4125   386.8723 </r>
       <r>    -2.3115    95.2609   391.9973 </r>
       <r>    -2.2577    97.1053   397.2214 </r>
       <r>    -2.2039    96.9923   402.4395 </r>
       <r>    -2.1501    94.5595   407.5268 </r>
       <r>    -2.0963    92.5512   412.5060 </r>
       <r>    -2.0425    93.5374   417.5382 </r>
       <r>    -1.9887    96.0981   422.7082 </r>
       <r>    -1.9350    97.3314   427.9445 </r>
       <r>    -1.8812    96.7430   433.1492 </r>
       <r>    -1.8274    94.4665   438.2315 </r>
       <r>    -1.7736    91.3937   443.1484 </r>
       <r>    -1.7198    90.1161   447.9965 </r>
       <r>    -1.6660    92.2505   452.9595 </r>
       <r>    -1.6122    96.6068   458.1569 </r>
       <r>    -1.5584    99.9638   463.5349 </r>
       <r>    -1.5046   100.8778   468.9620 </r>
       <r>    -1.4508   100.0383   474.3440 </r>
       <r>    -1.3970    98.2205   479.6282 </r>
       <r>    -1.3432    96.6367   484.8271 </r>
       <r>    -1.2894    94.0397   489.8864 </r>
       <r>    -1.2356    87.0668   494.5705 </r>
       <r>    -1.1818    76.2021   498.6701 </r>
       <r>    -1.1280    64.2403   502.1262 </r>
       <r>    -1.0742    51.9666   504.9220 </r>
       <r>    -1.0204    39.2399   507.0330 </r>
       <r>    -0.9666    26.6853   508.4687 </r>
       <r>    -0.9128    16.8965   509.3777 </r>
       <r>    -0.8590    11.7386   510.0092 </r>
       <r>    -0.8052     9.7101   510.5316 </r>
       <r>    -0.7514     8.8473   511.0076 </r>
       <r>    -0.6976     8.5822   511.4693 </r>
       <r>    -0.6438     8.8575   511.9458 </r>
       <r>    -0.5900    10.7056   512.5218 </r>
       <r>    -0.5362    15.3346   513.3468 </r>
       <r>    -0.4824    21.0527   514.4794 </r>
       <r>    -0.4286    23.8891   515.7646 </r>
       <r>    -0.3748    21.6236   516.9280 </r>
       <r>    -0.3210    17.3900   517.8635 </r>
       <r>    -0.2672    17.3207   518.7954 </r>
       <r>    -0.2134    21.3810   519.9456 </r>
       <r>    -0.1596    22.4462   521.1532 </r>
       <r>    -0.1058    17.7257   522.1069 </r>
       <r>    -0.0520    11.7475   522.7389 </r>
       <r>     0.0018     8.9805   523.2220 </r>
       <r>     0.0556    10.6444   523.7947 </r>
       <r>     0.1094    15.1404   524.6092 </r>
       <r>     0.1632    19.5002   525.6583 </r>
       <r>     0.2170    21.2665   526.8024 </r>
       <r>     0.2708    20.4177   527.9009 </r>
       <r>     0.3246    19.5220   528.9511 </r>
       <r>     0.3784    18.9337   529.9698 </r>
       <r>     0.4322    17.2694   530.8988 </r>
       <r>     0.4860    16.1009   531.7650 </r>
       <r>     0.5398    17.0268   532.6811 </r>
       <r>     0.5936    18.7437   533.6895 </r>
       <r>     0.6474    19.6447   534.7463 </r>
       <r>     0.7012    20.0153   535.8231 </r>
       <r>     0.7550    20.4275   536.9221 </r>
       <r>     0.8088    18.7739   537.9321 </r>
       <r>     0.8626    13.8228   538.6758 </r>
       <r>     0.9164     9.7583   539.2008 </r>
       <r>     0.9702    10.2288   539.7511 </r>
       <r>     1.0240    12.5647   540.4271 </r>
       <r>     1.0778    12.8664   541.1193 </r>
       <r>     1.1316    10.8160   541.7012 </r>
       <r>     1.1854     8.0262   542.1330 </r>
       <r>     1.2392     6.4931   542.4823 </r>
       <r>     1.2930     7.2492   542.8723 </r>
       <r>     1.3468     8.7033   543.3405 </r>
       <r>     1.4006     9.0825   543.8291 </r>
       <r>     1.4544     9.5609   544.3435 </r>
       <r>     1.5082    12.3597   545.0085 </r>
       <r>     1.5620    16.4048   545.8910 </r>
       <r>     1.6158    18.2249   546.8715 </r>
       <r>     1.6696    17.3060   547.8026 </r>
       <r>     1.7234    16.3066   548.6798 </r>
       <r>     1.7772    16.7855   549.5829 </r>
       <r>     1.8310    17.2896   550.5130 </r>
       <r>     1.8848    15.1132   551.3261 </r>
       <r>     1.9386    10.7983   551.9071 </r>
       <r>     1.9924     8.5516   552.3671 </r>
       <r>     2.0462     9.7628   552.8924 </r>
       <r>     2.1000    11.5508   553.5138 </r>
       <r>     2.1538    12.0445   554.1618 </r>
       <r>     2.2076    12.9245   554.8571 </r>
       <r>     2.2614    16.2345   555.7305 </r>
       <r>     2.3152    20.5608   556.8367 </r>
       <r>     2.3690    23.4463   558.0980 </r>
       <r>     2.4228    24.5089   559.4166 </r>
       <r>     2.4766    24.2861   560.7232 </r>
       <r>     2.5304    23.1294   561.9675 </r>
       <r>     2.5842    22.1040   563.1567 </r>
       <r>     2.6380    22.8430   564.3856 </r>
       <r>     2.6918    24.6138   565.7098 </r>
       <r>     2.7456    23.9201   566.9967 </r>
       <r>     2.7994    19.0619   568.0222 </r>
       <r>     2.8532    12.7573   568.7086 </r>
       <r>     2.9070     8.6824   569.1757 </r>
       <r>     2.9608     7.0134   569.5530 </r>
       <r>     3.0146     5.6321   569.8560 </r>
       <r>     3.0684     4.9077   570.1200 </r>
       <r>     3.1222     6.9543   570.4942 </r>
       <r>     3.1760    11.0672   571.0896 </r>
       <r>     3.2298    13.4833   571.8149 </r>
       <r>     3.2836    12.0519   572.4633 </r>
       <r>     3.3374     8.9197   572.9432 </r>
       <r>     3.3912     6.8785   573.3133 </r>
       <r>     3.4450     6.6914   573.6732 </r>
       <r>     3.4988     8.4247   574.1265 </r>
       <r>     3.5526    11.5852   574.7498 </r>
       <r>     3.6064    15.4666   575.5818 </r>
       <r>     3.6602    19.0571   576.6071 </r>
       <r>     3.7140    20.0595   577.6863 </r>
       <r>     3.7678    18.2189   578.6665 </r>
       <r>     3.8216    15.6913   579.5106 </r>
       <r>     3.8754    13.3249   580.2275 </r>
       <r>     3.9292    11.8928   580.8673 </r>
       <r>     3.9830    13.1729   581.5760 </r>
       <r>     4.0368    15.7752   582.4247 </r>
       <r>     4.0906    15.7055   583.2696 </r>
       <r>     4.1444    13.0232   583.9703 </r>
       <r>     4.1982    11.2210   584.5740 </r>
       <r>     4.2520    10.7449   585.1520 </r>
       <r>     4.3058     9.6710   585.6723 </r>
       <r>     4.3596     8.6314   586.1367 </r>
       <r>     4.4134     9.7801   586.6628 </r>
       <r>     4.4672    12.8624   587.3548 </r>
       <r>     4.5210    17.1545   588.2777 </r>
       <r>     4.5748    22.9844   589.5143 </r>
       <r>     4.6286    27.7776   591.0087 </r>
       <r>     4.6823    27.5091   592.4886 </r>
       <r>     4.7361    23.4545   593.7505 </r>
       <r>     4.7899    21.0725   594.8842 </r>
       <r>     4.8437    23.0559   596.1246 </r>
       <r>     4.8975    27.2329   597.5897 </r>
       <r>     4.9513    30.8437   599.2490 </r>
       <r>     5.0051    32.7958   601.0134 </r>
       <r>     5.0589    33.0759   602.7929 </r>
       <r>     5.1127    32.1184   604.5208 </r>
       <r>     5.1665    30.2069   606.1459 </r>
       <r>     5.2203    28.3304   607.6701 </r>
       <r>     5.2741    26.2886   609.0844 </r>
       <r>     5.3279    22.3058   610.2844 </r>
       <r>     5.3817    16.2293   611.1575 </r>
       <r>     5.4355     9.6655   611.6775 </r>
       <r>     5.4893     4.3519   611.9117 </r>
       <r>     5.5431     1.3441   611.9840 </r>
       <r>     5.5969     0.2642   611.9982 </r>
       <r>     5.6507     0.0316   611.9999 </r>
       <r>     5.7045     0.0022   612.0000 </r>
       <r>     5.7583     0.0001   612.0000 </r>
       <r>     5.8121     0.0000   612.0000 </r>
       <r>     5.8659     0.0000   612.0000 </r>
       <r>     5.9197     0.0000   612.0000 </r>
       <r>     5.9735     0.0000   612.0000 </r>
       <r>     6.0273     0.0000   612.0000 </r>
       <r>     6.0811     0.0000   612.0000 </r>
       <r>     6.1349     0.0000   612.0000 </r>
       <r>     6.1887     0.0000   612.0000 </r>
       <r>     6.2425     0.0000   612.0000 </r>
       <r>     6.2963     0.0000   612.0000 </r>
       <r>     6.3501     0.0000   612.0000 </r>
       <r>     6.4039     0.0000   612.0000 </r>
      </set>
     </set>
    </array>
   </total>
  </dos>
 </calculation>
 <structure name="finalpos" >
  <crystal>
   <varray name="basis" >
    <v>      11.00258152       0.00000000       0.00000000 </v>
    <v>       5.50129076       9.52851510       0.00000000 </v>
    <v>       0.00000000       0.00000000      24.49178509 </v>
   </varray>
   <i name="volume">   2567.67623402 </i>
   <varray name="rec_basis" >
    <v>       0.09088776      -0.05247407       0.00000000 </v>
    <v>       0.00000000       0.10494815       0.00000000 </v>
    <v>       0.00000000       0.00000000       0.04083002 </v>
   </varray>
  </crystal>
  <varray name="positions" >
   <v>       0.75011570      -0.00213962       0.61116428 </v>
   <v>      -0.00014131       0.24983092       0.61287209 </v>
   <v>       0.16820886       0.16369811       0.50741243 </v>
   <v>       0.08333333       0.58333333       0.40830017 </v>
   <v>       0.74764455       0.50029431       0.61212365 </v>
   <v>      -0.00112194       0.50410541       0.61012923 </v>
   <v>       0.66891883       0.66697717       0.51084617 </v>
   <v>       0.83333333       0.58333333       0.40830017 </v>
   <v>       0.00185746      -0.00231073       0.60904420 </v>
   <v>       0.91692070       0.16802926       0.50765133 </v>
   <v>       0.58333333       0.58333333       0.40830017 </v>
   <v>       0.49844017       0.25376108       0.61326236 </v>
   <v>       0.08333333       0.33333333       0.40830017 </v>
   <v>       0.25131450       0.24926641       0.61579771 </v>
   <v>       0.33333333       0.58333333       0.40830017 </v>
   <v>       0.66738690       0.16695199       0.51139612 </v>
   <v>       0.83333333       0.08333333       0.40830017 </v>
   <v>       0.49640177       0.75411066       0.61180760 </v>
   <v>       0.58333333       0.83333333       0.40830017 </v>
   <v>       0.58333333       0.08333333       0.40830017 </v>
   <v>       0.41748183       0.16516262       0.50821925 </v>
   <v>       0.58333333       0.33333333       0.40830017 </v>
   <v>       0.41451486       0.66794840       0.50864742 </v>
   <v>       0.16735038       0.41872272       0.50954654 </v>
   <v>       0.16508410       0.66848607       0.50701558 </v>
   <v>       0.33333333       0.33333333       0.40830017 </v>
   <v>       0.24960918       0.00016369       0.60392007 </v>
   <v>       0.33333333       0.08333333       0.40830017 </v>
   <v>       0.91608782       0.41759692       0.50951981 </v>
   <v>       0.91896905       0.91326932       0.50701642 </v>
   <v>       0.08333333       0.83333333       0.40830017 </v>
   <v>       0.91708099       0.66822320       0.50765335 </v>
   <v>       0.24932419       0.50387956       0.60519107 </v>
   <v>       0.00011886       0.75016114       0.60314007 </v>
   <v>       0.33333333       0.83333333       0.40830017 </v>
   <v>       0.08333333       0.08333333       0.40830017 </v>
   <v>       0.66979713       0.91537388       0.50836017 </v>
   <v>       0.49928020       0.00062340       0.60478846 </v>
   <v>       0.24858111       0.74975729       0.60378899 </v>
   <v>       0.83333333       0.83333333       0.40830017 </v>
   <v>       0.66738903       0.41761400       0.50871441 </v>
   <v>       0.74908379       0.25121732       0.60707360 </v>
   <v>       0.41714677       0.91514453       0.50712373 </v>
   <v>       0.49834531       0.50130606       0.60514241 </v>
   <v>       0.83333333       0.33333333       0.40830017 </v>
   <v>       0.41687879       0.41731224       0.50876223 </v>
   <v>       0.16538712       0.91542202       0.50566150 </v>
   <v>       0.74952839       0.75193985       0.60590686 </v>
  </varray>
  <varray name="selective"  type="logical" >
   <v type="logical" >  T  T  T </v>
   <v type="logical" >  T  T  T </v>
   <v type="logical" >  T  T  T </v>
   <v type="logical" >  F  F  F </v>
   <v type="logical" >  T  T  T </v>
   <v type="logical" >  T  T  T </v>
   <v type="logical" >  T  T  T </v>
   <v type="logical" >  F  F  F </v>
   <v type="logical" >  T  T  T </v>
   <v type="logical" >  T  T  T </v>
   <v type="logical" >  F  F  F </v>
   <v type="logical" >  T  T  T </v>
   <v type="logical" >  F  F  F </v>
   <v type="logical" >  T  T  T </v>
   <v type="logical" >  F  F  F </v>
   <v type="logical" >  T  T  T </v>
   <v type="logical" >  F  F  F </v>
   <v type="logical" >  T  T  T </v>
   <v type="logical" >  F  F  F </v>
   <v type="logical" >  F  F  F </v>
   <v type="logical" >  T  T  T </v>
   <v type="logical" >  F  F  F </v>
   <v type="logical" >  T  T  T </v>
   <v type="logical" >  T  T  T </v>
   <v type="logical" >  T  T  T </v>
   <v type="logical" >  F  F  F </v>
   <v type="logical" >  T  T  T </v>
   <v type="logical" >  F  F  F </v>
   <v type="logical" >  T  T  T </v>
   <v type="logical" >  T  T  T </v>
   <v type="logical" >  F  F  F </v>
   <v type="logical" >  T  T  T </v>
   <v type="logical" >  T  T  T </v>
   <v type="logical" >  T  T  T </v>
   <v type="logical" >  F  F  F </v>
   <v type="logical" >  F  F  F </v>
   <v type="logical" >  T  T  T </v>
   <v type="logical" >  T  T  T </v>
   <v type="logical" >  T  T  T </v>
   <v type="logical" >  F  F  F </v>
   <v type="logical" >  T  T  T </v>
   <v type="logical" >  T  T  T </v>
   <v type="logical" >  T  T  T </v>
   <v type="logical" >  T  T  T </v>
   <v type="logical" >  F  F  F </v>
   <v type="logical" >  T  T  T </v>
   <v type="logical" >  T  T  T </v>
   <v type="logical" >  T  T  T </v>
  </varray>
  <nose>
   <v>      -3.00000000       0.00000000       0.00010000       0.00010000 </v>
  </nose>
 </structure>
</modeling>
