unknown system                          
           1
    11.002582    0.000000    0.000000
     5.501291    9.528515    0.000000
     0.000000    0.000000   24.491785
   Au   Pd
  24  24
Direct configuration=     1
   0.75000000  0.00000000  0.59169983
   0.00000000  0.25000000  0.59169983
   0.16666667  0.16666667  0.50000000
   0.08333333  0.58333333  0.40830017
   0.75000000  0.50000000  0.59169983
   0.00000000  0.50000000  0.59169983
   0.66666667  0.66666667  0.50000000
   0.83333333  0.58333333  0.40830017
   0.00000000  0.00000000  0.59169983
   0.91666667  0.16666667  0.50000000
   0.58333333  0.58333333  0.40830017
   0.50000000  0.25000000  0.59169983
   0.08333333  0.33333333  0.40830017
   0.25000000  0.25000000  0.59169983
   0.33333333  0.58333333  0.40830017
   0.66666667  0.16666667  0.50000000
   0.83333333  0.08333333  0.40830017
   0.50000000  0.75000000  0.59169983
   0.58333333  0.83333333  0.40830017
   0.58333333  0.08333333  0.40830017
   0.41666667  0.16666667  0.50000000
   0.58333333  0.33333333  0.40830017
   0.41666667  0.66666667  0.50000000
   0.16666667  0.41666667  0.50000000
   0.16666667  0.66666667  0.50000000
   0.33333333  0.33333333  0.40830017
   0.25000000  0.00000000  0.59169983
   0.33333333  0.08333333  0.40830017
   0.91666667  0.41666667  0.50000000
   0.91666667  0.91666667  0.50000000
   0.08333333  0.83333333  0.40830017
   0.91666667  0.66666667  0.50000000
   0.25000000  0.50000000  0.59169983
   0.00000000  0.75000000  0.59169983
   0.33333333  0.83333333  0.40830017
   0.08333333  0.08333333  0.40830017
   0.66666667  0.91666667  0.50000000
   0.50000000  0.00000000  0.59169983
   0.25000000  0.75000000  0.59169983
   0.83333333  0.83333333  0.40830017
   0.66666667  0.41666667  0.50000000
   0.75000000  0.25000000  0.59169983
   0.41666667  0.91666667  0.50000000
   0.50000000  0.50000000  0.59169983
   0.83333333  0.33333333  0.40830017
   0.41666667  0.41666667  0.50000000
   0.16666667  0.91666667  0.50000000
   0.75000000  0.75000000  0.59169983
Direct configuration=     2
   0.75030721 -0.00138510  0.59354715
  -0.00034363  0.24979879  0.59395358
   0.16757086  0.16414692  0.49952509
   0.08333333  0.58333333  0.40830017
   0.74958627  0.49944273  0.59356371
  -0.00052693  0.50188487  0.59354279
   0.66795485  0.66709809  0.50035706
   0.83333333  0.58333333  0.40830017
   0.00114279 -0.00143667  0.59356718
   0.91637380  0.16738913  0.49959075
   0.58333333  0.58333333  0.40830017
   0.49978117  0.25128091  0.59385799
   0.08333333  0.33333333  0.40830017
   0.25083486  0.24919534  0.59424968
   0.33333333  0.58333333  0.40830017
   0.66699698  0.16715975  0.50039003
   0.83333333  0.08333333  0.40830017
   0.49901963  0.75130224  0.59374367
   0.58333333  0.83333333  0.40830017
   0.58333333  0.08333333  0.40830017
   0.41708032  0.16543278  0.49966631
   0.58333333  0.33333333  0.40830017
   0.41476756  0.66714239  0.50039671
   0.16694204  0.41862455  0.49998049
   0.16584093  0.66768254  0.50046178
   0.33333333  0.33333333  0.40830017
   0.25050070 -0.00073832  0.59270174
   0.33333333  0.08333333  0.40830017
   0.91562781  0.41710762  0.49974771
   0.91809802  0.91409792  0.49982433
   0.08333333  0.83333333  0.40830017
   0.91632654  0.66828401  0.50026233
   0.24994752  0.50138535  0.59263160
   0.00033577  0.74964779  0.59239972
   0.33333333  0.83333333  0.40830017
   0.08333333  0.08333333  0.40830017
   0.66753945  0.91548463  0.50026230
   0.50012687 -0.00076411  0.59276235
   0.24950418  0.74972377  0.59246792
   0.83333333  0.83333333  0.40830017
   0.66690758  0.41620891  0.50023710
   0.74927457  0.25085860  0.59295675
   0.41589488  0.91729906  0.50002590
   0.49963200  0.49964893  0.59264314
   0.83333333  0.33333333  0.40830017
   0.41608965  0.41771318  0.50030830
   0.16718058  0.91569955  0.49974487
   0.75026372  0.75068967  0.59264200
Direct configuration=     3
   0.75115543 -0.00520936  0.59864760
  -0.00129240  0.24924325  0.60017620
   0.17006733  0.15718991  0.49821386
   0.08333333  0.58333333  0.40830017
   0.74844394  0.49790412  0.59870986
  -0.00198178  0.50708900  0.59863121
   0.67151152  0.66828924  0.50134288
   0.83333333  0.58333333  0.40830017
   0.00429802 -0.00540330  0.59872292
   0.91556520  0.16938386  0.49846079
   0.58333333  0.58333333  0.40830017
   0.49917698  0.25481750  0.59981669
   0.08333333  0.33333333  0.40830017
   0.25313992  0.24697366  0.60128981
   0.33333333  0.58333333  0.40830017
   0.66790898  0.16852114  0.50146688
   0.83333333  0.08333333  0.40830017
   0.49631284  0.75489772  0.59938672
   0.58333333  0.83333333  0.40830017
   0.58333333  0.08333333  0.40830017
   0.41822241  0.16202603  0.49874499
   0.58333333  0.33333333  0.40830017
   0.40952411  0.66845586  0.50149204
   0.16770234  0.42403026  0.49992661
   0.16356107  0.67048735  0.50173674
   0.33333333  0.33333333  0.40830017
   0.25188313 -0.00277684  0.59546800
   0.33333333  0.08333333  0.40830017
   0.91275953  0.41832508  0.49905113
   0.92204998  0.90700560  0.49933931
   0.08333333  0.83333333  0.40830017
   0.91538747  0.67274948  0.50098661
   0.24980262  0.50521031  0.59520420
   0.00126282  0.74867534  0.59433212
   0.33333333  0.83333333  0.40830017
   0.08333333  0.08333333  0.40830017
   0.66994919  0.91222101  0.50098652
   0.50047717 -0.00287384  0.59569597
   0.24813521  0.74896109  0.59458862
   0.83333333  0.83333333  0.40830017
   0.66757273  0.41494506  0.50089171
   0.74727166  0.25322919  0.59642711
   0.41376397  0.91904509  0.50009742
   0.49861593  0.49867961  0.59524762
   0.83333333  0.33333333  0.40830017
   0.41449651  0.42060259  0.50115953
   0.16859949  0.91302935  0.49904047
   0.75099185  0.75259385  0.59524332
Direct configuration=     4
   0.75118349 -0.00480131  0.60080640
  -0.00069165  0.24892774  0.60252372
   0.16919700  0.15837795  0.49972858
   0.08333333  0.58333333  0.40830017
   0.74770445  0.49869433  0.60095529
  -0.00171225  0.50679161  0.60066195
   0.67038161  0.66812674  0.50310271
   0.83333333  0.58333333  0.40830017
   0.00419868 -0.00546200  0.60069001
   0.91658142  0.16842631  0.49996962
   0.58333333  0.58333333  0.40830017
   0.49892233  0.25466928  0.60227459
   0.08333333  0.33333333  0.40830017
   0.25307022  0.24707234  0.60389457
   0.33333333  0.58333333  0.40830017
   0.66792633  0.16748015  0.50336018
   0.83333333  0.08333333  0.40830017
   0.49639652  0.75446470  0.60172719
   0.58333333  0.83333333  0.40830017
   0.58333333  0.08333333  0.40830017
   0.41805967  0.16280348  0.50032939
   0.58333333  0.33333333  0.40830017
   0.41082283  0.66872065  0.50279133
   0.16753608  0.42321556  0.50163192
   0.16295571  0.67125702  0.50244880
   0.33333333  0.33333333  0.40830017
   0.25126682 -0.00249814  0.59670935
   0.33333333  0.08333333  0.40830017
   0.91379111  0.41817742  0.50045339
   0.92219785  0.90770273  0.50018693
   0.08333333  0.83333333  0.40830017
   0.91600144  0.67213687  0.50186663
   0.24959093  0.50563298  0.59664453
   0.00145862  0.74892724  0.59565920
   0.33333333  0.83333333  0.40830017
   0.08333333  0.08333333  0.40830017
   0.67014679  0.91326506  0.50197883
   0.50054032 -0.00247628  0.59695336
   0.24827057  0.74872299  0.59600978
   0.83333333  0.83333333  0.40830017
   0.66675910  0.41663395  0.50196010
   0.74764973  0.25228120  0.59801459
   0.41513264  0.91666076  0.50102558
   0.49821915  0.49963938  0.59659046
   0.83333333  0.33333333  0.40830017
   0.41479667  0.41999982  0.50223362
   0.16717558  0.91310961  0.49963765
   0.75069030  0.75235103  0.59682643
Direct configuration=     5
   0.75126715 -0.00358472  0.60724282
   0.00109948  0.24798703  0.60952280
   0.16660213  0.16192006  0.50424471
   0.08333333  0.58333333  0.40830017
   0.74549965  0.50105033  0.60765000
  -0.00090865  0.50590494  0.60671655
   0.66701279  0.66764226  0.50834959
   0.83333333  0.58333333  0.40830017
   0.00390250 -0.00563699  0.60655485
   0.91961128  0.16557141  0.50446816
   0.58333333  0.58333333  0.40830017
   0.49816310  0.25422734  0.60960279
   0.08333333  0.33333333  0.40830017
   0.25286244  0.24736654  0.61166061
   0.33333333  0.58333333  0.40830017
   0.66797806  0.16437646  0.50900502
   0.83333333  0.08333333  0.40830017
   0.49664602  0.75317365  0.60870524
   0.58333333  0.83333333  0.40830017
   0.58333333  0.08333333  0.40830017
   0.41757446  0.16512142  0.50505325
   0.58333333  0.33333333  0.40830017
   0.41469494  0.66951012  0.50666516
   0.16704039  0.42078657  0.50671629
   0.16115081  0.67355176  0.50457179
   0.33333333  0.33333333  0.40830017
   0.24942929 -0.00166722  0.60041040
   0.33333333  0.08333333  0.40830017
   0.91686674  0.41773718  0.50463420
   0.92263871  0.90978119  0.50271412
   0.08333333  0.83333333  0.40830017
   0.91783200  0.67031037  0.50449039
   0.24895981  0.50689318  0.60093884
   0.00204241  0.74967827  0.59961588
   0.33333333  0.83333333  0.40830017
   0.08333333  0.08333333  0.40830017
   0.67073593  0.91637785  0.50493737
   0.50072859 -0.00129099  0.60070223
   0.24867413  0.74801310  0.60024695
   0.83333333  0.83333333  0.40830017
   0.66433329  0.42166934  0.50514545
   0.74877691  0.24945481  0.60274761
   0.41921329  0.90955193  0.50379288
   0.49703615  0.50250090  0.60059410
   0.83333333  0.33333333  0.40830017
   0.41569159  0.41820265  0.50543599
   0.16293020  0.91334893  0.50141814
   0.74979125  0.75162708  0.60154647
Direct configuration=     6
   0.75128442 -0.00333367  0.60857098
   0.00146908  0.24779291  0.61096707
   0.16606667  0.16265098  0.50517662
   0.08333333  0.58333333  0.40830017
   0.74504469  0.50153649  0.60903146
  -0.00074282  0.50572198  0.60796592
   0.66631764  0.66754228  0.50943228
   0.83333333  0.58333333  0.40830017
   0.00384139 -0.00567310  0.60776506
   0.92023649  0.16498230  0.50539644
   0.58333333  0.58333333  0.40830017
   0.49800643  0.25413614  0.61111497
   0.08333333  0.33333333  0.40830017
   0.25281956  0.24742725  0.61326313
   0.33333333  0.58333333  0.40830017
   0.66798873  0.16373601  0.51016983
   0.83333333  0.08333333  0.40830017
   0.49669750  0.75290724  0.61014517
   0.58333333  0.83333333  0.40830017
   0.58333333  0.08333333  0.40830017
   0.41747434  0.16559973  0.50602802
   0.58333333  0.33333333  0.40830017
   0.41549395  0.66967303  0.50746453
   0.16693811  0.42028534  0.50776546
   0.16077837  0.67402528  0.50500987
   0.33333333  0.33333333  0.40830017
   0.24905012 -0.00149576  0.60117411
   0.33333333  0.08333333  0.40830017
   0.91750140  0.41764633  0.50549691
   0.92272969  0.91021008  0.50323561
   0.08333333  0.83333333  0.40830017
   0.91820974  0.66993348  0.50503181
   0.24882958  0.50715322  0.60182497
   0.00216287  0.74983324  0.60043234
   0.33333333  0.83333333  0.40830017
   0.08333333  0.08333333  0.40830017
   0.67085750  0.91702018  0.50554787
   0.50076744 -0.00104641  0.60147582
   0.24875741  0.74786662  0.60112129
   0.83333333  0.83333333  0.40830017
   0.66383272  0.42270839  0.50580275
   0.74900951  0.24887158  0.60372427
   0.42005534  0.90808502  0.50436392
   0.49679204  0.50309138  0.60142025
   0.83333333  0.33333333  0.40830017
   0.41587626  0.41783181  0.50609680
   0.16205417  0.91339831  0.50178554
   0.74960573  0.75147770  0.60252045
Direct configuration=     7
   0.75121213 -0.00330500  0.60993117
   0.00028826  0.24922358  0.61209420
   0.16911105  0.16227373  0.50667434
   0.08333333  0.58333333  0.40830017
   0.74740551  0.49963181  0.61037558
  -0.00082473  0.50401310  0.60900701
   0.66977266  0.66684501  0.51043278
   0.83333333  0.58333333  0.40830017
   0.00283970 -0.00405246  0.60876403
   0.91650048  0.16739537  0.50703903
   0.58333333  0.58333333  0.40830017
   0.49766067  0.25430968  0.61244782
   0.08333333  0.33333333  0.40830017
   0.25205928  0.24833385  0.61460292
   0.33333333  0.58333333  0.40830017
   0.66852292  0.16579022  0.51116588
   0.83333333  0.08333333  0.40830017
   0.49593413  0.75408372  0.61173397
   0.58333333  0.83333333  0.40830017
   0.58333333  0.08333333  0.40830017
   0.41584937  0.16533097  0.50739934
   0.58333333  0.33333333  0.40830017
   0.41346284  0.66854274  0.50809400
   0.16725297  0.41887151  0.50909100
   0.16438977  0.66994824  0.50557378
   0.33333333  0.33333333  0.40830017
   0.24958088 -0.00151986  0.60169551
   0.33333333  0.08333333  0.40830017
   0.91675084  0.41811505  0.50737314
   0.91915640  0.91362151  0.50478423
   0.08333333  0.83333333  0.40830017
   0.91672740  0.66867935  0.50615409
   0.24924142  0.50505657  0.60294719
   0.00060375  0.75033467  0.60143176
   0.33333333  0.83333333  0.40830017
   0.08333333  0.08333333  0.40830017
   0.67079264  0.91566983  0.50660300
   0.50019331 -0.00053839  0.60222667
   0.24909619  0.74906372  0.60221039
   0.83333333  0.83333333  0.40830017
   0.66648750  0.41875531  0.50696732
   0.74979081  0.24956021  0.60469610
   0.41761894  0.91301807  0.50561758
   0.49766218  0.50173275  0.60264472
   0.83333333  0.33333333  0.40830017
   0.41626042  0.41783901  0.50713580
   0.16425516  0.91444236  0.50317652
   0.74984632  0.75148590  0.60363862
Direct configuration=     8
   0.75119922 -0.00329988  0.61017408
   0.00007738  0.24947908  0.61229549
   0.16965474  0.16220636  0.50694182
   0.08333333  0.58333333  0.40830017
   0.74782713  0.49929166  0.61061562
  -0.00083936  0.50370791  0.60919293
   0.67038969  0.66672048  0.51061146
   0.83333333  0.58333333  0.40830017
   0.00266081 -0.00376303  0.60894244
   0.91583327  0.16782632  0.50733238
   0.58333333  0.58333333  0.40830017
   0.49759892  0.25434067  0.61268586
   0.08333333  0.33333333  0.40830017
   0.25192350  0.24849576  0.61484220
   0.33333333  0.58333333  0.40830017
   0.66861832  0.16615708  0.51134377
   0.83333333  0.08333333  0.40830017
   0.49579780  0.75429382  0.61201771
   0.58333333  0.83333333  0.40830017
   0.58333333  0.08333333  0.40830017
   0.41555917  0.16528297  0.50764424
   0.58333333  0.33333333  0.40830017
   0.41310011  0.66834088  0.50820641
   0.16730921  0.41861902  0.50932772
   0.16503472  0.66922012  0.50567449
   0.33333333  0.33333333  0.40830017
   0.24967567 -0.00152416  0.60178863
   0.33333333  0.08333333  0.40830017
   0.91661680  0.41819876  0.50770821
   0.91851826  0.91423075  0.50506080
   0.08333333  0.83333333  0.40830017
   0.91646267  0.66845537  0.50635452
   0.24931497  0.50468213  0.60314761
   0.00032531  0.75042422  0.60161024
   0.33333333  0.83333333  0.40830017
   0.08333333  0.08333333  0.40830017
   0.67078106  0.91542867  0.50679143
   0.50009077 -0.00044766  0.60236076
   0.24915670  0.74927751  0.60240489
   0.83333333  0.83333333  0.40830017
   0.66696162  0.41804934  0.50717530
   0.74993034  0.24968319  0.60486966
   0.41718383  0.91389905  0.50584147
   0.49781758  0.50149012  0.60286340
   0.83333333  0.33333333  0.40830017
   0.41632903  0.41784029  0.50732135
   0.16464824  0.91462882  0.50342493
   0.74988929  0.75148737  0.60383831
Direct configuration=     9
   0.75052653 -0.00287817  0.61054549
   0.00002220  0.24955438  0.61244041
   0.16833758  0.16292892  0.50725865
   0.08333333  0.58333333  0.40830017
   0.74819032  0.49907445  0.61099170
  -0.00094072  0.50339859  0.60944954
   0.66950715  0.66678075  0.51067850
   0.83333333  0.58333333  0.40830017
   0.00234959 -0.00289738  0.60902327
   0.91660826  0.16878156  0.50771133
   0.58333333  0.58333333  0.40830017
   0.49815122  0.25393992  0.61291573
   0.08333333  0.33333333  0.40830017
   0.25147553  0.24872558  0.61521897
   0.33333333  0.58333333  0.40830017
   0.66648593  0.16738010  0.51131204
   0.83333333  0.08333333  0.40830017
   0.49633758  0.75408475  0.61223631
   0.58333333  0.83333333  0.40830017
   0.58333333  0.08333333  0.40830017
   0.41705264  0.16519536  0.50791719
   0.58333333  0.33333333  0.40830017
   0.41410085  0.66799917  0.50823870
   0.16705201  0.41860423  0.50951252
   0.16509194  0.66798455  0.50606235
   0.33333333  0.33333333  0.40830017
   0.24963852 -0.00091227  0.60216251
   0.33333333  0.08333333  0.40830017
   0.91669521  0.41715375  0.50851974
   0.91814969  0.91415052  0.50599689
   0.08333333  0.83333333  0.40830017
   0.91716262  0.66814373  0.50686868
   0.24926336  0.50388496  0.60371866
   0.00001751  0.75015493  0.60178243
   0.33333333  0.83333333  0.40830017
   0.08333333  0.08333333  0.40830017
   0.67000766  0.91544358  0.50723869
   0.49985511 -0.00010564  0.60281668
   0.24871044  0.74990180  0.60283254
   0.83333333  0.83333333  0.40830017
   0.66769990  0.41729507  0.50761522
   0.74970392  0.25051738  0.60560864
   0.41722684  0.91463322  0.50633558
   0.49881185  0.50060344  0.60345847
   0.83333333  0.33333333  0.40830017
   0.41702216  0.41677733  0.50772022
   0.16496926  0.91577423  0.50431135
   0.74997956  0.75153925  0.60452476
Direct configuration=    10
   0.75033996 -0.00276121  0.61064850
   0.00000690  0.24957527  0.61248061
   0.16797228  0.16312932  0.50734652
   0.08333333  0.58333333  0.40830017
   0.74829105  0.49901422  0.61109601
  -0.00096884  0.50331280  0.60952070
   0.66926239  0.66679746  0.51069710
   0.83333333  0.58333333  0.40830017
   0.00226327 -0.00265730  0.60904568
   0.91682320  0.16904649  0.50781643
   0.58333333  0.58333333  0.40830017
   0.49830439  0.25382878  0.61297948
   0.08333333  0.33333333  0.40830017
   0.25135129  0.24878931  0.61532347
   0.33333333  0.58333333  0.40830017
   0.66589454  0.16771929  0.51130324
   0.83333333  0.08333333  0.40830017
   0.49648728  0.75402677  0.61229693
   0.58333333  0.83333333  0.40830017
   0.58333333  0.08333333  0.40830017
   0.41746683  0.16517106  0.50799290
   0.58333333  0.33333333  0.40830017
   0.41437840  0.66790441  0.50824765
   0.16698068  0.41860013  0.50956377
   0.16510781  0.66764189  0.50616993
   0.33333333  0.33333333  0.40830017
   0.24962822 -0.00074257  0.60226620
   0.33333333  0.08333333  0.40830017
   0.91671696  0.41686393  0.50874481
   0.91804747  0.91412827  0.50625650
   0.08333333  0.83333333  0.40830017
   0.91735674  0.66805731  0.50701128
   0.24924905  0.50366388  0.60387703
  -0.00006785  0.75008024  0.60183018
   0.33333333  0.83333333  0.40830017
   0.08333333  0.08333333  0.40830017
   0.66979317  0.91544771  0.50736273
   0.49978975 -0.00001079  0.60294313
   0.24858668  0.75007493  0.60295115
   0.83333333  0.83333333  0.40830017
   0.66790466  0.41708588  0.50773722
   0.74964113  0.25074873  0.60581359
   0.41723876  0.91483683  0.50647262
   0.49908759  0.50035753  0.60362351
   0.83333333  0.33333333  0.40830017
   0.41721439  0.41648254  0.50783084
   0.16505829  0.91609189  0.50455719
   0.75000459  0.75155364  0.60471514
Direct configuration=    11
   0.75006364 -0.00233343  0.61077557
   0.00026094  0.24935528  0.61261593
   0.16798743  0.16389644  0.50727301
   0.08333333  0.58333333  0.40830017
   0.74791931  0.49970543  0.61131486
  -0.00111132  0.50358067  0.60967390
   0.66865134  0.66676020  0.51067076
   0.83333333  0.58333333  0.40830017
   0.00191732 -0.00245098  0.60897538
   0.91685073  0.16841578  0.50778323
   0.58333333  0.58333333  0.40830017
   0.49858344  0.25353203  0.61309540
   0.08333333  0.33333333  0.40830017
   0.25143938  0.24872660  0.61548649
   0.33333333  0.58333333  0.40830017
   0.66626174  0.16752609  0.51118641
   0.83333333  0.08333333  0.40830017
   0.49692344  0.75359054  0.61221415
   0.58333333  0.83333333  0.40830017
   0.58333333  0.08333333  0.40830017
   0.41729237  0.16531007  0.50795881
   0.58333333  0.33333333  0.40830017
   0.41479438  0.66788600  0.50833730
   0.16718942  0.41814256  0.50945242
   0.16507103  0.66802506  0.50646423
   0.33333333  0.33333333  0.40830017
   0.24976760 -0.00037321  0.60271589
   0.33333333  0.08333333  0.40830017
   0.91644795  0.41716974  0.50910112
   0.91831084  0.91406603  0.50675821
   0.08333333  0.83333333  0.40830017
   0.91734857  0.66809231  0.50721746
   0.24933727  0.50359273  0.60428368
   0.00009684  0.74994470  0.60199868
   0.33333333  0.83333333  0.40830017
   0.08333333  0.08333333  0.40830017
   0.66979000  0.91521824  0.50760980
   0.49959980  0.00017857  0.60340942
   0.24849858  0.74986510  0.60306790
   0.83333333  0.83333333  0.40830017
   0.66774385  0.41736265  0.50793196
   0.74932098  0.25090867  0.60633468
   0.41747309  0.91479772  0.50666425
   0.49909408  0.50047093  0.60396125
   0.83333333  0.33333333  0.40830017
   0.41700602  0.41675265  0.50806023
   0.16505862  0.91571389  0.50505694
   0.74990577  0.75149277  0.60512828
Direct configuration=    12
   0.74986950 -0.00203289  0.61086484
   0.00043941  0.24920072  0.61271100
   0.16799808  0.16443539  0.50722136
   0.08333333  0.58333333  0.40830017
   0.74765813  0.50019105  0.61146862
  -0.00121143  0.50376887  0.60978153
   0.66822205  0.66673402  0.51065226
   0.83333333  0.58333333  0.40830017
   0.00167427 -0.00230603  0.60892598
   0.91687007  0.16797266  0.50775992
   0.58333333  0.58333333  0.40830017
   0.49877950  0.25332354  0.61317684
   0.08333333  0.33333333  0.40830017
   0.25150127  0.24868253  0.61560102
   0.33333333  0.58333333  0.40830017
   0.66651972  0.16739035  0.51110432
   0.83333333  0.08333333  0.40830017
   0.49722988  0.75328405  0.61215599
   0.58333333  0.83333333  0.40830017
   0.58333333  0.08333333  0.40830017
   0.41716979  0.16540773  0.50793486
   0.58333333  0.33333333  0.40830017
   0.41508664  0.66787307  0.50840028
   0.16733607  0.41782109  0.50937419
   0.16504518  0.66829426  0.50667100
   0.33333333  0.33333333  0.40830017
   0.24986552 -0.00011371  0.60303183
   0.33333333  0.08333333  0.40830017
   0.91625896  0.41738460  0.50935145
   0.91849588  0.91402231  0.50711069
   0.08333333  0.83333333  0.40830017
   0.91734282  0.66811691  0.50736232
   0.24939926  0.50354274  0.60456938
   0.00021256  0.74984947  0.60211707
   0.33333333  0.83333333  0.40830017
   0.08333333  0.08333333  0.40830017
   0.66978777  0.91505702  0.50778339
   0.49946635  0.00031161  0.60373702
   0.24843669  0.74971767  0.60314992
   0.83333333  0.83333333  0.40830017
   0.66763087  0.41755711  0.50806877
   0.74909605  0.25102103  0.60670078
   0.41763772  0.91477025  0.50679889
   0.49909864  0.50055060  0.60419853
   0.83333333  0.33333333  0.40830017
   0.41685962  0.41694243  0.50822140
   0.16505884  0.91544832  0.50540804
   0.74983634  0.75145001  0.60541854
Direct configuration=    13
   0.74987099 -0.00209316  0.61094991
   0.00021316  0.24937439  0.61282911
   0.16810432  0.16395811  0.50715074
   0.08333333  0.58333333  0.40830017
   0.74777768  0.50017537  0.61172124
  -0.00107493  0.50386080  0.60991719
   0.66865596  0.66682684  0.51064062
   0.83333333  0.58333333  0.40830017
   0.00164886 -0.00234387  0.60892092
   0.91686162  0.16771935  0.50765941
   0.58333333  0.58333333  0.40830017
   0.49861950  0.25342538  0.61324529
   0.08333333  0.33333333  0.40830017
   0.25164484  0.24889924  0.61573835
   0.33333333  0.58333333  0.40830017
   0.66717177  0.16706666  0.51108495
   0.83333333  0.08333333  0.40830017
   0.49685710  0.75355765  0.61204097
   0.58333333  0.83333333  0.40830017
   0.58333333  0.08333333  0.40830017
   0.41734833  0.16517245  0.50792102
   0.58333333  0.33333333  0.40830017
   0.41458961  0.66799292  0.50850913
   0.16732731  0.41845820  0.50934368
   0.16520226  0.66846207  0.50683230
   0.33333333  0.33333333  0.40830017
   0.25011031 -0.00025175  0.60342930
   0.33333333  0.08333333  0.40830017
   0.91579074  0.41784103  0.50954636
   0.91864378  0.91370787  0.50730630
   0.08333333  0.83333333  0.40830017
   0.91701741  0.66813482  0.50746418
   0.24955834  0.50344689  0.60486605
   0.00023471  0.74991003  0.60246318
   0.33333333  0.83333333  0.40830017
   0.08333333  0.08333333  0.40830017
   0.67001642  0.91487126  0.50802937
   0.49940786  0.00030029  0.60416973
   0.24865321  0.74949619  0.60329687
   0.83333333  0.83333333  0.40830017
   0.66757576  0.41734130  0.50827704
   0.74897775  0.25120808  0.60703750
   0.41724375  0.91509838  0.50693152
   0.49865424  0.50084957  0.60451592
   0.83333333  0.33333333  0.40830017
   0.41655388  0.41751162  0.50844003
   0.16533580  0.91527473  0.50569249
   0.74966911  0.75178486  0.60567594
Direct configuration=    14
   0.74987134 -0.00210728  0.61096984
   0.00016017  0.24941507  0.61285677
   0.16812921  0.16384631  0.50713419
   0.08333333  0.58333333  0.40830017
   0.74780568  0.50017170  0.61178042
  -0.00104295  0.50388233  0.60994896
   0.66875760  0.66684858  0.51063789
   0.83333333  0.58333333  0.40830017
   0.00164291 -0.00235273  0.60891973
   0.91685964  0.16766001  0.50763587
   0.58333333  0.58333333  0.40830017
   0.49858203  0.25344924  0.61326133
   0.08333333  0.33333333  0.40830017
   0.25167846  0.24895000  0.61577052
   0.33333333  0.58333333  0.40830017
   0.66732450  0.16699084  0.51108041
   0.83333333  0.08333333  0.40830017
   0.49676978  0.75362174  0.61201402
   0.58333333  0.83333333  0.40830017
   0.58333333  0.08333333  0.40830017
   0.41739015  0.16511734  0.50791778
   0.58333333  0.33333333  0.40830017
   0.41447318  0.66802100  0.50853462
   0.16732527  0.41860743  0.50933654
   0.16523906  0.66850137  0.50687008
   0.33333333  0.33333333  0.40830017
   0.25016765 -0.00028408  0.60352240
   0.33333333  0.08333333  0.40830017
   0.91568106  0.41794795  0.50959201
   0.91867842  0.91363421  0.50735212
   0.08333333  0.83333333  0.40830017
   0.91694118  0.66813902  0.50748804
   0.24959560  0.50342444  0.60493554
   0.00023990  0.74992422  0.60254426
   0.33333333  0.83333333  0.40830017
   0.08333333  0.08333333  0.40830017
   0.67006998  0.91482775  0.50808699
   0.49939417  0.00029763  0.60427109
   0.24870392  0.74944431  0.60333129
   0.83333333  0.83333333  0.40830017
   0.66756285  0.41729075  0.50832583
   0.74895004  0.25125189  0.60711637
   0.41715146  0.91517525  0.50696259
   0.49855015  0.50091960  0.60459027
   0.83333333  0.33333333  0.40830017
   0.41648227  0.41764494  0.50849124
   0.16540067  0.91523407  0.50575912
   0.74962994  0.75186329  0.60573624
Direct configuration=    15
   0.74992036 -0.00215478  0.61102781
   0.00010700  0.24952131  0.61286372
   0.16791356  0.16367122  0.50721796
   0.08333333  0.58333333  0.40830017
   0.74779768  0.50010529  0.61193552
  -0.00088716  0.50386852  0.61001646
   0.66873858  0.66704903  0.51070257
   0.83333333  0.58333333  0.40830017
   0.00187168 -0.00238527  0.60897519
   0.91703016  0.16795920  0.50762186
   0.58333333  0.58333333  0.40830017
   0.49854393  0.25358583  0.61324708
   0.08333333  0.33333333  0.40830017
   0.25149841  0.24911443  0.61579707
   0.33333333  0.58333333  0.40830017
   0.66719037  0.16702051  0.51120307
   0.83333333  0.08333333  0.40830017
   0.49653429  0.75384248  0.61192505
   0.58333333  0.83333333  0.40830017
   0.58333333  0.08333333  0.40830017
   0.41765891  0.16510495  0.50800733
   0.58333333  0.33333333  0.40830017
   0.41455064  0.66804677  0.50855731
   0.16719919  0.41894335  0.50940977
   0.16497310  0.66852258  0.50688627
   0.33333333  0.33333333  0.40830017
   0.24994685 -0.00017643  0.60371814
   0.33333333  0.08333333  0.40830017
   0.91592423  0.41762964  0.50959650
   0.91885504  0.91322210  0.50723209
   0.08333333  0.83333333  0.40830017
   0.91704124  0.66815813  0.50751837
   0.24952775  0.50348344  0.60505467
   0.00020614  0.74996856  0.60280489
   0.33333333  0.83333333  0.40830017
   0.08333333  0.08333333  0.40830017
   0.67003494  0.91503384  0.50820933
   0.49937646  0.00034965  0.60448348
   0.24871605  0.74952419  0.60352171
   0.83333333  0.83333333  0.40830017
   0.66742027  0.41729602  0.50848459
   0.74894233  0.25129897  0.60714084
   0.41708563  0.91510131  0.50701254
   0.49841095  0.50105178  0.60479565
   0.83333333  0.33333333  0.40830017
   0.41672010  0.41746855  0.50860043
   0.16543930  0.91540855  0.50575739
   0.74955803  0.75197047  0.60581432
Direct configuration=    16
   0.74992696 -0.00216118  0.61103562
   0.00009983  0.24953562  0.61286466
   0.16788450  0.16364762  0.50722925
   0.08333333  0.58333333  0.40830017
   0.74779660  0.50009634  0.61195642
  -0.00086616  0.50386666  0.61002555
   0.66873602  0.66707605  0.51071129
   0.83333333  0.58333333  0.40830017
   0.00190251 -0.00238966  0.60898267
   0.91705314  0.16799952  0.50761997
   0.58333333  0.58333333  0.40830017
   0.49853879  0.25360424  0.61324516
   0.08333333  0.33333333  0.40830017
   0.25147414  0.24913659  0.61580065
   0.33333333  0.58333333  0.40830017
   0.66717229  0.16702451  0.51121960
   0.83333333  0.08333333  0.40830017
   0.49650256  0.75387223  0.61191305
   0.58333333  0.83333333  0.40830017
   0.58333333  0.08333333  0.40830017
   0.41769513  0.16510328  0.50801939
   0.58333333  0.33333333  0.40830017
   0.41456108  0.66805024  0.50856037
   0.16718220  0.41898862  0.50941964
   0.16493726  0.66852544  0.50688845
   0.33333333  0.33333333  0.40830017
   0.24991709 -0.00016192  0.60374452
   0.33333333  0.08333333  0.40830017
   0.91595700  0.41758674  0.50959711
   0.91887884  0.91316656  0.50721591
   0.08333333  0.83333333  0.40830017
   0.91705472  0.66816070  0.50752246
   0.24951861  0.50349139  0.60507072
   0.00020159  0.74997453  0.60284001
   0.33333333  0.83333333  0.40830017
   0.08333333  0.08333333  0.40830017
   0.67003022  0.91506161  0.50822581
   0.49937408  0.00035666  0.60451210
   0.24871769  0.74953496  0.60354737
   0.83333333  0.83333333  0.40830017
   0.66740105  0.41729673  0.50850599
   0.74894129  0.25130531  0.60714413
   0.41707676  0.91509135  0.50701927
   0.49839219  0.50106959  0.60482333
   0.83333333  0.33333333  0.40830017
   0.41675215  0.41744478  0.50861515
   0.16544451  0.91543206  0.50575716
   0.74954834  0.75198491  0.60582484
Direct configuration=    17
   0.75005285 -0.00213633  0.61109910
   0.00003685  0.24966090  0.61286672
   0.16816254  0.16371740  0.50734832
   0.08333333  0.58333333  0.40830017