  56  56   0   0
  0.4903395E+02  0.1100258E-08  0.1100258E-08  0.2619179E-08  0.3500000E-15
  1.000000000000000E-004
  CAR 
 unknown system                          
      6.43294932    -21.97116472  301     -1.42140087      1.00000000
    -21.971  0.0000E+00  0.0000E+00
    -21.876  0.0000E+00  0.0000E+00
    -21.782  0.0000E+00  0.0000E+00
    -21.687  0.0000E+00  0.0000E+00
    -21.592  0.0000E+00  0.0000E+00
    -21.498  0.0000E+00  0.0000E+00
    -21.403  0.0000E+00  0.0000E+00
    -21.308  0.0000E+00  0.0000E+00
    -21.214  0.8896E-15  0.8423E-16
    -21.119  0.1082E-10  0.1025E-11
    -21.024  0.2282E-07  0.2162E-08
    -20.930  0.8514E-05  0.8082E-06
    -20.835  0.5812E-03  0.5584E-04
    -20.740  0.7651E-02  0.7802E-03
    -20.646  0.2074E-01  0.2744E-02
    -20.551  0.1421E-01  0.4090E-02
    -20.456  0.1624E-01  0.5628E-02
    -20.362  0.2309E-01  0.7814E-02
    -20.267  0.2536E-01  0.1021E-01
    -20.172  0.3349E-01  0.1339E-01
    -20.078  0.2338E-01  0.1560E-01
    -19.983  0.1444E-01  0.1697E-01
    -19.888  0.2123E-01  0.1898E-01
    -19.794  0.1002E-01  0.1993E-01
    -19.699  0.4976E-02  0.2040E-01
    -19.604  0.1786E-01  0.2209E-01
    -19.509  0.1675E-01  0.2367E-01
    -19.415  0.3857E-02  0.2404E-01
    -19.320  0.7487E-02  0.2475E-01
    -19.225  0.2064E-01  0.2670E-01
    -19.131  0.1463E-01  0.2809E-01
    -19.036  0.1636E-01  0.2964E-01
    -18.941  0.1934E-01  0.3147E-01
    -18.847  0.5327E-02  0.3197E-01
    -18.752  0.2984E-03  0.3200E-01
    -18.657  0.3186E-05  0.3200E-01
    -18.563  0.6178E-08  0.3200E-01
    -18.468  0.2109E-11  0.3200E-01
    -18.373  0.1227E-15  0.3200E-01
    -18.279  0.0000E+00  0.3200E-01
    -18.184  0.0000E+00  0.3200E-01
    -18.089  0.0000E+00  0.3200E-01
    -17.995  0.0000E+00  0.3200E-01
    -17.900  0.0000E+00  0.3200E-01
    -17.805  0.0000E+00  0.3200E-01
    -17.711  0.0000E+00  0.3200E-01
    -17.616  0.0000E+00  0.3200E-01
    -17.521  0.0000E+00  0.3200E-01
    -17.427  0.0000E+00  0.3200E-01
    -17.332  0.0000E+00  0.3200E-01
    -17.237  0.0000E+00  0.3200E-01
    -17.142  0.0000E+00  0.3200E-01
    -17.048  0.0000E+00  0.3200E-01
    -16.953  0.0000E+00  0.3200E-01
    -16.858  0.0000E+00  0.3200E-01
    -16.764  0.0000E+00  0.3200E-01
    -16.669  0.0000E+00  0.3200E-01
    -16.574  0.0000E+00  0.3200E-01
    -16.480  0.0000E+00  0.3200E-01
    -16.385  0.0000E+00  0.3200E-01
    -16.290  0.0000E+00  0.3200E-01
    -16.196  0.0000E+00  0.3200E-01
    -16.101  0.0000E+00  0.3200E-01
    -16.006  0.0000E+00  0.3200E-01
    -15.912  0.0000E+00  0.3200E-01
    -15.817  0.0000E+00  0.3200E-01
    -15.722  0.0000E+00  0.3200E-01
    -15.628  0.0000E+00  0.3200E-01
    -15.533  0.0000E+00  0.3200E-01
    -15.438  0.0000E+00  0.3200E-01
    -15.344  0.0000E+00  0.3200E-01
    -15.249  0.0000E+00  0.3200E-01
    -15.154  0.0000E+00  0.3200E-01
    -15.059  0.0000E+00  0.3200E-01
    -14.965  0.0000E+00  0.3200E-01
    -14.870  0.0000E+00  0.3200E-01
    -14.775  0.0000E+00  0.3200E-01
    -14.681  0.0000E+00  0.3200E-01
    -14.586  0.0000E+00  0.3200E-01
    -14.491  0.0000E+00  0.3200E-01
    -14.397  0.0000E+00  0.3200E-01
    -14.302  0.0000E+00  0.3200E-01
    -14.207  0.0000E+00  0.3200E-01
    -14.113  0.0000E+00  0.3200E-01
    -14.018  0.0000E+00  0.3200E-01
    -13.923  0.0000E+00  0.3200E-01
    -13.829  0.0000E+00  0.3200E-01
    -13.734  0.0000E+00  0.3200E-01
    -13.639  0.0000E+00  0.3200E-01
    -13.545  0.0000E+00  0.3200E-01
    -13.450  0.0000E+00  0.3200E-01
    -13.355  0.0000E+00  0.3200E-01
    -13.261  0.0000E+00  0.3200E-01
    -13.166  0.0000E+00  0.3200E-01
    -13.071  0.0000E+00  0.3200E-01
    -12.977  0.0000E+00  0.3200E-01
    -12.882  0.0000E+00  0.3200E-01
    -12.787  0.0000E+00  0.3200E-01
    -12.692  0.0000E+00  0.3200E-01
    -12.598  0.0000E+00  0.3200E-01
    -12.503  0.0000E+00  0.3200E-01
    -12.408  0.0000E+00  0.3200E-01
    -12.314  0.0000E+00  0.3200E-01
    -12.219  0.0000E+00  0.3200E-01
    -12.124  0.0000E+00  0.3200E-01
    -12.030  0.0000E+00  0.3200E-01
    -11.935  0.0000E+00  0.3200E-01
    -11.840  0.0000E+00  0.3200E-01
    -11.746  0.0000E+00  0.3200E-01
    -11.651  0.0000E+00  0.3200E-01
    -11.556  0.0000E+00  0.3200E-01
    -11.462  0.0000E+00  0.3200E-01
    -11.367  0.0000E+00  0.3200E-01
    -11.272  0.0000E+00  0.3200E-01
    -11.178  0.0000E+00  0.3200E-01
    -11.083  0.0000E+00  0.3200E-01
    -10.988  0.0000E+00  0.3200E-01
    -10.894  0.0000E+00  0.3200E-01
    -10.799  0.0000E+00  0.3200E-01
    -10.704  0.0000E+00  0.3200E-01
    -10.610  0.0000E+00  0.3200E-01
    -10.515  0.0000E+00  0.3200E-01
    -10.420  0.0000E+00  0.3200E-01
    -10.325  0.0000E+00  0.3200E-01
    -10.231  0.0000E+00  0.3200E-01
    -10.136  0.0000E+00  0.3200E-01
    -10.041  0.0000E+00  0.3200E-01
     -9.947  0.0000E+00  0.3200E-01
     -9.852  0.0000E+00  0.3200E-01
     -9.757  0.0000E+00  0.3200E-01
     -9.663  0.0000E+00  0.3200E-01
     -9.568  0.6515E-14  0.3200E-01
     -9.473  0.4950E-10  0.3200E-01
     -9.379  0.6555E-07  0.3200E-01
     -9.284  0.1548E-04  0.3200E-01
     -9.189  0.6769E-03  0.3207E-01
     -9.095  0.5821E-02  0.3262E-01
     -9.000  0.1104E-01  0.3366E-01
     -8.905  0.9723E-02  0.3458E-01
     -8.811  0.1129E-01  0.3565E-01
     -8.716  0.1181E-01  0.3677E-01
     -8.621  0.2340E-01  0.3898E-01
     -8.527  0.2634E-01  0.4148E-01
     -8.432  0.2557E-01  0.4390E-01
     -8.337  0.2879E-01  0.4662E-01
     -8.243  0.3836E-01  0.5026E-01
     -8.148  0.3797E-01  0.5385E-01
     -8.053  0.3901E-01  0.5755E-01
     -7.958  0.4620E-01  0.6192E-01
     -7.864  0.4987E-01  0.6664E-01
     -7.769  0.6354E-01  0.7266E-01
     -7.674  0.8061E-01  0.8029E-01
     -7.580  0.7874E-01  0.8775E-01
     -7.485  0.8738E-01  0.9602E-01
     -7.390  0.1022E+00  0.1057E+00
     -7.296  0.1154E+00  0.1166E+00
     -7.201  0.1148E+00  0.1275E+00
     -7.106  0.1120E+00  0.1381E+00
     -7.012  0.1237E+00  0.1498E+00
     -6.917  0.1388E+00  0.1629E+00
     -6.822  0.1534E+00  0.1775E+00
     -6.728  0.1526E+00  0.1919E+00
     -6.633  0.1473E+00  0.2059E+00
     -6.538  0.1658E+00  0.2216E+00
     -6.444  0.1824E+00  0.2388E+00
     -6.349  0.1759E+00  0.2555E+00
     -6.254  0.1666E+00  0.2713E+00
     -6.160  0.1601E+00  0.2864E+00
     -6.065  0.1558E+00  0.3012E+00
     -5.970  0.1571E+00  0.3160E+00
     -5.876  0.1547E+00  0.3307E+00
     -5.781  0.1546E+00  0.3453E+00
     -5.686  0.1589E+00  0.3604E+00
     -5.591  0.1589E+00  0.3754E+00
     -5.497  0.1654E+00  0.3911E+00
     -5.402  0.1801E+00  0.4081E+00
     -5.307  0.1825E+00  0.4254E+00
     -5.213  0.1818E+00  0.4426E+00
     -5.118  0.1816E+00  0.4598E+00
     -5.023  0.1801E+00  0.4769E+00
     -4.929  0.1729E+00  0.4932E+00
     -4.834  0.1783E+00  0.5101E+00
     -4.739  0.1843E+00  0.5276E+00
     -4.645  0.1753E+00  0.5442E+00
     -4.550  0.1788E+00  0.5611E+00
     -4.455  0.1854E+00  0.5787E+00
     -4.361  0.1892E+00  0.5966E+00
     -4.266  0.1998E+00  0.6155E+00
     -4.171  0.2026E+00  0.6347E+00
     -4.077  0.1968E+00  0.6533E+00
     -3.982  0.1972E+00  0.6720E+00
     -3.887  0.1887E+00  0.6898E+00
     -3.793  0.1808E+00  0.7070E+00
     -3.698  0.1826E+00  0.7242E+00
     -3.603  0.1794E+00  0.7412E+00
     -3.508  0.1717E+00  0.7575E+00
     -3.414  0.1714E+00  0.7737E+00
     -3.319  0.1738E+00  0.7902E+00
     -3.224  0.1714E+00  0.8064E+00
     -3.130  0.1714E+00  0.8226E+00
     -3.035  0.1750E+00  0.8392E+00
     -2.940  0.1814E+00  0.8564E+00
     -2.846  0.1823E+00  0.8736E+00
     -2.751  0.1777E+00  0.8904E+00
     -2.656  0.1754E+00  0.9070E+00
     -2.562  0.1772E+00  0.9238E+00
     -2.467  0.1895E+00  0.9418E+00
     -2.372  0.2033E+00  0.9610E+00
     -2.278  0.1990E+00  0.9799E+00
     -2.183  0.1966E+00  0.9985E+00
     -2.088  0.1955E+00  0.1017E+01
     -1.994  0.1843E+00  0.1034E+01
     -1.899  0.1631E+00  0.1050E+01
     -1.804  0.1405E+00  0.1063E+01
     -1.710  0.1147E+00  0.1074E+01
     -1.615  0.1153E+00  0.1085E+01
     -1.520  0.1083E+00  0.1095E+01
     -1.426  0.8926E-01  0.1104E+01
     -1.331  0.7707E-01  0.1111E+01
     -1.236  0.6359E-01  0.1117E+01
     -1.141  0.6043E-01  0.1123E+01
     -1.047  0.6541E-01  0.1129E+01
     -0.952  0.5842E-01  0.1134E+01
     -0.857  0.5153E-01  0.1139E+01
     -0.763  0.5318E-01  0.1144E+01
     -0.668  0.5467E-01  0.1150E+01
     -0.573  0.5823E-01  0.1155E+01
     -0.479  0.5439E-01  0.1160E+01
     -0.384  0.3850E-01  0.1164E+01
     -0.289  0.2819E-01  0.1166E+01
     -0.195  0.2463E-01  0.1169E+01
     -0.100  0.2058E-01  0.1171E+01
     -0.005  0.2294E-01  0.1173E+01
      0.089  0.2437E-01  0.1175E+01
      0.184  0.1866E-01  0.1177E+01
      0.279  0.1968E-01  0.1179E+01
      0.373  0.2762E-01  0.1181E+01
      0.468  0.3805E-01  0.1185E+01
      0.563  0.3746E-01  0.1189E+01
      0.657  0.3239E-01  0.1192E+01
      0.752  0.3421E-01  0.1195E+01
      0.847  0.3581E-01  0.1198E+01
      0.941  0.2689E-01  0.1201E+01
      1.036  0.2288E-01  0.1203E+01
      1.131  0.2675E-01  0.1206E+01
      1.226  0.2081E-01  0.1208E+01
      1.320  0.2063E-01  0.1210E+01
      1.415  0.2674E-01  0.1212E+01
      1.510  0.2728E-01  0.1215E+01
      1.604  0.3225E-01  0.1218E+01
      1.699  0.2859E-01  0.1220E+01
      1.794  0.2460E-01  0.1223E+01
      1.888  0.3363E-01  0.1226E+01
      1.983  0.3718E-01  0.1229E+01
      2.078  0.3828E-01  0.1233E+01
      2.172  0.3378E-01  0.1236E+01
      2.267  0.2685E-01  0.1239E+01
      2.362  0.2551E-01  0.1241E+01
      2.456  0.2357E-01  0.1243E+01
      2.551  0.2093E-01  0.1245E+01
      2.646  0.1854E-01  0.1247E+01
      2.740  0.1842E-01  0.1249E+01
      2.835  0.1972E-01  0.1251E+01
      2.930  0.2352E-01  0.1253E+01
      3.024  0.2529E-01  0.1255E+01
      3.119  0.2680E-01  0.1258E+01
      3.214  0.2873E-01  0.1261E+01
      3.308  0.3017E-01  0.1264E+01
      3.403  0.2637E-01  0.1266E+01
      3.498  0.2631E-01  0.1268E+01
      3.593  0.3043E-01  0.1271E+01
      3.687  0.3680E-01  0.1275E+01
      3.782  0.4004E-01  0.1279E+01
      3.877  0.3565E-01  0.1282E+01
      3.971  0.3447E-01  0.1285E+01
      4.066  0.3424E-01  0.1289E+01
      4.161  0.3237E-01  0.1292E+01
      4.255  0.3728E-01  0.1295E+01
      4.350  0.4528E-01  0.1299E+01
      4.445  0.4664E-01  0.1304E+01
      4.539  0.5144E-01  0.1309E+01
      4.634  0.5371E-01  0.1314E+01
      4.729  0.5456E-01  0.1319E+01
      4.823  0.5154E-01  0.1324E+01
      4.918  0.5633E-01  0.1329E+01
      5.013  0.5821E-01  0.1335E+01
      5.107  0.5540E-01  0.1340E+01
      5.202  0.3464E-01  0.1343E+01
      5.297  0.7953E-02  0.1344E+01
      5.391  0.4683E-03  0.1344E+01
      5.486  0.5849E-05  0.1344E+01
      5.581  0.1401E-07  0.1344E+01
      5.676  0.6088E-11  0.1344E+01
      5.770  0.4643E-15  0.1344E+01
      5.865  0.0000E+00  0.1344E+01
      5.960  0.0000E+00  0.1344E+01
      6.054  0.0000E+00  0.1344E+01
      6.149  0.0000E+00  0.1344E+01
      6.244  0.0000E+00  0.1344E+01
      6.338  0.0000E+00  0.1344E+01
      6.433  0.0000E+00  0.1344E+01
