<?xml version="1.0" encoding="ISO-8859-1"?>
<modeling>
 <generator>
  <i name="program" type="string">vasp </i>
  <i name="version" type="string">5.4.1  </i>
  <i name="subversion" type="string">24Jun15 (build Mar 14 2019 10:18:33) complex                          parallel </i>
  <i name="platform" type="string">INTEL-19.0.2+OPENMPI-3.1.3 </i>
  <i name="date" type="string">2023 01 23 </i>
  <i name="time" type="string">15:38:10 </i>
 </generator>
 <incar>
  <i type="int" name="ISTART">     0</i>
  <i type="string" name="PREC">normal</i>
  <i type="string" name="ALGO"> Fast</i>
  <i type="int" name="NELM">   500</i>
  <i type="int" name="IBRION">     2</i>
  <i type="int" name="NFREE">     2</i>
  <i name="EDIFF">      0.00000100</i>
  <i name="EDIFFG">     -0.02000000</i>
  <i type="int" name="NSW">   500</i>
  <i type="int" name="ISIF">     0</i>
  <i type="int" name="ISYM">     2</i>
  <i name="ENCUT">    400.00000000</i>
  <i name="POTIM">      0.35000000</i>
  <i type="string" name="LREAL"> Auto</i>
  <i type="logical" name="LPLANE"> T  </i>
  <i type="int" name="ISMEAR">     0</i>
  <i name="SIGMA">      0.10000000</i>
  <i type="int" name="NWRITE">     1</i>
  <i type="logical" name="LWAVE"> F  </i>
  <i type="logical" name="LCHARG"> F  </i>
  <i type="logical" name="LVTOT"> F  </i>
  <i type="logical" name="LORBIT"> F  </i>
  <i type="logical" name="LAECHG"> F  </i>
  <v type="int" name="KPOINT_BSE">    -1     0     0     0</v>
  <i type="int" name="NELM">   500</i>
  <i type="string" name="GGA"> PE          ! optPBE-vdW XC-functional</i>
  <i type="int" name="VOSKOWN">     1</i>
  <i type="logical" name="LDIPOL"> T  </i>
  <i type="logical" name="LMONO"> F  </i>
  <i type="int" name="IDIPOL">     3</i>
  <v name="DIPOL">      0.00000000      0.00000000      0.50000000</v>
 </incar>
 <kpoints>
  <generation param="Monkhorst-Pack">
   <v type="int" name="divisions">       2        2        1 </v>
   <v name="usershift">      0.00000000       0.00000000       0.00000000 </v>
   <v name="genvec1">      0.50000000       0.00000000       0.00000000 </v>
   <v name="genvec2">      0.00000000       0.50000000       0.00000000 </v>
   <v name="genvec3">      0.00000000       0.00000000       1.00000000 </v>
   <v name="shift">      0.50000000       0.50000000       0.00000000 </v>
  </generation>
  <varray name="kpointlist" >
   <v>       0.25000000       0.25000000       0.00000000 </v>
   <v>       0.00000000       0.25000000       0.00000000 </v>
   <v>      -0.25000000       0.00000000       0.00000000 </v>
   <v>      -0.25000000       0.25000000       0.00000000 </v>
   <v>       0.50000000      -0.25000000       0.00000000 </v>
   <v>      -0.25000000       0.50000000       0.00000000 </v>
  </varray>
  <varray name="weights" >
   <v>       0.16666667 </v>
   <v>       0.16666667 </v>
   <v>       0.16666667 </v>
   <v>       0.16666667 </v>
   <v>       0.16666667 </v>
   <v>       0.16666667 </v>
  </varray>
 </kpoints>
 <parameters>
  <separator name="general" >
   <i type="string" name="SYSTEM">unknown system</i>
   <i type="logical" name="LCOMPAT"> F  </i>
  </separator>
  <separator name="electronic" >
   <i type="string" name="PREC">normal</i>
   <i name="ENMAX">    400.00000000</i>
   <i name="ENAUG">    605.39200000</i>
   <i name="EDIFF">      0.00000100</i>
   <i type="int" name="IALGO">    68</i>
   <i type="int" name="IWAVPR">    11</i>
   <i type="int" name="NBANDS">   336</i>
   <i name="NELECT">    552.00000000</i>
   <i type="int" name="TURBO">     0</i>
   <i type="int" name="IRESTART">     0</i>
   <i type="int" name="NREBOOT">     0</i>
   <i type="int" name="NMIN">     0</i>
   <i name="EREF">      0.00000000</i>
   <separator name="electronic smearing" >
    <i type="int" name="ISMEAR">     0</i>
    <i name="SIGMA">      0.10000000</i>
    <i name="KSPACING">      0.50000000</i>
    <i type="logical" name="KGAMMA"> T  </i>
   </separator>
   <separator name="electronic projectors" >
    <i type="logical" name="LREAL"> T  </i>
    <v name="ROPT">     -0.00050000     -0.00050000     -0.00050000</v>
    <i type="int" name="LMAXPAW">  -100</i>
    <i type="int" name="LMAXMIX">     2</i>
    <i type="logical" name="NLSPLINE"> F  </i>
   </separator>
   <separator name="electronic startup" >
    <i type="int" name="ISTART">     0</i>
    <i type="int" name="ICHARG">     2</i>
    <i type="int" name="INIWAV">     1</i>
   </separator>
   <separator name="electronic spin" >
    <i type="int" name="ISPIN">     1</i>
    <i type="logical" name="LNONCOLLINEAR"> F  </i>
    <v name="MAGMOM">      1.00000000      1.00000000      1.00000000      1.00000000      1.00000000      1.00000000      1.00000000      1.00000000      1.00000000      1.00000000      1.00000000      1.00000000      1.00000000      1.00000000      1.00000000      1.00000000      1.00000000      1.00000000      1.00000000      1.00000000
      1.00000000      1.00000000      1.00000000      1.00000000      1.00000000      1.00000000      1.00000000      1.00000000      1.00000000      1.00000000      1.00000000      1.00000000      1.00000000      1.00000000      1.00000000      1.00000000      1.00000000      1.00000000      1.00000000      1.00000000
      1.00000000      1.00000000      1.00000000      1.00000000      1.00000000      1.00000000      1.00000000      1.00000000      1.00000000      1.00000000      1.00000000      1.00000000      1.00000000      1.00000000      1.00000000      1.00000000</v>
    <i name="NUPDOWN">     -1.00000000</i>
    <i type="logical" name="LSORBIT"> F  </i>
    <v name="SAXIS">      0.00000000      0.00000000      1.00000000</v>
    <i type="logical" name="LSPIRAL"> F  </i>
    <v name="QSPIRAL">      0.00000000      0.00000000      0.00000000</v>
    <i type="logical" name="LZEROZ"> F  </i>
   </separator>
   <separator name="electronic exchange-correlation" >
    <i type="logical" name="LASPH"> F  </i>
    <i type="logical" name="LMETAGGA"> F  </i>
   </separator>
   <separator name="electronic convergence" >
    <i type="int" name="NELM">   500</i>
    <i type="int" name="NELMDL">    -5</i>
    <i type="int" name="NELMIN">     2</i>
    <i name="ENINI">    400.00000000</i>
    <separator name="electronic convergence detail" >
     <i type="logical" name="LDIAG"> T  </i>
     <i type="logical" name="LSUBROT"> F  </i>
     <i name="WEIMIN">      0.00100000</i>
     <i name="EBREAK">      0.00000000</i>
     <i name="DEPER">      0.30000000</i>
     <i type="int" name="NRMM">     4</i>
     <i name="TIME">      0.40000000</i>
    </separator>
   </separator>
   <separator name="electronic mixer" >
    <i name="AMIX">      0.40000000</i>
    <i name="BMIX">      1.00000000</i>
    <i name="AMIN">      0.10000000</i>
    <i name="AMIX_MAG">      1.60000000</i>
    <i name="BMIX_MAG">      1.00000000</i>
    <separator name="electronic mixer details" >
     <i type="int" name="IMIX">     4</i>
     <i type="logical" name="MIXFIRST"> F  </i>
     <i type="int" name="MAXMIX">   -45</i>
     <i name="WC">    100.00000000</i>
     <i type="int" name="INIMIX">     1</i>
     <i type="int" name="MIXPRE">     1</i>
     <i type="int" name="MREMOVE">     5</i>
    </separator>
   </separator>
   <separator name="electronic dipolcorrection" >
    <i type="logical" name="LDIPOL"> T  </i>
    <i type="logical" name="LMONO"> F  </i>
    <i type="int" name="IDIPOL">     3</i>
    <i name="EPSILON">      1.00000000</i>
    <v name="DIPOL">      0.00000000      0.00000000      0.50000000</v>
    <i name="EFIELD">      0.00000000</i>
   </separator>
  </separator>
  <separator name="grids" >
   <i type="int" name="NGX">    54</i>
   <i type="int" name="NGY">    54</i>
   <i type="int" name="NGZ">   128</i>
   <i type="int" name="NGXF">   108</i>
   <i type="int" name="NGYF">   108</i>
   <i type="int" name="NGZF">   256</i>
   <i type="logical" name="ADDGRID"> F  </i>
  </separator>
  <separator name="ionic" >
   <i type="int" name="NSW">   500</i>
   <i type="int" name="IBRION">     2</i>
   <i type="int" name="ISIF">     0</i>
   <i name="PSTRESS">      0.00000000</i>
   <i name="EDIFFG">     -0.02000000</i>
   <i type="int" name="NFREE">     2</i>
   <i name="POTIM">      0.35000000</i>
   <i name="SMASS">     -3.00000000</i>
   <i name="SCALEE">      1.00000000</i>
  </separator>
  <separator name="ionic md" >
   <i name="TEBEG">      0.00010000</i>
   <i name="TEEND">      0.00010000</i>
   <i type="int" name="NBLOCK">     1</i>
   <i type="int" name="KBLOCK">   500</i>
   <i type="int" name="NPACO">   256</i>
   <i name="APACO">     16.00000000</i>
  </separator>
  <separator name="symmetry" >
   <i type="int" name="ISYM">     2</i>
   <i name="SYMPREC">      0.00001000</i>
  </separator>
  <separator name="dos" >
   <i type="logical" name="LORBIT"> F  </i>
   <v name="RWIGS">     -1.00000000     -1.00000000     -1.00000000</v>
   <i type="int" name="NEDOS">   301</i>
   <i name="EMIN">     10.00000000</i>
   <i name="EMAX">    -10.00000000</i>
   <i name="EFERMI">      0.00000000</i>
  </separator>
  <separator name="writing" >
   <i type="int" name="NWRITE">     1</i>
   <i type="logical" name="LWAVE"> F  </i>
   <i type="logical" name="LCHARG"> F  </i>
   <i type="logical" name="LPARD"> F  </i>
   <i type="logical" name="LVTOT"> F  </i>
   <i type="logical" name="LVHAR"> F  </i>
   <i type="logical" name="LELF"> F  </i>
   <i type="logical" name="LOPTICS"> F  </i>
   <v name="STM">      0.00000000      0.00000000      0.00000000      0.00000000      0.00000000      0.00000000      0.00000000</v>
  </separator>
  <separator name="performance" >
   <i type="int" name="NPAR">     6</i>
   <i type="int" name="NSIM">     4</i>
   <i type="int" name="NBLK">    -1</i>
   <i type="logical" name="LPLANE"> T  </i>
   <i type="logical" name="LSCALAPACK"> T  </i>
   <i type="logical" name="LSCAAWARE"> F  </i>
   <i type="logical" name="LSCALU"> F  </i>
   <i type="logical" name="LASYNC"> F  </i>
   <i type="logical" name="LORBITALREAL"> F  </i>
  </separator>
  <separator name="miscellaneous" >
   <i type="int" name="IDIOT">     3</i>
   <i type="logical" name="LMUSIC"> F  </i>
   <v name="POMASS">    196.96600000     16.00000000    106.42000000</v>
   <v name="DARWINR">      0.00000000      0.00000000      0.00000000</v>
   <v name="DARWINV">      1.00000000      1.00000000      1.00000000</v>
   <i type="logical" name="LCORR"> T  </i>
  </separator>
  <i type="logical" name="GGA_COMPAT"> T  </i>
  <i type="logical" name="LBERRY"> F  </i>
  <i type="int" name="ICORELEVEL">     0</i>
  <i type="logical" name="LDAU"> F  </i>
  <i type="int" name="I_CONSTRAINED_M">     0</i>
  <separator name="electronic exchange-correlation" >
   <i type="string" name="GGA">PE</i>
   <i type="int" name="VOSKOWN">     1</i>
   <i type="logical" name="LHFCALC"> F  </i>
   <i type="string" name="PRECFOCK"></i>
   <i type="logical" name="LSYMGRAD"> F  </i>
   <i type="logical" name="LHFONE"> F  </i>
   <i type="logical" name="LRHFCALC"> F  </i>
   <i type="logical" name="LTHOMAS"> F  </i>
   <i type="logical" name="LMODELHF"> F  </i>
   <i name="ENCUT4O">     -1.00000000</i>
   <i type="int" name="EXXOEP">     0</i>
   <i type="int" name="FOURORBIT">     0</i>
   <i name="AEXX">      0.00000000</i>
   <i name="HFALPHA">      0.00000000</i>
   <i name="MCALPHA">      0.00000000</i>
   <i name="ALDAX">      1.00000000</i>
   <i name="AGGAX">      1.00000000</i>
   <i name="ALDAC">      1.00000000</i>
   <i name="AGGAC">      1.00000000</i>
   <i type="int" name="NKREDX">     1</i>
   <i type="int" name="NKREDY">     1</i>
   <i type="int" name="NKREDZ">     1</i>
   <i type="logical" name="SHIFTRED"> F  </i>
   <i type="logical" name="ODDONLY"> F  </i>
   <i type="logical" name="EVENONLY"> F  </i>
   <i type="int" name="LMAXFOCK">     0</i>
   <i type="int" name="NMAXFOCKAE">     0</i>
   <i type="logical" name="LFOCKAEDFT"> F  </i>
   <i name="HFSCREEN">      0.00000000</i>
   <i name="HFSCREENC">      0.00000000</i>
   <i type="int" name="NBANDSGWLOW">     0</i>
  </separator>
  <separator name="vdW DFT" >
   <i type="logical" name="LUSE_VDW"> F  </i>
   <i name="Zab_VDW">     -0.84910000</i>
   <i name="PARAM1">      0.12340000</i>
   <i name="PARAM2">      1.00000000</i>
   <i name="PARAM3">      0.00000000</i>
  </separator>
  <separator name="model GW" >
   <i type="int" name="MODEL_GW">     0</i>
   <i name="MODEL_EPS0">     29.42037089</i>
   <i name="MODEL_ALPHA">      1.00000000</i>
  </separator>
  <separator name="linear response parameters" >
   <i type="logical" name="LEPSILON"> F  </i>
   <i type="logical" name="LRPA"> F  </i>
   <i type="logical" name="LNABLA"> F  </i>
   <i type="logical" name="LVEL"> F  </i>
   <i type="int" name="KINTER">     0</i>
   <i name="CSHIFT">      0.10000000</i>
   <i name="OMEGAMAX">     -1.00000000</i>
   <i name="DEG_THRESHOLD">      0.00200000</i>
  </separator>
  <separator name="orbital magnetization" >
   <i type="logical" name="NUCIND"> F  </i>
   <v name="MAGPOS">      0.00000000      0.00000000      0.00000000</v>
   <i type="logical" name="LNICSALL"> T  </i>
   <i type="logical" name="ORBITALMAG"> F  </i>
   <i type="logical" name="LMAGBLOCH"> F  </i>
   <i type="logical" name="LCHIMAG"> F  </i>
   <i type="logical" name="LGAUGE"> T  </i>
   <i type="int" name="MAGATOM">     0</i>
   <v name="MAGDIPOL">      0.00000000      0.00000000      0.00000000</v>
   <v name="AVECCONST">      0.00000000      0.00000000      0.00000000</v>
  </separator>
  <separator name="response functions" >
   <i type="logical" name="LADDER"> F  </i>
   <i type="logical" name="LFXC"> F  </i>
   <i type="logical" name="LHARTREE"> T  </i>
   <i type="int" name="IBSE">     0</i>
   <v type="int" name="KPOINT">    -1     0     0     0</v>
   <i type="logical" name="LTCTE"> F  </i>
   <i type="logical" name="LTETE"> F  </i>
   <i type="logical" name="LTRIPLET"> F  </i>
   <i type="logical" name="LFXCEPS"> F  </i>
   <i type="logical" name="LFXHEG"> F  </i>
   <i type="int" name="NATURALO">     0</i>
   <i type="logical" name="L2ORDER"> F  </i>
   <i type="logical" name="LUSEW"> F  </i>
   <i name="ENCUTGW">     -2.00000000</i>
   <i name="ENCUTGWSOFT">     -2.00000000</i>
   <i name="ENCUTLF">     -1.00000000</i>
   <i type="int" name="LMAXMP2">    -1</i>
   <i name="SCISSOR">      0.00000000</i>
   <i type="int" name="NOMEGA">     0</i>
   <i type="int" name="NOMEGAR">     0</i>
   <i type="int" name="NBANDSGW">    -1</i>
   <i type="int" name="NBANDSO">    -1</i>
   <i type="int" name="NBANDSV">    -1</i>
   <i type="int" name="NELM">   500</i>
   <i type="int" name="NELMHF">     1</i>
   <i type="int" name="DIM">     3</i>
   <i type="int" name="ANTIRES">     0</i>
   <i name="OMEGAMAX">    -30.00000000</i>
   <i name="OMEGAMIN">    -30.00000000</i>
   <i name="OMEGATL">   -200.00000000</i>
   <i type="int" name="OMEGAGRID">     0</i>
   <i name="CSHIFT">     -0.10000000</i>
   <i type="logical" name="SELFENERGY"> F  </i>
   <i type="logical" name="LSPECTRAL"> F  </i>
   <i type="logical" name="LSPECTRALGW"> F  </i>
   <i type="logical" name="LSINGLES"> F  </i>
   <i type="logical" name="LFERMIGW"> F  </i>
   <i type="logical" name="ODDONLYGW"> F  </i>
   <i type="logical" name="EVENONLYGW"> F  </i>
   <i type="int" name="NKREDLFX">     1</i>
   <i type="int" name="NKREDLFY">     1</i>
   <i type="int" name="NKREDLFZ">     1</i>
   <i type="int" name="MAXMEM">  1800</i>
   <i type="int" name="TELESCOPE">     0</i>
   <i type="int" name="TAUPAR">     1</i>
   <i type="int" name="OMEGAPAR">    -1</i>
   <i name="LAMBDA">      1.00000000</i>
  </separator>
  <separator name="External order field" >
   <i name="OFIELD_KAPPA">      0.00000000</i>
   <v name="OFIELD_K">      0.00000000      0.00000000      0.00000000</v>
   <i name="OFIELD_Q6_NEAR">      0.00000000</i>
   <i name="OFIELD_Q6_FAR">      0.00000000</i>
   <i name="OFIELD_A">      0.00000000</i>
  </separator>
 </parameters>
 <atominfo>
  <atoms>      56 </atoms>
  <types>       3 </types>
  <array name="atoms" >
   <dimension dim="1">ion</dimension>
   <field type="string">element</field>
   <field type="int">atomtype</field>
   <set>
    <rc><c>Au</c><c>   1</c></rc>
    <rc><c>Au</c><c>   1</c></rc>
    <rc><c>Au</c><c>   1</c></rc>
    <rc><c>Au</c><c>   1</c></rc>
    <rc><c>Au</c><c>   1</c></rc>
    <rc><c>Au</c><c>   1</c></rc>
    <rc><c>Au</c><c>   1</c></rc>
    <rc><c>Au</c><c>   1</c></rc>
    <rc><c>Au</c><c>   1</c></rc>
    <rc><c>Au</c><c>   1</c></rc>
    <rc><c>Au</c><c>   1</c></rc>
    <rc><c>Au</c><c>   1</c></rc>
    <rc><c>Au</c><c>   1</c></rc>
    <rc><c>Au</c><c>   1</c></rc>
    <rc><c>Au</c><c>   1</c></rc>
    <rc><c>Au</c><c>   1</c></rc>
    <rc><c>Au</c><c>   1</c></rc>
    <rc><c>Au</c><c>   1</c></rc>
    <rc><c>Au</c><c>   1</c></rc>
    <rc><c>Au</c><c>   1</c></rc>
    <rc><c>Au</c><c>   1</c></rc>
    <rc><c>Au</c><c>   1</c></rc>
    <rc><c>Au</c><c>   1</c></rc>
    <rc><c>Au</c><c>   1</c></rc>
    <rc><c>O </c><c>   2</c></rc>
    <rc><c>O </c><c>   2</c></rc>
    <rc><c>O </c><c>   2</c></rc>
    <rc><c>O </c><c>   2</c></rc>
    <rc><c>O </c><c>   2</c></rc>
    <rc><c>O </c><c>   2</c></rc>
    <rc><c>O </c><c>   2</c></rc>
    <rc><c>O </c><c>   2</c></rc>
    <rc><c>Pd</c><c>   3</c></rc>
    <rc><c>Pd</c><c>   3</c></rc>
    <rc><c>Pd</c><c>   3</c></rc>
    <rc><c>Pd</c><c>   3</c></rc>
    <rc><c>Pd</c><c>   3</c></rc>
    <rc><c>Pd</c><c>   3</c></rc>
    <rc><c>Pd</c><c>   3</c></rc>
    <rc><c>Pd</c><c>   3</c></rc>
    <rc><c>Pd</c><c>   3</c></rc>
    <rc><c>Pd</c><c>   3</c></rc>
    <rc><c>Pd</c><c>   3</c></rc>
    <rc><c>Pd</c><c>   3</c></rc>
    <rc><c>Pd</c><c>   3</c></rc>
    <rc><c>Pd</c><c>   3</c></rc>
    <rc><c>Pd</c><c>   3</c></rc>
    <rc><c>Pd</c><c>   3</c></rc>
    <rc><c>Pd</c><c>   3</c></rc>
    <rc><c>Pd</c><c>   3</c></rc>
    <rc><c>Pd</c><c>   3</c></rc>
    <rc><c>Pd</c><c>   3</c></rc>
    <rc><c>Pd</c><c>   3</c></rc>
    <rc><c>Pd</c><c>   3</c></rc>
    <rc><c>Pd</c><c>   3</c></rc>
    <rc><c>Pd</c><c>   3</c></rc>
   </set>
  </array>
  <array name="atomtypes" >
   <dimension dim="1">type</dimension>
   <field type="int">atomspertype</field>
   <field type="string">element</field>
   <field>mass</field>
   <field>valence</field>
   <field type="string">pseudopotential</field>
   <set>
    <rc><c>  24</c><c>Au</c><c>    196.96600000</c><c>     11.00000000</c><c>  PAW_PBE Au 04Oct2007                  </c></rc>
    <rc><c>   8</c><c>O </c><c>     16.00000000</c><c>      6.00000000</c><c>  PAW_PBE O 08Apr2002                   </c></rc>
    <rc><c>  24</c><c>Pd</c><c>    106.42000000</c><c>     10.00000000</c><c>  PAW_PBE Pd 04Jan2005                  </c></rc>
   </set>
  </array>
 </atominfo>
 <structure name="initialpos" >
  <crystal>
   <varray name="basis" >
    <v>      11.00258152       0.00000000       0.00000000 </v>
    <v>       5.50129076       9.52851510       0.00000000 </v>
    <v>       0.00000000       0.00000000      26.19178509 </v>
   </varray>
   <i name="volume">   2745.90128299 </i>
   <varray name="rec_basis" >
    <v>       0.09088776      -0.05247407       0.00000000 </v>
    <v>       0.00000000       0.10494815       0.00000000 </v>
    <v>       0.00000000       0.00000000       0.03817991 </v>
   </varray>
  </crystal>
  <varray name="positions" >
   <v>       0.08333333       0.08333333       0.38179910 </v>
   <v>       0.16691629       0.66553066       0.47522511 </v>
   <v>       0.73792958       0.02372086       0.59742860 </v>
   <v>       0.66980020       0.91610946       0.48147828 </v>
   <v>       0.99570668       0.99649032       0.56407516 </v>
   <v>       0.83333333       0.83333333       0.38179910 </v>
   <v>       0.08333333       0.33333333       0.38179910 </v>
   <v>       0.92031946       0.41587120       0.47586809 </v>
   <v>       0.99984466       0.23783654       0.56565153 </v>
   <v>       0.83333333       0.58333333       0.38179910 </v>
   <v>       0.74735175       0.24810751       0.56577252 </v>
   <v>       0.96874587       0.51540161       0.60569698 </v>
   <v>       0.66511201       0.41942738       0.47202960 </v>
   <v>       0.33333333       0.58333333       0.38179910 </v>
   <v>       0.83333333       0.08333333       0.38179910 </v>
   <v>       0.99983785       0.74141104       0.56146620 </v>
   <v>       0.58333333       0.83333333       0.38179910 </v>
   <v>       0.58333333       0.33333333       0.38179910 </v>
   <v>       0.41492230       0.16755113       0.47400666 </v>
   <v>       0.58333333       0.08333333       0.38179910 </v>
   <v>       0.26719534       0.70658952       0.59785324 </v>
   <v>       0.33333333       0.83333333       0.38179910 </v>
   <v>       0.25909348       0.48572937       0.56921549 </v>
   <v>       0.08333333       0.83333333       0.38179910 </v>
   <v>       0.33084466       0.08409310       0.60797982 </v>
   <v>       0.06756719       0.84625291       0.62196406 </v>
   <v>       0.13495963       0.53194775       0.63173852 </v>
   <v>       0.09323939       0.30704759       0.61895729 </v>
   <v>       0.82538932       0.82578221       0.62589474 </v>
   <v>       0.32412345       0.84888300       0.61776879 </v>
   <v>       0.61441835       0.54264493       0.61448573 </v>
   <v>       0.58653300       0.83327368       0.61371160 </v>
   <v>       0.41348636       0.42060686       0.47769205 </v>
   <v>       0.24917287       0.99374829       0.56226457 </v>
   <v>       0.50787695       0.00242331       0.56954711 </v>
   <v>       0.50446545       0.49094065       0.56574066 </v>
   <v>       0.33333333       0.33333333       0.38179910 </v>
   <v>       0.75664329       0.74610861       0.57139824 </v>
   <v>       0.16610499       0.41525273       0.47636341 </v>
   <v>       0.17107808       0.91276305       0.47636088 </v>
   <v>       0.25057652       0.25049817       0.56400036 </v>
   <v>       0.41753152       0.66939614       0.47796025 </v>
   <v>       0.41883706       0.91407031       0.47471865 </v>
   <v>       0.16995069       0.16055591       0.47405140 </v>
   <v>       0.33333333       0.08333333       0.38179910 </v>
   <v>       0.50518985       0.73374513       0.57737824 </v>
   <v>       0.91804695       0.91573127       0.47339569 </v>
   <v>       0.66796302       0.16604215       0.47470824 </v>
   <v>       0.83333333       0.33333333       0.38179910 </v>
   <v>       0.91629325       0.66362570       0.47665773 </v>
   <v>       0.08333333       0.58333333       0.38179910 </v>
   <v>       0.66501116       0.66981478       0.47819621 </v>
   <v>       0.76397735       0.49161399       0.56303144 </v>
   <v>       0.92008454       0.16275504       0.47597224 </v>
   <v>       0.50655622       0.24536664       0.56226812 </v>
   <v>       0.58333333       0.58333333       0.38179910 </v>
  </varray>
  <varray name="selective"  type="logical" >
   <v type="logical" >  F  F  F </v>
   <v type="logical" >  T  T  T </v>
   <v type="logical" >  T  T  T </v>
   <v type="logical" >  T  T  T </v>
   <v type="logical" >  T  T  T </v>
   <v type="logical" >  F  F  F </v>
   <v type="logical" >  F  F  F </v>
   <v type="logical" >  T  T  T </v>
   <v type="logical" >  T  T  T </v>
   <v type="logical" >  F  F  F </v>
   <v type="logical" >  T  T  T </v>
   <v type="logical" >  T  T  T </v>
   <v type="logical" >  T  T  T </v>
   <v type="logical" >  F  F  F </v>
   <v type="logical" >  F  F  F </v>
   <v type="logical" >  T  T  T </v>
   <v type="logical" >  F  F  F </v>
   <v type="logical" >  F  F  F </v>
   <v type="logical" >  T  T  T </v>
   <v type="logical" >  F  F  F </v>
   <v type="logical" >  T  T  T </v>
   <v type="logical" >  F  F  F </v>
   <v type="logical" >  T  T  T </v>
   <v type="logical" >  F  F  F </v>
   <v type="logical" >  T  T  T </v>
   <v type="logical" >  T  T  T </v>
   <v type="logical" >  T  T  T </v>
   <v type="logical" >  T  T  T </v>
   <v type="logical" >  T  T  T </v>
   <v type="logical" >  T  T  T </v>
   <v type="logical" >  T  T  T </v>
   <v type="logical" >  T  T  T </v>
   <v type="logical" >  T  T  T </v>
   <v type="logical" >  T  T  T </v>
   <v type="logical" >  T  T  T </v>
   <v type="logical" >  T  T  T </v>
   <v type="logical" >  F  F  F </v>
   <v type="logical" >  T  T  T </v>
   <v type="logical" >  T  T  T </v>
   <v type="logical" >  T  T  T </v>
   <v type="logical" >  T  T  T </v>
   <v type="logical" >  T  T  T </v>
   <v type="logical" >  T  T  T </v>
   <v type="logical" >  T  T  T </v>
   <v type="logical" >  F  F  F </v>
   <v type="logical" >  T  T  T </v>
   <v type="logical" >  T  T  T </v>
   <v type="logical" >  T  T  T </v>
   <v type="logical" >  F  F  F </v>
   <v type="logical" >  T  T  T </v>
   <v type="logical" >  F  F  F </v>
   <v type="logical" >  T  T  T </v>
   <v type="logical" >  T  T  T </v>
   <v type="logical" >  T  T  T </v>
   <v type="logical" >  T  T  T </v>
   <v type="logical" >  F  F  F </v>
  </varray>
  <nose>
   <v>      -3.00000000       0.00000000       0.00010000       0.00010000 </v>
  </nose>
 </structure>
 <calculation>
  <scstep>
   <time name="dav">   11.92   11.96</time>
   <time name="total">   12.02   12.06</time>
   <dipole>
    <v name="dipole">      0.00000000       0.00000000       0.00007340 </v>
    <i name="Tr[quadrupol]"> -11058.50410267 </i>
    <i name="Echarged">      0.00000000 </i>
    <i name="Edipol_quadrupol">      0.00000000 </i>
    <i name="Eion">      0.00000000 </i>
   </dipole>
   <energy>
    <i name="alphaZ">    862.57726897 </i>
    <i name="ewald"> 238937.61161483 </i>
    <i name="hartreedc">-284543.17342489 </i>
    <i name="XCdc">   -114.51052445 </i>
    <i name="pawpsdc">  43112.45544455 </i>
    <i name="pawaedc"> -41079.41300390 </i>
    <i name="eentropy">     -0.12863813 </i>
    <i name="bandstr">   1338.30473183 </i>
    <i name="atom">  45117.89144060 </i>
    <i name="e_fr_energy">   3631.61490940 </i>
    <i name="e_wo_entrp">   3631.74354753 </i>
    <i name="e_0_energy">   3631.67922846 </i>
   </energy>
  </scstep>
  <scstep>
   <time name="dav">   13.20   13.21</time>
   <time name="total">   13.21   13.22</time>
   <dipole>
    <v name="dipole">      0.00000000       0.00000000       0.00007340 </v>
    <i name="Tr[quadrupol]"> -11058.50410267 </i>
    <i name="Echarged">      0.00000000 </i>
    <i name="Edipol_quadrupol">      0.00000000 </i>
    <i name="Eion">      0.00000000 </i>
   </dipole>
   <energy>
    <i name="e_fr_energy">     51.96987588 </i>
    <i name="e_wo_entrp">     52.09361759 </i>
    <i name="e_0_energy">     52.03174674 </i>
   </energy>
  </scstep>
  <scstep>
   <time name="dav">   12.90   12.98</time>
   <time name="total">   12.90   12.99</time>
   <dipole>
    <v name="dipole">      0.00000000       0.00000000       0.00007340 </v>
    <i name="Tr[quadrupol]"> -11058.50410267 </i>
    <i name="Echarged">      0.00000000 </i>
    <i name="Edipol_quadrupol">      0.00000000 </i>
    <i name="Eion">      0.00000000 </i>
   </dipole>
   <energy>
    <i name="e_fr_energy">   -253.29002456 </i>
    <i name="e_wo_entrp">   -253.08323393 </i>
    <i name="e_0_energy">   -253.18662925 </i>
   </energy>
  </scstep>
  <scstep>
   <time name="dav">   12.65   12.66</time>
   <time name="total">   12.65   12.67</time>
   <dipole>
    <v name="dipole">      0.00000000       0.00000000       0.00007340 </v>
    <i name="Tr[quadrupol]"> -11058.50410267 </i>
    <i name="Echarged">      0.00000000 </i>
    <i name="Edipol_quadrupol">      0.00000000 </i>
    <i name="Eion">      0.00000000 </i>
   </dipole>
   <energy>
    <i name="e_fr_energy">   -264.18305986 </i>
    <i name="e_wo_entrp">   -263.95726764 </i>
    <i name="e_0_energy">   -264.07016375 </i>
   </energy>
  </scstep>
  <scstep>
   <time name="dav">   13.85   13.90</time>
   <time name="total">   14.21   14.27</time>
   <dipole>
    <v name="dipole">      0.00000000       0.00000000       0.00007340 </v>
    <i name="Tr[quadrupol]"> -11058.50410267 </i>
    <i name="Echarged">      0.00000000 </i>
    <i name="Edipol_quadrupol">      0.00000000 </i>
    <i name="Eion">      0.00000000 </i>
   </dipole>
   <energy>
    <i name="e_fr_energy">   -264.50461084 </i>
    <i name="e_wo_entrp">   -264.27788117 </i>
    <i name="e_0_energy">   -264.39124600 </i>
   </energy>
  </scstep>
  <scstep>
   <time name="diag">    2.02    2.02</time>
   <time name="diis">    5.34    5.35</time>
   <time name="orth">    0.53    0.53</time>
   <time name="total">    8.30    8.31</time>
   <dipole>
    <v name="dipole">      0.00000000       0.00000000       1.77485944 </v>
    <i name="Tr[quadrupol]"> -11058.75083011 </i>
    <i name="Echarged">      0.00000000 </i>
    <i name="Edipol_quadrupol">      0.00000000 </i>
    <i name="Eion">      0.00000000 </i>
   </dipole>
   <energy>
    <i name="e_fr_energy">   -259.48211047 </i>
    <i name="e_wo_entrp">   -259.28692353 </i>
    <i name="e_0_energy">   -259.38451700 </i>
   </energy>
  </scstep>
  <scstep>
   <time name="diag">    1.97    2.05</time>
   <time name="diis">    5.17    5.18</time>
   <time name="orth">    0.53    0.53</time>
   <time name="total">    8.10    8.18</time>
   <dipole>
    <v name="dipole">      0.00000000       0.00000000      -2.30815915 </v>
    <i name="Tr[quadrupol]"> -11058.28762556 </i>
    <i name="Echarged">      0.00000000 </i>
    <i name="Edipol_quadrupol">      0.00000000 </i>
    <i name="Eion">      0.00000000 </i>
   </dipole>
   <energy>
    <i name="e_fr_energy">   -306.79281178 </i>
    <i name="e_wo_entrp">   -306.59356136 </i>
    <i name="e_0_energy">   -306.69318657 </i>
   </energy>
  </scstep>
  <scstep>
   <time name="diag">    2.03    2.04</time>
   <time name="diis">    5.35    5.35</time>
   <time name="orth">    0.52    0.52</time>
   <time name="total">    8.33    8.34</time>
   <dipole>
    <v name="dipole">      0.00000000       0.00000000      -0.47529322 </v>
    <i name="Tr[quadrupol]"> -11060.40404471 </i>
    <i name="Echarged">      0.00000000 </i>
    <i name="Edipol_quadrupol">      0.00000000 </i>
    <i name="Eion">      0.00000000 </i>
   </dipole>
   <energy>
    <i name="e_fr_energy">   -247.30131651 </i>
    <i name="e_wo_entrp">   -247.04497178 </i>
    <i name="e_0_energy">   -247.17314414 </i>
   </energy>
  </scstep>
  <scstep>
   <time name="diag">    2.01    2.02</time>
   <time name="diis">    5.34    5.34</time>
   <time name="orth">    0.52    0.52</time>
   <time name="total">    8.30    8.31</time>
   <dipole>
    <v name="dipole">      0.00000000       0.00000000       0.37007338 </v>
    <i name="Tr[quadrupol]"> -11055.08869928 </i>
    <i name="Echarged">      0.00000000 </i>
    <i name="Edipol_quadrupol">      0.00000000 </i>
    <i name="Eion">      0.00000000 </i>
   </dipole>
   <energy>
    <i name="e_fr_energy">   -250.83051408 </i>
    <i name="e_wo_entrp">   -250.65001748 </i>
    <i name="e_0_energy">   -250.74026578 </i>
   </energy>
  </scstep>
  <scstep>
   <time name="diag">    2.02    2.02</time>
   <time name="diis">    5.24    5.25</time>
   <time name="orth">    0.52    0.52</time>
   <time name="total">    8.21    8.22</time>
   <dipole>
    <v name="dipole">      0.00000000       0.00000000       0.53207337 </v>
    <i name="Tr[quadrupol]"> -11057.26482626 </i>
    <i name="Echarged">      0.00000000 </i>
    <i name="Edipol_quadrupol">      0.00000000 </i>
    <i name="Eion">      0.00000000 </i>
   </dipole>
   <energy>
    <i name="e_fr_energy">   -238.73761080 </i>
    <i name="e_wo_entrp">   -238.54939911 </i>
    <i name="e_0_energy">   -238.64350496 </i>
   </energy>
  </scstep>
  <scstep>
   <time name="diag">    2.01    2.02</time>
   <time name="diis">    5.34    5.35</time>
   <time name="orth">    0.51    0.54</time>
   <time name="total">    8.29    8.36</time>
   <dipole>
    <v name="dipole">      0.00000000       0.00000000       0.58880926 </v>
    <i name="Tr[quadrupol]"> -11058.31019417 </i>
    <i name="Echarged">      0.00000000 </i>
    <i name="Edipol_quadrupol">      0.00000000 </i>
    <i name="Eion">      0.00000000 </i>
   </dipole>
   <energy>
    <i name="e_fr_energy">   -235.72452085 </i>
    <i name="e_wo_entrp">   -235.60820461 </i>
    <i name="e_0_energy">   -235.66636273 </i>
   </energy>
  </scstep>
  <scstep>
   <time name="diag">    2.02    2.03</time>
   <time name="diis">    5.61    5.65</time>
   <time name="orth">    0.62    0.63</time>
   <time name="total">    8.77    8.83</time>
   <dipole>
    <v name="dipole">      0.00000000       0.00000000       0.48165436 </v>
    <i name="Tr[quadrupol]"> -11059.54697244 </i>
    <i name="Echarged">      0.00000000 </i>
    <i name="Edipol_quadrupol">      0.00000000 </i>
    <i name="Eion">      0.00000000 </i>
   </dipole>
   <energy>
    <i name="e_fr_energy">   -231.81460555 </i>
    <i name="e_wo_entrp">   -231.58013125 </i>
    <i name="e_0_energy">   -231.69736840 </i>
   </energy>
  </scstep>
  <scstep>
   <time name="diag">    2.02    2.02</time>
   <time name="diis">    5.26    5.26</time>
   <time name="orth">    0.52    0.52</time>
   <time name="total">    8.22    8.22</time>
   <dipole>
    <v name="dipole">      0.00000000       0.00000000       0.45876249 </v>
    <i name="Tr[quadrupol]"> -11059.31745745 </i>
    <i name="Echarged">      0.00000000 </i>
    <i name="Edipol_quadrupol">      0.00000000 </i>
    <i name="Eion">      0.00000000 </i>
   </dipole>
   <energy>
    <i name="e_fr_energy">   -231.35599172 </i>
    <i name="e_wo_entrp">   -231.17039087 </i>
    <i name="e_0_energy">   -231.26319129 </i>
   </energy>
  </scstep>
  <scstep>
   <time name="diag">    2.02    2.02</time>
   <time name="diis">    5.36    5.36</time>
   <time name="orth">    0.53    0.53</time>
   <time name="total">    8.33    8.34</time>
   <dipole>
    <v name="dipole">      0.00000000       0.00000000       0.51401831 </v>
    <i name="Tr[quadrupol]"> -11059.15193734 </i>
    <i name="Echarged">      0.00000000 </i>
    <i name="Edipol_quadrupol">      0.00000000 </i>
    <i name="Eion">      0.00000000 </i>
   </dipole>
   <energy>
    <i name="e_fr_energy">   -231.24646582 </i>
    <i name="e_wo_entrp">   -231.07201652 </i>
    <i name="e_0_energy">   -231.15924117 </i>
   </energy>
  </scstep>
  <scstep>
   <time name="diag">    2.00    2.00</time>
   <time name="diis">    5.34    5.35</time>
   <time name="orth">    0.51    0.51</time>
   <time name="total">    8.27    8.28</time>
   <dipole>
    <v name="dipole">      0.00000000       0.00000000       0.54926966 </v>
    <i name="Tr[quadrupol]"> -11059.30885814 </i>
    <i name="Echarged">      0.00000000 </i>
    <i name="Edipol_quadrupol">      0.00000000 </i>
    <i name="Eion">      0.00000000 </i>
   </dipole>
   <energy>
    <i name="e_fr_energy">   -231.18976942 </i>
    <i name="e_wo_entrp">   -230.99719676 </i>
    <i name="e_0_energy">   -231.09348309 </i>
   </energy>
  </scstep>
  <scstep>
   <time name="diag">    2.00    2.00</time>
   <time name="diis">    5.22    5.31</time>
   <time name="orth">    0.51    0.51</time>
   <time name="total">    8.15    8.24</time>
   <dipole>
    <v name="dipole">      0.00000000       0.00000000       0.58048826 </v>
    <i name="Tr[quadrupol]"> -11059.44648856 </i>
    <i name="Echarged">      0.00000000 </i>
    <i name="Edipol_quadrupol">      0.00000000 </i>
    <i name="Eion">      0.00000000 </i>
   </dipole>
   <energy>
    <i name="e_fr_energy">   -231.15168459 </i>
    <i name="e_wo_entrp">   -230.94752319 </i>
    <i name="e_0_energy">   -231.04960389 </i>
   </energy>
  </scstep>
  <scstep>
   <time name="diag">    2.00    2.00</time>
   <time name="diis">    5.35    5.35</time>
   <time name="orth">    0.51    0.51</time>
   <time name="total">    8.27    8.29</time>
   <dipole>
    <v name="dipole">      0.00000000       0.00000000       0.57271758 </v>
    <i name="Tr[quadrupol]"> -11059.34966490 </i>
    <i name="Echarged">      0.00000000 </i>
    <i name="Edipol_quadrupol">      0.00000000 </i>
    <i name="Eion">      0.00000000 </i>
   </dipole>
   <energy>
    <i name="e_fr_energy">   -231.12891464 </i>
    <i name="e_wo_entrp">   -230.92353818 </i>
    <i name="e_0_energy">   -231.02622641 </i>
   </energy>
  </scstep>
  <scstep>
   <time name="diag">    2.00    2.00</time>
   <time name="diis">    5.35    5.36</time>
   <time name="orth">    0.51    0.51</time>
   <time name="total">    8.28    8.29</time>
   <dipole>
    <v name="dipole">      0.00000000       0.00000000       0.55708286 </v>
    <i name="Tr[quadrupol]"> -11059.40639040 </i>
    <i name="Echarged">      0.00000000 </i>
    <i name="Edipol_quadrupol">      0.00000000 </i>
    <i name="Eion">      0.00000000 </i>
   </dipole>
   <energy>
    <i name="e_fr_energy">   -231.10749215 </i>
    <i name="e_wo_entrp">   -230.89660442 </i>
    <i name="e_0_energy">   -231.00204829 </i>
   </energy>
  </scstep>
  <scstep>
   <time name="diag">    1.99    2.00</time>
   <time name="diis">    5.36    5.38</time>
   <time name="orth">    0.61    0.61</time>
   <time name="total">    8.58    8.61</time>
   <dipole>
    <v name="dipole">      0.00000000       0.00000000       0.56362288 </v>
    <i name="Tr[quadrupol]"> -11059.42188885 </i>
    <i name="Echarged">      0.00000000 </i>
    <i name="Edipol_quadrupol">      0.00000000 </i>
    <i name="Eion">      0.00000000 </i>
   </dipole>
   <energy>
    <i name="e_fr_energy">   -231.10340302 </i>
    <i name="e_wo_entrp">   -230.89486392 </i>
    <i name="e_0_energy">   -230.99913347 </i>
   </energy>
  </scstep>
  <scstep>
   <time name="diag">    1.82    2.24</time>
   <time name="diis">    5.28    5.28</time>
   <time name="orth">    0.51    0.51</time>
   <time name="total">    8.04    8.55</time>
   <dipole>
    <v name="dipole">      0.00000000       0.00000000       0.56530489 </v>
    <i name="Tr[quadrupol]"> -11059.47869874 </i>
    <i name="Echarged">      0.00000000 </i>
    <i name="Edipol_quadrupol">      0.00000000 </i>
    <i name="Eion">      0.00000000 </i>
   </dipole>
   <energy>
    <i name="e_fr_energy">   -231.10304506 </i>
    <i name="e_wo_entrp">   -230.89331925 </i>
    <i name="e_0_energy">   -230.99818215 </i>
   </energy>
  </scstep>
  <scstep>
   <time name="diag">    2.00    2.00</time>
   <time name="diis">    5.33    5.33</time>
   <time name="orth">    0.50    0.51</time>
   <time name="total">    8.25    8.30</time>
   <dipole>
    <v name="dipole">      0.00000000       0.00000000       0.57070071 </v>
    <i name="Tr[quadrupol]"> -11059.50360151 </i>
    <i name="Echarged">      0.00000000 </i>
    <i name="Edipol_quadrupol">      0.00000000 </i>
    <i name="Eion">      0.00000000 </i>
   </dipole>
   <energy>
    <i name="e_fr_energy">   -231.10292555 </i>
    <i name="e_wo_entrp">   -230.89620187 </i>
    <i name="e_0_energy">   -230.99956371 </i>
   </energy>
  </scstep>
  <scstep>
   <time name="diag">    1.99    2.02</time>
   <time name="diis">    5.35    5.35</time>
   <time name="orth">    0.50    0.50</time>
   <time name="total">    8.25    8.29</time>
   <dipole>
    <v name="dipole">      0.00000000       0.00000000       0.57179424 </v>
    <i name="Tr[quadrupol]"> -11059.54064141 </i>
    <i name="Echarged">      0.00000000 </i>
    <i name="Edipol_quadrupol">      0.00000000 </i>
    <i name="Eion">      0.00000000 </i>
   </dipole>
   <energy>
    <i name="e_fr_energy">   -231.10303221 </i>
    <i name="e_wo_entrp">   -230.89575806 </i>
    <i name="e_0_energy">   -230.99939513 </i>
   </energy>
  </scstep>
  <scstep>
   <time name="diag">    1.98    1.98</time>
   <time name="diis">    5.35    5.36</time>
   <time name="orth">    0.50    0.50</time>
   <time name="total">    8.25    8.26</time>
   <dipole>
    <v name="dipole">      0.00000000       0.00000000       0.57730010 </v>
    <i name="Tr[quadrupol]"> -11059.57612588 </i>
    <i name="Echarged">      0.00000000 </i>
    <i name="Edipol_quadrupol">      0.00000000 </i>
    <i name="Eion">      0.00000000 </i>
   </dipole>
   <energy>
    <i name="e_fr_energy">   -231.10349266 </i>
    <i name="e_wo_entrp">   -230.89642875 </i>
    <i name="e_0_energy">   -230.99996070 </i>
   </energy>
  </scstep>
  <scstep>
   <time name="diag">    1.99    1.99</time>
   <time name="diis">    5.37    5.37</time>
   <time name="orth">    0.50    0.50</time>
   <time name="total">    8.27    8.28</time>
   <dipole>
    <v name="dipole">      0.00000000       0.00000000       0.57992420 </v>
    <i name="Tr[quadrupol]"> -11059.59892014 </i>
    <i name="Echarged">      0.00000000 </i>
    <i name="Edipol_quadrupol">      0.00000000 </i>
    <i name="Eion">      0.00000000 </i>
   </dipole>
   <energy>
    <i name="e_fr_energy">   -231.10372697 </i>
    <i name="e_wo_entrp">   -230.89682258 </i>
    <i name="e_0_energy">   -231.00027478 </i>
   </energy>
  </scstep>
  <scstep>
   <time name="diag">    1.99    1.99</time>
   <time name="diis">    5.36    5.36</time>
   <time name="orth">    0.50    0.50</time>
   <time name="total">    8.27    8.28</time>
   <dipole>
    <v name="dipole">      0.00000000       0.00000000       0.58343303 </v>
    <i name="Tr[quadrupol]"> -11059.62245364 </i>
    <i name="Echarged">      0.00000000 </i>
    <i name="Edipol_quadrupol">      0.00000000 </i>
    <i name="Eion">      0.00000000 </i>
   </dipole>
   <energy>
    <i name="e_fr_energy">   -231.10413193 </i>
    <i name="e_wo_entrp">   -230.89745032 </i>
    <i name="e_0_energy">   -231.00079112 </i>
   </energy>
  </scstep>
  <scstep>
   <time name="diag">    1.99    1.99</time>
   <time name="diis">    5.18    5.26</time>
   <time name="orth">    0.47    0.60</time>
   <time name="total">    8.06    8.46</time>
   <dipole>
    <v name="dipole">      0.00000000       0.00000000       0.58629863 </v>
    <i name="Tr[quadrupol]"> -11059.64464129 </i>
    <i name="Echarged">      0.00000000 </i>
    <i name="Edipol_quadrupol">      0.00000000 </i>
    <i name="Eion">      0.00000000 </i>
   </dipole>
   <energy>
    <i name="e_fr_energy">   -231.10448064 </i>
    <i name="e_wo_entrp">   -230.89770308 </i>
    <i name="e_0_energy">   -231.00109186 </i>
   </energy>
  </scstep>
  <scstep>
   <time name="diag">    1.69    2.44</time>
   <time name="diis">    5.36    5.36</time>
   <time name="orth">    0.50    0.50</time>
   <time name="total">    7.97    8.75</time>
   <dipole>
    <v name="dipole">      0.00000000       0.00000000       0.59172663 </v>
    <i name="Tr[quadrupol]"> -11059.68167544 </i>
    <i name="Echarged">      0.00000000 </i>
    <i name="Edipol_quadrupol">      0.00000000 </i>
    <i name="Eion">      0.00000000 </i>
   </dipole>
   <energy>
    <i name="e_fr_energy">   -231.10502876 </i>
    <i name="e_wo_entrp">   -230.89810740 </i>
    <i name="e_0_energy">   -231.00156808 </i>
   </energy>
  </scstep>
  <scstep>
   <time name="diag">    1.99    1.99</time>
   <time name="diis">    5.35    5.36</time>
   <time name="orth">    0.50    0.50</time>
   <time name="total">    8.26    8.27</time>
   <dipole>
    <v name="dipole">      0.00000000       0.00000000       0.59511792 </v>
    <i name="Tr[quadrupol]"> -11059.70228594 </i>
    <i name="Echarged">      0.00000000 </i>
    <i name="Edipol_quadrupol">      0.00000000 </i>
    <i name="Eion">      0.00000000 </i>
   </dipole>
   <energy>
    <i name="e_fr_energy">   -231.10531207 </i>
    <i name="e_wo_entrp">   -230.89836113 </i>
    <i name="e_0_energy">   -231.00183660 </i>
   </energy>
  </scstep>
  <scstep>
   <time name="diag">    2.00    2.00</time>
   <time name="diis">    5.11    5.11</time>
   <time name="orth">    0.50    0.50</time>
   <time name="total">    8.02    8.03</time>
   <dipole>
    <v name="dipole">      0.00000000       0.00000000       0.59864302 </v>
    <i name="Tr[quadrupol]"> -11059.72165186 </i>
    <i name="Echarged">      0.00000000 </i>
    <i name="Edipol_quadrupol">      0.00000000 </i>
    <i name="Eion">      0.00000000 </i>
   </dipole>
   <energy>
    <i name="e_fr_energy">   -231.10558602 </i>
    <i name="e_wo_entrp">   -230.89872438 </i>
    <i name="e_0_energy">   -231.00215520 </i>
   </energy>
  </scstep>
  <scstep>
   <time name="diag">    1.99    1.99</time>
   <time name="diis">    5.02    5.04</time>
   <time name="orth">    0.50    0.50</time>
   <time name="total">    7.94    7.96</time>
   <dipole>
    <v name="dipole">      0.00000000       0.00000000       0.60197767 </v>
    <i name="Tr[quadrupol]"> -11059.74024011 </i>
    <i name="Echarged">      0.00000000 </i>
    <i name="Edipol_quadrupol">      0.00000000 </i>
    <i name="Eion">      0.00000000 </i>
   </dipole>
   <energy>
    <i name="e_fr_energy">   -231.10581590 </i>
    <i name="e_wo_entrp">   -230.89893085 </i>
    <i name="e_0_energy">   -231.00237337 </i>
   </energy>
  </scstep>
  <scstep>
   <time name="diag">    1.98    1.98</time>
   <time name="diis">    4.44    4.53</time>
   <time name="orth">    0.50    0.50</time>
   <time name="total">    7.36    7.45</time>
   <dipole>
    <v name="dipole">      0.00000000       0.00000000       0.60519849 </v>
    <i name="Tr[quadrupol]"> -11059.75594870 </i>
    <i name="Echarged">      0.00000000 </i>
    <i name="Edipol_quadrupol">      0.00000000 </i>
    <i name="Eion">      0.00000000 </i>
   </dipole>
   <energy>
    <i name="e_fr_energy">   -231.10596949 </i>
    <i name="e_wo_entrp">   -230.89905817 </i>
    <i name="e_0_energy">   -231.00251383 </i>
   </energy>
  </scstep>
  <scstep>
   <time name="diag">    1.98    1.98</time>
   <time name="diis">    3.89    3.89</time>
   <time name="orth">    0.50    0.50</time>
   <time name="total">    6.79    6.79</time>
   <dipole>
    <v name="dipole">      0.00000000       0.00000000       0.60745071 </v>
    <i name="Tr[quadrupol]"> -11059.76490796 </i>
    <i name="Echarged">      0.00000000 </i>
    <i name="Edipol_quadrupol">      0.00000000 </i>
    <i name="Eion">      0.00000000 </i>
   </dipole>
   <energy>
    <i name="e_fr_energy">   -231.10603976 </i>
    <i name="e_wo_entrp">   -230.89912568 </i>
    <i name="e_0_energy">   -231.00258272 </i>
   </energy>
  </scstep>
  <scstep>
   <time name="diag">    1.99    1.99</time>
   <time name="diis">    3.43    3.43</time>
   <time name="orth">    0.50    0.50</time>
   <time name="total">    6.33    6.34</time>
   <dipole>
    <v name="dipole">      0.00000000       0.00000000       0.60930421 </v>
    <i name="Tr[quadrupol]"> -11059.77100229 </i>
    <i name="Echarged">      0.00000000 </i>
    <i name="Edipol_quadrupol">      0.00000000 </i>
    <i name="Eion">      0.00000000 </i>
   </dipole>
   <energy>
    <i name="e_fr_energy">   -231.10608499 </i>
    <i name="e_wo_entrp">   -230.89917105 </i>
    <i name="e_0_energy">   -231.00262802 </i>
   </energy>
  </scstep>
  <scstep>
   <time name="diag">    1.98    1.99</time>
   <time name="diis">    3.26    3.26</time>
   <time name="orth">    0.46    0.60</time>
   <time name="total">    6.12    6.47</time>
   <dipole>
    <v name="dipole">      0.00000000       0.00000000       0.61073160 </v>
    <i name="Tr[quadrupol]"> -11059.77508704 </i>
    <i name="Echarged">      0.00000000 </i>
    <i name="Edipol_quadrupol">      0.00000000 </i>
    <i name="Eion">      0.00000000 </i>
   </dipole>
   <energy>
    <i name="e_fr_energy">   -231.10611422 </i>
    <i name="e_wo_entrp">   -230.89919033 </i>
    <i name="e_0_energy">   -231.00265227 </i>
   </energy>
  </scstep>
  <scstep>
   <time name="diag">    1.81    2.31</time>
   <time name="diis">    3.33    3.33</time>
   <time name="orth">    0.50    0.50</time>
   <time name="total">    6.06    6.59</time>
   <dipole>
    <v name="dipole">      0.00000000       0.00000000       0.61271616 </v>
    <i name="Tr[quadrupol]"> -11059.78023522 </i>
    <i name="Echarged">      0.00000000 </i>
    <i name="Edipol_quadrupol">      0.00000000 </i>
    <i name="Eion">      0.00000000 </i>
   </dipole>
   <energy>
    <i name="e_fr_energy">   -231.10614503 </i>
    <i name="e_wo_entrp">   -230.89921645 </i>
    <i name="e_0_energy">   -231.00268074 </i>
   </energy>
  </scstep>
  <scstep>
   <time name="diag">    1.98    1.99</time>
   <time name="diis">    3.25    3.25</time>
   <time name="orth">    0.49    0.49</time>
   <time name="total">    6.15    6.16</time>
   <dipole>
    <v name="dipole">      0.00000000       0.00000000       0.61426679 </v>
    <i name="Tr[quadrupol]"> -11059.78393848 </i>
    <i name="Echarged">      0.00000000 </i>
    <i name="Edipol_quadrupol">      0.00000000 </i>
    <i name="Eion">      0.00000000 </i>
   </dipole>
   <energy>
    <i name="e_fr_energy">   -231.10616132 </i>
    <i name="e_wo_entrp">   -230.89922546 </i>
    <i name="e_0_energy">   -231.00269339 </i>
   </energy>
  </scstep>
  <scstep>
   <time name="diag">    1.98    1.98</time>
   <time name="diis">    3.18    3.19</time>
   <time name="orth">    0.47    0.51</time>
   <time name="total">    6.05    6.13</time>
   <dipole>
    <v name="dipole">      0.00000000       0.00000000       0.61544488 </v>
    <i name="Tr[quadrupol]"> -11059.78622423 </i>
    <i name="Echarged">      0.00000000 </i>
    <i name="Edipol_quadrupol">      0.00000000 </i>
    <i name="Eion">      0.00000000 </i>
   </dipole>
   <energy>
    <i name="e_fr_energy">   -231.10617272 </i>
    <i name="e_wo_entrp">   -230.89923172 </i>
    <i name="e_0_energy">   -231.00270222 </i>
   </energy>
  </scstep>
  <scstep>
   <time name="diag">    1.97    1.97</time>
   <time name="diis">    3.18    3.18</time>
   <time name="orth">    0.49    0.49</time>
   <time name="total">    6.08    6.08</time>
   <dipole>
    <v name="dipole">      0.00000000       0.00000000       0.61696220 </v>
    <i name="Tr[quadrupol]"> -11059.78890030 </i>
    <i name="Echarged">      0.00000000 </i>
    <i name="Edipol_quadrupol">      0.00000000 </i>
    <i name="Eion">      0.00000000 </i>
   </dipole>
   <energy>
    <i name="e_fr_energy">   -231.10618451 </i>
    <i name="e_wo_entrp">   -230.89923119 </i>
    <i name="e_0_energy">   -231.00270785 </i>
   </energy>
  </scstep>
  <scstep>
   <time name="diag">    1.97    1.97</time>
   <time name="diis">    2.87    2.87</time>
   <time name="orth">    0.49    0.49</time>
   <time name="total">    5.76    5.76</time>
   <dipole>
    <v name="dipole">      0.00000000       0.00000000       0.61774907 </v>
    <i name="Tr[quadrupol]"> -11059.79003308 </i>
    <i name="Echarged">      0.00000000 </i>
    <i name="Edipol_quadrupol">      0.00000000 </i>
    <i name="Eion">      0.00000000 </i>
   </dipole>
   <energy>
    <i name="e_fr_energy">   -231.10618957 </i>
    <i name="e_wo_entrp">   -230.89924435 </i>
    <i name="e_0_energy">   -231.00271696 </i>
   </energy>
  </scstep>
  <scstep>
   <time name="diag">    1.97    1.97</time>
   <time name="diis">    2.60    2.60</time>
   <time name="orth">    0.49    0.49</time>
   <time name="total">    5.49    5.49</time>
   <dipole>
    <v name="dipole">      0.00000000       0.00000000       0.61809925 </v>
    <i name="Tr[quadrupol]"> -11059.79047917 </i>
    <i name="Echarged">      0.00000000 </i>
    <i name="Edipol_quadrupol">      0.00000000 </i>
    <i name="Eion">      0.00000000 </i>
   </dipole>
   <energy>
    <i name="e_fr_energy">   -231.10619192 </i>
    <i name="e_wo_entrp">   -230.89924785 </i>
    <i name="e_0_energy">   -231.00271988 </i>
   </energy>
  </scstep>
  <scstep>
   <time name="diag">    1.98    1.98</time>
   <time name="diis">    2.77    2.77</time>
   <time name="orth">    0.49    0.49</time>
   <time name="total">    5.67    5.68</time>
   <dipole>
    <v name="dipole">      0.00000000       0.00000000       0.61856640 </v>
    <i name="Tr[quadrupol]"> -11059.79103102 </i>
    <i name="Echarged">      0.00000000 </i>
    <i name="Edipol_quadrupol">      0.00000000 </i>
    <i name="Eion">      0.00000000 </i>
   </dipole>
   <energy>
    <i name="e_fr_energy">   -231.10619474 </i>
    <i name="e_wo_entrp">   -230.89924748 </i>
    <i name="e_0_energy">   -231.00272111 </i>
   </energy>
  </scstep>
  <scstep>
   <time name="diag">    1.97    1.98</time>
   <time name="diis">    2.32    2.32</time>
   <time name="orth">    0.49    0.49</time>
   <time name="total">    5.21    5.21</time>
   <dipole>
    <v name="dipole">      0.00000000       0.00000000       0.61883727 </v>
    <i name="Tr[quadrupol]"> -11059.79128753 </i>
    <i name="Echarged">      0.00000000 </i>
    <i name="Edipol_quadrupol">      0.00000000 </i>
    <i name="Eion">      0.00000000 </i>
   </dipole>
   <energy>
    <i name="e_fr_energy">   -231.10619607 </i>
    <i name="e_wo_entrp">   -230.89924839 </i>
    <i name="e_0_energy">   -231.00272223 </i>
   </energy>
  </scstep>
  <scstep>
   <time name="diag">    1.98    1.98</time>
   <time name="diis">    2.40    2.40</time>
   <time name="orth">    0.49    0.49</time>
   <time name="total">    4.93    4.94</time>
   <dipole>
    <v name="dipole">      0.00000000       0.00000000       0.61897609 </v>
    <i name="Tr[quadrupol]"> -11059.79140501 </i>
    <i name="Echarged">      0.00000000 </i>
    <i name="Edipol_quadrupol">      0.00000000 </i>
    <i name="Eion">      0.00000000 </i>
   </dipole>
   <energy>
    <i name="alphaZ">    869.20574475 </i>
    <i name="ewald"> 238937.61161483 </i>
    <i name="hartreedc">-284145.42080770 </i>
    <i name="XCdc">   -127.37172015 </i>
    <i name="pawpsdc">  52138.64907608 </i>
    <i name="pawaedc"> -50234.41426400 </i>
    <i name="eentropy">     -0.20694790 </i>
    <i name="bandstr">  -2787.05033318 </i>
    <i name="atom">  45117.89144060 </i>
    <i name="e_fr_energy">   -231.10619666 </i>
    <i name="e_wo_entrp">   -230.89924876 </i>
    <i name="e_0_energy">   -231.00272271 </i>
   </energy>
  </scstep>
  <structure>
   <crystal>
    <varray name="basis" >
     <v>      11.00258152       0.00000000       0.00000000 </v>
     <v>       5.50129076       9.52851510       0.00000000 </v>
     <v>       0.00000000       0.00000000      26.19178509 </v>
    </varray>
    <i name="volume">   2745.90128299 </i>
    <varray name="rec_basis" >
     <v>       0.09088776      -0.05247407       0.00000000 </v>
     <v>       0.00000000       0.10494815       0.00000000 </v>
     <v>       0.00000000       0.00000000       0.03817991 </v>
    </varray>
   </crystal>
   <varray name="positions" >
    <v>       0.08333333       0.08333333       0.38179910 </v>
    <v>       0.16691629       0.66553066       0.47522511 </v>
    <v>       0.73792958       0.02372086       0.59742860 </v>
    <v>       0.66980020       0.91610946       0.48147828 </v>
    <v>       0.99570668       0.99649032       0.56407516 </v>
    <v>       0.83333333       0.83333333       0.38179910 </v>
    <v>       0.08333333       0.33333333       0.38179910 </v>
    <v>       0.92031946       0.41587120       0.47586809 </v>
    <v>       0.99984466       0.23783654       0.56565153 </v>
    <v>       0.83333333       0.58333333       0.38179910 </v>
    <v>       0.74735175       0.24810751       0.56577252 </v>
    <v>       0.96874587       0.51540161       0.60569698 </v>
    <v>       0.66511201       0.41942738       0.47202960 </v>
    <v>       0.33333333       0.58333333       0.38179910 </v>
    <v>       0.83333333       0.08333333       0.38179910 </v>
    <v>       0.99983785       0.74141104       0.56146620 </v>
    <v>       0.58333333       0.83333333       0.38179910 </v>
    <v>       0.58333333       0.33333333       0.38179910 </v>
    <v>       0.41492230       0.16755113       0.47400666 </v>
    <v>       0.58333333       0.08333333       0.38179910 </v>
    <v>       0.26719534       0.70658952       0.59785324 </v>
    <v>       0.33333333       0.83333333       0.38179910 </v>
    <v>       0.25909348       0.48572937       0.56921549 </v>
    <v>       0.08333333       0.83333333       0.38179910 </v>
    <v>       0.33084466       0.08409310       0.60797982 </v>
    <v>       0.06756719       0.84625291       0.62196406 </v>
    <v>       0.13495963       0.53194775       0.63173852 </v>
    <v>       0.09323939       0.30704759       0.61895729 </v>
    <v>       0.82538932       0.82578221       0.62589474 </v>
    <v>       0.32412345       0.84888300       0.61776879 </v>
    <v>       0.61441835       0.54264493       0.61448573 </v>
    <v>       0.58653300       0.83327368       0.61371160 </v>
    <v>       0.41348636       0.42060686       0.47769205 </v>
    <v>       0.24917287       0.99374829       0.56226457 </v>
    <v>       0.50787695       0.00242331       0.56954711 </v>
    <v>       0.50446545       0.49094065       0.56574066 </v>
    <v>       0.33333333       0.33333333       0.38179910 </v>
    <v>       0.75664329       0.74610861       0.57139824 </v>
    <v>       0.16610499       0.41525273       0.47636341 </v>
    <v>       0.17107808       0.91276305       0.47636088 </v>
    <v>       0.25057652       0.25049817       0.56400036 </v>
    <v>       0.41753152       0.66939614       0.47796025 </v>
    <v>       0.41883706       0.91407031       0.47471865 </v>
    <v>       0.16995069       0.16055591       0.47405140 </v>
    <v>       0.33333333       0.08333333       0.38179910 </v>
    <v>       0.50518985       0.73374513       0.57737824 </v>
    <v>       0.91804695       0.91573127       0.47339569 </v>
    <v>       0.66796302       0.16604215       0.47470824 </v>
    <v>       0.83333333       0.33333333       0.38179910 </v>
    <v>       0.91629325       0.66362570       0.47665773 </v>
    <v>       0.08333333       0.58333333       0.38179910 </v>
    <v>       0.66501116       0.66981478       0.47819621 </v>
    <v>       0.76397735       0.49161399       0.56303144 </v>
    <v>       0.92008454       0.16275504       0.47597224 </v>
    <v>       0.50655622       0.24536664       0.56226812 </v>
    <v>       0.58333333       0.58333333       0.38179910 </v>
   </varray>
  </structure>
  <varray name="forces" >
   <v>       0.03058855       0.17858023      -0.08587248 </v>
   <v>      -0.00340675      -0.01112744       0.02249979 </v>
   <v>       0.01354483       0.06413471      -0.01795300 </v>
   <v>       0.03485957       0.00790420      -0.04231558 </v>
   <v>       0.00858348      -0.02135287      -0.04453082 </v>
   <v>      -0.02606659      -0.23581974      -0.04590300 </v>
   <v>       0.26867807      -0.00422316      -0.10874685 </v>
   <v>      -0.04746708       0.02426703       0.04520487 </v>
   <v>       0.03588913       0.07537408       0.01564194 </v>
   <v>      -0.08816706       0.01111255      -0.06821130 </v>
   <v>      -0.01014280      -0.03043821       0.00827404 </v>
   <v>      -0.10107167      -0.04012588      -0.02779923 </v>
   <v>       0.05264987      -0.04047269       0.02566718 </v>
   <v>      -0.00148750      -0.24874543      -0.02222231 </v>
   <v>       0.17180904       0.22568076      -0.03154572 </v>
   <v>       0.00821205       0.07547081      -0.00218178 </v>
   <v>      -0.17210719      -0.06026572      -0.03309731 </v>
   <v>      -0.14904737       0.17768742      -0.22836230 </v>
   <v>      -0.02154404       0.03917622       0.05661999 </v>
   <v>      -0.29620468       0.15099907      -0.22018924 </v>
   <v>       0.10362821       0.05426519       0.01313313 </v>
   <v>       0.21599913      -0.07508615       0.05949638 </v>
   <v>       0.00231381      -0.08119978      -0.00637082 </v>
   <v>       0.03198781      -0.07435340      -0.25677109 </v>
   <v>       0.04625834       0.03880824       0.02134512 </v>
   <v>       0.02105676      -0.03830940       0.00293762 </v>
   <v>      -0.01555626       0.02773688       0.05485349 </v>
   <v>      -0.07496002       0.07002634      -0.01971598 </v>
   <v>       0.01566988      -0.07324342      -0.09653697 </v>
   <v>       0.02727947      -0.07837807      -0.09823541 </v>
   <v>      -0.10907825       0.00084170      -0.07266338 </v>
   <v>      -0.03048047      -0.00217925      -0.01748400 </v>
   <v>      -0.06235487      -0.01025664      -0.00539218 </v>
   <v>      -0.06542310      -0.04904775      -0.04306367 </v>
   <v>       0.05402739      -0.03212327       0.01439335 </v>
   <v>       0.07874683       0.05297088       0.06947539 </v>
   <v>      -0.02682313       0.04638612       0.28693361 </v>
   <v>       0.13789870      -0.06144769       0.00479933 </v>
   <v>       0.01108491      -0.00839583       0.01984873 </v>
   <v>       0.01304687       0.07278724       0.04069305 </v>
   <v>       0.06209199       0.06619366      -0.03145001 </v>
   <v>      -0.00057659      -0.00179438      -0.01928000 </v>
   <v>      -0.01072133      -0.02578107       0.00495084 </v>
   <v>       0.01716389      -0.01213034      -0.03035439 </v>
   <v>       0.07234971       0.04743060       0.24307854 </v>
   <v>      -0.07208589       0.03799576       0.03222048 </v>
   <v>      -0.06145901      -0.00331884       0.01870738 </v>
   <v>      -0.01529516      -0.01765123       0.01395500 </v>
   <v>      -0.01684477      -0.04722859       0.15922236 </v>
   <v>       0.00264849       0.02882177      -0.03346621 </v>
   <v>      -0.03708376      -0.19891276       0.30839719 </v>
   <v>      -0.02217653       0.00510505      -0.02659791 </v>
   <v>       0.02711217      -0.06318789      -0.03822289 </v>
   <v>      -0.01310561       0.01149113      -0.01269562 </v>
   <v>      -0.07601397      -0.01766934      -0.00453013 </v>
   <v>       0.06157251       0.07301858       0.24941280 </v>
  </varray>
  <energy>
   <i name="e_fr_energy">   -231.10619666 </i>
   <i name="e_wo_entrp">   -231.00272271 </i>
   <i name="e_0_energy">     -0.20694790 </i>
  </energy>
  <time name="totalsc">  352.56  356.17</time>
 </calculation>
 <calculation>
  <scstep>
   <time name="dav">   11.29   12.19</time>
   <time name="total">   11.71   12.62</time>
   <dipole>
    <v name="dipole">      0.00000000       0.00000000       0.61903786 </v>
    <i name="Tr[quadrupol]"> -11059.40454360 </i>
    <i name="Echarged">      0.00000000 </i>
    <i name="Edipol_quadrupol">      0.00000000 </i>
    <i name="Eion">      0.00000000 </i>
   </dipole>
   <energy>
    <i name="alphaZ">    869.20793192 </i>
    <i name="ewald"> 238954.58771584 </i>
    <i name="hartreedc">-284162.15180075 </i>
    <i name="XCdc">   -127.35938404 </i>
    <i name="pawpsdc">  52138.65043028 </i>
    <i name="pawaedc"> -50234.41559239 </i>
    <i name="eentropy">     -0.20697570 </i>
    <i name="bandstr">  -2787.31261152 </i>
    <i name="atom">  45117.89144060 </i>
    <i name="e_fr_energy">   -231.10884577 </i>
    <i name="e_wo_entrp">   -230.90187006 </i>
    <i name="e_0_energy">   -231.00535791 </i>
   </energy>
  </scstep>
  <scstep>
   <time name="diag">    1.98    1.98</time>
   <time name="diis">    5.30    5.30</time>
   <time name="orth">    0.49    0.49</time>
   <time name="total">    8.17    8.18</time>
   <dipole>
    <v name="dipole">      0.00000000       0.00000000       0.61723727 </v>
    <i name="Tr[quadrupol]"> -11059.40547228 </i>
    <i name="Echarged">      0.00000000 </i>
    <i name="Edipol_quadrupol">      0.00000000 </i>
    <i name="Eion">      0.00000000 </i>
   </dipole>
   <energy>
    <i name="e_fr_energy">   -231.11349188 </i>
    <i name="e_wo_entrp">   -230.90577981 </i>
    <i name="e_0_energy">   -231.00963585 </i>
   </energy>
  </scstep>
  <scstep>
   <time name="diag">    1.98    1.99</time>
   <time name="diis">    5.26    5.27</time>
   <time name="orth">    0.49    0.49</time>
   <time name="total">    8.15    8.16</time>
   <dipole>
    <v name="dipole">      0.00000000       0.00000000       0.61969722 </v>
    <i name="Tr[quadrupol]"> -11059.40523704 </i>
    <i name="Echarged">      0.00000000 </i>
    <i name="Edipol_quadrupol">      0.00000000 </i>
    <i name="Eion">      0.00000000 </i>
   </dipole>
   <energy>
    <i name="e_fr_energy">   -231.11207762 </i>
    <i name="e_wo_entrp">   -230.90591643 </i>
    <i name="e_0_energy">   -231.00899703 </i>
   </energy>
  </scstep>
  <scstep>
   <time name="diag">    1.97    1.98</time>
   <time name="diis">    5.32    5.33</time>
   <time name="orth">    0.49    0.49</time>
   <time name="total">    8.19    8.20</time>
   <dipole>
    <v name="dipole">      0.00000000       0.00000000       0.61040081 </v>
    <i name="Tr[quadrupol]"> -11059.40800576 </i>
    <i name="Echarged">      0.00000000 </i>
    <i name="Edipol_quadrupol">      0.00000000 </i>
    <i name="Eion">      0.00000000 </i>
   </dipole>
   <energy>
    <i name="e_fr_energy">   -231.11331791 </i>
    <i name="e_wo_entrp">   -230.90292148 </i>
    <i name="e_0_energy">   -231.00811970 </i>
   </energy>
  </scstep>
  <scstep>
   <time name="diag">    1.99    1.99</time>
   <time name="diis">    5.14    5.23</time>
   <time name="orth">    0.49    0.49</time>
   <time name="total">    8.04    8.13</time>
   <dipole>
    <v name="dipole">      0.00000000       0.00000000       0.62343153 </v>
    <i name="Tr[quadrupol]"> -11059.40606417 </i>
    <i name="Echarged">      0.00000000 </i>
    <i name="Edipol_quadrupol">      0.00000000 </i>
    <i name="Eion">      0.00000000 </i>
   </dipole>
   <energy>
    <i name="e_fr_energy">   -231.11252754 </i>
    <i name="e_wo_entrp">   -230.90709201 </i>
    <i name="e_0_energy">   -231.00980978 </i>
   </energy>
  </scstep>
  <scstep>
   <time name="diag">    1.99    2.00</time>
   <time name="diis">    5.32    5.32</time>
   <time name="orth">    0.49    0.49</time>
   <time name="total">    8.22    8.23</time>
   <dipole>
    <v name="dipole">      0.00000000       0.00000000       0.61529284 </v>
    <i name="Tr[quadrupol]"> -11059.40923596 </i>
    <i name="Echarged">      0.00000000 </i>
    <i name="Edipol_quadrupol">      0.00000000 </i>
    <i name="Eion">      0.00000000 </i>
   </dipole>
   <energy>
    <i name="e_fr_energy">   -231.11210186 </i>
    <i name="e_wo_entrp">   -230.90440541 </i>
    <i name="e_0_energy">   -231.00825364 </i>
   </energy>
  </scstep>
  <scstep>
   <time name="diag">    2.00    2.00</time>
   <time name="diis">    5.20    5.20</time>
   <time name="orth">    0.49    0.49</time>
   <time name="total">    8.10    8.11</time>
   <dipole>
    <v name="dipole">      0.00000000       0.00000000       0.61848302 </v>
    <i name="Tr[quadrupol]"> -11059.40617213 </i>
    <i name="Echarged">      0.00000000 </i>
    <i name="Edipol_quadrupol">      0.00000000 </i>
    <i name="Eion">      0.00000000 </i>
   </dipole>
   <energy>
    <i name="e_fr_energy">   -231.11196884 </i>
    <i name="e_wo_entrp">   -230.90488348 </i>
    <i name="e_0_energy">   -231.00842616 </i>
   </energy>
  </scstep>
  <scstep>
   <time name="diag">    1.97    1.97</time>
   <time name="diis">    4.70    5.66</time>
   <time name="orth">    0.49    0.49</time>
   <time name="total">    7.57    8.54</time>
   <dipole>
    <v name="dipole">      0.00000000       0.00000000       0.61806675 </v>
    <i name="Tr[quadrupol]"> -11059.40785457 </i>
    <i name="Echarged">      0.00000000 </i>
    <i name="Edipol_quadrupol">      0.00000000 </i>
    <i name="Eion">      0.00000000 </i>
   </dipole>
   <energy>
    <i name="e_fr_energy">   -231.11189767 </i>
    <i name="e_wo_entrp">   -230.90492253 </i>
    <i name="e_0_energy">   -231.00841010 </i>
   </energy>
  </scstep>
  <scstep>
   <time name="diag">    1.98    1.98</time>
   <time name="diis">    5.17    5.18</time>
   <time name="orth">    0.48    0.48</time>
   <time name="total">    8.06    8.07</time>
   <dipole>
    <v name="dipole">      0.00000000       0.00000000       0.61803364 </v>
    <i name="Tr[quadrupol]"> -11059.40786279 </i>
    <i name="Echarged">      0.00000000 </i>
    <i name="Edipol_quadrupol">      0.00000000 </i>
    <i name="Eion">      0.00000000 </i>
   </dipole>
   <energy>
    <i name="e_fr_energy">   -231.11189429 </i>
    <i name="e_wo_entrp">   -230.90489458 </i>
    <i name="e_0_energy">   -231.00839443 </i>
   </energy>
  </scstep>
  <scstep>
   <time name="diag">    1.97    1.97</time>
   <time name="diis">    4.12    4.21</time>
   <time name="orth">    0.48    0.48</time>
   <time name="total">    6.99    7.08</time>
   <dipole>
    <v name="dipole">      0.00000000       0.00000000       0.61798293 </v>
    <i name="Tr[quadrupol]"> -11059.40810248 </i>
    <i name="Echarged">      0.00000000 </i>
    <i name="Edipol_quadrupol">      0.00000000 </i>
    <i name="Eion">      0.00000000 </i>
   </dipole>
   <energy>
    <i name="e_fr_energy">   -231.11189224 </i>
    <i name="e_wo_entrp">   -230.90488916 </i>
    <i name="e_0_energy">   -231.00839070 </i>
   </energy>
  </scstep>
  <scstep>
   <time name="diag">    1.98    1.98</time>
   <time name="diis">    4.55    4.55</time>
   <time name="orth">    0.48    0.48</time>
   <time name="total">    7.08    7.09</time>
   <dipole>
    <v name="dipole">      0.00000000       0.00000000       0.61799678 </v>
    <i name="Tr[quadrupol]"> -11059.40823020 </i>
    <i name="Echarged">      0.00000000 </i>
    <i name="Edipol_quadrupol">      0.00000000 </i>
    <i name="Eion">      0.00000000 </i>
   </dipole>
   <energy>
    <i name="alphaZ">    869.19680044 </i>
    <i name="ewald"> 238954.58771584 </i>
    <i name="hartreedc">-284162.34987831 </i>
    <i name="XCdc">   -127.35460501 </i>
    <i name="pawpsdc">  52141.58485276 </i>
    <i name="pawaedc"> -50237.39224018 </i>
    <i name="eentropy">     -0.20702579 </i>
    <i name="bandstr">  -2787.06895246 </i>
    <i name="atom">  45117.89144060 </i>
    <i name="e_fr_energy">   -231.11189210 </i>
    <i name="e_wo_entrp">   -230.90486632 </i>
    <i name="e_0_energy">   -231.00837921 </i>
   </energy>
  </scstep>
  <structure>
   <crystal>
    <varray name="basis" >
     <v>      11.00258152       0.00000000       0.00000000 </v>
     <v>       5.50129076       9.52851510       0.00000000 </v>
     <v>       0.00000000       0.00000000      26.19178509 </v>
    </varray>
    <i name="volume">   2745.90128299 </i>
    <varray name="rec_basis" >
     <v>       0.09088776      -0.05247407       0.00000000 </v>
     <v>       0.00000000       0.10494815       0.00000000 </v>
     <v>       0.00000000       0.00000000       0.03817991 </v>
    </varray>
   </crystal>
   <varray name="positions" >
    <v>       0.08333333       0.08333333       0.38179910 </v>
    <v>       0.16692555       0.66549122       0.47525412 </v>
    <v>       0.73785751       0.02394816       0.59740545 </v>
    <v>       0.66989319       0.91613747       0.48142372 </v>
    <v>       0.99577087       0.99641464       0.56401774 </v>
    <v>       0.83333333       0.83333333       0.38179910 </v>
    <v>       0.08333333       0.33333333       0.38179910 </v>
    <v>       0.92013077       0.41595720       0.47592638 </v>
    <v>       0.99982124       0.23810367       0.56567170 </v>
    <v>       0.83333333       0.58333333       0.38179910 </v>
    <v>       0.74737456       0.24799964       0.56578319 </v>
    <v>       0.96850676       0.51525940       0.60566114 </v>
    <v>       0.66534533       0.41928394       0.47206269 </v>
    <v>       0.33333333       0.58333333       0.38179910 </v>
    <v>       0.83333333       0.08333333       0.38179910 </v>
    <v>       0.99972932       0.74167851       0.56146338 </v>
    <v>       0.58333333       0.83333333       0.38179910 </v>
    <v>       0.58333333       0.33333333       0.38179910 </v>
    <v>       0.41478675       0.16768998       0.47407966 </v>
    <v>       0.58333333       0.08333333       0.38179910 </v>
    <v>       0.26741724       0.70678184       0.59787017 </v>
    <v>       0.33333333       0.83333333       0.38179910 </v>
    <v>       0.25924447       0.48544160       0.56920727 </v>
    <v>       0.08333333       0.83333333       0.38179910 </v>
    <v>       0.33091787       0.08423064       0.60800734 </v>
    <v>       0.06769970       0.84611714       0.62196784 </v>
    <v>       0.13486274       0.53204605       0.63180924 </v>
    <v>       0.09288523       0.30729577       0.61893187 </v>
    <v>       0.82556721       0.82552263       0.62577027 </v>
    <v>       0.32434607       0.84860522       0.61764213 </v>
    <v>       0.61408206       0.54264791       0.61439205 </v>
    <v>       0.58644331       0.83326596       0.61368905 </v>
    <v>       0.41331315       0.42057051       0.47768510 </v>
    <v>       0.24905898       0.99357446       0.56220904 </v>
    <v>       0.50809970       0.00230947       0.56956567 </v>
    <v>       0.50461328       0.49112838       0.56583023 </v>
    <v>       0.33333333       0.33333333       0.38179910 </v>
    <v>       0.75717542       0.74589083       0.57140443 </v>
    <v>       0.16615389       0.41522298       0.47638900 </v>
    <v>       0.17098914       0.91302102       0.47641335 </v>
    <v>       0.25064980       0.25073277       0.56395981 </v>
    <v>       0.41753293       0.66938978       0.47793539 </v>
    <v>       0.41884984       0.91397894       0.47472504 </v>
    <v>       0.17002486       0.16051292       0.47401226 </v>
    <v>       0.33333333       0.08333333       0.38179910 </v>
    <v>       0.50490127       0.73387979       0.57741978 </v>
    <v>       0.91786420       0.91571951       0.47341981 </v>
    <v>       0.66794735       0.16597959       0.47472623 </v>
    <v>       0.83333333       0.33333333       0.38179910 </v>
    <v>       0.91625030       0.66372785       0.47661458 </v>
    <v>       0.08333333       0.58333333       0.38179910 </v>
    <v>       0.66493405       0.66983287       0.47816191 </v>
    <v>       0.76417253       0.49139005       0.56298216 </v>
    <v>       0.92002395       0.16279576       0.47595588 </v>
    <v>       0.50635422       0.24530402       0.56226228 </v>
    <v>       0.58333333       0.58333333       0.38179910 </v>
   </varray>
  </structure>
  <varray name="forces" >
   <v>       0.02922816       0.17755785      -0.08787669 </v>
   <v>      -0.00278944       0.00473569       0.02366129 </v>
   <v>       0.00627353       0.01607876      -0.00277124 </v>
   <v>       0.00630538       0.00475046      -0.03284653 </v>
   <v>       0.01009258       0.00390139      -0.03345953 </v>
   <v>      -0.02528972      -0.23609623      -0.04981441 </v>
   <v>       0.26677961      -0.00171790      -0.10478508 </v>
   <v>      -0.01510809       0.02125614       0.02407063 </v>
   <v>       0.01203955       0.01613145      -0.00806794 </v>
   <v>      -0.08727213       0.00871863      -0.06819830 </v>
   <v>      -0.01202393      -0.01493537       0.00440614 </v>
   <v>      -0.03912090      -0.00775079      -0.00310354 </v>
   <v>       0.01764954      -0.03220285       0.02044046 </v>
   <v>      -0.00226145      -0.24858701      -0.02033855 </v>
   <v>       0.17194007       0.22519127      -0.03069983 </v>
   <v>       0.03264085       0.03940064       0.00233847 </v>
   <v>      -0.17358074      -0.05901378      -0.03428293 </v>
   <v>      -0.14783834       0.17873312      -0.22356274 </v>
   <v>      -0.01412054       0.01305049       0.03553481 </v>
   <v>      -0.29938147       0.15339679      -0.21734683 </v>
   <v>       0.00072147      -0.02891551      -0.01569830 </v>
   <v>       0.21379206      -0.07450145       0.06045693 </v>
   <v>       0.01609545       0.01380329       0.03952976 </v>
   <v>       0.03255976      -0.07378907      -0.25094908 </v>
   <v>       0.03473437       0.03470201      -0.01784705 </v>
   <v>       0.02335484      -0.03168829      -0.00161042 </v>
   <v>      -0.03500044       0.02242413       0.00680982 </v>
   <v>      -0.04241057       0.03423511      -0.00442519 </v>
   <v>       0.03822974      -0.03660498      -0.07366582 </v>
   <v>       0.04100174      -0.01033853      -0.04044526 </v>
   <v>      -0.05793631       0.00255513      -0.04056760 </v>
   <v>       0.00490310      -0.01872844      -0.03314848 </v>
   <v>      -0.02740940      -0.00614684      -0.00078530 </v>
   <v>      -0.01850189       0.01243551      -0.03019064 </v>
   <v>       0.02651519      -0.02343812       0.01694725 </v>
   <v>       0.01230865      -0.00084188       0.01967848 </v>
   <v>      -0.02763141       0.04494724       0.28659017 </v>
   <v>       0.04096521      -0.03312050      -0.00898763 </v>
   <v>      -0.00915232       0.00104028       0.01152723 </v>
   <v>      -0.00088371       0.04460148       0.01986874 </v>
   <v>       0.02076598       0.01394739      -0.00043544 </v>
   <v>      -0.00597892      -0.00913836      -0.01939014 </v>
   <v>       0.00216488      -0.01487656       0.00238102 </v>
   <v>       0.00583052      -0.00088553      -0.01936770 </v>
   <v>       0.07541525       0.04737661       0.24475629 </v>
   <v>       0.00245286       0.01160983      -0.00333016 </v>
   <v>      -0.03408652      -0.00249035       0.01190057 </v>
   <v>      -0.01515482      -0.00328443       0.01177551 </v>
   <v>      -0.01597291      -0.04746838       0.15856758 </v>
   <v>       0.00488051       0.01385533      -0.02953773 </v>
   <v>      -0.03679586      -0.19957599       0.30897472 </v>
   <v>      -0.01604060       0.00858278      -0.01872719 </v>
   <v>      -0.00950705      -0.02399425      -0.02904350 </v>
   <v>      -0.00549862       0.00784585      -0.00353185 </v>
   <v>      -0.03267036      -0.00730865      -0.00235587 </v>
   <v>       0.05977759       0.07057541       0.25097864 </v>
  </varray>
  <energy>
   <i name="e_fr_energy">   -231.11189210 </i>
   <i name="e_wo_entrp">   -231.00837921 </i>
   <i name="e_0_energy">     -0.20702579 </i>
  </energy>
  <time name="totalsc">   93.87   95.99</time>
 </calculation>
 <calculation>
  <scstep>
   <time name="dav">   11.59   11.60</time>
   <time name="total">   12.01   12.02</time>
   <dipole>
    <v name="dipole">      0.00000000       0.00000000       0.61791308 </v>
    <i name="Tr[quadrupol]"> -11059.18145236 </i>
    <i name="Echarged">      0.00000000 </i>
    <i name="Edipol_quadrupol">      0.00000000 </i>
    <i name="Eion">      0.00000000 </i>
   </dipole>
   <energy>
    <i name="alphaZ">    869.19680758 </i>
    <i name="ewald"> 238964.70176431 </i>
    <i name="hartreedc">-284172.30420938 </i>
    <i name="XCdc">   -127.34644631 </i>
    <i name="pawpsdc">  52141.57647261 </i>
    <i name="pawaedc"> -50237.38395601 </i>
    <i name="eentropy">     -0.20703321 </i>
    <i name="bandstr">  -2787.23660685 </i>
    <i name="atom">  45117.89144060 </i>
    <i name="e_fr_energy">   -231.11176666 </i>
    <i name="e_wo_entrp">   -230.90473345 </i>
    <i name="e_0_energy">   -231.00825005 </i>
   </energy>
  </scstep>
  <scstep>
   <time name="diag">    1.98    1.98</time>
   <time name="diis">    5.26    5.27</time>
   <time name="orth">    0.48    0.48</time>
   <time name="total">    8.14    8.15</time>
   <dipole>
    <v name="dipole">      0.00000000       0.00000000       0.61698653 </v>
    <i name="Tr[quadrupol]"> -11059.18259681 </i>
    <i name="Echarged">      0.00000000 </i>
    <i name="Edipol_quadrupol">      0.00000000 </i>
    <i name="Eion">      0.00000000 </i>
   </dipole>
   <energy>
    <i name="e_fr_energy">   -231.11340483 </i>
    <i name="e_wo_entrp">   -230.90591837 </i>
    <i name="e_0_energy">   -231.00966160 </i>
   </energy>
  </scstep>
  <scstep>
   <time name="diag">    1.98    1.98</time>
   <time name="diis">    5.15    5.24</time>
   <time name="orth">    0.48    0.48</time>
   <time name="total">    8.04    8.13</time>
   <dipole>
    <v name="dipole">      0.00000000       0.00000000       0.61821262 </v>
    <i name="Tr[quadrupol]"> -11059.18214166 </i>
    <i name="Echarged">      0.00000000 </i>
[...]
       <r>   -19.6042     8.9305    11.0438 </r>
       <r>   -19.5095     8.3775    11.8370 </r>
       <r>   -19.4148     1.9285    12.0196 </r>
       <r>   -19.3201     3.7435    12.3740 </r>
       <r>   -19.2254    10.3187    13.3510 </r>
       <r>   -19.1308     7.3146    14.0436 </r>
       <r>   -19.0361     8.1802    14.8181 </r>
       <r>   -18.9414     9.6688    15.7335 </r>
       <r>   -18.8467     2.6637    15.9857 </r>
       <r>   -18.7520     0.1492    15.9998 </r>
       <r>   -18.6574     0.0016    16.0000 </r>
       <r>   -18.5627     0.0000    16.0000 </r>
       <r>   -18.4680     0.0000    16.0000 </r>
       <r>   -18.3733     0.0000    16.0000 </r>
       <r>   -18.2786     0.0000    16.0000 </r>
       <r>   -18.1839     0.0000    16.0000 </r>
       <r>   -18.0893     0.0000    16.0000 </r>
       <r>   -17.9946     0.0000    16.0000 </r>
       <r>   -17.8999     0.0000    16.0000 </r>
       <r>   -17.8052     0.0000    16.0000 </r>
       <r>   -17.7105     0.0000    16.0000 </r>
       <r>   -17.6159     0.0000    16.0000 </r>
       <r>   -17.5212     0.0000    16.0000 </r>
       <r>   -17.4265     0.0000    16.0000 </r>
       <r>   -17.3318     0.0000    16.0000 </r>
       <r>   -17.2371     0.0000    16.0000 </r>
       <r>   -17.1425     0.0000    16.0000 </r>
       <r>   -17.0478     0.0000    16.0000 </r>
       <r>   -16.9531     0.0000    16.0000 </r>
       <r>   -16.8584     0.0000    16.0000 </r>
       <r>   -16.7637     0.0000    16.0000 </r>
       <r>   -16.6691     0.0000    16.0000 </r>
       <r>   -16.5744     0.0000    16.0000 </r>
       <r>   -16.4797     0.0000    16.0000 </r>
       <r>   -16.3850     0.0000    16.0000 </r>
       <r>   -16.2903     0.0000    16.0000 </r>
       <r>   -16.1957     0.0000    16.0000 </r>
       <r>   -16.1010     0.0000    16.0000 </r>
       <r>   -16.0063     0.0000    16.0000 </r>
       <r>   -15.9116     0.0000    16.0000 </r>
       <r>   -15.8169     0.0000    16.0000 </r>
       <r>   -15.7223     0.0000    16.0000 </r>
       <r>   -15.6276     0.0000    16.0000 </r>
       <r>   -15.5329     0.0000    16.0000 </r>
       <r>   -15.4382     0.0000    16.0000 </r>
       <r>   -15.3435     0.0000    16.0000 </r>
       <r>   -15.2489     0.0000    16.0000 </r>
       <r>   -15.1542     0.0000    16.0000 </r>
       <r>   -15.0595     0.0000    16.0000 </r>
       <r>   -14.9648     0.0000    16.0000 </r>
       <r>   -14.8701     0.0000    16.0000 </r>
       <r>   -14.7755     0.0000    16.0000 </r>
       <r>   -14.6808     0.0000    16.0000 </r>
       <r>   -14.5861     0.0000    16.0000 </r>
       <r>   -14.4914     0.0000    16.0000 </r>
       <r>   -14.3967     0.0000    16.0000 </r>
       <r>   -14.3021     0.0000    16.0000 </r>
       <r>   -14.2074     0.0000    16.0000 </r>
       <r>   -14.1127     0.0000    16.0000 </r>
       <r>   -14.0180     0.0000    16.0000 </r>
       <r>   -13.9233     0.0000    16.0000 </r>
       <r>   -13.8287     0.0000    16.0000 </r>
       <r>   -13.7340     0.0000    16.0000 </r>
       <r>   -13.6393     0.0000    16.0000 </r>
       <r>   -13.5446     0.0000    16.0000 </r>
       <r>   -13.4499     0.0000    16.0000 </r>
       <r>   -13.3553     0.0000    16.0000 </r>
       <r>   -13.2606     0.0000    16.0000 </r>
       <r>   -13.1659     0.0000    16.0000 </r>
       <r>   -13.0712     0.0000    16.0000 </r>
       <r>   -12.9765     0.0000    16.0000 </r>
       <r>   -12.8818     0.0000    16.0000 </r>
       <r>   -12.7872     0.0000    16.0000 </r>
       <r>   -12.6925     0.0000    16.0000 </r>
       <r>   -12.5978     0.0000    16.0000 </r>
       <r>   -12.5031     0.0000    16.0000 </r>
       <r>   -12.4084     0.0000    16.0000 </r>
       <r>   -12.3138     0.0000    16.0000 </r>
       <r>   -12.2191     0.0000    16.0000 </r>
       <r>   -12.1244     0.0000    16.0000 </r>
       <r>   -12.0297     0.0000    16.0000 </r>
       <r>   -11.9350     0.0000    16.0000 </r>
       <r>   -11.8404     0.0000    16.0000 </r>
       <r>   -11.7457     0.0000    16.0000 </r>
       <r>   -11.6510     0.0000    16.0000 </r>
       <r>   -11.5563     0.0000    16.0000 </r>
       <r>   -11.4616     0.0000    16.0000 </r>
       <r>   -11.3670     0.0000    16.0000 </r>
       <r>   -11.2723     0.0000    16.0000 </r>
       <r>   -11.1776     0.0000    16.0000 </r>
       <r>   -11.0829     0.0000    16.0000 </r>
       <r>   -10.9882     0.0000    16.0000 </r>
       <r>   -10.8936     0.0000    16.0000 </r>
       <r>   -10.7989     0.0000    16.0000 </r>
       <r>   -10.7042     0.0000    16.0000 </r>
       <r>   -10.6095     0.0000    16.0000 </r>
       <r>   -10.5148     0.0000    16.0000 </r>
       <r>   -10.4202     0.0000    16.0000 </r>
       <r>   -10.3255     0.0000    16.0000 </r>
       <r>   -10.2308     0.0000    16.0000 </r>
       <r>   -10.1361     0.0000    16.0000 </r>
       <r>   -10.0414     0.0000    16.0000 </r>
       <r>    -9.9468     0.0000    16.0000 </r>
       <r>    -9.8521     0.0000    16.0000 </r>
       <r>    -9.7574     0.0000    16.0000 </r>
       <r>    -9.6627     0.0000    16.0000 </r>
       <r>    -9.5680     0.0000    16.0000 </r>
       <r>    -9.4734     0.0000    16.0000 </r>
       <r>    -9.3787     0.0000    16.0000 </r>
       <r>    -9.2840     0.0077    16.0007 </r>
       <r>    -9.1893     0.3385    16.0328 </r>
       <r>    -9.0946     2.9105    16.3083 </r>
       <r>    -9.0000     5.5191    16.8309 </r>
       <r>    -8.9053     4.8617    17.2912 </r>
       <r>    -8.8106     5.6455    17.8257 </r>
       <r>    -8.7159     5.9030    18.3846 </r>
       <r>    -8.6212    11.6989    19.4923 </r>
       <r>    -8.5266    13.1706    20.7393 </r>
       <r>    -8.4319    12.7832    21.9496 </r>
       <r>    -8.3372    14.3941    23.3124 </r>
       <r>    -8.2425    19.1811    25.1285 </r>
       <r>    -8.1478    18.9869    26.9262 </r>
       <r>    -8.0531    19.5058    28.7730 </r>
       <r>    -7.9585    23.1020    30.9603 </r>
       <r>    -7.8638    24.9337    33.3211 </r>
       <r>    -7.7691    31.7705    36.3291 </r>
       <r>    -7.6744    40.3067    40.1454 </r>
       <r>    -7.5797    39.3717    43.8731 </r>
       <r>    -7.4851    43.6915    48.0098 </r>
       <r>    -7.3904    51.1115    52.8491 </r>
       <r>    -7.2957    57.6987    58.3120 </r>
       <r>    -7.2010    57.4212    63.7487 </r>
       <r>    -7.1063    56.0066    69.0514 </r>
       <r>    -7.0117    61.8342    74.9059 </r>
       <r>    -6.9170    69.3750    81.4743 </r>
       <r>    -6.8223    76.6890    88.7353 </r>
       <r>    -6.7276    76.2773    95.9572 </r>
       <r>    -6.6329    73.6445   102.9299 </r>
       <r>    -6.5383    82.9191   110.7807 </r>
       <r>    -6.4436    91.2244   119.4179 </r>
       <r>    -6.3489    87.9353   127.7437 </r>
       <r>    -6.2542    83.2972   135.6303 </r>
       <r>    -6.1595    80.0365   143.2082 </r>
       <r>    -6.0649    77.9247   150.5861 </r>
       <r>    -5.9702    78.5577   158.0240 </r>
       <r>    -5.8755    77.3468   165.3472 </r>
       <r>    -5.7808    77.2996   172.6659 </r>
       <r>    -5.6861    79.4732   180.1905 </r>
       <r>    -5.5915    79.4415   187.7121 </r>
       <r>    -5.4968    82.6915   195.5413 </r>
       <r>    -5.4021    90.0615   204.0684 </r>
       <r>    -5.3074    91.2344   212.7065 </r>
       <r>    -5.2127    90.9244   221.3152 </r>
       <r>    -5.1181    90.7976   229.9120 </r>
       <r>    -5.0234    90.0399   238.4370 </r>
       <r>    -4.9287    86.4712   246.6241 </r>
       <r>    -4.8340    89.1300   255.0630 </r>
       <r>    -4.7393    92.1525   263.7880 </r>
       <r>    -4.6447    87.6680   272.0885 </r>
       <r>    -4.5500    89.3801   280.5510 </r>
       <r>    -4.4553    92.6939   289.3273 </r>
       <r>    -4.3606    94.6171   298.2857 </r>
       <r>    -4.2659    99.9034   307.7446 </r>
       <r>    -4.1713   101.3113   317.3368 </r>
       <r>    -4.0766    98.3934   326.6527 </r>
       <r>    -3.9819    98.6105   335.9892 </r>
       <r>    -3.8872    94.3440   344.9217 </r>
       <r>    -3.7925    90.3977   353.4806 </r>
       <r>    -3.6979    91.2839   362.1234 </r>
       <r>    -3.6032    89.7007   370.6163 </r>
       <r>    -3.5085    85.8292   378.7426 </r>
       <r>    -3.4138    85.6816   386.8550 </r>
       <r>    -3.3191    86.9105   395.0837 </r>
       <r>    -3.2244    85.7170   403.1994 </r>
       <r>    -3.1298    85.6751   411.3112 </r>
       <r>    -3.0351    87.4965   419.5954 </r>
       <r>    -2.9404    90.7039   428.1832 </r>
       <r>    -2.8457    91.1251   436.8110 </r>
       <r>    -2.7510    88.8415   445.2225 </r>
       <r>    -2.6564    87.6795   453.5241 </r>
       <r>    -2.5617    88.5857   461.9114 </r>
       <r>    -2.4670    94.7534   470.8827 </r>
       <r>    -2.3723   101.6320   480.5052 </r>
       <r>    -2.2776    99.5158   489.9274 </r>
       <r>    -2.1830    98.3149   499.2359 </r>
       <r>    -2.0883    97.7501   508.4909 </r>
       <r>    -1.9936    92.1349   517.2143 </r>
       <r>    -1.8989    81.5462   524.9351 </r>
       <r>    -1.8042    70.2522   531.5866 </r>
       <r>    -1.7096    57.3615   537.0177 </r>
       <r>    -1.6149    57.6393   542.4750 </r>
       <r>    -1.5202    54.1657   547.6034 </r>
       <r>    -1.4255    44.6283   551.8288 </r>
       <r>    -1.3308    38.5348   555.4773 </r>
       <r>    -1.2362    31.7954   558.4877 </r>
       <r>    -1.1415    30.2141   561.3484 </r>
       <r>    -1.0468    32.7025   564.4447 </r>
       <r>    -0.9521    29.2121   567.2105 </r>
       <r>    -0.8574    25.7643   569.6499 </r>
       <r>    -0.7628    26.5881   572.1672 </r>
       <r>    -0.6681    27.3338   574.7552 </r>
       <r>    -0.5734    29.1166   577.5120 </r>
       <r>    -0.4787    27.1928   580.0866 </r>
       <r>    -0.3840    19.2516   581.9093 </r>
       <r>    -0.2894    14.0937   583.2437 </r>
       <r>    -0.1947    12.3138   584.4096 </r>
       <r>    -0.1000    10.2900   585.3839 </r>
       <r>    -0.0053    11.4703   586.4699 </r>
       <r>     0.0894    12.1860   587.6237 </r>
       <r>     0.1840     9.3299   588.5070 </r>
       <r>     0.2787     9.8377   589.4385 </r>
       <r>     0.3734    13.8107   590.7461 </r>
       <r>     0.4681    19.0250   592.5473 </r>
       <r>     0.5628    18.7284   594.3206 </r>
       <r>     0.6574    16.1932   595.8537 </r>
       <r>     0.7521    17.1052   597.4733 </r>
       <r>     0.8468    17.9050   599.1685 </r>
       <r>     0.9415    13.4470   600.4417 </r>
       <r>     1.0362    11.4384   601.5247 </r>
       <r>     1.1308    13.3728   602.7908 </r>
       <r>     1.2255    10.4069   603.7761 </r>
       <r>     1.3202    10.3160   604.7529 </r>
       <r>     1.4149    13.3714   606.0189 </r>
       <r>     1.5096    13.6423   607.3105 </r>
       <r>     1.6042    16.1259   608.8373 </r>
       <r>     1.6989    14.2959   610.1909 </r>
       <r>     1.7936    12.3021   611.3556 </r>
       <r>     1.8883    16.8169   612.9479 </r>
       <r>     1.9830    18.5877   614.7078 </r>
       <r>     2.0777    19.1378   616.5198 </r>
       <r>     2.1723    16.8877   618.1187 </r>
       <r>     2.2670    13.4266   619.3899 </r>
       <r>     2.3617    12.7575   620.5978 </r>
       <r>     2.4564    11.7826   621.7134 </r>
       <r>     2.5511    10.4627   622.7040 </r>
       <r>     2.6457     9.2701   623.5817 </r>
       <r>     2.7404     9.2090   624.4536 </r>
       <r>     2.8351     9.8604   625.3872 </r>
       <r>     2.9298    11.7576   626.5004 </r>
       <r>     3.0245    12.6458   627.6977 </r>
       <r>     3.1191    13.3980   628.9662 </r>
       <r>     3.2138    14.3633   630.3262 </r>
       <r>     3.3085    15.0843   631.7544 </r>
       <r>     3.4032    13.1859   633.0028 </r>
       <r>     3.4979    13.1529   634.2481 </r>
       <r>     3.5925    15.2147   635.6887 </r>
       <r>     3.6872    18.3988   637.4307 </r>
       <r>     3.7819    20.0212   639.3263 </r>
       <r>     3.8766    17.8238   641.0138 </r>
       <r>     3.9713    17.2328   642.6455 </r>
       <r>     4.0659    17.1211   644.2665 </r>
       <r>     4.1606    16.1848   645.7989 </r>
       <r>     4.2553    18.6384   647.5636 </r>
       <r>     4.3500    22.6419   649.7073 </r>
       <r>     4.4447    23.3194   651.9152 </r>
       <r>     4.5393    25.7204   654.3504 </r>
       <r>     4.6340    26.8538   656.8929 </r>
       <r>     4.7287    27.2790   659.4757 </r>
       <r>     4.8234    25.7700   661.9156 </r>
       <r>     4.9181    28.1672   664.5825 </r>
       <r>     5.0127    29.1071   667.3384 </r>
       <r>     5.1074    27.7024   669.9613 </r>
       <r>     5.2021    17.3196   671.6011 </r>
       <r>     5.2968     3.9763   671.9776 </r>
       <r>     5.3915     0.2341   671.9997 </r>
       <r>     5.4861     0.0029   672.0000 </r>
       <r>     5.5808     0.0000   672.0000 </r>
       <r>     5.6755     0.0000   672.0000 </r>
       <r>     5.7702     0.0000   672.0000 </r>
       <r>     5.8649     0.0000   672.0000 </r>
       <r>     5.9595     0.0000   672.0000 </r>
       <r>     6.0542     0.0000   672.0000 </r>
       <r>     6.1489     0.0000   672.0000 </r>
       <r>     6.2436     0.0000   672.0000 </r>
       <r>     6.3383     0.0000   672.0000 </r>
       <r>     6.4329     0.0000   672.0000 </r>
      </set>
     </set>
    </array>
   </total>
  </dos>
 </calculation>
 <structure name="finalpos" >
  <crystal>
   <varray name="basis" >
    <v>      11.00258152       0.00000000       0.00000000 </v>
    <v>       5.50129076       9.52851510       0.00000000 </v>
    <v>       0.00000000       0.00000000      26.19178509 </v>
   </varray>
   <i name="volume">   2745.90128299 </i>
   <varray name="rec_basis" >
    <v>       0.09088776      -0.05247407       0.00000000 </v>
    <v>       0.00000000       0.10494815       0.00000000 </v>
    <v>       0.00000000       0.00000000       0.03817991 </v>
   </varray>
  </crystal>
  <varray name="positions" >
   <v>       0.08333333       0.08333333       0.38179910 </v>
   <v>       0.16667921       0.66624794       0.47536064 </v>
   <v>       0.74093338       0.02019747       0.59409823 </v>
   <v>       0.66835879       0.91689360       0.47955327 </v>
   <v>       0.99762528       0.99707450       0.56435970 </v>
   <v>       0.83333333       0.83333333       0.38179910 </v>
   <v>       0.08333333       0.33333333       0.38179910 </v>
   <v>       0.91932664       0.41698311       0.47571334 </v>
   <v>       0.99986475       0.23935713       0.56503072 </v>
   <v>       0.83333333       0.58333333       0.38179910 </v>
   <v>       0.74687012       0.24802404       0.56621371 </v>
   <v>       0.96150798       0.51621267       0.60782125 </v>
   <v>       0.66481836       0.41831219       0.47202617 </v>
   <v>       0.33333333       0.58333333       0.38179910 </v>
   <v>       0.83333333       0.08333333       0.38179910 </v>
   <v>       0.00450215       0.74099523       0.56074473 </v>
   <v>       0.58333333       0.83333333       0.38179910 </v>
   <v>       0.58333333       0.33333333       0.38179910 </v>
   <v>       0.41319568       0.16853807       0.47420167 </v>
   <v>       0.58333333       0.08333333       0.38179910 </v>
   <v>       0.26917126       0.70614136       0.59828726 </v>
   <v>       0.33333333       0.83333333       0.38179910 </v>
   <v>       0.25882782       0.48439931       0.57253675 </v>
   <v>       0.08333333       0.83333333       0.38179910 </v>
   <v>       0.33334288       0.08449906       0.60801576 </v>
   <v>       0.07147697       0.84885284       0.62276687 </v>
   <v>       0.12454683       0.54013653       0.63264287 </v>
   <v>       0.09141290       0.30909798       0.61880393 </v>
   <v>       0.83552936       0.81755473       0.62087134 </v>
   <v>       0.32991762       0.84621353       0.61583627 </v>
   <v>       0.60954770       0.54675917       0.61268870 </v>
   <v>       0.59153164       0.82854524       0.61095326 </v>
   <v>       0.41138899       0.42059081       0.47816166 </v>
   <v>       0.24914716       0.99549622       0.56211743 </v>
   <v>       0.51008609       0.00135059       0.56900651 </v>
   <v>       0.50254266       0.49087249       0.56539951 </v>
   <v>       0.33333333       0.33333333       0.38179910 </v>
   <v>       0.75978233       0.74266720       0.56712213 </v>
   <v>       0.16509926       0.41649068       0.47756742 </v>
   <v>       0.17021398       0.91423719       0.47654934 </v>
   <v>       0.25051882       0.25115120       0.56384902 </v>
   <v>       0.41692856       0.66872610       0.47727721 </v>
   <v>       0.41829029       0.91373327       0.47463948 </v>
   <v>       0.16935655       0.16140224       0.47364429 </v>
   <v>       0.33333333       0.08333333       0.38179910 </v>
   <v>       0.50590886       0.73505008       0.57294847 </v>
   <v>       0.91629065       0.91726811       0.47370873 </v>
   <v>       0.66651292       0.16656967       0.47513044 </v>
   <v>       0.83333333       0.33333333       0.38179910 </v>
   <v>       0.91634163       0.66467351       0.47553208 </v>
   <v>       0.08333333       0.58333333       0.38179910 </v>
   <v>       0.66462136       0.66902162       0.47681800 </v>
   <v>       0.76304936       0.48933358       0.56228450 </v>
   <v>       0.91919355       0.16348454       0.47605655 </v>
   <v>       0.50526707       0.24500569       0.56283157 </v>
   <v>       0.58333333       0.58333333       0.38179910 </v>
  </varray>
  <varray name="selective"  type="logical" >
   <v type="logical" >  F  F  F </v>
   <v type="logical" >  T  T  T </v>
   <v type="logical" >  T  T  T </v>
   <v type="logical" >  T  T  T </v>
   <v type="logical" >  T  T  T </v>
   <v type="logical" >  F  F  F </v>
   <v type="logical" >  F  F  F </v>
   <v type="logical" >  T  T  T </v>
   <v type="logical" >  T  T  T </v>
   <v type="logical" >  F  F  F </v>
   <v type="logical" >  T  T  T </v>
   <v type="logical" >  T  T  T </v>
   <v type="logical" >  T  T  T </v>
   <v type="logical" >  F  F  F </v>
   <v type="logical" >  F  F  F </v>
   <v type="logical" >  T  T  T </v>
   <v type="logical" >  F  F  F </v>
   <v type="logical" >  F  F  F </v>
   <v type="logical" >  T  T  T </v>
   <v type="logical" >  F  F  F </v>
   <v type="logical" >  T  T  T </v>
   <v type="logical" >  F  F  F </v>
   <v type="logical" >  T  T  T </v>
   <v type="logical" >  F  F  F </v>
   <v type="logical" >  T  T  T </v>
   <v type="logical" >  T  T  T </v>
   <v type="logical" >  T  T  T </v>
   <v type="logical" >  T  T  T </v>
   <v type="logical" >  T  T  T </v>
   <v type="logical" >  T  T  T </v>
   <v type="logical" >  T  T  T </v>
   <v type="logical" >  T  T  T </v>
   <v type="logical" >  T  T  T </v>
   <v type="logical" >  T  T  T </v>
   <v type="logical" >  T  T  T </v>
   <v type="logical" >  T  T  T </v>
   <v type="logical" >  F  F  F </v>
   <v type="logical" >  T  T  T </v>
   <v type="logical" >  T  T  T </v>
   <v type="logical" >  T  T  T </v>
   <v type="logical" >  T  T  T </v>
   <v type="logical" >  T  T  T </v>
   <v type="logical" >  T  T  T </v>
   <v type="logical" >  T  T  T </v>
   <v type="logical" >  F  F  F </v>
   <v type="logical" >  T  T  T </v>
   <v type="logical" >  T  T  T </v>
   <v type="logical" >  T  T  T </v>
   <v type="logical" >  F  F  F </v>
   <v type="logical" >  T  T  T </v>
   <v type="logical" >  F  F  F </v>
   <v type="logical" >  T  T  T </v>
   <v type="logical" >  T  T  T </v>
   <v type="logical" >  T  T  T </v>
   <v type="logical" >  T  T  T </v>
   <v type="logical" >  F  F  F </v>
  </varray>
  <nose>
   <v>      -3.00000000       0.00000000       0.00010000       0.00010000 </v>
  </nose>
 </structure>
</modeling>
