  56  56   0   0
  0.4903395E+02  0.1100258E-08  0.1100258E-08  0.2619179E-08  0.3500000E-15
  1.000000000000000E-004
  CAR 
 unknown system                          
      6.54158745    -21.84394423  301     -1.39498195      1.00000000
    -21.844  0.0000E+00  0.0000E+00
    -21.749  0.0000E+00  0.0000E+00
    -21.655  0.0000E+00  0.0000E+00
    -21.560  0.0000E+00  0.0000E+00
    -21.465  0.0000E+00  0.0000E+00
    -21.371  0.0000E+00  0.0000E+00
    -21.276  0.0000E+00  0.0000E+00
    -21.182  0.0000E+00  0.0000E+00
    -21.087  0.8456E-15  0.8001E-16
    -20.992  0.1031E-10  0.9757E-12
    -20.898  0.2186E-07  0.2069E-08
    -20.803  0.8217E-05  0.7795E-06
    -20.709  0.5663E-03  0.5436E-04
    -20.614  0.7538E-02  0.7676E-03
    -20.519  0.2063E-01  0.2719E-02
    -20.425  0.1210E-01  0.3864E-02
    -20.330  0.3972E-02  0.4240E-02
    -20.235  0.2063E-01  0.6192E-02
    -20.141  0.4028E-01  0.1000E-01
    -20.046  0.2419E-01  0.1229E-01
    -19.952  0.3060E-01  0.1519E-01
    -19.857  0.4128E-01  0.1909E-01
    -19.762  0.3209E-01  0.2213E-01
    -19.668  0.3547E-01  0.2549E-01
    -19.573  0.2688E-01  0.2803E-01
    -19.478  0.2308E-01  0.3021E-01
    -19.384  0.1598E-01  0.3172E-01
    -19.289  0.2814E-02  0.3199E-01
    -19.195  0.1002E-03  0.3200E-01
    -19.100  0.6716E-06  0.3200E-01
    -19.005  0.8108E-09  0.3200E-01
    -18.911  0.1717E-12  0.3200E-01
    -18.816  0.9387E-17  0.3200E-01
    -18.722  0.0000E+00  0.3200E-01
    -18.627  0.0000E+00  0.3200E-01
    -18.532  0.0000E+00  0.3200E-01
    -18.438  0.0000E+00  0.3200E-01
    -18.343  0.0000E+00  0.3200E-01
    -18.248  0.0000E+00  0.3200E-01
    -18.154  0.0000E+00  0.3200E-01
    -18.059  0.0000E+00  0.3200E-01
    -17.965  0.0000E+00  0.3200E-01
    -17.870  0.0000E+00  0.3200E-01
    -17.775  0.0000E+00  0.3200E-01
    -17.681  0.0000E+00  0.3200E-01
    -17.586  0.0000E+00  0.3200E-01
    -17.491  0.0000E+00  0.3200E-01
    -17.397  0.0000E+00  0.3200E-01
    -17.302  0.0000E+00  0.3200E-01
    -17.208  0.0000E+00  0.3200E-01
    -17.113  0.0000E+00  0.3200E-01
    -17.018  0.0000E+00  0.3200E-01
    -16.924  0.0000E+00  0.3200E-01
    -16.829  0.0000E+00  0.3200E-01
    -16.735  0.0000E+00  0.3200E-01
    -16.640  0.0000E+00  0.3200E-01
    -16.545  0.0000E+00  0.3200E-01
    -16.451  0.0000E+00  0.3200E-01
    -16.356  0.0000E+00  0.3200E-01
    -16.261  0.0000E+00  0.3200E-01
    -16.167  0.0000E+00  0.3200E-01
    -16.072  0.0000E+00  0.3200E-01
    -15.978  0.0000E+00  0.3200E-01
    -15.883  0.0000E+00  0.3200E-01
    -15.788  0.0000E+00  0.3200E-01
    -15.694  0.0000E+00  0.3200E-01
    -15.599  0.0000E+00  0.3200E-01
    -15.505  0.0000E+00  0.3200E-01
    -15.410  0.0000E+00  0.3200E-01
    -15.315  0.0000E+00  0.3200E-01
    -15.221  0.0000E+00  0.3200E-01
    -15.126  0.0000E+00  0.3200E-01
    -15.031  0.0000E+00  0.3200E-01
    -14.937  0.0000E+00  0.3200E-01
    -14.842  0.0000E+00  0.3200E-01
    -14.748  0.0000E+00  0.3200E-01
    -14.653  0.0000E+00  0.3200E-01
    -14.558  0.0000E+00  0.3200E-01
    -14.464  0.0000E+00  0.3200E-01
    -14.369  0.0000E+00  0.3200E-01
    -14.274  0.0000E+00  0.3200E-01
    -14.180  0.0000E+00  0.3200E-01
    -14.085  0.0000E+00  0.3200E-01
    -13.991  0.0000E+00  0.3200E-01
    -13.896  0.0000E+00  0.3200E-01
    -13.801  0.0000E+00  0.3200E-01
    -13.707  0.0000E+00  0.3200E-01
    -13.612  0.0000E+00  0.3200E-01
    -13.518  0.0000E+00  0.3200E-01
    -13.423  0.0000E+00  0.3200E-01
    -13.328  0.0000E+00  0.3200E-01
    -13.234  0.0000E+00  0.3200E-01
    -13.139  0.0000E+00  0.3200E-01
    -13.044  0.0000E+00  0.3200E-01
    -12.950  0.0000E+00  0.3200E-01
    -12.855  0.0000E+00  0.3200E-01
    -12.761  0.0000E+00  0.3200E-01
    -12.666  0.0000E+00  0.3200E-01
    -12.571  0.0000E+00  0.3200E-01
    -12.477  0.0000E+00  0.3200E-01
    -12.382  0.0000E+00  0.3200E-01
    -12.287  0.0000E+00  0.3200E-01
    -12.193  0.0000E+00  0.3200E-01
    -12.098  0.0000E+00  0.3200E-01
    -12.004  0.0000E+00  0.3200E-01
    -11.909  0.0000E+00  0.3200E-01
    -11.814  0.0000E+00  0.3200E-01
    -11.720  0.0000E+00  0.3200E-01
    -11.625  0.0000E+00  0.3200E-01
    -11.531  0.0000E+00  0.3200E-01
    -11.436  0.0000E+00  0.3200E-01
    -11.341  0.0000E+00  0.3200E-01
    -11.247  0.0000E+00  0.3200E-01
    -11.152  0.0000E+00  0.3200E-01
    -11.057  0.0000E+00  0.3200E-01
    -10.963  0.0000E+00  0.3200E-01
    -10.868  0.0000E+00  0.3200E-01
    -10.774  0.0000E+00  0.3200E-01
    -10.679  0.0000E+00  0.3200E-01
    -10.584  0.0000E+00  0.3200E-01
    -10.490  0.0000E+00  0.3200E-01
    -10.395  0.0000E+00  0.3200E-01
    -10.300  0.0000E+00  0.3200E-01
    -10.206  0.0000E+00  0.3200E-01
    -10.111  0.0000E+00  0.3200E-01
    -10.017  0.0000E+00  0.3200E-01
     -9.922  0.0000E+00  0.3200E-01
     -9.827  0.0000E+00  0.3200E-01
     -9.733  0.0000E+00  0.3200E-01
     -9.638  0.1330E-16  0.3200E-01
     -9.544  0.2748E-12  0.3200E-01
     -9.449  0.9937E-09  0.3200E-01
     -9.354  0.6441E-06  0.3200E-01
     -9.260  0.7713E-04  0.3201E-01
     -9.165  0.1789E-02  0.3218E-01
     -9.070  0.8711E-02  0.3300E-01
     -8.976  0.1158E-01  0.3410E-01
     -8.881  0.1092E-01  0.3513E-01
     -8.787  0.8029E-02  0.3589E-01
     -8.692  0.6117E-02  0.3647E-01
     -8.597  0.1543E-01  0.3793E-01
     -8.503  0.2487E-01  0.4028E-01
     -8.408  0.2520E-01  0.4267E-01
     -8.314  0.3264E-01  0.4575E-01
     -8.219  0.3877E-01  0.4942E-01
     -8.124  0.4289E-01  0.5348E-01
     -8.030  0.4070E-01  0.5733E-01
     -7.935  0.3933E-01  0.6105E-01
     -7.840  0.5371E-01  0.6614E-01
     -7.746  0.6661E-01  0.7244E-01
     -7.651  0.7297E-01  0.7934E-01
     -7.557  0.7981E-01  0.8689E-01
     -7.462  0.7843E-01  0.9432E-01
     -7.367  0.7136E-01  0.1011E+00
     -7.273  0.8479E-01  0.1091E+00
     -7.178  0.1085E+00  0.1194E+00
     -7.083  0.1281E+00  0.1315E+00
     -6.989  0.1434E+00  0.1450E+00
     -6.894  0.1426E+00  0.1585E+00
     -6.800  0.1448E+00  0.1722E+00
     -6.705  0.1582E+00  0.1872E+00
     -6.610  0.1573E+00  0.2021E+00
     -6.516  0.1561E+00  0.2169E+00
     -6.421  0.1646E+00  0.2324E+00
     -6.327  0.1678E+00  0.2483E+00
     -6.232  0.1707E+00  0.2645E+00
     -6.137  0.1704E+00  0.2806E+00
     -6.043  0.1656E+00  0.2963E+00
     -5.948  0.1641E+00  0.3118E+00
     -5.853  0.1552E+00  0.3265E+00
     -5.759  0.1496E+00  0.3406E+00
     -5.664  0.1561E+00  0.3554E+00
     -5.570  0.1651E+00  0.3710E+00
     -5.475  0.1655E+00  0.3867E+00
     -5.380  0.1596E+00  0.4018E+00
     -5.286  0.1609E+00  0.4170E+00
     -5.191  0.1666E+00  0.4328E+00
     -5.096  0.1684E+00  0.4487E+00
     -5.002  0.1711E+00  0.4649E+00
     -4.907  0.1783E+00  0.4818E+00
     -4.813  0.1862E+00  0.4994E+00
     -4.718  0.1817E+00  0.5166E+00
     -4.623  0.1837E+00  0.5339E+00
     -4.529  0.1871E+00  0.5516E+00
     -4.434  0.1921E+00  0.5698E+00
     -4.340  0.1837E+00  0.5872E+00
     -4.245  0.1754E+00  0.6038E+00
     -4.150  0.1832E+00  0.6211E+00
     -4.056  0.1867E+00  0.6388E+00
     -3.961  0.1896E+00  0.6567E+00
     -3.866  0.1937E+00  0.6751E+00
     -3.772  0.1922E+00  0.6932E+00
     -3.677  0.1946E+00  0.7117E+00
     -3.583  0.1983E+00  0.7304E+00
     -3.488  0.1910E+00  0.7485E+00
     -3.393  0.1850E+00  0.7660E+00
     -3.299  0.1896E+00  0.7839E+00
     -3.204  0.1849E+00  0.8014E+00
     -3.109  0.1740E+00  0.8179E+00
     -3.015  0.1722E+00  0.8342E+00
     -2.920  0.1725E+00  0.8505E+00
     -2.826  0.1696E+00  0.8666E+00
     -2.731  0.1785E+00  0.8834E+00
     -2.636  0.1844E+00  0.9009E+00
     -2.542  0.1853E+00  0.9184E+00
     -2.447  0.1867E+00  0.9361E+00
     -2.353  0.1832E+00  0.9534E+00
     -2.258  0.1837E+00  0.9708E+00
     -2.163  0.1878E+00  0.9886E+00
     -2.069  0.1840E+00  0.1006E+01
     -1.974  0.1757E+00  0.1023E+01
     -1.879  0.1737E+00  0.1039E+01
     -1.785  0.1679E+00  0.1055E+01
     -1.690  0.1582E+00  0.1070E+01
     -1.596  0.1400E+00  0.1083E+01
     -1.501  0.1152E+00  0.1094E+01
     -1.406  0.9518E-01  0.1103E+01
     -1.312  0.7683E-01  0.1110E+01
     -1.217  0.5978E-01  0.1116E+01
     -1.123  0.5058E-01  0.1121E+01
     -1.028  0.5261E-01  0.1126E+01
     -0.933  0.5502E-01  0.1131E+01
     -0.839  0.5452E-01  0.1136E+01
     -0.744  0.5044E-01  0.1141E+01
     -0.649  0.4956E-01  0.1146E+01
     -0.555  0.5869E-01  0.1151E+01
     -0.460  0.6387E-01  0.1157E+01
     -0.366  0.5385E-01  0.1162E+01
     -0.271  0.3640E-01  0.1166E+01
     -0.176  0.2125E-01  0.1168E+01
     -0.082  0.1612E-01  0.1169E+01
      0.013  0.2529E-01  0.1172E+01
      0.108  0.2957E-01  0.1174E+01
      0.202  0.1882E-01  0.1176E+01
      0.297  0.2031E-01  0.1178E+01
      0.391  0.3183E-01  0.1181E+01
      0.486  0.2961E-01  0.1184E+01
      0.581  0.2978E-01  0.1187E+01
      0.675  0.3659E-01  0.1190E+01
      0.770  0.3743E-01  0.1194E+01
      0.864  0.3709E-01  0.1197E+01
      0.959  0.2994E-01  0.1200E+01
      1.054  0.2736E-01  0.1203E+01
      1.148  0.2469E-01  0.1205E+01
      1.243  0.2317E-01  0.1207E+01
      1.338  0.2105E-01  0.1209E+01
      1.432  0.2209E-01  0.1211E+01
      1.527  0.2120E-01  0.1213E+01
      1.621  0.2585E-01  0.1216E+01
      1.716  0.3107E-01  0.1219E+01
      1.811  0.3250E-01  0.1222E+01
      1.905  0.3400E-01  0.1225E+01
      2.000  0.3603E-01  0.1228E+01
      2.095  0.3682E-01  0.1232E+01
      2.189  0.3775E-01  0.1235E+01
      2.284  0.3064E-01  0.1238E+01
      2.378  0.2715E-01  0.1241E+01
      2.473  0.2794E-01  0.1244E+01
      2.568  0.2787E-01  0.1246E+01
      2.662  0.2477E-01  0.1249E+01
      2.757  0.1418E-01  0.1250E+01
      2.851  0.1047E-01  0.1251E+01
      2.946  0.1712E-01  0.1252E+01
      3.041  0.1956E-01  0.1254E+01
      3.135  0.2689E-01  0.1257E+01
      3.230  0.3770E-01  0.1260E+01
      3.325  0.4098E-01  0.1264E+01
      3.419  0.4011E-01  0.1268E+01
      3.514  0.3636E-01  0.1272E+01
      3.608  0.3762E-01  0.1275E+01
      3.703  0.3820E-01  0.1279E+01
      3.798  0.3481E-01  0.1282E+01
      3.892  0.3531E-01  0.1285E+01
      3.987  0.3652E-01  0.1289E+01
      4.082  0.3582E-01  0.1292E+01
      4.176  0.3205E-01  0.1295E+01
      4.271  0.3052E-01  0.1298E+01
      4.365  0.3113E-01  0.1301E+01
      4.460  0.3502E-01  0.1304E+01
      4.555  0.4306E-01  0.1308E+01
      4.649  0.5134E-01  0.1313E+01
      4.744  0.5409E-01  0.1318E+01
      4.838  0.5286E-01  0.1323E+01
      4.933  0.5696E-01  0.1329E+01
      5.028  0.5354E-01  0.1334E+01
      5.122  0.5235E-01  0.1339E+01
      5.217  0.3855E-01  0.1343E+01
      5.312  0.1360E-01  0.1344E+01
      5.406  0.2111E-02  0.1344E+01
      5.501  0.1153E-03  0.1344E+01
      5.595  0.1542E-05  0.1344E+01
      5.690  0.4072E-08  0.1344E+01
      5.785  0.1949E-11  0.1344E+01
      5.879  0.1627E-15  0.1344E+01
      5.974  0.0000E+00  0.1344E+01
      6.068  0.0000E+00  0.1344E+01
      6.163  0.0000E+00  0.1344E+01
      6.258  0.0000E+00  0.1344E+01
      6.352  0.0000E+00  0.1344E+01
      6.447  0.0000E+00  0.1344E+01
      6.542  0.0000E+00  0.1344E+01
