unknown system                          
           1
    11.002582    0.000000    0.000000
     5.501291    9.528515    0.000000
     0.000000    0.000000   26.191785
   Au   O    Pd
  24   8  24
Direct configuration=     1
   0.08333333  0.08333333  0.38179910
   0.91666667  0.66666667  0.46754708
   0.66666667  0.91666667  0.46754708
   0.33333333  0.08333333  0.38179910
   0.00000000  0.75000000  0.55329505
   0.00000000  0.00000000  0.55329505
   0.91666667  0.16666667  0.46754708
   0.08333333  0.58333333  0.38179910
   0.33333333  0.83333333  0.38179910
   0.33333333  0.33333333  0.38179910
   0.16666667  0.41666667  0.46754708
   0.25000000  0.75000000  0.55329505
   0.16666667  0.91666667  0.46754708
   0.50000000  0.25000000  0.55329505
   0.75000000  0.50000000  0.55329505
   0.58333333  0.58333333  0.38179910
   0.41666667  0.66666667  0.46754708
   0.50000000  0.75000000  0.55329505
   0.66666667  0.16666667  0.46754708
   0.75000000  0.00000000  0.55329505
   0.83333333  0.33333333  0.38179910
   0.66666667  0.41666667  0.46754708
   0.75000000  0.25000000  0.55329505
   0.75000000  0.75000000  0.55329505
   0.08333333  0.08333333  0.61820090
   0.33333333  0.58333333  0.61820090
   0.33333333  0.08333333  0.61820090
   0.83333333  0.08333333  0.61820090
   0.83333333  0.33333333  0.61820090
   0.58333333  0.58333333  0.61820090
   0.58333333  0.08333333  0.61820090
   0.08333333  0.33333333  0.61820090
   0.25000000  0.00000000  0.55329505
   0.83333333  0.83333333  0.38179910
   0.25000000  0.25000000  0.55329505
   0.33333333  0.58333333  0.38179910
   0.16666667  0.66666667  0.46754708
   0.25000000  0.50000000  0.55329505
   0.91666667  0.91666667  0.46754708
   0.08333333  0.83333333  0.38179910
   0.58333333  0.08333333  0.38179910
   0.41666667  0.16666667  0.46754708
   0.50000000  0.00000000  0.55329505
   0.41666667  0.41666667  0.46754708
   0.58333333  0.33333333  0.38179910
   0.16666667  0.16666667  0.46754708
   0.50000000  0.50000000  0.55329505
   0.08333333  0.33333333  0.38179910
   0.58333333  0.83333333  0.38179910
   0.41666667  0.91666667  0.46754708
   0.91666667  0.41666667  0.46754708
   0.00000000  0.25000000  0.55329505
   0.66666667  0.66666667  0.46754708
   0.83333333  0.08333333  0.38179910
   0.00000000  0.50000000  0.55329505
   0.83333333  0.58333333  0.38179910
Direct configuration=     2
   0.08333333  0.08333333  0.38179910
   0.91651837  0.66601007  0.46735145
   0.66506673  0.91730272  0.46710759
   0.33333333  0.08333333  0.38179910
   0.00090950  0.74839655  0.55486578
   0.00200135 -0.00147747  0.55642038
   0.91775917  0.16683831  0.46746502
   0.08333333  0.58333333  0.38179910
   0.33333333  0.83333333  0.38179910
   0.33333333  0.33333333  0.38179910
   0.16749943  0.41526461  0.46854972
   0.25002204  0.74891919  0.55599461
   0.16654354  0.91649054  0.46814034
   0.49737508  0.25196021  0.55549562
   0.75150930  0.50069960  0.55608197
   0.58333333  0.58333333  0.38179910
   0.41657599  0.66563429  0.46738446
   0.49941694  0.75170499  0.55561455
   0.66584144  0.16685665  0.46655382
   0.75007980 -0.00199272  0.55645625
   0.83333333  0.33333333  0.38179910
   0.66548275  0.41730519  0.46770354
   0.74820516  0.25152390  0.55656006
   0.75012836  0.74947280  0.55514684
   0.08462318  0.08248350  0.61487159
   0.33286408  0.58220149  0.61444954
   0.33404709  0.08267220  0.61409759
   0.83348680  0.08262579  0.61612673
   0.83385008  0.33395275  0.61559152
   0.58303567  0.58335432  0.61527222
   0.58249765  0.08293389  0.61529528
   0.08344370  0.33536627  0.61409924
   0.25022435  0.00140754  0.55654430
   0.83333333  0.83333333  0.38179910
   0.24940625  0.24965903  0.55669404
   0.33333333  0.58333333  0.38179910
   0.16708326  0.66629793  0.46721172
   0.25036476  0.50058398  0.55536833
   0.91693306  0.91639132  0.46729339
   0.08333333  0.83333333  0.38179910
   0.58333333  0.08333333  0.38179910
   0.41566827  0.16647437  0.46779316
   0.49840324  0.00106003  0.55664019
   0.41647490  0.41689586  0.46798387
   0.58333333  0.33333333  0.38179910
   0.16657780  0.16734215  0.46803990
   0.49812205  0.50071239  0.55690584
   0.08333333  0.33333333  0.38179910
   0.58333333  0.83333333  0.38179910
   0.41715535  0.91763541  0.46857823
   0.91705484  0.41649594  0.46796917
   0.00137956  0.25074398  0.55746896
   0.66711940  0.66654341  0.46722654
   0.83333333  0.08333333  0.38179910
   0.00159744  0.49803816  0.55559575
   0.83333333  0.58333333  0.38179910
Direct configuration=     3
   0.08333333  0.08333333  0.38179910
   0.91628238  0.66496515  0.46704013
   0.66252057  0.91831493  0.46640818
   0.33333333  0.08333333  0.38179910
   0.00235689  0.74584481  0.55736545
   0.00518632 -0.00382873  0.56139406
   0.91949778  0.16711147  0.46733444
   0.08333333  0.58333333  0.38179910
   0.33333333  0.83333333  0.38179910
   0.33333333  0.33333333  0.38179910
   0.16882469  0.41303336  0.47014534
   0.25005710  0.74719917  0.56029071
   0.16634760  0.91621026  0.46908446
   0.49319777  0.25507969  0.55899762
   0.75391121  0.50181296  0.56051709
   0.58333333  0.58333333  0.38179910
   0.41643168  0.66399136  0.46712566
   0.49848906  0.75441832  0.55930582
   0.66452816  0.16715898  0.46497314
   0.75020680 -0.00516396  0.56148700
   0.83333333  0.33333333  0.38179910
   0.66359866  0.41832133  0.46795254
   0.74534884  0.25394905  0.56175602
   0.75033264  0.74863382  0.55809379
   0.08667585  0.08113106  0.60957332
   0.33211731  0.58040026  0.60847959
   0.33518295  0.08162007  0.60756755
   0.83373104  0.08149980  0.61282588
   0.83467244  0.33493849  0.61143894
   0.58256196  0.58338771  0.61061149
   0.58116774  0.08229820  0.61067125
   0.08361933  0.33860150  0.60757182
   0.25058138  0.00364750  0.56171516
   0.83333333  0.83333333  0.38179910
   0.24846134  0.24911642  0.56210321
   0.33333333  0.58333333  0.38179910
   0.16774622  0.66571111  0.46667804
   0.25094525  0.50151332  0.55866777
   0.91735700  0.91595312  0.46688967
   0.08333333  0.83333333  0.38179910
   0.58333333  0.08333333  0.38179910
   0.41407941  0.16616834  0.46818479
   0.49586213  0.00274698  0.56196366
   0.41616973  0.41726060  0.46867899
   0.58333333  0.33333333  0.38179910
   0.16643637  0.16841712  0.46882417
   0.49513346  0.50184610  0.56265208
   0.08333333  0.33333333  0.38179910
   0.58333333  0.83333333  0.38179910
   0.41793304  0.91917709  0.47021922
   0.91767258  0.41622425  0.46864088
   0.00357500  0.25192796  0.56411134
   0.66783989  0.66634727  0.46671644
   0.83333333  0.08333333  0.38179910
   0.00413962  0.49491607  0.55925709
   0.83333333  0.58333333  0.38179910
Direct configuration=     4
   0.08333333  0.08333333  0.38179910
   0.91631686  0.66511782  0.46708562
   0.66289258  0.91816704  0.46651037
   0.33333333  0.08333333  0.38179910
   0.00214542  0.74621763  0.55700023
   0.00472097 -0.00348519  0.56066737
   0.91924376  0.16707156  0.46735352
   0.08333333  0.58333333  0.38179910
   0.33333333  0.83333333  0.38179910
   0.33333333  0.33333333  0.38179910
   0.16863106  0.41335936  0.46991221
   0.25005198  0.74745048  0.55966302
   0.16637623  0.91625121  0.46894651
   0.49380811  0.25462391  0.55848595
   0.75356028  0.50165029  0.55986909
   0.58333333  0.58333333  0.38179910
   0.41645276  0.66423140  0.46716347
   0.49862463  0.75402189  0.55876650
   0.66472004  0.16711481  0.46520408
   0.75018825 -0.00470062  0.56075197
   0.83333333  0.33333333  0.38179910
   0.66387394  0.41817287  0.46791616
   0.74576617  0.25359472  0.56099685
   0.75030279  0.74875640  0.55766322
   0.08637594  0.08132866  0.61034743
   0.33222642  0.58066343  0.60935184
   0.33501700  0.08177380  0.60852163
   0.83369535  0.08166431  0.61330816
   0.83455228  0.33479446  0.61204566
   0.58263117  0.58338283  0.61129245
   0.58136205  0.08239108  0.61134685
   0.08359367  0.33812881  0.60852552
   0.25052921  0.00332022  0.56095967
   0.83333333  0.83333333  0.38179910
   0.24859940  0.24919570  0.56131290
   0.33333333  0.58333333  0.38179910
   0.16764935  0.66579685  0.46675601
   0.25086044  0.50137753  0.55818570
   0.91729506  0.91601715  0.46694865
   0.08333333  0.83333333  0.38179910
   0.58333333  0.08333333  0.38179910
   0.41431155  0.16621306  0.46812757
   0.49623341  0.00250050  0.56118586
   0.41621431  0.41720731  0.46857743
   0.58333333  0.33333333  0.38179910
   0.16645703  0.16826006  0.46870959
   0.49557012  0.50168046  0.56181252
   0.08333333  0.33333333  0.38179910
   0.58333333  0.83333333  0.38179910
   0.41781942  0.91895184  0.46997946
   0.91758232  0.41626394  0.46854274
   0.00325423  0.25175497  0.56314084
   0.66773462  0.66637593  0.46679097
   0.83333333  0.08333333  0.38179910
   0.00376819  0.49537223  0.55872214
   0.83333333  0.58333333  0.38179910
Direct configuration=     5
   0.08333333  0.08333333  0.38179910
   0.91625570  0.66504933  0.46835254
   0.66317870  0.91833492  0.46796833
   0.33333333  0.08333333  0.38179910
   0.00202096  0.74470087  0.55773118
   0.00556672 -0.00849825  0.56138478
   0.91856296  0.16742741  0.46949015
   0.08333333  0.58333333  0.38179910
   0.33333333  0.83333333  0.38179910
   0.33333333  0.33333333  0.38179910
   0.16917219  0.41299394  0.47159273
   0.24665131  0.75456277  0.56003718
   0.16717495  0.91567119  0.47099761
   0.49161801  0.25885938  0.55899534
   0.75477335  0.50549796  0.56005098
   0.58333333  0.58333333  0.38179910
   0.41598229  0.66503591  0.46871574
   0.49664411  0.75789865  0.55946614
   0.66482430  0.16696329  0.46684984
   0.75219124 -0.00908456  0.56145196
   0.83333333  0.33333333  0.38179910
   0.66446164  0.41746044  0.47008648
   0.73958174  0.25573827  0.56122253
   0.75089995  0.74828033  0.55860166
   0.08951933  0.07974446  0.60935844
   0.33180113  0.57716545  0.60887330
   0.33629609  0.07992065  0.60658779
   0.83482773  0.08009127  0.61297149
   0.83638698  0.33451778  0.61182487
   0.58121895  0.58416907  0.61024969
   0.57996841  0.08163516  0.61043025
   0.08458407  0.34205064  0.60755839
   0.25190941 -0.00143498  0.56240433
   0.83333333  0.83333333  0.38179910
   0.25033803  0.25281256  0.56259412
   0.33333333  0.58333333  0.38179910
   0.16768152  0.66544187  0.46761728
   0.24879082  0.49986818  0.55884929
   0.91664851  0.91629389  0.46842589
   0.08333333  0.83333333  0.38179910
   0.58333333  0.08333333  0.38179910
   0.41383156  0.16638856  0.46948403
   0.49896734  0.00004596  0.56287337
   0.41589991  0.41673966  0.46981348
   0.58333333  0.33333333  0.38179910
   0.16669783  0.16802694  0.47008652
   0.49849876  0.49832972  0.56358297
   0.08333333  0.33333333  0.38179910
   0.58333333  0.83333333  0.38179910
   0.41719517  0.91871692  0.47171950
   0.91738937  0.41605691  0.46990918
   0.00115154  0.25197710  0.56452882
   0.66740902  0.66636323  0.46795873
   0.83333333  0.08333333  0.38179910
   0.00292372  0.49954019  0.55924810
   0.83333333  0.58333333  0.38179910
Direct configuration=     6
   0.08333333  0.08333333  0.38179910
   0.91621933  0.66500860  0.46910581
   0.66334881  0.91843473  0.46883518
   0.33333333  0.08333333  0.38179910
   0.00194696  0.74379905  0.55816577
   0.00606957 -0.01147883  0.56181132
   0.91815819  0.16763899  0.47076051
   0.08333333  0.58333333  0.38179910
   0.33333333  0.83333333  0.38179910
   0.33333333  0.33333333  0.38179910
   0.16949392  0.41277667  0.47259190
   0.24462939  0.75879148  0.56025965
   0.16764984  0.91532633  0.47221711
   0.49031585  0.26137764  0.55929821
   0.75549461  0.50778565  0.56015912
   0.58333333  0.58333333  0.38179910
   0.41570257  0.66551425  0.46963866
   0.49546657  0.76020363  0.55988213
   0.66488630  0.16687320  0.46782835
   0.75338214 -0.01169109  0.56186815
   0.83333333  0.33333333  0.38179910
   0.66481107  0.41703685  0.47137687
   0.73590471  0.25701274  0.56135671
   0.75125500  0.74799727  0.55915963
   0.09138828  0.07880255  0.60877042
   0.33154827  0.57508568  0.60858878
   0.33705660  0.07881884  0.60543800
   0.83550101  0.07915600  0.61277133
   0.83747782  0.33435327  0.61169359
   0.58037930  0.58463655  0.60962971
   0.57913980  0.08118571  0.60988527
   0.08517293  0.34438242  0.60698337
   0.25273002 -0.00426226  0.56326327
   0.83333333  0.83333333  0.38179910
   0.25137176  0.25496302  0.56335588
   0.33333333  0.58333333  0.38179910
   0.16770064  0.66523082  0.46812935
   0.24756030  0.49897078  0.55924384
   0.91626410  0.91645844  0.46930420
   0.08333333  0.83333333  0.38179910
   0.58333333  0.08333333  0.38179910
   0.41354617  0.16649291  0.47029054
   0.50059284 -0.00141343  0.56387671
   0.41571298  0.41646162  0.47054838
   0.58333333  0.33333333  0.38179910
   0.16684100  0.16788833  0.47090519
   0.50024003  0.49633750  0.56463561
   0.08333333  0.33333333  0.38179910
   0.58333333  0.83333333  0.38179910
   0.41682402  0.91857725  0.47275407
   0.91727465  0.41593381  0.47072162
  -0.00009865  0.25210916  0.56535407
   0.66721543  0.66635567  0.46865303
   0.83333333  0.08333333  0.38179910
   0.00242162  0.50201831  0.55956082
   0.83333333  0.58333333  0.38179910
Direct configuration=     7
   0.08333333  0.08333333  0.38179910
   0.91624577  0.66488916  0.46970561
   0.66330017  0.91836754  0.46986574
   0.33333333  0.08333333  0.38179910
   0.00319903  0.74212515  0.55890948
   0.00190578 -0.01062517  0.56277858
   0.91813725  0.16729824  0.47256433
   0.08333333  0.58333333  0.38179910
   0.33333333  0.83333333  0.38179910
   0.33333333  0.33333333  0.38179910
   0.16914519  0.41287413  0.47325968
   0.24771159  0.75424805  0.56137655
   0.16700072  0.91635086  0.47279113
   0.48988607  0.26132530  0.55979981
   0.75650243  0.50833549  0.56032737
   0.58333333  0.58333333  0.38179910
   0.41618967  0.66498625  0.47093734
   0.49536475  0.76032898  0.56049457
   0.66489603  0.16658227  0.46916152
   0.75400994 -0.01348532  0.56253121
   0.83333333  0.33333333  0.38179910
   0.66456231  0.41742993  0.47280834
   0.73538695  0.25628683  0.56192744
   0.75102465  0.74846622  0.56007798
   0.09177822  0.07783186  0.60961516
   0.32969744  0.57432583  0.60860950
   0.33548179  0.07983680  0.60618739
   0.83621038  0.07846349  0.61269823
   0.83683349  0.33462933  0.61214354
   0.57919056  0.58684622  0.60983012
   0.57941887  0.08250960  0.61047656
   0.08550699  0.34818603  0.60795794
   0.25455415 -0.00668623  0.56291665
   0.83333333  0.83333333  0.38179910
   0.25376286  0.25585236  0.56360851
   0.33333333  0.58333333  0.38179910
   0.16779397  0.66474381  0.46895821
   0.24555625  0.50114394  0.55972167
   0.91602154  0.91656486  0.47044969
   0.08333333  0.83333333  0.38179910
   0.58333333  0.08333333  0.38179910
   0.41386018  0.16588887  0.47151596
   0.50473158 -0.00566697  0.56316774
   0.41552758  0.41695277  0.47130296
   0.58333333  0.33333333  0.38179910
   0.16684257  0.16740986  0.47235074
   0.49884518  0.49688526  0.56535195
   0.08333333  0.33333333  0.38179910
   0.58333333  0.83333333  0.38179910
   0.41640039  0.91872781  0.47377062
   0.91752640  0.41559231  0.47173022
  -0.00025779  0.25180010  0.56489902
   0.66657920  0.66669515  0.46953612
   0.83333333  0.08333333  0.38179910
   0.00055620  0.50599593  0.55962989
   0.83333333  0.58333333  0.38179910
Direct configuration=     8
   0.08333333  0.08333333  0.38179910
   0.91625025  0.66486893  0.46980716
   0.66329193  0.91835616  0.47004022
   0.33333333  0.08333333  0.38179910
   0.00341102  0.74184175  0.55903540
   0.00120082 -0.01048064  0.56294234
   0.91813371  0.16724055  0.47286974
   0.08333333  0.58333333  0.38179910
   0.33333333  0.83333333  0.38179910
   0.33333333  0.33333333  0.38179910
   0.16908614  0.41289063  0.47337273
   0.24823343  0.75347881  0.56156565
   0.16689082  0.91652432  0.47288831
   0.48981330  0.26131644  0.55988474
   0.75667306  0.50842858  0.56035585
   0.58333333  0.58333333  0.38179910
   0.41627214  0.66489686  0.47115722
   0.49534752  0.76035020  0.56059826
   0.66489768  0.16653302  0.46938723
   0.75411624 -0.01378909  0.56264347
   0.83333333  0.33333333  0.38179910
   0.66452020  0.41749648  0.47305070
   0.73529929  0.25616392  0.56202407
   0.75098564  0.74854561  0.56023347
   0.09184424  0.07766751  0.60975818
   0.32938408  0.57419719  0.60861300
   0.33521516  0.08000915  0.60631427
   0.83633049  0.07834624  0.61268586
   0.83672440  0.33467607  0.61221973
   0.57898929  0.58722033  0.60986405
   0.57946612  0.08273375  0.61057667
   0.08556355  0.34883001  0.60812294
   0.25486299 -0.00709663  0.56285796
   0.83333333  0.83333333  0.38179910
   0.25416770  0.25600293  0.56365128
   0.33333333  0.58333333  0.38179910
   0.16780977  0.66466136  0.46909854
   0.24521694  0.50151187  0.55980257
   0.91598047  0.91658287  0.47064363
   0.08333333  0.83333333  0.38179910
   0.58333333  0.08333333  0.38179910
   0.41391334  0.16578661  0.47172343
   0.50543230 -0.00638713  0.56304771
   0.41549619  0.41703593  0.47143072
   0.58333333  0.33333333  0.38179910
   0.16684284  0.16732886  0.47259548
   0.49860903  0.49697800  0.56547323
   0.08333333  0.33333333  0.38179910
   0.58333333  0.83333333  0.38179910
   0.41632867  0.91875330  0.47394273
   0.91756902  0.41553449  0.47190098
  -0.00028473  0.25174778  0.56482198
   0.66647148  0.66675263  0.46968564
   0.83333333  0.08333333  0.38179910
   0.00024037  0.50666938  0.55964158
   0.83333333  0.58333333  0.38179910
Direct configuration=     9
   0.08333333  0.08333333  0.38179910
   0.91591416  0.66508874  0.46986112
   0.66338849  0.91795971  0.47037652
   0.33333333  0.08333333  0.38179910
   0.00438547  0.74214178  0.55997785
   0.00329613 -0.01156460  0.56379529
   0.91801399  0.16711538  0.47398172
   0.08333333  0.58333333  0.38179910
   0.33333333  0.83333333  0.38179910
   0.33333333  0.33333333  0.38179910
   0.16887543  0.41271726  0.47347510
   0.24871731  0.75170424  0.56245293
   0.16604081  0.91677783  0.47331319
   0.49038849  0.25993020  0.56065864
   0.75681354  0.50712340  0.56101616
   0.58333333  0.58333333  0.38179910
   0.41646878  0.66455332  0.47187441
   0.49661027  0.75841116  0.56135241
   0.66478943  0.16645117  0.47009716
   0.75393399 -0.01415364  0.56357703
   0.83333333  0.33333333  0.38179910
   0.66431076  0.41784062  0.47384142
   0.73573360  0.25628561  0.56298150
   0.75094006  0.74853297  0.56132579
   0.09220139  0.07649173  0.61008269
   0.32768393  0.57376634  0.60992514
   0.33609848  0.08013195  0.60639622
   0.83526389  0.07865066  0.61358458
   0.83602977  0.33482334  0.61242620
   0.57826679  0.58926676  0.61052120
   0.57923567  0.08385349  0.61108120
   0.08590359  0.35223204  0.60856494
   0.25323601 -0.00616691  0.56294624
   0.83333333  0.83333333  0.38179910
   0.25412992  0.25585542  0.56439774
   0.33333333  0.58333333  0.38179910
   0.16781763  0.66474997  0.46964057
   0.24402348  0.50213835  0.55996449
   0.91587660  0.91634163  0.47132352
   0.08333333  0.83333333  0.38179910
   0.58333333  0.08333333  0.38179910
   0.41412667  0.16535485  0.47253270
   0.50481884 -0.00587405  0.56349202
   0.41537690  0.41737745  0.47185034
   0.58333333  0.33333333  0.38179910
   0.16677672  0.16718575  0.47381504
   0.49791182  0.49721882  0.56587890
   0.08333333  0.33333333  0.38179910
   0.58333333  0.83333333  0.38179910
   0.41615631  0.91882944  0.47430004
   0.91792544  0.41507856  0.47247334
   0.00146439  0.25162490  0.56477472
   0.66600348  0.66713609  0.47022133
   0.83333333  0.08333333  0.38179910
  -0.00032076  0.50671931  0.56017270
   0.83333333  0.58333333  0.38179910
Direct configuration=    10
   0.08333333  0.08333333  0.38179910
   0.91557988  0.66530735  0.46991479
   0.66348452  0.91756541  0.47071099
   0.33333333  0.08333333  0.38179910
   0.00535466  0.74244020  0.56091521
   0.00538012 -0.01264270  0.56464363
   0.91789492  0.16699088  0.47508771
   0.08333333  0.58333333  0.38179910
   0.33333333  0.83333333  0.38179910
   0.33333333  0.33333333  0.38179910
   0.16866586  0.41254483  0.47357691
   0.24919859  0.74993926  0.56333541
   0.16519539  0.91702997  0.47373577
   0.49096056  0.25855145  0.56142835
   0.75695326  0.50582528  0.56167289
   0.58333333  0.58333333  0.38179910
   0.41666435  0.66421164  0.47258773
   0.49786619  0.75648259  0.56210249
   0.66468176  0.16636976  0.47080325
   0.75375273 -0.01451623  0.56450555
   0.83333333  0.33333333  0.38179910
   0.66410246  0.41818290  0.47462787
   0.73616558  0.25640664  0.56393375
   0.75089471  0.74852040  0.56241221
   0.09255661  0.07532230  0.61040545
   0.32599297  0.57333782  0.61123019
   0.33697702  0.08025409  0.60647774
   0.83420306  0.07895344  0.61447844
   0.83533889  0.33496981  0.61263155
   0.57754820  0.59130212  0.61117479
   0.57900646  0.08496718  0.61158300
   0.08624179  0.35561569  0.60900454
   0.25161781 -0.00524221  0.56303404
   0.83333333  0.83333333  0.38179910
   0.25409235  0.25570869  0.56514016
   0.33333333  0.58333333  0.38179910
   0.16782544  0.66483810  0.47017967
   0.24283647  0.50276144  0.56012554
   0.91577328  0.91610168  0.47199973
   0.08333333  0.83333333  0.38179910
   0.58333333  0.08333333  0.38179910
   0.41433884  0.16492542  0.47333760
   0.50420870 -0.00536374  0.56393394
   0.41525826  0.41771712  0.47226770
   0.58333333  0.33333333  0.38179910
   0.16671096  0.16704341  0.47502800
   0.49721839  0.49745833  0.56628238
   0.08333333  0.33333333  0.38179910
   0.58333333  0.83333333  0.38179910
   0.41598488  0.91890517  0.47465543
   0.91827993  0.41462510  0.47304260
   0.00320407  0.25150268  0.56472772
   0.66553801  0.66751748  0.47075412
   0.83333333  0.08333333  0.38179910
  -0.00087886  0.50676898  0.56070095
   0.83333333  0.58333333  0.38179910
Direct configuration=    11
   0.08333333  0.08333333  0.38179910
   0.91518860  0.66558992  0.47013657
   0.66369438  0.91716015  0.47089707
   0.33333333  0.08333333  0.38179910
   0.00436253  0.74353938  0.56197229
   0.00616534 -0.01347721  0.56599828
   0.91736998  0.16710460  0.47575297
   0.08333333  0.58333333  0.38179910
   0.33333333  0.83333333  0.38179910
   0.33333333  0.33333333  0.38179910
   0.16867806  0.41233111  0.47354582
   0.24957458  0.75000794  0.56429628
   0.16513073  0.91618693  0.47394893
   0.49102373  0.25943162  0.56218310
   0.75683239  0.50536326  0.56244748
   0.58333333  0.58333333  0.38179910
   0.41610476  0.66481706  0.47293880
   0.49691132  0.75809484  0.56247290
   0.66461781  0.16645722  0.47119759
   0.75488554 -0.01501355  0.56558173
   0.83333333  0.33333333  0.38179910
   0.66418877  0.41800776  0.47503843
   0.73624763  0.25605637  0.56532236
   0.75137737  0.74761155  0.56358944
   0.09248391  0.07519803  0.61106526
   0.32524305  0.57172831  0.61278356
   0.33729264  0.07952520  0.60670888
   0.83381376  0.07900057  0.61549300
   0.83636564  0.33401860  0.61288585
   0.57719423  0.59146552  0.61254194
   0.57820605  0.08559388  0.61258168
   0.08706094  0.35828209  0.61004121
   0.25281556 -0.00576695  0.56340310
   0.83333333  0.83333333  0.38179910
   0.25338630  0.25636732  0.56594134
   0.33333333  0.58333333  0.38179910
   0.16756460  0.66519154  0.47047288
   0.24354595  0.50125791  0.56042389
   0.91557455  0.91586269  0.47263243
   0.08333333  0.83333333  0.38179910
   0.58333333  0.08333333  0.38179910
   0.41424964  0.16488611  0.47383409
   0.50322395 -0.00492139  0.56458287
   0.41529136  0.41726991  0.47268296
   0.58333333  0.33333333  0.38179910
   0.16677627  0.16696129  0.47581130
   0.49585727  0.49752203  0.56734977
   0.08333333  0.33333333  0.38179910
   0.58333333  0.83333333  0.38179910
   0.41573026  0.91844811  0.47508449
   0.91824065  0.41448691  0.47333403
   0.00397106  0.25201727  0.56547078
   0.66562160  0.66744302  0.47119272
   0.83333333  0.08333333  0.38179910
  -0.00181844  0.50743751  0.56094065
   0.83333333  0.58333333  0.38179910
Direct configuration=    12
   0.08333333  0.08333333  0.38179910
   0.91451633  0.66607541  0.47051761
   0.66405494  0.91646387  0.47121678
   0.33333333  0.08333333  0.38179910
   0.00265795  0.74542790  0.56378845
   0.00751442 -0.01491099  0.56832570
   0.91646808  0.16729997  0.47689596
   0.08333333  0.58333333  0.38179910
   0.33333333  0.83333333  0.38179910
   0.33333333  0.33333333  0.38179910
   0.16869903  0.41196393  0.47349241
   0.25022058  0.75012593  0.56594716
   0.16501963  0.91473850  0.47431517
   0.49113225  0.26094384  0.56347983
   0.75662473  0.50456945  0.56377831
   0.58333333  0.58333333  0.38179910
   0.41514333  0.66585724  0.47354197
   0.49527076  0.76086483  0.56310932
   0.66450795  0.16660749  0.47187510
   0.75683183 -0.01586801  0.56743072
   0.83333333  0.33333333  0.38179910
   0.66433705  0.41770686  0.47574380
   0.73638862  0.25545456  0.56770813
   0.75220664  0.74605004  0.56561203
   0.09235900  0.07498452  0.61219888
   0.32395460  0.56896301  0.61545239
   0.33783490  0.07827289  0.60710601
   0.83314491  0.07908156  0.61723611
   0.83812969  0.33238433  0.61332276
   0.57658608  0.59174627  0.61489083
   0.57683086  0.08667062  0.61429751
   0.08846833  0.36286323  0.61182231
   0.25487341 -0.00666850  0.56403719
   0.83333333  0.83333333  0.38179910
   0.25217324  0.25749891  0.56731785
   0.33333333  0.58333333  0.38179910
   0.16711646  0.66579878  0.47097663
   0.24476492  0.49867470  0.56093649
   0.91523310  0.91545209  0.47371947
   0.08333333  0.83333333  0.38179910
   0.58333333  0.08333333  0.38179910
   0.41409638  0.16481858  0.47468709
   0.50153206 -0.00416138  0.56569780
   0.41534824  0.41650156  0.47339641
   0.58333333  0.33333333  0.38179910
   0.16688847  0.16682020  0.47715710
   0.49351872  0.49763148  0.56918365
   0.08333333  0.33333333  0.38179910
   0.58333333  0.83333333  0.38179910
   0.41529279  0.91766283  0.47582167
   0.91817316  0.41424947  0.47383473
   0.00528882  0.25290139  0.56674745
   0.66576521  0.66731509  0.47194629
   0.83333333  0.08333333  0.38179910
  -0.00343272  0.50858611  0.56135246
   0.83333333  0.58333333  0.38179910
Direct configuration=    13
   0.08333333  0.08333333  0.38179910
   0.91472763  0.66592281  0.47039785
   0.66394161  0.91668272  0.47111629
   0.33333333  0.08333333  0.38179910
   0.00319373  0.74483430  0.56321760
   0.00709038 -0.01446033  0.56759415
   0.91675157  0.16723856  0.47653670
   0.08333333  0.58333333  0.38179910
   0.33333333  0.83333333  0.38179910
   0.33333333  0.33333333  0.38179910
   0.16869244  0.41207934  0.47350919
   0.25001753  0.75008884  0.56542826
   0.16505455  0.91519377  0.47420006
   0.49109814  0.26046853  0.56307224
   0.75669000  0.50481896  0.56336001
   0.58333333  0.58333333  0.38179910
   0.41544552  0.66553029  0.47335238
   0.49578641  0.75999418  0.56290928
   0.66454248  0.16656026  0.47166214
   0.75622008 -0.01559944  0.56684955
   0.83333333  0.33333333  0.38179910
   0.66429044  0.41780144  0.47552209
   0.73634430  0.25564372  0.56695824
   0.75194599  0.74654085  0.56497629
   0.09239826  0.07505163  0.61184256
   0.32435958  0.56983219  0.61461353
   0.33766446  0.07866651  0.60698119
   0.83335514  0.07905610  0.61668822
   0.83757522  0.33289801  0.61318543
   0.57677723  0.59165803  0.61415253
   0.57726310  0.08633218  0.61375819
   0.08802596  0.36142330  0.61126248
   0.25422659 -0.00638512  0.56383788
   0.83333333  0.83333333  0.38179910
   0.25255453  0.25714323  0.56688519
   0.33333333  0.58333333  0.38179910
   0.16725732  0.66560792  0.47081829
   0.24438177  0.49948664  0.56077537
   0.91534042  0.91558115  0.47337780
   0.08333333  0.83333333  0.38179910
   0.58333333  0.08333333  0.38179910
   0.41414455  0.16483980  0.47441898
   0.50206385 -0.00440027  0.56534736
   0.41533036  0.41674307  0.47317216
   0.58333333  0.33333333  0.38179910
   0.16685320  0.16686455  0.47673409
   0.49425377  0.49759708  0.56860723
   0.08333333  0.33333333  0.38179910
   0.58333333  0.83333333  0.38179910
   0.41543030  0.91790966  0.47558996
   0.91819437  0.41432410  0.47367735
   0.00487463  0.25262350  0.56634617
   0.66572007  0.66735530  0.47170943
   0.83333333  0.08333333  0.38179910
  -0.00292532  0.50822508  0.56122302
   0.83333333  0.58333333  0.38179910
Direct configuration=    14
   0.08333333  0.08333333  0.38179910
   0.91465813  0.66599271  0.47075201
   0.66387793  0.91669274  0.47142865
   0.33333333  0.08333333  0.38179910
   0.00297520  0.74435767  0.56404310
   0.00689369 -0.01473891  0.56896572
   0.91662676  0.16700860  0.47691479
   0.08333333  0.58333333  0.38179910
   0.33333333  0.83333333  0.38179910
   0.33333333  0.33333333  0.38179910
   0.16859055  0.41219764  0.47352639
   0.25047436  0.74974788  0.56640460
   0.16480811  0.91480163  0.47440033
   0.49141051  0.26070394  0.56378614
   0.75502990  0.50585101  0.56407368
   0.58333333  0.58333333  0.38179910
   0.41515293  0.66563460  0.47350648
   0.49605530  0.75957498  0.56349795
   0.66453682  0.16647337  0.47186389
   0.75551494 -0.01568739  0.56789167
   0.83333333  0.33333333  0.38179910
   0.66412507  0.41762985  0.47582396
   0.73542342  0.25571345  0.56813988
   0.75167590  0.74649077  0.56590871
   0.09293848  0.07564087  0.61244459
   0.32391277  0.56807452  0.61556211
   0.33658871  0.07850419  0.60775907
   0.83382314  0.07893916  0.61786214
   0.83953366  0.33149645  0.61377338
   0.57613037  0.59151765  0.61497538
   0.57652190  0.08642410  0.61450511
   0.08862760  0.36377180  0.61249737
   0.25415892 -0.00665100  0.56444047
   0.83333333  0.83333333  0.38179910
   0.25223084  0.25785012  0.56749504
   0.33333333  0.58333333  0.38179910
   0.16686616  0.66559069  0.47106117
   0.24464635  0.49925944  0.56122938
   0.91517335  0.91565037  0.47381279
   0.08333333  0.83333333  0.38179910
   0.58333333  0.08333333  0.38179910
   0.41410552  0.16477664  0.47469348
   0.50378930 -0.00419002  0.56576922
   0.41545779  0.41631717  0.47344393
   0.58333333  0.33333333  0.38179910