  48  48   0   0
  0.5349325E+02  0.1100258E-08  0.1100258E-08  0.2449179E-08  0.3500000E-15
  1.000000000000000E-004
  CAR 
 unknown system                          
      6.36301927     -9.89384439  301     -1.10716072      1.00000000
     -9.894  0.0000E+00  0.0000E+00
     -9.840  0.0000E+00  0.0000E+00
     -9.785  0.0000E+00  0.0000E+00
     -9.731  0.0000E+00  0.0000E+00
     -9.677  0.0000E+00  0.0000E+00
     -9.623  0.0000E+00  0.0000E+00
     -9.569  0.0000E+00  0.0000E+00
     -9.515  0.0000E+00  0.0000E+00
     -9.460  0.8878E-17  0.4811E-18
     -9.406  0.3587E-14  0.1948E-15
     -9.352  0.8036E-12  0.4374E-13
     -9.298  0.1018E-09  0.5560E-11
     -9.244  0.7306E-08  0.4015E-09
     -9.189  0.2978E-06  0.1654E-07
     -9.135  0.6911E-05  0.3911E-06
     -9.081  0.9158E-04  0.5354E-05
     -9.027  0.6945E-03  0.4299E-04
     -8.973  0.3022E-02  0.2068E-03
     -8.918  0.7572E-02  0.6171E-03
     -8.864  0.1105E-01  0.1216E-02
     -8.810  0.1009E-01  0.1763E-02
     -8.756  0.8135E-02  0.2203E-02
     -8.702  0.9263E-02  0.2705E-02
     -8.647  0.1047E-01  0.3273E-02
     -8.593  0.8071E-02  0.3710E-02
     -8.539  0.3937E-02  0.3923E-02
     -8.485  0.1319E-02  0.3995E-02
     -8.431  0.9188E-03  0.4045E-02
     -8.377  0.2112E-02  0.4159E-02
     -8.322  0.3705E-02  0.4360E-02
     -8.268  0.4543E-02  0.4606E-02
     -8.214  0.5629E-02  0.4911E-02
     -8.160  0.8170E-02  0.5354E-02
     -8.106  0.1126E-01  0.5964E-02
     -8.051  0.1469E-01  0.6760E-02
     -7.997  0.1744E-01  0.7705E-02
     -7.943  0.1676E-01  0.8613E-02
     -7.889  0.1304E-01  0.9320E-02
     -7.835  0.8503E-02  0.9781E-02
     -7.780  0.5810E-02  0.1010E-01
     -7.726  0.7906E-02  0.1052E-01
     -7.672  0.1403E-01  0.1128E-01
     -7.618  0.1876E-01  0.1230E-01
     -7.564  0.1788E-01  0.1327E-01
     -7.510  0.1469E-01  0.1407E-01
     -7.455  0.1596E-01  0.1493E-01
     -7.401  0.2307E-01  0.1618E-01
     -7.347  0.3110E-01  0.1787E-01
     -7.293  0.3479E-01  0.1975E-01
     -7.239  0.3539E-01  0.2167E-01
     -7.184  0.3857E-01  0.2376E-01
     -7.130  0.4479E-01  0.2619E-01
     -7.076  0.4918E-01  0.2885E-01
     -7.022  0.4977E-01  0.3155E-01
     -6.968  0.4921E-01  0.3422E-01
     -6.913  0.5025E-01  0.3694E-01
     -6.859  0.5251E-01  0.3978E-01
     -6.805  0.5567E-01  0.4280E-01
     -6.751  0.6231E-01  0.4618E-01
     -6.697  0.7248E-01  0.5010E-01
     -6.642  0.8259E-01  0.5458E-01
     -6.588  0.9003E-01  0.5946E-01
     -6.534  0.9592E-01  0.6466E-01
     -6.480  0.1045E+00  0.7032E-01
     -6.426  0.1187E+00  0.7675E-01
     -6.372  0.1349E+00  0.8406E-01
     -6.317  0.1474E+00  0.9204E-01
     -6.263  0.1543E+00  0.1004E+00
     -6.209  0.1559E+00  0.1089E+00
     -6.155  0.1564E+00  0.1173E+00
     -6.101  0.1599E+00  0.1260E+00
     -6.046  0.1652E+00  0.1350E+00
     -5.992  0.1676E+00  0.1440E+00
     -5.938  0.1640E+00  0.1529E+00
     -5.884  0.1579E+00  0.1615E+00
     -5.830  0.1550E+00  0.1699E+00
     -5.775  0.1529E+00  0.1782E+00
     -5.721  0.1459E+00  0.1861E+00
     -5.667  0.1369E+00  0.1935E+00
     -5.613  0.1326E+00  0.2007E+00
     -5.559  0.1318E+00  0.2078E+00
     -5.504  0.1305E+00  0.2149E+00
     -5.450  0.1288E+00  0.2219E+00
     -5.396  0.1303E+00  0.2289E+00
     -5.342  0.1372E+00  0.2364E+00
     -5.288  0.1456E+00  0.2443E+00
     -5.234  0.1519E+00  0.2525E+00
     -5.179  0.1569E+00  0.2610E+00
     -5.125  0.1614E+00  0.2697E+00
     -5.071  0.1659E+00  0.2787E+00
     -5.017  0.1712E+00  0.2880E+00
     -4.963  0.1760E+00  0.2975E+00
     -4.908  0.1787E+00  0.3072E+00
     -4.854  0.1798E+00  0.3170E+00
     -4.800  0.1800E+00  0.3267E+00
     -4.746  0.1782E+00  0.3364E+00
     -4.692  0.1750E+00  0.3459E+00
     -4.637  0.1728E+00  0.3552E+00
     -4.583  0.1723E+00  0.3646E+00
     -4.529  0.1718E+00  0.3739E+00
     -4.475  0.1709E+00  0.3831E+00
     -4.421  0.1695E+00  0.3923E+00
     -4.367  0.1668E+00  0.4014E+00
     -4.312  0.1629E+00  0.4102E+00
     -4.258  0.1582E+00  0.4188E+00
     -4.204  0.1549E+00  0.4272E+00
     -4.150  0.1577E+00  0.4357E+00
     -4.096  0.1670E+00  0.4448E+00
     -4.041  0.1779E+00  0.4544E+00
     -3.987  0.1870E+00  0.4645E+00
     -3.933  0.1937E+00  0.4750E+00
     -3.879  0.1966E+00  0.4857E+00
     -3.825  0.1965E+00  0.4963E+00
     -3.770  0.1963E+00  0.5070E+00
     -3.716  0.1954E+00  0.5176E+00
     -3.662  0.1917E+00  0.5279E+00
     -3.608  0.1874E+00  0.5381E+00
     -3.554  0.1854E+00  0.5481E+00
     -3.499  0.1830E+00  0.5581E+00
     -3.445  0.1826E+00  0.5680E+00
     -3.391  0.1889E+00  0.5782E+00
     -3.337  0.1976E+00  0.5889E+00
     -3.283  0.2003E+00  0.5998E+00
     -3.229  0.1957E+00  0.6104E+00
     -3.174  0.1875E+00  0.6205E+00
     -3.120  0.1799E+00  0.6303E+00
     -3.066  0.1765E+00  0.6398E+00
     -3.012  0.1788E+00  0.6495E+00
     -2.958  0.1831E+00  0.6594E+00
     -2.903  0.1846E+00  0.6694E+00
     -2.849  0.1854E+00  0.6795E+00
     -2.795  0.1890E+00  0.6897E+00
     -2.741  0.1957E+00  0.7003E+00
     -2.687  0.2024E+00  0.7113E+00
     -2.632  0.2048E+00  0.7224E+00
     -2.578  0.2033E+00  0.7334E+00
     -2.524  0.1997E+00  0.7442E+00
     -2.470  0.1934E+00  0.7547E+00
     -2.416  0.1872E+00  0.7649E+00
     -2.361  0.1847E+00  0.7749E+00
     -2.307  0.1827E+00  0.7848E+00
     -2.253  0.1777E+00  0.7944E+00
     -2.199  0.1728E+00  0.8038E+00
     -2.145  0.1740E+00  0.8132E+00
     -2.091  0.1808E+00  0.8230E+00
     -2.036  0.1896E+00  0.8333E+00
     -1.982  0.1992E+00  0.8441E+00
     -1.928  0.2063E+00  0.8552E+00
     -1.874  0.2075E+00  0.8665E+00
     -1.820  0.2073E+00  0.8777E+00
     -1.765  0.2125E+00  0.8892E+00
     -1.711  0.2208E+00  0.9012E+00
     -1.657  0.2240E+00  0.9133E+00
     -1.603  0.2211E+00  0.9253E+00
     -1.549  0.2142E+00  0.9369E+00
     -1.494  0.2031E+00  0.9479E+00
     -1.440  0.1917E+00  0.9583E+00
     -1.386  0.1836E+00  0.9683E+00
     -1.332  0.1761E+00  0.9778E+00
     -1.278  0.1659E+00  0.9868E+00
     -1.224  0.1498E+00  0.9949E+00
     -1.169  0.1267E+00  0.1002E+01
     -1.115  0.1017E+00  0.1007E+01
     -1.061  0.8072E-01  0.1012E+01
     -1.007  0.6098E-01  0.1015E+01
     -0.953  0.3956E-01  0.1017E+01
     -0.898  0.2370E-01  0.1018E+01
     -0.844  0.1845E-01  0.1019E+01
     -0.790  0.1894E-01  0.1020E+01
     -0.736  0.2071E-01  0.1022E+01
     -0.682  0.2206E-01  0.1023E+01
     -0.627  0.2320E-01  0.1024E+01
     -0.573  0.2793E-01  0.1026E+01
     -0.519  0.3807E-01  0.1028E+01
     -0.465  0.4908E-01  0.1030E+01
     -0.411  0.5290E-01  0.1033E+01
     -0.356  0.4784E-01  0.1036E+01
     -0.302  0.4251E-01  0.1038E+01
     -0.248  0.4118E-01  0.1040E+01
     -0.194  0.3778E-01  0.1042E+01
     -0.140  0.2941E-01  0.1044E+01
     -0.086  0.2199E-01  0.1045E+01
     -0.031  0.1963E-01  0.1046E+01
      0.023  0.1963E-01  0.1047E+01
      0.077  0.2071E-01  0.1048E+01
      0.131  0.2436E-01  0.1050E+01
      0.185  0.2675E-01  0.1051E+01
      0.240  0.2563E-01  0.1052E+01
      0.294  0.2689E-01  0.1054E+01
      0.348  0.3324E-01  0.1056E+01
      0.402  0.4063E-01  0.1058E+01
      0.456  0.4399E-01  0.1060E+01
      0.511  0.4437E-01  0.1063E+01
      0.565  0.4800E-01  0.1065E+01
      0.619  0.5435E-01  0.1068E+01
      0.673  0.5564E-01  0.1071E+01
      0.727  0.5058E-01  0.1074E+01
      0.781  0.4462E-01  0.1076E+01
      0.836  0.3663E-01  0.1078E+01
      0.890  0.2546E-01  0.1080E+01
      0.944  0.1800E-01  0.1081E+01
      0.998  0.1634E-01  0.1082E+01
      1.052  0.1702E-01  0.1083E+01
      1.107  0.1798E-01  0.1084E+01
      1.161  0.1770E-01  0.1085E+01
      1.215  0.1691E-01  0.1085E+01
      1.269  0.1637E-01  0.1086E+01
      1.323  0.1549E-01  0.1087E+01
      1.378  0.1482E-01  0.1088E+01
      1.432  0.1484E-01  0.1089E+01
      1.486  0.1729E-01  0.1090E+01
      1.540  0.2467E-01  0.1091E+01
      1.594  0.3361E-01  0.1093E+01
      1.649  0.3695E-01  0.1095E+01
      1.703  0.3380E-01  0.1097E+01
      1.757  0.3019E-01  0.1098E+01
      1.811  0.3025E-01  0.1100E+01
      1.865  0.3064E-01  0.1102E+01
      1.919  0.2764E-01  0.1103E+01
      1.974  0.2349E-01  0.1104E+01
      2.028  0.2210E-01  0.1106E+01
      2.082  0.2564E-01  0.1107E+01
      2.136  0.3312E-01  0.1109E+01
      2.190  0.3890E-01  0.1111E+01
      2.245  0.4115E-01  0.1113E+01
      2.299  0.4452E-01  0.1116E+01
      2.353  0.4932E-01  0.1118E+01
      2.407  0.5085E-01  0.1121E+01
      2.461  0.4768E-01  0.1124E+01
      2.516  0.4314E-01  0.1126E+01
      2.570  0.4102E-01  0.1128E+01
      2.624  0.4230E-01  0.1130E+01
      2.678  0.4334E-01  0.1133E+01
      2.732  0.3894E-01  0.1135E+01
      2.787  0.2943E-01  0.1136E+01
      2.841  0.1926E-01  0.1137E+01
      2.895  0.1292E-01  0.1138E+01
      2.949  0.1183E-01  0.1139E+01
      3.003  0.1146E-01  0.1139E+01
      3.057  0.9133E-02  0.1140E+01
      3.112  0.8581E-02  0.1140E+01
      3.166  0.1151E-01  0.1141E+01
      3.220  0.1535E-01  0.1142E+01
      3.274  0.1891E-01  0.1143E+01
      3.328  0.2182E-01  0.1144E+01
      3.383  0.2345E-01  0.1145E+01
      3.437  0.2584E-01  0.1147E+01
      3.491  0.3080E-01  0.1148E+01
      3.545  0.3629E-01  0.1150E+01
      3.599  0.3967E-01  0.1153E+01
      3.654  0.3992E-01  0.1155E+01
      3.708  0.3778E-01  0.1157E+01
      3.762  0.3361E-01  0.1159E+01
      3.816  0.2755E-01  0.1160E+01
      3.870  0.2197E-01  0.1161E+01
      3.924  0.2010E-01  0.1162E+01
      3.979  0.2433E-01  0.1164E+01
      4.033  0.3034E-01  0.1165E+01
      4.087  0.2992E-01  0.1167E+01
      4.141  0.2543E-01  0.1168E+01
      4.195  0.2399E-01  0.1170E+01
      4.250  0.2233E-01  0.1171E+01
      4.304  0.1656E-01  0.1172E+01
      4.358  0.1362E-01  0.1172E+01
      4.412  0.1921E-01  0.1173E+01
      4.466  0.2843E-01  0.1175E+01
      4.521  0.3554E-01  0.1177E+01
      4.575  0.4218E-01  0.1179E+01
      4.629  0.5039E-01  0.1182E+01
      4.683  0.5561E-01  0.1185E+01
      4.737  0.5343E-01  0.1188E+01
      4.792  0.4772E-01  0.1190E+01
      4.846  0.4633E-01  0.1193E+01
      4.900  0.5101E-01  0.1196E+01
      4.954  0.5736E-01  0.1199E+01
      5.008  0.6338E-01  0.1202E+01
      5.062  0.6983E-01  0.1206E+01
      5.117  0.7343E-01  0.1210E+01
      5.171  0.6982E-01  0.1214E+01
      5.225  0.6099E-01  0.1217E+01
      5.279  0.5059E-01  0.1220E+01
      5.333  0.3804E-01  0.1222E+01
      5.388  0.2334E-01  0.1223E+01
      5.442  0.1059E-01  0.1224E+01
      5.496  0.3284E-02  0.1224E+01
      5.550  0.6537E-03  0.1224E+01
      5.604  0.7973E-04  0.1224E+01
      5.659  0.5783E-05  0.1224E+01
      5.713  0.2449E-06  0.1224E+01
      5.767  0.5984E-08  0.1224E+01
      5.821  0.8376E-10  0.1224E+01
      5.875  0.6678E-12  0.1224E+01
      5.930  0.3017E-14  0.1224E+01
      5.984  0.6829E-17  0.1224E+01
      6.038  0.0000E+00  0.1224E+01
      6.092  0.0000E+00  0.1224E+01
      6.146  0.0000E+00  0.1224E+01
      6.200  0.0000E+00  0.1224E+01
      6.255  0.0000E+00  0.1224E+01
      6.309  0.0000E+00  0.1224E+01
      6.363  0.0000E+00  0.1224E+01
