<?xml version="1.0" encoding="ISO-8859-1"?>
<modeling>
 <generator>
  <i name="program" type="string">vasp </i>
  <i name="version" type="string">5.4.1  </i>
  <i name="subversion" type="string">24Jun15 (build Mar 14 2019 10:18:33) complex                          parallel </i>
  <i name="platform" type="string">INTEL-19.0.2+OPENMPI-3.1.3 </i>
  <i name="date" type="string">2022 07 11 </i>
  <i name="time" type="string">15:06:28 </i>
 </generator>
 <incar>
  <i type="int" name="ISTART">     0</i>
  <i type="string" name="PREC">normal</i>
  <i type="string" name="ALGO"> Fast</i>
  <i type="int" name="NELM">   500</i>
  <i type="int" name="IBRION">     2</i>
  <i type="int" name="NFREE">     2</i>
  <i name="EDIFF">      0.00000100</i>
  <i name="EDIFFG">     -0.02000000</i>
  <i type="int" name="NSW">   500</i>
  <i type="int" name="ISIF">     0</i>
  <i type="int" name="ISYM">     2</i>
  <i name="ENCUT">    400.00000000</i>
  <i name="POTIM">      0.35000000</i>
  <i type="string" name="LREAL"> Auto</i>
  <i type="logical" name="LPLANE"> T  </i>
  <i type="int" name="ISMEAR">     0</i>
  <i name="SIGMA">      0.10000000</i>
  <i type="int" name="NWRITE">     1</i>
  <i type="logical" name="LWAVE"> F  </i>
  <i type="logical" name="LCHARG"> F  </i>
  <i type="logical" name="LVTOT"> F  </i>
  <i type="logical" name="LORBIT"> F  </i>
  <i type="logical" name="LAECHG"> F  </i>
  <v type="int" name="KPOINT_BSE">    -1     0     0     0</v>
  <i type="int" name="NELM">   500</i>
  <i type="string" name="GGA"> PE          ! optPBE-vdW XC-functional</i>
  <i type="int" name="VOSKOWN">     1</i>
  <i type="logical" name="LDIPOL"> T  </i>
  <i type="logical" name="LMONO"> F  </i>
  <i type="int" name="IDIPOL">     3</i>
  <v name="DIPOL">      0.00000000      0.00000000      0.50000000</v>
 </incar>
 <kpoints>
  <generation param="Monkhorst-Pack">
   <v type="int" name="divisions">       2        2        1 </v>
   <v name="usershift">      0.00000000       0.00000000       0.00000000 </v>
   <v name="genvec1">      0.50000000      -0.00000000       0.00000000 </v>
   <v name="genvec2">      0.00000000       0.50000000       0.00000000 </v>
   <v name="genvec3">      0.00000000       0.00000000       1.00000000 </v>
   <v name="shift">      0.50000000       0.50000000       0.00000000 </v>
  </generation>
  <varray name="kpointlist" >
   <v>       0.25000000       0.25000000       0.00000000 </v>
   <v>       0.00000000       0.25000000       0.00000000 </v>
   <v>      -0.25000000       0.00000000       0.00000000 </v>
   <v>      -0.25000000       0.25000000       0.00000000 </v>
   <v>       0.50000000      -0.25000000       0.00000000 </v>
   <v>      -0.25000000       0.50000000       0.00000000 </v>
  </varray>
  <varray name="weights" >
   <v>       0.16666667 </v>
   <v>       0.16666667 </v>
   <v>       0.16666667 </v>
   <v>       0.16666667 </v>
   <v>       0.16666667 </v>
   <v>       0.16666667 </v>
  </varray>
 </kpoints>
 <parameters>
  <separator name="general" >
   <i type="string" name="SYSTEM">unknown system</i>
   <i type="logical" name="LCOMPAT"> F  </i>
  </separator>
  <separator name="electronic" >
   <i type="string" name="PREC">normal</i>
   <i name="ENMAX">    400.00000000</i>
   <i name="ENAUG">    416.23000000</i>
   <i name="EDIFF">      0.00000100</i>
   <i type="int" name="IALGO">    68</i>
   <i type="int" name="IWAVPR">    11</i>
   <i type="int" name="NBANDS">   306</i>
   <i name="NELECT">    504.00000000</i>
   <i type="int" name="TURBO">     0</i>
   <i type="int" name="IRESTART">     0</i>
   <i type="int" name="NREBOOT">     0</i>
   <i type="int" name="NMIN">     0</i>
   <i name="EREF">      0.00000000</i>
   <separator name="electronic smearing" >
    <i type="int" name="ISMEAR">     0</i>
    <i name="SIGMA">      0.10000000</i>
    <i name="KSPACING">      0.50000000</i>
    <i type="logical" name="KGAMMA"> T  </i>
   </separator>
   <separator name="electronic projectors" >
    <i type="logical" name="LREAL"> T  </i>
    <v name="ROPT">     -0.00050000     -0.00050000</v>
    <i type="int" name="LMAXPAW">  -100</i>
    <i type="int" name="LMAXMIX">     2</i>
    <i type="logical" name="NLSPLINE"> F  </i>
   </separator>
   <separator name="electronic startup" >
    <i type="int" name="ISTART">     0</i>
    <i type="int" name="ICHARG">     2</i>
    <i type="int" name="INIWAV">     1</i>
   </separator>
   <separator name="electronic spin" >
    <i type="int" name="ISPIN">     1</i>
    <i type="logical" name="LNONCOLLINEAR"> F  </i>
    <v name="MAGMOM">      1.00000000      1.00000000      1.00000000      1.00000000      1.00000000      1.00000000      1.00000000      1.00000000      1.00000000      1.00000000      1.00000000      1.00000000      1.00000000      1.00000000      1.00000000      1.00000000      1.00000000      1.00000000      1.00000000      1.00000000
      1.00000000      1.00000000      1.00000000      1.00000000      1.00000000      1.00000000      1.00000000      1.00000000      1.00000000      1.00000000      1.00000000      1.00000000      1.00000000      1.00000000      1.00000000      1.00000000      1.00000000      1.00000000      1.00000000      1.00000000
      1.00000000      1.00000000      1.00000000      1.00000000      1.00000000      1.00000000      1.00000000      1.00000000</v>
    <i name="NUPDOWN">     -1.00000000</i>
    <i type="logical" name="LSORBIT"> F  </i>
    <v name="SAXIS">      0.00000000      0.00000000      1.00000000</v>
    <i type="logical" name="LSPIRAL"> F  </i>
    <v name="QSPIRAL">      0.00000000      0.00000000      0.00000000</v>
    <i type="logical" name="LZEROZ"> F  </i>
   </separator>
   <separator name="electronic exchange-correlation" >
    <i type="logical" name="LASPH"> F  </i>
    <i type="logical" name="LMETAGGA"> F  </i>
   </separator>
   <separator name="electronic convergence" >
    <i type="int" name="NELM">   500</i>
    <i type="int" name="NELMDL">    -5</i>
    <i type="int" name="NELMIN">     2</i>
    <i name="ENINI">    400.00000000</i>
    <separator name="electronic convergence detail" >
     <i type="logical" name="LDIAG"> T  </i>
     <i type="logical" name="LSUBROT"> F  </i>
     <i name="WEIMIN">      0.00100000</i>
     <i name="EBREAK">      0.00000000</i>
     <i name="DEPER">      0.30000000</i>
     <i type="int" name="NRMM">     4</i>
     <i name="TIME">      0.40000000</i>
    </separator>
   </separator>
   <separator name="electronic mixer" >
    <i name="AMIX">      0.40000000</i>
    <i name="BMIX">      1.00000000</i>
    <i name="AMIN">      0.10000000</i>
    <i name="AMIX_MAG">      1.60000000</i>
    <i name="BMIX_MAG">      1.00000000</i>
    <separator name="electronic mixer details" >
     <i type="int" name="IMIX">     4</i>
     <i type="logical" name="MIXFIRST"> F  </i>
     <i type="int" name="MAXMIX">   -45</i>
     <i name="WC">    100.00000000</i>
     <i type="int" name="INIMIX">     1</i>
     <i type="int" name="MIXPRE">     1</i>
     <i type="int" name="MREMOVE">     5</i>
    </separator>
   </separator>
   <separator name="electronic dipolcorrection" >
    <i type="logical" name="LDIPOL"> T  </i>
    <i type="logical" name="LMONO"> F  </i>
    <i type="int" name="IDIPOL">     3</i>
    <i name="EPSILON">      1.00000000</i>
    <v name="DIPOL">      0.00000000      0.00000000      0.50000000</v>
    <i name="EFIELD">      0.00000000</i>
   </separator>
  </separator>
  <separator name="grids" >
   <i type="int" name="NGX">    54</i>
   <i type="int" name="NGY">    54</i>
   <i type="int" name="NGZ">   120</i>
   <i type="int" name="NGXF">   108</i>
   <i type="int" name="NGYF">   108</i>
   <i type="int" name="NGZF">   240</i>
   <i type="logical" name="ADDGRID"> F  </i>
  </separator>
  <separator name="ionic" >
   <i type="int" name="NSW">   500</i>
   <i type="int" name="IBRION">     2</i>
   <i type="int" name="ISIF">     0</i>
   <i name="PSTRESS">      0.00000000</i>
   <i name="EDIFFG">     -0.02000000</i>
   <i type="int" name="NFREE">     2</i>
   <i name="POTIM">      0.35000000</i>
   <i name="SMASS">     -3.00000000</i>
   <i name="SCALEE">      1.00000000</i>
  </separator>
  <separator name="ionic md" >
   <i name="TEBEG">      0.00010000</i>
   <i name="TEEND">      0.00010000</i>
   <i type="int" name="NBLOCK">     1</i>
   <i type="int" name="KBLOCK">   500</i>
   <i type="int" name="NPACO">   256</i>
   <i name="APACO">     16.00000000</i>
  </separator>
  <separator name="symmetry" >
   <i type="int" name="ISYM">     2</i>
   <i name="SYMPREC">      0.00001000</i>
  </separator>
  <separator name="dos" >
   <i type="logical" name="LORBIT"> F  </i>
   <v name="RWIGS">     -1.00000000     -1.00000000</v>
   <i type="int" name="NEDOS">   301</i>
   <i name="EMIN">     10.00000000</i>
   <i name="EMAX">    -10.00000000</i>
   <i name="EFERMI">      0.00000000</i>
  </separator>
  <separator name="writing" >
   <i type="int" name="NWRITE">     1</i>
   <i type="logical" name="LWAVE"> F  </i>
   <i type="logical" name="LCHARG"> F  </i>
   <i type="logical" name="LPARD"> F  </i>
   <i type="logical" name="LVTOT"> F  </i>
   <i type="logical" name="LVHAR"> F  </i>
   <i type="logical" name="LELF"> F  </i>
   <i type="logical" name="LOPTICS"> F  </i>
   <v name="STM">      0.00000000      0.00000000      0.00000000      0.00000000      0.00000000      0.00000000      0.00000000</v>
  </separator>
  <separator name="performance" >
   <i type="int" name="NPAR">     6</i>
   <i type="int" name="NSIM">     4</i>
   <i type="int" name="NBLK">    -1</i>
   <i type="logical" name="LPLANE"> T  </i>
   <i type="logical" name="LSCALAPACK"> T  </i>
   <i type="logical" name="LSCAAWARE"> F  </i>
   <i type="logical" name="LSCALU"> F  </i>
   <i type="logical" name="LASYNC"> F  </i>
   <i type="logical" name="LORBITALREAL"> F  </i>
  </separator>
  <separator name="miscellaneous" >
   <i type="int" name="IDIOT">     3</i>
   <i type="logical" name="LMUSIC"> F  </i>
   <v name="POMASS">    196.96600000    106.42000000</v>
   <v name="DARWINR">      0.00000000      0.00000000</v>
   <v name="DARWINV">      1.00000000      1.00000000</v>
   <i type="logical" name="LCORR"> T  </i>
  </separator>
  <i type="logical" name="GGA_COMPAT"> T  </i>
  <i type="logical" name="LBERRY"> F  </i>
  <i type="int" name="ICORELEVEL">     0</i>
  <i type="logical" name="LDAU"> F  </i>
  <i type="int" name="I_CONSTRAINED_M">     0</i>
  <separator name="electronic exchange-correlation" >
   <i type="string" name="GGA">PE</i>
   <i type="int" name="VOSKOWN">     1</i>
   <i type="logical" name="LHFCALC"> F  </i>
   <i type="string" name="PRECFOCK"></i>
   <i type="logical" name="LSYMGRAD"> F  </i>
   <i type="logical" name="LHFONE"> F  </i>
   <i type="logical" name="LRHFCALC"> F  </i>
   <i type="logical" name="LTHOMAS"> F  </i>
   <i type="logical" name="LMODELHF"> F  </i>
   <i name="ENCUT4O">     -1.00000000</i>
   <i type="int" name="EXXOEP">     0</i>
   <i type="int" name="FOURORBIT">     0</i>
   <i name="AEXX">      0.00000000</i>
   <i name="HFALPHA">      0.00000000</i>
   <i name="MCALPHA">      0.00000000</i>
   <i name="ALDAX">      1.00000000</i>
   <i name="AGGAX">      1.00000000</i>
   <i name="ALDAC">      1.00000000</i>
   <i name="AGGAC">      1.00000000</i>
   <i type="int" name="NKREDX">     1</i>
   <i type="int" name="NKREDY">     1</i>
   <i type="int" name="NKREDZ">     1</i>
   <i type="logical" name="SHIFTRED"> F  </i>
   <i type="logical" name="ODDONLY"> F  </i>
   <i type="logical" name="EVENONLY"> F  </i>
   <i type="int" name="LMAXFOCK">     0</i>
   <i type="int" name="NMAXFOCKAE">     0</i>
   <i type="logical" name="LFOCKAEDFT"> F  </i>
   <i name="HFSCREEN">      0.00000000</i>
   <i name="HFSCREENC">      0.00000000</i>
   <i type="int" name="NBANDSGWLOW">     0</i>
  </separator>
  <separator name="vdW DFT" >
   <i type="logical" name="LUSE_VDW"> F  </i>
   <i name="Zab_VDW">     -0.84910000</i>
   <i name="PARAM1">      0.12340000</i>
   <i name="PARAM2">      1.00000000</i>
   <i name="PARAM3">      0.00000000</i>
  </separator>
  <separator name="model GW" >
   <i type="int" name="MODEL_GW">     0</i>
   <i name="MODEL_EPS0">     32.09595293</i>
   <i name="MODEL_ALPHA">      1.00000000</i>
  </separator>
  <separator name="linear response parameters" >
   <i type="logical" name="LEPSILON"> F  </i>
   <i type="logical" name="LRPA"> F  </i>
   <i type="logical" name="LNABLA"> F  </i>
   <i type="logical" name="LVEL"> F  </i>
   <i type="int" name="KINTER">     0</i>
   <i name="CSHIFT">      0.10000000</i>
   <i name="OMEGAMAX">     -1.00000000</i>
   <i name="DEG_THRESHOLD">      0.00200000</i>
  </separator>
  <separator name="orbital magnetization" >
   <i type="logical" name="NUCIND"> F  </i>
   <v name="MAGPOS">      0.00000000      0.00000000      0.00000000</v>
   <i type="logical" name="LNICSALL"> T  </i>
   <i type="logical" name="ORBITALMAG"> F  </i>
   <i type="logical" name="LMAGBLOCH"> F  </i>
   <i type="logical" name="LCHIMAG"> F  </i>
   <i type="logical" name="LGAUGE"> T  </i>
   <i type="int" name="MAGATOM">     0</i>
   <v name="MAGDIPOL">      0.00000000      0.00000000      0.00000000</v>
   <v name="AVECCONST">      0.00000000      0.00000000      0.00000000</v>
  </separator>
  <separator name="response functions" >
   <i type="logical" name="LADDER"> F  </i>
   <i type="logical" name="LFXC"> F  </i>
   <i type="logical" name="LHARTREE"> T  </i>
   <i type="int" name="IBSE">     0</i>
   <v type="int" name="KPOINT">    -1     0     0     0</v>
   <i type="logical" name="LTCTE"> F  </i>
   <i type="logical" name="LTETE"> F  </i>
   <i type="logical" name="LTRIPLET"> F  </i>
   <i type="logical" name="LFXCEPS"> F  </i>
   <i type="logical" name="LFXHEG"> F  </i>
   <i type="int" name="NATURALO">     0</i>
   <i type="logical" name="L2ORDER"> F  </i>
   <i type="logical" name="LUSEW"> F  </i>
   <i name="ENCUTGW">     -2.00000000</i>
   <i name="ENCUTGWSOFT">     -2.00000000</i>
   <i name="ENCUTLF">     -1.00000000</i>
   <i type="int" name="LMAXMP2">    -1</i>
   <i name="SCISSOR">      0.00000000</i>
   <i type="int" name="NOMEGA">     0</i>
   <i type="int" name="NOMEGAR">     0</i>
   <i type="int" name="NBANDSGW">    -1</i>
   <i type="int" name="NBANDSO">    -1</i>
   <i type="int" name="NBANDSV">    -1</i>
   <i type="int" name="NELM">   500</i>
   <i type="int" name="NELMHF">     1</i>
   <i type="int" name="DIM">     3</i>
   <i type="int" name="ANTIRES">     0</i>
   <i name="OMEGAMAX">    -30.00000000</i>
   <i name="OMEGAMIN">    -30.00000000</i>
   <i name="OMEGATL">   -200.00000000</i>
   <i type="int" name="OMEGAGRID">     0</i>
   <i name="CSHIFT">     -0.10000000</i>
   <i type="logical" name="SELFENERGY"> F  </i>
   <i type="logical" name="LSPECTRAL"> F  </i>
   <i type="logical" name="LSPECTRALGW"> F  </i>
   <i type="logical" name="LSINGLES"> F  </i>
   <i type="logical" name="LFERMIGW"> F  </i>
   <i type="logical" name="ODDONLYGW"> F  </i>
   <i type="logical" name="EVENONLYGW"> F  </i>
   <i type="int" name="NKREDLFX">     1</i>
   <i type="int" name="NKREDLFY">     1</i>
   <i type="int" name="NKREDLFZ">     1</i>
   <i type="int" name="MAXMEM">  1800</i>
   <i type="int" name="TELESCOPE">     0</i>
   <i type="int" name="TAUPAR">     1</i>
   <i type="int" name="OMEGAPAR">    -1</i>
   <i name="LAMBDA">      1.00000000</i>
  </separator>
  <separator name="External order field" >
   <i name="OFIELD_KAPPA">      0.00000000</i>
   <v name="OFIELD_K">      0.00000000      0.00000000      0.00000000</v>
   <i name="OFIELD_Q6_NEAR">      0.00000000</i>
   <i name="OFIELD_Q6_FAR">      0.00000000</i>
   <i name="OFIELD_A">      0.00000000</i>
  </separator>
 </parameters>
 <atominfo>
  <atoms>      48 </atoms>
  <types>       2 </types>
  <array name="atoms" >
   <dimension dim="1">ion</dimension>
   <field type="string">element</field>
   <field type="int">atomtype</field>
   <set>
    <rc><c>Au</c><c>   1</c></rc>
    <rc><c>Au</c><c>   1</c></rc>
    <rc><c>Au</c><c>   1</c></rc>
    <rc><c>Au</c><c>   1</c></rc>
    <rc><c>Au</c><c>   1</c></rc>
    <rc><c>Au</c><c>   1</c></rc>
    <rc><c>Au</c><c>   1</c></rc>
    <rc><c>Au</c><c>   1</c></rc>
    <rc><c>Au</c><c>   1</c></rc>
    <rc><c>Au</c><c>   1</c></rc>
    <rc><c>Au</c><c>   1</c></rc>
    <rc><c>Au</c><c>   1</c></rc>
    <rc><c>Au</c><c>   1</c></rc>
    <rc><c>Au</c><c>   1</c></rc>
    <rc><c>Au</c><c>   1</c></rc>
    <rc><c>Au</c><c>   1</c></rc>
    <rc><c>Au</c><c>   1</c></rc>
    <rc><c>Au</c><c>   1</c></rc>
    <rc><c>Au</c><c>   1</c></rc>
    <rc><c>Au</c><c>   1</c></rc>
    <rc><c>Au</c><c>   1</c></rc>
    <rc><c>Au</c><c>   1</c></rc>
    <rc><c>Au</c><c>   1</c></rc>
    <rc><c>Au</c><c>   1</c></rc>
    <rc><c>Pd</c><c>   2</c></rc>
    <rc><c>Pd</c><c>   2</c></rc>
    <rc><c>Pd</c><c>   2</c></rc>
    <rc><c>Pd</c><c>   2</c></rc>
    <rc><c>Pd</c><c>   2</c></rc>
    <rc><c>Pd</c><c>   2</c></rc>
    <rc><c>Pd</c><c>   2</c></rc>
    <rc><c>Pd</c><c>   2</c></rc>
    <rc><c>Pd</c><c>   2</c></rc>
    <rc><c>Pd</c><c>   2</c></rc>
    <rc><c>Pd</c><c>   2</c></rc>
    <rc><c>Pd</c><c>   2</c></rc>
    <rc><c>Pd</c><c>   2</c></rc>
    <rc><c>Pd</c><c>   2</c></rc>
    <rc><c>Pd</c><c>   2</c></rc>
    <rc><c>Pd</c><c>   2</c></rc>
    <rc><c>Pd</c><c>   2</c></rc>
    <rc><c>Pd</c><c>   2</c></rc>
    <rc><c>Pd</c><c>   2</c></rc>
    <rc><c>Pd</c><c>   2</c></rc>
    <rc><c>Pd</c><c>   2</c></rc>
    <rc><c>Pd</c><c>   2</c></rc>
    <rc><c>Pd</c><c>   2</c></rc>
    <rc><c>Pd</c><c>   2</c></rc>
   </set>
  </array>
  <array name="atomtypes" >
   <dimension dim="1">type</dimension>
   <field type="int">atomspertype</field>
   <field type="string">element</field>
   <field>mass</field>
   <field>valence</field>
   <field type="string">pseudopotential</field>
   <set>
    <rc><c>  24</c><c>Au</c><c>    196.96600000</c><c>     11.00000000</c><c>  PAW_PBE Au 04Oct2007                  </c></rc>
    <rc><c>  24</c><c>Pd</c><c>    106.42000000</c><c>     10.00000000</c><c>  PAW_PBE Pd 04Jan2005                  </c></rc>
   </set>
  </array>
 </atominfo>
 <structure name="initialpos" >
  <crystal>
   <varray name="basis" >
    <v>      11.00258152       0.00000000       0.00000000 </v>
    <v>       5.50129076       9.52851510       0.00000000 </v>
    <v>       0.00000000       0.00000000      24.49178509 </v>
   </varray>
   <i name="volume">   2567.67623402 </i>
   <varray name="rec_basis" >
    <v>       0.09088776      -0.05247407       0.00000000 </v>
    <v>       0.00000000       0.10494815       0.00000000 </v>
    <v>       0.00000000       0.00000000       0.04083002 </v>
   </varray>
  </crystal>
  <varray name="positions" >
   <v>       0.08333333       0.08333333       0.40830017 </v>
   <v>       0.66666667       0.66666667       0.50000000 </v>
   <v>       0.75000000       0.25000000       0.59169983 </v>
   <v>       0.66666667       0.41666667       0.50000000 </v>
   <v>       0.83333333       0.33333333       0.40830017 </v>
   <v>       0.75000000       0.00000000       0.59169983 </v>
   <v>       0.66666667       0.16666667       0.50000000 </v>
   <v>       0.41666667       0.91666667       0.50000000 </v>
   <v>       0.58333333       0.83333333       0.40830017 </v>
   <v>       0.41666667       0.66666667       0.50000000 </v>
   <v>       0.50000000       0.25000000       0.59169983 </v>
   <v>       0.41666667       0.41666667       0.50000000 </v>
   <v>       0.58333333       0.08333333       0.40830017 </v>
   <v>       0.66666667       0.91666667       0.50000000 </v>
   <v>       0.16666667       0.91666667       0.50000000 </v>
   <v>       0.16666667       0.41666667       0.50000000 </v>
   <v>       0.25000000       0.75000000       0.59169983 </v>
   <v>       0.75000000       0.75000000       0.59169983 </v>
   <v>       0.08333333       0.58333333       0.40830017 </v>
   <v>       0.00000000       0.75000000       0.59169983 </v>
   <v>       0.25000000       0.00000000       0.59169983 </v>
   <v>       0.33333333       0.08333333       0.40830017 </v>
   <v>       0.33333333       0.33333333       0.40830017 </v>
   <v>       0.91666667       0.41666667       0.50000000 </v>
   <v>       0.50000000       0.75000000       0.59169983 </v>
   <v>       0.83333333       0.08333333       0.40830017 </v>
   <v>       0.00000000       0.25000000       0.59169983 </v>
   <v>       0.08333333       0.33333333       0.40830017 </v>
   <v>       0.83333333       0.58333333       0.40830017 </v>
   <v>       0.91666667       0.16666667       0.50000000 </v>
   <v>       0.75000000       0.50000000       0.59169983 </v>
   <v>       0.83333333       0.83333333       0.40830017 </v>
   <v>       0.00000000       0.00000000       0.59169983 </v>
   <v>       0.91666667       0.66666667       0.50000000 </v>
   <v>       0.25000000       0.25000000       0.59169983 </v>
   <v>       0.08333333       0.83333333       0.40830017 </v>
   <v>       0.58333333       0.58333333       0.40830017 </v>
   <v>       0.91666667       0.91666667       0.50000000 </v>
   <v>       0.58333333       0.33333333       0.40830017 </v>
   <v>       0.50000000       0.00000000       0.59169983 </v>
   <v>       0.41666667       0.16666667       0.50000000 </v>
   <v>       0.16666667       0.16666667       0.50000000 </v>
   <v>       0.33333333       0.83333333       0.40830017 </v>
   <v>       0.25000000       0.50000000       0.59169983 </v>
   <v>       0.16666667       0.66666667       0.50000000 </v>
   <v>       0.33333333       0.58333333       0.40830017 </v>
   <v>       0.00000000       0.50000000       0.59169983 </v>
   <v>       0.50000000       0.50000000       0.59169983 </v>
  </varray>
 </structure>
 <calculation>
  <scstep>
   <time name="dav">    6.97    7.07</time>
   <time name="total">    7.03    7.13</time>
   <dipole>
    <v name="dipole">      0.00000000       0.00000000       0.00000000 </v>
    <i name="Tr[quadrupol]"> -10255.46462979 </i>
    <i name="Echarged">      0.00000000 </i>
    <i name="Edipol_quadrupol">      0.00000000 </i>
    <i name="Eion">      0.00000000 </i>
   </dipole>
   <energy>
    <i name="alphaZ">    805.86936429 </i>
    <i name="ewald"> 200629.97794964 </i>
    <i name="hartreedc">-243045.95073826 </i>
    <i name="XCdc">   -327.49762362 </i>
    <i name="pawpsdc">  40340.05962942 </i>
    <i name="pawaedc"> -38292.62782345 </i>
    <i name="eentropy">     -0.13211654 </i>
    <i name="bandstr">   1432.24002294 </i>
    <i name="atom">  41659.78587232 </i>
    <i name="e_fr_energy">   3201.72453674 </i>
    <i name="e_wo_entrp">   3201.85665328 </i>
    <i name="e_0_energy">   3201.79059501 </i>
   </energy>
  </scstep>
  <scstep>
   <time name="dav">    8.10    8.12</time>
   <time name="total">    8.10    8.12</time>
   <dipole>
    <v name="dipole">      0.00000000       0.00000000       0.00000000 </v>
    <i name="Tr[quadrupol]"> -10255.46462979 </i>
    <i name="Echarged">      0.00000000 </i>
    <i name="Edipol_quadrupol">      0.00000000 </i>
    <i name="Eion">      0.00000000 </i>
   </dipole>
   <energy>
    <i name="e_fr_energy">     15.76912735 </i>
    <i name="e_wo_entrp">     15.89464484 </i>
    <i name="e_0_energy">     15.83188610 </i>
   </energy>
  </scstep>
  <scstep>
   <time name="dav">    8.00    8.02</time>
   <time name="total">    8.00    8.02</time>
   <dipole>
    <v name="dipole">      0.00000000       0.00000000       0.00000000 </v>
    <i name="Tr[quadrupol]"> -10255.46462979 </i>
    <i name="Echarged">      0.00000000 </i>
    <i name="Edipol_quadrupol">      0.00000000 </i>
    <i name="Eion">      0.00000000 </i>
   </dipole>
   <energy>
    <i name="e_fr_energy">   -199.47063619 </i>
    <i name="e_wo_entrp">   -199.24729267 </i>
    <i name="e_0_energy">   -199.35896443 </i>
   </energy>
  </scstep>
  <scstep>
   <time name="dav">    8.22    8.24</time>
   <time name="total">    8.22    8.25</time>
   <dipole>
    <v name="dipole">      0.00000000       0.00000000       0.00000000 </v>
    <i name="Tr[quadrupol]"> -10255.46462979 </i>
    <i name="Echarged">      0.00000000 </i>
    <i name="Edipol_quadrupol">      0.00000000 </i>
    <i name="Eion">      0.00000000 </i>
   </dipole>
   <energy>
    <i name="e_fr_energy">   -205.21849983 </i>
    <i name="e_wo_entrp">   -204.98454717 </i>
    <i name="e_0_energy">   -205.10152350 </i>
   </energy>
  </scstep>
  <scstep>
   <time name="dav">    8.37    8.39</time>
   <time name="total">    8.61    8.63</time>
   <dipole>
    <v name="dipole">      0.00000000       0.00000000       0.00000000 </v>
    <i name="Tr[quadrupol]"> -10255.46462979 </i>
    <i name="Echarged">      0.00000000 </i>
    <i name="Edipol_quadrupol">      0.00000000 </i>
    <i name="Eion">      0.00000000 </i>
   </dipole>
   <energy>
    <i name="e_fr_energy">   -205.40190945 </i>
    <i name="e_wo_entrp">   -205.16807707 </i>
    <i name="e_0_energy">   -205.28499326 </i>
   </energy>
  </scstep>
  <scstep>
   <time name="diag">    1.24    1.24</time>
   <time name="diis">    3.43    3.52</time>
   <time name="orth">    0.30    0.30</time>
   <time name="total">    5.25    5.36</time>
   <dipole>
    <v name="dipole">      0.00000000       0.00000000       0.00079347 </v>
    <i name="Tr[quadrupol]"> -10255.47931375 </i>
    <i name="Echarged">      0.00000000 </i>
    <i name="Edipol_quadrupol">      0.00000000 </i>
    <i name="Eion">      0.00000000 </i>
   </dipole>
   <energy>
    <i name="e_fr_energy">   -196.44526211 </i>
    <i name="e_wo_entrp">   -196.18599453 </i>
    <i name="e_0_energy">   -196.31562832 </i>
   </energy>
  </scstep>
  <scstep>
   <time name="diag">    1.25    1.26</time>
   <time name="diis">    3.46    3.47</time>
   <time name="orth">    0.30    0.30</time>
   <time name="total">    5.30    5.32</time>
   <dipole>
    <v name="dipole">      0.00000000       0.00000000       0.10471589 </v>
    <i name="Tr[quadrupol]"> -10255.62160674 </i>
    <i name="Echarged">      0.00000000 </i>
    <i name="Edipol_quadrupol">      0.00000000 </i>
    <i name="Eion">      0.00000000 </i>
   </dipole>
   <energy>
    <i name="e_fr_energy">   -196.89657665 </i>
    <i name="e_wo_entrp">   -196.68722704 </i>
    <i name="e_0_energy">   -196.79190185 </i>
   </energy>
  </scstep>
  <scstep>
   <time name="diag">    1.24    1.25</time>
   <time name="diis">    3.49    3.50</time>
   <time name="orth">    0.30    0.30</time>
   <time name="total">    5.32    5.34</time>
   <dipole>
    <v name="dipole">      0.00000000       0.00000000      -0.52511685 </v>
    <i name="Tr[quadrupol]"> -10257.96044951 </i>
    <i name="Echarged">      0.00000000 </i>
    <i name="Edipol_quadrupol">      0.00000000 </i>
    <i name="Eion">      0.00000000 </i>
   </dipole>
   <energy>
    <i name="e_fr_energy">   -201.38410529 </i>
    <i name="e_wo_entrp">   -201.16536895 </i>
    <i name="e_0_energy">   -201.27473712 </i>
   </energy>
  </scstep>
  <scstep>
   <time name="diag">    1.24    1.24</time>
   <time name="diis">    3.50    3.51</time>
   <time name="orth">    0.29    0.29</time>
   <time name="total">    5.33    5.34</time>
   <dipole>
    <v name="dipole">      0.00000000       0.00000000       0.70382091 </v>
    <i name="Tr[quadrupol]"> -10258.05600288 </i>
    <i name="Echarged">      0.00000000 </i>
    <i name="Edipol_quadrupol">      0.00000000 </i>
    <i name="Eion">      0.00000000 </i>
   </dipole>
   <energy>
    <i name="e_fr_energy">   -197.30333260 </i>
    <i name="e_wo_entrp">   -197.08270802 </i>
    <i name="e_0_energy">   -197.19302031 </i>
   </energy>
  </scstep>
  <scstep>
   <time name="diag">    1.24    1.25</time>
   <time name="diis">    3.54    3.55</time>
   <time name="orth">    0.29    0.30</time>
   <time name="total">    5.36    5.38</time>
   <dipole>
    <v name="dipole">      0.00000000       0.00000000      -0.16509188 </v>
    <i name="Tr[quadrupol]"> -10258.24560066 </i>
    <i name="Echarged">      0.00000000 </i>
    <i name="Edipol_quadrupol">      0.00000000 </i>
    <i name="Eion">      0.00000000 </i>
   </dipole>
   <energy>
    <i name="e_fr_energy">   -190.17275300 </i>
    <i name="e_wo_entrp">   -189.94907592 </i>
    <i name="e_0_energy">   -190.06091446 </i>
   </energy>
  </scstep>
  <scstep>
   <time name="diag">    1.24    1.25</time>
   <time name="diis">    3.48    3.49</time>
   <time name="orth">    0.29    0.29</time>
   <time name="total">    5.30    5.32</time>
   <dipole>
    <v name="dipole">      0.00000000       0.00000000       0.11684693 </v>
    <i name="Tr[quadrupol]"> -10258.25385939 </i>
    <i name="Echarged">      0.00000000 </i>
    <i name="Edipol_quadrupol">      0.00000000 </i>
    <i name="Eion">      0.00000000 </i>
   </dipole>
   <energy>
    <i name="e_fr_energy">   -189.16534960 </i>
    <i name="e_wo_entrp">   -188.96833386 </i>
    <i name="e_0_energy">   -189.06684173 </i>
   </energy>
  </scstep>
  <scstep>
   <time name="diag">    1.24    1.24</time>
   <time name="diis">    3.51    3.52</time>
   <time name="orth">    0.29    0.29</time>
   <time name="total">    5.33    5.35</time>
   <dipole>
    <v name="dipole">      0.00000000       0.00000000      -0.12910656 </v>
    <i name="Tr[quadrupol]"> -10258.51794568 </i>
    <i name="Echarged">      0.00000000 </i>
    <i name="Edipol_quadrupol">      0.00000000 </i>
    <i name="Eion">      0.00000000 </i>
   </dipole>
   <energy>
    <i name="e_fr_energy">   -188.41045965 </i>
    <i name="e_wo_entrp">   -188.18676567 </i>
    <i name="e_0_energy">   -188.29861266 </i>
   </energy>
  </scstep>
  <scstep>
   <time name="diag">    1.24    1.24</time>
   <time name="diis">    3.45    3.48</time>
   <time name="orth">    0.29    0.31</time>
   <time name="total">    5.27    5.35</time>
   <dipole>
    <v name="dipole">      0.00000000       0.00000000       0.03488094 </v>
    <i name="Tr[quadrupol]"> -10258.71829309 </i>
    <i name="Echarged">      0.00000000 </i>
    <i name="Edipol_quadrupol">      0.00000000 </i>
    <i name="Eion">      0.00000000 </i>
   </dipole>
   <energy>
    <i name="e_fr_energy">   -188.26229160 </i>
    <i name="e_wo_entrp">   -188.01960822 </i>
    <i name="e_0_energy">   -188.14094991 </i>
   </energy>
  </scstep>
  <scstep>
   <time name="diag">    1.24    1.25</time>
   <time name="diis">    3.49    3.50</time>
   <time name="orth">    0.29    0.29</time>
   <time name="total">    5.31    5.34</time>
   <dipole>
    <v name="dipole">      0.00000000       0.00000000       0.00166159 </v>
    <i name="Tr[quadrupol]"> -10258.89083298 </i>
    <i name="Echarged">      0.00000000 </i>
    <i name="Edipol_quadrupol">      0.00000000 </i>
    <i name="Eion">      0.00000000 </i>
   </dipole>
   <energy>
    <i name="e_fr_energy">   -188.21049182 </i>
    <i name="e_wo_entrp">   -187.96852544 </i>
    <i name="e_0_energy">   -188.08950863 </i>
   </energy>
  </scstep>
  <scstep>
   <time name="diag">    1.24    1.25</time>
   <time name="diis">    3.50    3.54</time>
   <time name="orth">    0.29    0.29</time>
   <time name="total">    5.32    5.37</time>
   <dipole>
    <v name="dipole">      0.00000000       0.00000000       0.01172502 </v>
    <i name="Tr[quadrupol]"> -10259.08035675 </i>
    <i name="Echarged">      0.00000000 </i>
    <i name="Edipol_quadrupol">      0.00000000 </i>
    <i name="Eion">      0.00000000 </i>
   </dipole>
   <energy>
    <i name="e_fr_energy">   -188.12346218 </i>
    <i name="e_wo_entrp">   -187.87157277 </i>
    <i name="e_0_energy">   -187.99751748 </i>
   </energy>
  </scstep>
  <scstep>
   <time name="diag">    1.24    1.24</time>
   <time name="diis">    3.51    3.51</time>
   <time name="orth">    0.29    0.29</time>
   <time name="total">    5.32    5.34</time>
   <dipole>
    <v name="dipole">      0.00000000       0.00000000       0.00596204 </v>
    <i name="Tr[quadrupol]"> -10259.50459211 </i>
    <i name="Echarged">      0.00000000 </i>
    <i name="Edipol_quadrupol">      0.00000000 </i>
    <i name="Eion">      0.00000000 </i>
   </dipole>
   <energy>
    <i name="e_fr_energy">   -188.12400057 </i>
    <i name="e_wo_entrp">   -187.87341506 </i>
    <i name="e_0_energy">   -187.99870781 </i>
   </energy>
  </scstep>
  <scstep>
   <time name="diag">    1.24    1.25</time>
   <time name="diis">    3.51    3.52</time>
   <time name="orth">    0.29    0.29</time>
   <time name="total">    5.32    5.34</time>
   <dipole>
    <v name="dipole">      0.00000000       0.00000000      -0.00358122 </v>
    <i name="Tr[quadrupol]"> -10259.73221862 </i>
    <i name="Echarged">      0.00000000 </i>
    <i name="Edipol_quadrupol">      0.00000000 </i>
    <i name="Eion">      0.00000000 </i>
   </dipole>
   <energy>
    <i name="e_fr_energy">   -188.10682228 </i>
    <i name="e_wo_entrp">   -187.86102834 </i>
    <i name="e_0_energy">   -187.98392531 </i>
   </energy>
  </scstep>
  <scstep>
   <time name="diag">    1.23    1.23</time>
   <time name="diis">    3.53    3.54</time>
   <time name="orth">    0.29    0.29</time>
   <time name="total">    5.34    5.35</time>
   <dipole>
    <v name="dipole">      0.00000000       0.00000000       0.00021252 </v>
    <i name="Tr[quadrupol]"> -10259.82901261 </i>
    <i name="Echarged">      0.00000000 </i>
    <i name="Edipol_quadrupol">      0.00000000 </i>
    <i name="Eion">      0.00000000 </i>
   </dipole>
   <energy>
    <i name="e_fr_energy">   -188.09349650 </i>
    <i name="e_wo_entrp">   -187.84005691 </i>
    <i name="e_0_energy">   -187.96677670 </i>
   </energy>
  </scstep>
  <scstep>
   <time name="diag">    1.25    1.25</time>
   <time name="diis">    3.52    3.53</time>
   <time name="orth">    0.29    0.29</time>
   <time name="total">    5.34    5.36</time>
   <dipole>
    <v name="dipole">      0.00000000       0.00000000       0.00103407 </v>
    <i name="Tr[quadrupol]"> -10259.87260934 </i>
    <i name="Echarged">      0.00000000 </i>
    <i name="Edipol_quadrupol">      0.00000000 </i>
    <i name="Eion">      0.00000000 </i>
   </dipole>
   <energy>
    <i name="e_fr_energy">   -188.08999038 </i>
    <i name="e_wo_entrp">   -187.83878616 </i>
    <i name="e_0_energy">   -187.96438827 </i>
   </energy>
  </scstep>
  <scstep>
   <time name="diag">    1.23    1.24</time>
   <time name="diis">    3.48    3.49</time>
   <time name="orth">    0.29    0.29</time>
   <time name="total">    5.29    5.31</time>
   <dipole>
    <v name="dipole">      0.00000000       0.00000000       0.00171342 </v>
    <i name="Tr[quadrupol]"> -10259.95456545 </i>
    <i name="Echarged">      0.00000000 </i>
    <i name="Edipol_quadrupol">      0.00000000 </i>
    <i name="Eion">      0.00000000 </i>
   </dipole>
   <energy>
    <i name="e_fr_energy">   -188.08888778 </i>
    <i name="e_wo_entrp">   -187.83668044 </i>
    <i name="e_0_energy">   -187.96278411 </i>
   </energy>
  </scstep>
  <scstep>
   <time name="diag">    1.24    1.24</time>
   <time name="diis">    3.44    3.54</time>
   <time name="orth">    0.29    0.29</time>
   <time name="total">    5.26    5.37</time>
   <dipole>
    <v name="dipole">      0.00000000       0.00000000       0.00478544 </v>
    <i name="Tr[quadrupol]"> -10260.10894410 </i>
    <i name="Echarged">      0.00000000 </i>
    <i name="Edipol_quadrupol">      0.00000000 </i>
    <i name="Eion">      0.00000000 </i>
   </dipole>
   <energy>
    <i name="e_fr_energy">   -188.08808991 </i>
    <i name="e_wo_entrp">   -187.83608977 </i>
    <i name="e_0_energy">   -187.96208984 </i>
   </energy>
  </scstep>
  <scstep>
   <time name="diag">    1.24    1.24</time>
   <time name="diis">    3.48    3.49</time>
   <time name="orth">    0.29    0.29</time>
   <time name="total">    5.30    5.32</time>
   <dipole>
    <v name="dipole">      0.00000000       0.00000000       0.00413997 </v>
    <i name="Tr[quadrupol]"> -10260.19060446 </i>
    <i name="Echarged">      0.00000000 </i>
    <i name="Edipol_quadrupol">      0.00000000 </i>
    <i name="Eion">      0.00000000 </i>
   </dipole>
   <energy>
    <i name="e_fr_energy">   -188.08815266 </i>
    <i name="e_wo_entrp">   -187.83620717 </i>
    <i name="e_0_energy">   -187.96217992 </i>
   </energy>
  </scstep>
  <scstep>
   <time name="diag">    1.24    1.24</time>
   <time name="diis">    3.44    3.45</time>
   <time name="orth">    0.29    0.29</time>
   <time name="total">    5.26    5.28</time>
   <dipole>
    <v name="dipole">      0.00000000       0.00000000       0.00308052 </v>
    <i name="Tr[quadrupol]"> -10260.28565737 </i>
    <i name="Echarged">      0.00000000 </i>
    <i name="Edipol_quadrupol">      0.00000000 </i>
    <i name="Eion">      0.00000000 </i>
   </dipole>
   <energy>
    <i name="e_fr_energy">   -188.08830888 </i>
    <i name="e_wo_entrp">   -187.83599877 </i>
    <i name="e_0_energy">   -187.96215383 </i>
   </energy>
  </scstep>
  <scstep>
   <time name="diag">    1.24    1.24</time>
   <time name="diis">    3.48    3.49</time>
   <time name="orth">    0.29    0.29</time>
   <time name="total">    5.30    5.31</time>
   <dipole>
    <v name="dipole">      0.00000000       0.00000000       0.00185966 </v>
    <i name="Tr[quadrupol]"> -10260.36247282 </i>
    <i name="Echarged">      0.00000000 </i>
    <i name="Edipol_quadrupol">      0.00000000 </i>
    <i name="Eion">      0.00000000 </i>
   </dipole>
   <energy>
    <i name="e_fr_energy">   -188.08868757 </i>
    <i name="e_wo_entrp">   -187.83681710 </i>
    <i name="e_0_energy">   -187.96275234 </i>
   </energy>
  </scstep>
  <scstep>
   <time name="diag">    1.25    1.25</time>
   <time name="diis">    3.54    3.55</time>
   <time name="orth">    0.29    0.29</time>
   <time name="total">    5.36    5.38</time>
   <dipole>
    <v name="dipole">      0.00000000       0.00000000       0.00169625 </v>
    <i name="Tr[quadrupol]"> -10260.45036519 </i>
    <i name="Echarged">      0.00000000 </i>
    <i name="Edipol_quadrupol">      0.00000000 </i>
    <i name="Eion">      0.00000000 </i>
   </dipole>
   <energy>
    <i name="e_fr_energy">   -188.08916858 </i>
    <i name="e_wo_entrp">   -187.83718074 </i>
    <i name="e_0_energy">   -187.96317466 </i>
   </energy>
  </scstep>
  <scstep>
   <time name="diag">    1.23    1.24</time>
   <time name="diis">    3.51    3.54</time>
   <time name="orth">    0.29    0.29</time>
   <time name="total">    5.32    5.36</time>
   <dipole>
    <v name="dipole">      0.00000000       0.00000000       0.00180454 </v>
    <i name="Tr[quadrupol]"> -10260.54468762 </i>
    <i name="Echarged">      0.00000000 </i>
    <i name="Edipol_quadrupol">      0.00000000 </i>
    <i name="Eion">      0.00000000 </i>
   </dipole>
   <energy>
    <i name="e_fr_energy">   -188.08984297 </i>
    <i name="e_wo_entrp">   -187.83785867 </i>
    <i name="e_0_energy">   -187.96385082 </i>
   </energy>
  </scstep>
  <scstep>
   <time name="diag">    1.24    1.25</time>
   <time name="diis">    3.61    3.62</time>
   <time name="orth">    0.29    0.29</time>
   <time name="total">    5.43    5.45</time>
   <dipole>
    <v name="dipole">      0.00000000       0.00000000       0.00203498 </v>
    <i name="Tr[quadrupol]"> -10260.60314882 </i>
    <i name="Echarged">      0.00000000 </i>
    <i name="Edipol_quadrupol">      0.00000000 </i>
    <i name="Eion">      0.00000000 </i>
   </dipole>
   <energy>
    <i name="e_fr_energy">   -188.09033995 </i>
    <i name="e_wo_entrp">   -187.83815893 </i>
    <i name="e_0_energy">   -187.96424944 </i>
   </energy>
  </scstep>
  <scstep>
   <time name="diag">    1.24    1.24</time>
   <time name="diis">    3.38    3.42</time>
   <time name="orth">    0.28    0.31</time>
   <time name="total">    5.20    5.29</time>
   <dipole>
    <v name="dipole">      0.00000000       0.00000000       0.00188612 </v>
    <i name="Tr[quadrupol]"> -10260.66455201 </i>
    <i name="Echarged">      0.00000000 </i>
    <i name="Edipol_quadrupol">      0.00000000 </i>
    <i name="Eion">      0.00000000 </i>
   </dipole>
   <energy>
    <i name="e_fr_energy">   -188.09095879 </i>
    <i name="e_wo_entrp">   -187.83888576 </i>
    <i name="e_0_energy">   -187.96492227 </i>
   </energy>
  </scstep>
  <scstep>
   <time name="diag">    1.24    1.24</time>
   <time name="diis">    3.12    3.13</time>
   <time name="orth">    0.29    0.29</time>
   <time name="total">    4.94    4.96</time>
   <dipole>
    <v name="dipole">      0.00000000       0.00000000       0.00183804 </v>
    <i name="Tr[quadrupol]"> -10260.70537255 </i>
    <i name="Echarged">      0.00000000 </i>
    <i name="Edipol_quadrupol">      0.00000000 </i>
    <i name="Eion">      0.00000000 </i>
   </dipole>
   <energy>
    <i name="e_fr_energy">   -188.09131783 </i>
    <i name="e_wo_entrp">   -187.83920951 </i>
    <i name="e_0_energy">   -187.96526367 </i>
   </energy>
  </scstep>
  <scstep>
   <time name="diag">    1.24    1.24</time>
   <time name="diis">    3.06    3.07</time>
   <time name="orth">    0.29    0.29</time>
   <time name="total">    4.88    4.89</time>
   <dipole>
    <v name="dipole">      0.00000000       0.00000000       0.00174518 </v>
    <i name="Tr[quadrupol]"> -10260.74664647 </i>
    <i name="Echarged">      0.00000000 </i>
    <i name="Edipol_quadrupol">      0.00000000 </i>
    <i name="Eion">      0.00000000 </i>
   </dipole>
   <energy>
    <i name="e_fr_energy">   -188.09168210 </i>
    <i name="e_wo_entrp">   -187.83958115 </i>
    <i name="e_0_energy">   -187.96563163 </i>
   </energy>
  </scstep>
  <scstep>
   <time name="diag">    1.24    1.24</time>
   <time name="diis">    2.66    2.67</time>
   <time name="orth">    0.29    0.29</time>
   <time name="total">    4.48    4.49</time>
   <dipole>
    <v name="dipole">      0.00000000       0.00000000       0.00177171 </v>
    <i name="Tr[quadrupol]"> -10260.76418172 </i>
    <i name="Echarged">      0.00000000 </i>
    <i name="Edipol_quadrupol">      0.00000000 </i>
    <i name="Eion">      0.00000000 </i>
   </dipole>
   <energy>
    <i name="e_fr_energy">   -188.09179719 </i>
    <i name="e_wo_entrp">   -187.83966945 </i>
    <i name="e_0_energy">   -187.96573332 </i>
   </energy>
  </scstep>
  <scstep>
   <time name="diag">    1.24    1.24</time>
   <time name="diis">    2.51    2.51</time>
   <time name="orth">    0.29    0.29</time>
   <time name="total">    4.32    4.34</time>
   <dipole>
    <v name="dipole">      0.00000000       0.00000000       0.00173017 </v>
    <i name="Tr[quadrupol]"> -10260.78010093 </i>
    <i name="Echarged">      0.00000000 </i>
    <i name="Edipol_quadrupol">      0.00000000 </i>
    <i name="Eion">      0.00000000 </i>
   </dipole>
   <energy>
    <i name="e_fr_energy">   -188.09191037 </i>
    <i name="e_wo_entrp">   -187.83978761 </i>
    <i name="e_0_energy">   -187.96584899 </i>
   </energy>
  </scstep>
  <scstep>
   <time name="diag">    1.24    1.24</time>
   <time name="diis">    2.18    2.18</time>
   <time name="orth">    0.29    0.29</time>
   <time name="total">    3.99    4.00</time>
   <dipole>
    <v name="dipole">      0.00000000       0.00000000       0.00176280 </v>
    <i name="Tr[quadrupol]"> -10260.78743908 </i>
    <i name="Echarged">      0.00000000 </i>
    <i name="Edipol_quadrupol">      0.00000000 </i>
    <i name="Eion">      0.00000000 </i>
   </dipole>
   <energy>
    <i name="e_fr_energy">   -188.09196420 </i>
    <i name="e_wo_entrp">   -187.83985422 </i>
    <i name="e_0_energy">   -187.96590921 </i>
   </energy>
  </scstep>
  <scstep>
   <time name="diag">    1.24    1.24</time>
   <time name="diis">    2.15    2.16</time>
   <time name="orth">    0.29    0.29</time>
   <time name="total">    3.96    3.98</time>
   <dipole>
    <v name="dipole">      0.00000000       0.00000000       0.00177272 </v>
    <i name="Tr[quadrupol]"> -10260.79551896 </i>
    <i name="Echarged">      0.00000000 </i>
    <i name="Edipol_quadrupol">      0.00000000 </i>
    <i name="Eion">      0.00000000 </i>
   </dipole>
   <energy>
    <i name="e_fr_energy">   -188.09201078 </i>
    <i name="e_wo_entrp">   -187.83990706 </i>
    <i name="e_0_energy">   -187.96595892 </i>
   </energy>
  </scstep>
  <scstep>
   <time name="diag">    1.24    1.24</time>
   <time name="diis">    2.15    2.16</time>
   <time name="orth">    0.29    0.29</time>
   <time name="total">    3.97    3.98</time>
   <dipole>
    <v name="dipole">      0.00000000       0.00000000       0.00171014 </v>
    <i name="Tr[quadrupol]"> -10260.80158208 </i>
    <i name="Echarged">      0.00000000 </i>
    <i name="Edipol_quadrupol">      0.00000000 </i>
    <i name="Eion">      0.00000000 </i>
   </dipole>
   <energy>
    <i name="e_fr_energy">   -188.09203415 </i>
    <i name="e_wo_entrp">   -187.83992273 </i>
    <i name="e_0_energy">   -187.96597844 </i>
   </energy>
  </scstep>
  <scstep>
   <time name="diag">    1.24    1.24</time>
   <time name="diis">    1.90    1.91</time>
   <time name="orth">    0.29    0.29</time>
   <time name="total">    3.72    3.73</time>
   <dipole>
    <v name="dipole">      0.00000000       0.00000000       0.00169068 </v>
    <i name="Tr[quadrupol]"> -10260.80526705 </i>
    <i name="Echarged">      0.00000000 </i>
    <i name="Edipol_quadrupol">      0.00000000 </i>
    <i name="Eion">      0.00000000 </i>
   </dipole>
   <energy>
    <i name="e_fr_energy">   -188.09204197 </i>
    <i name="e_wo_entrp">   -187.83992609 </i>
    <i name="e_0_energy">   -187.96598403 </i>
   </energy>
  </scstep>
  <scstep>
   <time name="diag">    1.24    1.24</time>
   <time name="diis">    1.82    1.83</time>
   <time name="orth">    0.28    0.29</time>
   <time name="total">    3.64    3.65</time>
   <dipole>
    <v name="dipole">      0.00000000       0.00000000       0.00169087 </v>
    <i name="Tr[quadrupol]"> -10260.80883569 </i>
    <i name="Echarged">      0.00000000 </i>
    <i name="Edipol_quadrupol">      0.00000000 </i>
    <i name="Eion">      0.00000000 </i>
   </dipole>
   <energy>
    <i name="e_fr_energy">   -188.09204558 </i>
    <i name="e_wo_entrp">   -187.83993114 </i>
    <i name="e_0_energy">   -187.96598836 </i>
   </energy>
  </scstep>
  <scstep>
   <time name="diag">    1.23    1.26</time>
   <time name="diis">    1.64    1.71</time>
   <time name="orth">    0.29    0.29</time>
   <time name="total">    3.45    3.55</time>
   <dipole>
    <v name="dipole">      0.00000000       0.00000000       0.00167225 </v>
    <i name="Tr[quadrupol]"> -10260.81186373 </i>
    <i name="Echarged">      0.00000000 </i>
    <i name="Edipol_quadrupol">      0.00000000 </i>
    <i name="Eion">      0.00000000 </i>
   </dipole>
   <energy>
    <i name="e_fr_energy">   -188.09204689 </i>
    <i name="e_wo_entrp">   -187.83993255 </i>
    <i name="e_0_energy">   -187.96598972 </i>
   </energy>
  </scstep>
  <scstep>
   <time name="diag">    1.24    1.24</time>
   <time name="diis">    1.54    1.55</time>
   <time name="orth">    0.28    0.29</time>
   <time name="total">    3.11    3.13</time>
   <dipole>
    <v name="dipole">      0.00000000       0.00000000       0.00166734 </v>
    <i name="Tr[quadrupol]"> -10260.81368188 </i>
    <i name="Echarged">      0.00000000 </i>
    <i name="Edipol_quadrupol">      0.00000000 </i>
    <i name="Eion">      0.00000000 </i>
   </dipole>
   <energy>
    <i name="alphaZ">    805.86936419 </i>
    <i name="ewald"> 200629.97794964 </i>
    <i name="hartreedc">-242818.88145356 </i>
    <i name="XCdc">   -343.05544327 </i>
    <i name="pawpsdc">  49451.43753339 </i>
    <i name="pawaedc"> -47528.89580603 </i>
    <i name="eentropy">     -0.25211361 </i>
    <i name="bandstr">  -2044.07795055 </i>
    <i name="atom">  41659.78587232 </i>
    <i name="e_fr_energy">   -188.09204748 </i>
    <i name="e_wo_entrp">   -187.83993388 </i>
    <i name="e_0_energy">   -187.96599068 </i>
   </energy>
  </scstep>
  <structure>
   <crystal>
    <varray name="basis" >
     <v>      11.00258152       0.00000000       0.00000000 </v>
     <v>       5.50129076       9.52851510       0.00000000 </v>
     <v>       0.00000000       0.00000000      24.49178509 </v>
    </varray>
    <i name="volume">   2567.67623402 </i>
    <varray name="rec_basis" >
     <v>       0.09088776      -0.05247407       0.00000000 </v>
     <v>       0.00000000       0.10494815       0.00000000 </v>
     <v>       0.00000000       0.00000000       0.04083002 </v>
    </varray>
   </crystal>
   <varray name="positions" >
    <v>       0.08333333       0.08333333       0.40830017 </v>
    <v>       0.66666667       0.66666667       0.50000000 </v>
    <v>       0.75000000       0.25000000       0.59169983 </v>
    <v>       0.66666667       0.41666667       0.50000000 </v>
    <v>       0.83333333       0.33333333       0.40830017 </v>
    <v>       0.75000000       0.00000000       0.59169983 </v>
    <v>       0.66666667       0.16666667       0.50000000 </v>
    <v>       0.41666667       0.91666667       0.50000000 </v>
    <v>       0.58333333       0.83333333       0.40830017 </v>
    <v>       0.41666667       0.66666667       0.50000000 </v>
    <v>       0.50000000       0.25000000       0.59169983 </v>
    <v>       0.41666667       0.41666667       0.50000000 </v>
    <v>       0.58333333       0.08333333       0.40830017 </v>
    <v>       0.66666667       0.91666667       0.50000000 </v>
    <v>       0.16666667       0.91666667       0.50000000 </v>
    <v>       0.16666667       0.41666667       0.50000000 </v>
    <v>       0.25000000       0.75000000       0.59169983 </v>
    <v>       0.75000000       0.75000000       0.59169983 </v>
    <v>       0.08333333       0.58333333       0.40830017 </v>
    <v>       0.00000000       0.75000000       0.59169983 </v>
    <v>       0.25000000       0.00000000       0.59169983 </v>
    <v>       0.33333333       0.08333333       0.40830017 </v>
    <v>       0.33333333       0.33333333       0.40830017 </v>
    <v>       0.91666667       0.41666667       0.50000000 </v>
    <v>       0.50000000       0.75000000       0.59169983 </v>
    <v>       0.83333333       0.08333333       0.40830017 </v>
    <v>       0.00000000       0.25000000       0.59169983 </v>
    <v>       0.08333333       0.33333333       0.40830017 </v>
    <v>       0.83333333       0.58333333       0.40830017 </v>
    <v>       0.91666667       0.16666667       0.50000000 </v>
    <v>       0.75000000       0.50000000       0.59169983 </v>
    <v>       0.83333333       0.83333333       0.40830017 </v>
    <v>       0.00000000       0.00000000       0.59169983 </v>
    <v>       0.91666667       0.66666667       0.50000000 </v>
    <v>       0.25000000       0.25000000       0.59169983 </v>
    <v>       0.08333333       0.83333333       0.40830017 </v>
    <v>       0.58333333       0.58333333       0.40830017 </v>
    <v>       0.91666667       0.91666667       0.50000000 </v>
    <v>       0.58333333       0.33333333       0.40830017 </v>
    <v>       0.50000000       0.00000000       0.59169983 </v>
    <v>       0.41666667       0.16666667       0.50000000 </v>
    <v>       0.16666667       0.16666667       0.50000000 </v>
    <v>       0.33333333       0.83333333       0.40830017 </v>
    <v>       0.25000000       0.50000000       0.59169983 </v>
    <v>       0.16666667       0.66666667       0.50000000 </v>
    <v>       0.33333333       0.58333333       0.40830017 </v>
    <v>       0.00000000       0.50000000       0.59169983 </v>
    <v>       0.50000000       0.50000000       0.59169983 </v>
   </varray>
  </structure>
  <varray name="forces" >
   <v>      -0.12684082      -0.05854026      -1.33296840 </v>
   <v>       0.15168264      -0.33263021       0.00695494 </v>
   <v>       0.50397407       0.11425255       1.58426710 </v>
   <v>       0.00171706       0.05243888      -0.03286072 </v>
   <v>      -0.07306830       0.06706614      -1.56374311 </v>
   <v>       0.12937537      -0.06899422       1.61387386 </v>
   <v>       0.36429371      -0.18110252      -0.55149910 </v>
   <v>      -0.02269005       0.29491563       0.30128792 </v>
   <v>       0.01092070      -0.46863045      -1.85100446 </v>
   <v>      -0.16975881      -0.14007207      -0.29052595 </v>
   <v>      -0.50438294       0.12877805       1.59480017 </v>
   <v>      -0.12446891       0.32423821      -0.00118402 </v>
   <v>       0.35150036       0.07362308      -1.59506375 </v>
   <v>       0.31183888      -0.00609858      -0.00509813 </v>
   <v>      -0.64959653       0.16308401      -0.29345748 </v>
   <v>      -0.21790855      -0.10169549       0.53143474 </v>
   <v>      -0.00982244      -0.26389443       1.60648708 </v>
   <v>      -0.20437327      -0.28107311       1.59024073 </v>
   <v>      -0.10110472       0.39677409      -1.31842518 </v>
   <v>       0.10220120      -0.20838670       1.14575785 </v>
   <v>       0.13456490       0.41152376       1.54423209 </v>
   <v>      -0.26449118       0.14867518      -1.42343800 </v>
   <v>       0.11577097       0.08221424      -1.59072061 </v>
   <v>       0.33707812      -0.15483535       0.27484168 </v>
   <v>       0.08780486      -0.15130111       1.09700418 </v>
   <v>       0.01031382      -0.16346764      -0.69097585 </v>
   <v>      -0.00100320       0.05719770       0.67777057 </v>
   <v>      -0.09587066       0.04110777      -0.89395142 </v>
   <v>       0.02652663       0.04320763      -0.91239033 </v>
   <v>       0.12547721      -0.31214177       0.15215060 </v>
   <v>       0.02005896      -0.02197990       1.02386459 </v>
   <v>       0.28597855      -0.08911712      -0.68000691 </v>
   <v>       0.03684913       0.19880745       0.72731543 </v>
   <v>       0.24704040       0.07338512      -0.16793005 </v>
   <v>      -0.02544800       0.01307928       0.69031581 </v>
   <v>      -0.11412306      -0.12113574      -0.61428912 </v>
   <v>      -0.14625250       0.01602507      -1.02231531 </v>
   <v>       0.21173027      -0.10353251      -0.37596771 </v>
   <v>       0.05804100       0.12818045      -1.02526562 </v>
   <v>      -0.19737245       0.09471454       0.91735598 </v>
   <v>      -0.35437012      -0.00953420       0.34963243 </v>
   <v>       0.00119974       0.30566119       0.23746534 </v>
   <v>      -0.17837518      -0.26214911      -1.04080099 </v>
   <v>      -0.09074282      -0.02911077       0.82922449 </v>
   <v>      -0.22081426       0.12551176      -0.17765959 </v>
   <v>       0.20027660       0.17048800      -0.89907769 </v>
   <v>       0.00737408      -0.19143907       0.76508491 </v>
   <v>       0.05928960       0.19591254       1.08925701 </v>
  </varray>
  <energy>
   <i name="e_fr_energy">   -188.09204748 </i>
   <i name="e_wo_entrp">   -187.96599068 </i>
   <i name="e_0_energy">     -0.25211361 </i>
  </energy>
  <time name="totalsc">  209.03  210.28</time>
 </calculation>
 <calculation>
  <scstep>
   <time name="dav">    7.10    7.15</time>
   <time name="total">    7.39    7.43</time>
   <dipole>
    <v name="dipole">      0.00000000       0.00000000       0.00165744 </v>
    <i name="Tr[quadrupol]"> -10245.60850340 </i>
    <i name="Echarged">      0.00000000 </i>
    <i name="Edipol_quadrupol">      0.00000000 </i>
    <i name="Eion">      0.00000000 </i>
   </dipole>
   <energy>
    <i name="alphaZ">    805.86936441 </i>
    <i name="ewald"> 197857.18817389 </i>
    <i name="hartreedc">-240062.96423218 </i>
    <i name="XCdc">   -345.34864610 </i>
    <i name="pawpsdc">  49451.42779473 </i>
    <i name="pawaedc"> -47528.88598897 </i>
    <i name="eentropy">     -0.24315361 </i>
    <i name="bandstr">  -2026.03814772 </i>
    <i name="atom">  41659.78587232 </i>
    <i name="e_fr_energy">   -189.20896323 </i>
    <i name="e_wo_entrp">   -188.96580962 </i>
    <i name="e_0_energy">   -189.08738643 </i>
   </energy>
  </scstep>
  <scstep>
   <time name="diag">    1.24    1.24</time>
   <time name="diis">    3.53    3.54</time>
   <time name="orth">    0.28    0.28</time>
   <time name="total">    5.34    5.35</time>
   <dipole>
    <v name="dipole">      0.00000000       0.00000000       0.00430758 </v>
    <i name="Tr[quadrupol]"> -10245.33965006 </i>
    <i name="Echarged">      0.00000000 </i>
    <i name="Edipol_quadrupol">      0.00000000 </i>
    <i name="Eion">      0.00000000 </i>
   </dipole>
   <energy>
    <i name="e_fr_energy">   -189.59904909 </i>
    <i name="e_wo_entrp">   -189.35867311 </i>
    <i name="e_0_energy">   -189.47886110 </i>
   </energy>
  </scstep>
  <scstep>
   <time name="diag">    1.24    1.24</time>
   <time name="diis">    3.58    3.58</time>
   <time name="orth">    0.28    0.29</time>
   <time name="total">    5.38    5.40</time>
   <dipole>
    <v name="dipole">      0.00000000       0.00000000      -0.01317788 </v>
    <i name="Tr[quadrupol]"> -10245.78322760 </i>
    <i name="Echarged">      0.00000000 </i>
    <i name="Edipol_quadrupol">      0.00000000 </i>
    <i name="Eion">      0.00000000 </i>
   </dipole>
   <energy>
    <i name="e_fr_energy">   -189.64823496 </i>
    <i name="e_wo_entrp">   -189.39044399 </i>
    <i name="e_0_energy">   -189.51933948 </i>
   </energy>
  </scstep>
  <scstep>
   <time name="diag">    1.23    1.24</time>
   <time name="diis">    3.49    3.50</time>
   <time name="orth">    0.28    0.29</time>
   <time name="total">    5.29    5.31</time>
   <dipole>
    <v name="dipole">      0.00000000       0.00000000       0.02312400 </v>
    <i name="Tr[quadrupol]"> -10245.67399325 </i>
    <i name="Echarged">      0.00000000 </i>
    <i name="Edipol_quadrupol">      0.00000000 </i>
    <i name="Eion">      0.00000000 </i>
   </dipole>
   <energy>
    <i name="e_fr_energy">   -189.59271721 </i>
    <i name="e_wo_entrp">   -189.35859756 </i>
    <i name="e_0_energy">   -189.47565739 </i>
   </energy>
  </scstep>
  <scstep>
   <time name="diag">    1.24    1.24</time>
   <time name="diis">    3.54    3.54</time>
   <time name="orth">    0.28    0.28</time>
   <time name="total">    5.34    5.36</time>
   <dipole>
    <v name="dipole">      0.00000000       0.00000000      -0.07591958 </v>
    <i name="Tr[quadrupol]"> -10245.68079808 </i>
    <i name="Echarged">      0.00000000 </i>
    <i name="Edipol_quadrupol">      0.00000000 </i>
    <i name="Eion">      0.00000000 </i>
   </dipole>
   <energy>
    <i name="e_fr_energy">   -189.68256993 </i>
    <i name="e_wo_entrp">   -189.44539692 </i>
    <i name="e_0_energy">   -189.56398343 </i>
   </energy>
  </scstep>
  <scstep>
   <time name="diag">    1.23    1.24</time>
   <time name="diis">    3.41    3.51</time>
   <time name="orth">    0.29    0.29</time>
   <time name="total">    5.22    5.32</time>
   <dipole>
    <v name="dipole">      0.00000000       0.00000000       0.01962375 </v>
    <i name="Tr[quadrupol]"> -10245.68269400 </i>
    <i name="Echarged">      0.00000000 </i>
    <i name="Edipol_quadrupol">      0.00000000 </i>
    <i name="Eion">      0.00000000 </i>
   </dipole>
   <energy>
    <i name="e_fr_energy">   -189.58446480 </i>
    <i name="e_wo_entrp">   -189.33901057 </i>
    <i name="e_0_energy">   -189.46173768 </i>
   </energy>
  </scstep>
  <scstep>
   <time name="diag">    1.24    1.24</time>
   <time name="diis">    3.56    3.57</time>
   <time name="orth">    0.28    0.29</time>
   <time name="total">    5.36    5.38</time>
   <dipole>
    <v name="dipole">      0.00000000       0.00000000      -0.00067703 </v>
    <i name="Tr[quadrupol]"> -10245.64937770 </i>
    <i name="Echarged">      0.00000000 </i>
    <i name="Edipol_quadrupol">      0.00000000 </i>
    <i name="Eion">      0.00000000 </i>
   </dipole>
   <energy>
    <i name="e_fr_energy">   -189.57542447 </i>
    <i name="e_wo_entrp">   -189.33204226 </i>
    <i name="e_0_energy">   -189.45373337 </i>
   </energy>
  </scstep>
  <scstep>
   <time name="diag">    1.23    1.23</time>
   <time name="diis">    3.50    3.51</time>
   <time name="orth">    0.28    0.28</time>
   <time name="total">    5.30    5.32</time>
   <dipole>
    <v name="dipole">      0.00000000       0.00000000       0.00207601 </v>
    <i name="Tr[quadrupol]"> -10245.62599235 </i>
    <i name="Echarged">      0.00000000 </i>
    <i name="Edipol_quadrupol">      0.00000000 </i>
    <i name="Eion">      0.00000000 </i>
   </dipole>
   <energy>
    <i name="e_fr_energy">   -189.57274838 </i>
    <i name="e_wo_entrp">   -189.32764382 </i>
    <i name="e_0_energy">   -189.45019610 </i>
   </energy>
  </scstep>
  <scstep>
   <time name="diag">    1.23    1.24</time>
   <time name="diis">    3.48    3.49</time>
   <time name="orth">    0.28    0.28</time>
   <time name="total">    5.29    5.31</time>
   <dipole>
    <v name="dipole">      0.00000000       0.00000000       0.00180949 </v>
    <i name="Tr[quadrupol]"> -10245.62164330 </i>
    <i name="Echarged">      0.00000000 </i>
    <i name="Edipol_quadrupol">      0.00000000 </i>
    <i name="Eion">      0.00000000 </i>
   </dipole>
   <energy>
    <i name="e_fr_energy">   -189.57187916 </i>
    <i name="e_wo_entrp">   -189.32652723 </i>
    <i name="e_0_energy">   -189.44920320 </i>
   </energy>
  </scstep>
  <scstep>
   <time name="diag">    1.23    1.24</time>
   <time name="diis">    3.48    3.49</time>
   <time name="orth">    0.28    0.28</time>
   <time name="total">    5.29    5.30</time>
   <dipole>
    <v name="dipole">      0.00000000       0.00000000       0.00216856 </v>
    <i name="Tr[quadrupol]"> -10245.61478278 </i>
    <i name="Echarged">      0.00000000 </i>
    <i name="Edipol_quadrupol">      0.00000000 </i>
    <i name="Eion">      0.00000000 </i>
   </dipole>
   <energy>
    <i name="e_fr_energy">   -189.57180166 </i>
    <i name="e_wo_entrp">   -189.32647125 </i>
    <i name="e_0_energy">   -189.44913645 </i>
   </energy>
  </scstep>
  <scstep>
   <time name="diag">    1.23    1.24</time>
   <time name="diis">    3.50    3.52</time>
   <time name="orth">    0.28    0.28</time>
   <time name="total">    5.30    5.33</time>
   <dipole>
    <v name="dipole">      0.00000000       0.00000000       0.00232438 </v>
    <i name="Tr[quadrupol]"> -10245.61897520 </i>
    <i name="Echarged">      0.00000000 </i>
    <i name="Edipol_quadrupol">      0.00000000 </i>
    <i name="Eion">      0.00000000 </i>
   </dipole>
   <energy>
    <i name="e_fr_energy">   -189.57172921 </i>
    <i name="e_wo_entrp">   -189.32599457 </i>
    <i name="e_0_energy">   -189.44886189 </i>
   </energy>
  </scstep>
  <scstep>
   <time name="diag">    1.22    1.24</time>
   <time name="diis">    3.51    3.52</time>
   <time name="orth">    0.28    0.28</time>
   <time name="total">    5.31    5.34</time>
   <dipole>
    <v name="dipole">      0.00000000       0.00000000       0.00189497 </v>
    <i name="Tr[quadrupol]"> -10245.62165903 </i>
    <i name="Echarged">      0.00000000 </i>
    <i name="Edipol_quadrupol">      0.00000000 </i>
    <i name="Eion">      0.00000000 </i>
   </dipole>
   <energy>
    <i name="e_fr_energy">   -189.57172235 </i>
    <i name="e_wo_entrp">   -189.32631566 </i>
    <i name="e_0_energy">   -189.44901900 </i>
   </energy>
  </scstep>
  <scstep>
   <time name="diag">    1.23    1.24</time>
   <time name="diis">    3.56    3.57</time>
   <time name="orth">    0.28    0.28</time>
   <time name="total">    5.36    5.37</time>
   <dipole>
    <v name="dipole">      0.00000000       0.00000000       0.00210606 </v>
    <i name="Tr[quadrupol]"> -10245.62753753 </i>
    <i name="Echarged">      0.00000000 </i>
    <i name="Edipol_quadrupol">      0.00000000 </i>
    <i name="Eion">      0.00000000 </i>
   </dipole>
   <energy>
    <i name="e_fr_energy">   -189.57170906 </i>
    <i name="e_wo_entrp">   -189.32622465 </i>
    <i name="e_0_energy">   -189.44896686 </i>
   </energy>
  </scstep>
  <scstep>
   <time name="diag">    1.24    1.24</time>
   <time name="diis">    3.00    3.09</time>
   <time name="orth">    0.28    0.28</time>
   <time name="total">    4.57    4.67</time>
   <dipole>
    <v name="dipole">      0.00000000       0.00000000       0.00201166 </v>
    <i name="Tr[quadrupol]"> -10245.63075149 </i>
    <i name="Echarged">      0.00000000 </i>
    <i name="Edipol_quadrupol">      0.00000000 </i>
    <i name="Eion">      0.00000000 </i>
   </dipole>
   <energy>
    <i name="alphaZ">    805.86936441 </i>
    <i name="ewald"> 197857.18817389 </i>
    <i name="hartreedc">-240064.13644572 </i>
    <i name="XCdc">   -345.28474871 </i>
    <i name="pawpsdc">  48989.18612397 </i>
    <i name="pawaedc"> -47063.38030006 </i>
    <i name="eentropy">     -0.24539994 </i>
    <i name="bandstr">  -2028.55434850 </i>
    <i name="atom">  41659.78587232 </i>
    <i name="e_fr_energy">   -189.57170835 </i>
    <i name="e_wo_entrp">   -189.32630841 </i>
    <i name="e_0_energy">   -189.44900838 </i>
   </energy>
  </scstep>
  <structure>
   <crystal>
    <varray name="basis" >
     <v>      11.00258152       0.00000000       0.00000000 </v>
     <v>       5.50129076       9.52851510       0.00000000 </v>
     <v>       0.00000000       0.00000000      24.49178509 </v>
    </varray>
    <i name="volume">   2567.67623402 </i>
    <varray name="rec_basis" >
     <v>       0.09088776      -0.05247407       0.00000000 </v>
     <v>       0.00000000       0.10494815       0.00000000 </v>
     <v>       0.00000000       0.00000000       0.04083002 </v>
    </varray>
   </crystal>
   <varray name="positions" >
    <v>       0.08304776       0.08312586       0.40646224 </v>
    <v>       0.66772166       0.66548780       0.50000959 </v>
    <v>       0.75134437       0.25040492       0.59388426 </v>
    <v>       0.66657901       0.41685251       0.49995469 </v>
    <v>       0.83299022       0.33357102       0.40614404 </v>
    <v>       0.75051935      -0.00024452       0.59392508 </v>
    <v>       0.66810570       0.16602482       0.49923958 </v>
    <v>       0.41607442       0.91771187       0.50041542 </v>
    <v>       0.58419728       0.83167247       0.40574796 </v>
    <v>       0.41639385       0.66617024       0.49959942 </v>
    <v>       0.49822371       0.25045640       0.59389878 </v>
    <v>       0.41571007       0.41781579       0.49999837 </v>
    <v>       0.58428172       0.08359426       0.40610086 </v>
    <v>       0.66763459       0.91664505       0.49999297 </v>
    <v>       0.16438389       0.91724465       0.49959537 </v>
    <v>       0.16617806       0.41630625       0.50073275 </v>
    <v>       0.25043748       0.74906474       0.59391489 </v>
    <v>       0.74987080       0.74900385       0.59389249 </v>
    <v>       0.08231992       0.58473953       0.40648229 </v>
    <v>       0.00068295       0.74926146       0.59327963 </v>
    <v>       0.24968378       0.00145847       0.59382905 </v>
    <v>       0.33225808       0.08386025       0.40633750 </v>
    <v>       0.33354298       0.33362471       0.40610685 </v>
    <v>       0.91797562       0.41611792       0.50037896 </v>
    <v>       0.50053761       0.74946378       0.59321241 </v>
    <v>       0.83365466       0.08275399       0.40734744 </v>
    <v>      -0.00010444       0.25020271       0.59263436 </v>
    <v>       0.08296624       0.33347902       0.40706757 </v>
    <v>       0.83333818       0.58348646       0.40704214 </v>
    <v>       0.91760492       0.16556041       0.50020979 </v>
    <v>       0.75010052       0.49992210       0.59311156 </v>
    <v>       0.83436900       0.83301749       0.40736256 </v>
    <v>      -0.00023920       0.00070459       0.59270267 </v>
    <v>       0.91729486       0.66692675       0.49976845 </v>
    <v>       0.24989872       0.25004635       0.59265165 </v>
    <v>       0.08319772       0.83290402       0.40745317 </v>
    <v>       0.58285605       0.58339013       0.40689058 </v>
    <v>       0.91749999       0.91629974       0.49948161 </v>
    <v>       0.58328434       0.33378762       0.40688651 </v>
    <v>       0.49922637       0.00033568       0.59296470 </v>
    <v>       0.41559591       0.16663288       0.50048208 </v>
    <v>       0.16612870       0.16774996       0.50032742 </v>
    <v>       0.33325039       0.83240425       0.40686509 </v>
    <v>       0.24977307       0.49989683       0.59284319 </v>
    <v>       0.16576652       0.66711149       0.49975504 </v>
    <v>       0.33364592       0.58393756       0.40706050 </v>
    <v>       0.00036187       0.49932152       0.59275475 </v>
    <v>       0.49983481       0.50069433       0.59320172 </v>
   </varray>
  </structure>
  <varray name="forces" >
   <v>      -0.08292260      -0.02311683      -1.00982798 </v>
   <v>       0.12722039      -0.06422160      -0.01367502 </v>
   <v>       0.17042505       0.09070213       1.11078825 </v>
   <v>       0.05931583      -0.11224691       0.00486250 </v>
   <v>      -0.03400729       0.05727056      -1.07797388 </v>
   <v>       0.06352052       0.01707950       1.11806085 </v>
   <v>       0.12649887      -0.03603357      -0.09576094 </v>
   <v>      -0.05469481       0.09578992       0.06422510 </v>
   <v>      -0.00952741      -0.20982147      -1.26204084 </v>
   <v>      -0.11042553       0.11148859      -0.07419853 </v>
   <v>      -0.14698698       0.06812647       1.07057979 </v>
   <v>      -0.13393453       0.02614109       0.00980040 </v>
   <v>       0.11302368      -0.01581340      -1.15652680 </v>
   <v>       0.12920193      -0.02155144      -0.00181792 </v>
   <v>      -0.19092203       0.05720895      -0.02834558 </v>
   <v>       0.00708171       0.00192743       0.10654827 </v>
   <v>       0.06586298      -0.08240478       1.10402362 </v>
   <v>      -0.10801444      -0.15788791       1.13718998 </v>
   <v>      -0.03267705       0.11999174      -0.97741922 </v>
   <v>       0.02892762      -0.11288517       0.84716910 </v>
   <v>       0.00280010       0.17078628       1.11565955 </v>
   <v>      -0.10321379       0.01605885      -0.99854716 </v>
   <v>       0.03627870       0.10715465      -1.07010869 </v>
   <v>       0.06819945      -0.11267300       0.05209127 </v>
   <v>       0.00650703      -0.08253097       0.76303585 </v>
   <v>       0.05544998      -0.09522049      -0.62533372 </v>
   <v>       0.02058880       0.05688263       0.60047569 </v>
   <v>      -0.04285958       0.08636780      -0.65507407 </v>
   <v>       0.00645789      -0.02270396      -0.68139371 </v>
   <v>       0.06947962      -0.06304852       0.02786553 </v>
   <v>       0.01091500      -0.02522100       0.78934016 </v>
   <v>       0.12162231      -0.01662143      -0.57529628 </v>
   <v>       0.06652902       0.05919768       0.57749730 </v>
   <v>       0.14744985       0.07522758      -0.02663586 </v>
   <v>      -0.04480670       0.02718630       0.65300928 </v>
   <v>      -0.04161694      -0.08396816      -0.59516348 </v>
   <v>      -0.08100500      -0.00895461      -0.79525474 </v>
   <v>       0.02693602      -0.08061884      -0.07685809 </v>
   <v>       0.03943639       0.11965099      -0.77678190 </v>
   <v>      -0.05717267       0.00228907       0.70906540 </v>
   <v>      -0.07000663       0.02786264       0.04946102 </v>
   <v>      -0.04319301       0.04636010       0.06524942 </v>
   <v>      -0.08700749      -0.11309888      -0.72602286 </v>
   <v>      -0.05480994      -0.01481009       0.66676849 </v>
   <v>      -0.16843811       0.06480812      -0.06317900 </v>
   <v>       0.09357274       0.08774481      -0.74852250 </v>
   <v>      -0.01446113      -0.10640811       0.67196601 </v>
   <v>       0.04940217       0.06855728       0.79702593 </v>
  </varray>
  <energy>
   <i name="e_fr_energy">   -189.57170835 </i>
   <i name="e_wo_entrp">   -189.44900838 </i>
   <i name="e_0_energy">     -0.24539994 </i>
  </energy>
  <time name="totalsc">   78.23   78.70</time>
 </calculation>
 <calculation>
  <scstep>
   <time name="dav">    7.07    7.09</time>
   <time name="total">    7.35    7.37</time>
   <dipole>
    <v name="dipole">      0.00000000       0.00000000       0.00202780 </v>
    <i name="Tr[quadrupol]"> -10200.82390271 </i>
    <i name="Echarged">      0.00000000 </i>
    <i name="Edipol_quadrupol">      0.00000000 </i>
    <i name="Eion">      0.00000000 </i>
   </dipole>
   <energy>
    <i name="alphaZ">    805.86936522 </i>
    <i name="ewald"> 189659.07961740 </i>
    <i name="hartreedc">-231909.97696183 </i>
    <i name="XCdc">   -351.05981565 </i>
    <i name="pawpsdc">  48989.04572437 </i>
    <i name="pawaedc"> -47063.24066726 </i>
    <i name="eentropy">     -0.21606002 </i>
    <i name="bandstr">  -1977.43017231 </i>
    <i name="atom">  41659.78587232 </i>
    <i name="e_fr_energy">   -188.14309775 </i>
    <i name="e_wo_entrp">   -187.92703773 </i>
    <i name="e_0_energy">   -188.03506774 </i>
   </energy>
  </scstep>
  <scstep>
   <time name="diag">    1.23    1.24</time>
   <time name="diis">    3.51    3.52</time>
   <time name="orth">    0.28    0.28</time>
   <time name="total">    5.31    5.32</time>
   <dipole>
    <v name="dipole">      0.00000000       0.00000000       0.00911808 </v>
    <i name="Tr[quadrupol]"> -10199.99292728 </i>
    <i name="Echarged">      0.00000000 </i>
    <i name="Edipol_quadrupol">      0.00000000 </i>
    <i name="Eion">      0.00000000 </i>
   </dipole>
   <energy>
    <i name="e_fr_energy">   -191.57517956 </i>
    <i name="e_wo_entrp">   -191.36411116 </i>
    <i name="e_0_energy">   -191.46964536 </i>
   </energy>
  </scstep>
  <scstep>
   <time name="diag">    1.23    1.24</time>
   <time name="diis">    3.59    3.60</time>
   <time name="orth">    0.28    0.28</time>
   <time name="total">    5.39    5.40</time>
   <dipole>
    <v name="dipole">      0.00000000       0.00000000      -0.04434278 </v>
    <i name="Tr[quadrupol]"> -10201.01292045 </i>
    <i name="Echarged">      0.00000000 </i>
    <i name="Edipol_quadrupol">      0.00000000 </i>
    <i name="Eion">      0.00000000 </i>
   </dipole>
   <energy>
    <i name="e_fr_energy">   -191.78259895 </i>
    <i name="e_wo_entrp">   -191.55787638 </i>
    <i name="e_0_energy">   -191.67023766 </i>
   </energy>
  </scstep>
  <scstep>
   <time name="diag">    1.24    1.24</time>
   <time name="diis">    3.51    3.52</time>
   <time name="orth">    0.28    0.28</time>
   <time name="total">    5.31    5.33</time>
   <dipole>
    <v name="dipole">      0.00000000       0.00000000       0.05774124 </v>
    <i name="Tr[quadrupol]"> -10200.82436256 </i>
    <i name="Echarged">      0.00000000 </i>
    <i name="Edipol_quadrupol">      0.00000000 </i>
    <i name="Eion">      0.00000000 </i>
   </dipole>
   <energy>
    <i name="e_fr_energy">   -191.46913426 </i>
    <i name="e_wo_entrp">   -191.27381431 </i>
    <i name="e_0_energy">   -191.37147429 </i>
   </energy>
  </scstep>
  <scstep>
   <time name="diag">    1.23    1.24</time>
   <time name="diis">    3.48    3.49</time>
   <time name="orth">    0.28    0.28</time>
   <time name="total">    5.28    5.30</time>
   <dipole>
    <v name="dipole">      0.00000000       0.00000000      -0.19459629 </v>
    <i name="Tr[quadrupol]"> -10200.99783942 </i>
    <i name="Echarged">      0.00000000 </i>
    <i name="Edipol_quadrupol">      0.00000000 </i>
    <i name="Eion">      0.00000000 </i>
   </dipole>
   <energy>
    <i name="e_fr_energy">   -191.99507086 </i>
    <i name="e_wo_entrp">   -191.78363623 </i>
    <i name="e_0_energy">   -191.88935355 </i>
   </energy>
  </scstep>
  <scstep>
   <time name="diag">    1.24    1.24</time>
   <time name="diis">    3.53    3.54</time>
   <time name="orth">    0.28    0.28</time>
   <time name="total">    5.33    5.34</time>
   <dipole>
    <v name="dipole">      0.00000000       0.00000000       0.07728494 </v>
    <i name="Tr[quadrupol]"> -10201.06756297 </i>
    <i name="Echarged">      0.00000000 </i>
    <i name="Edipol_quadrupol">      0.00000000 </i>
    <i name="Eion">      0.00000000 </i>
   </dipole>
   <energy>
    <i name="e_fr_energy">   -191.51467825 </i>
    <i name="e_wo_entrp">   -191.29309941 </i>
    <i name="e_0_energy">   -191.40388883 </i>
   </energy>
  </scstep>
  <scstep>
   <time name="diag">    1.23    1.26</time>
   <time name="diis">    3.44    3.50</time>
   <time name="orth">    0.28    0.28</time>
   <time name="total">    5.23    5.33</time>
   <dipole>
    <v name="dipole">      0.00000000       0.00000000      -0.00497748 </v>
    <i name="Tr[quadrupol]"> -10200.89286562 </i>
    <i name="Echarged">      0.00000000 </i>
    <i name="Edipol_quadrupol">      0.00000000 </i>
    <i name="Eion">      0.00000000 </i>
   </dipole>
   <energy>
    <i name="e_fr_energy">   -191.35609727 </i>
    <i name="e_wo_entrp">   -191.14378793 </i>
    <i name="e_0_energy">   -191.24994260 </i>
   </energy>
  </scstep>
  <scstep>
   <time name="diag">    1.24    1.24</time>
   <time name="diis">    3.48    3.50</time>
   <time name="orth">    0.28    0.28</time>
   <time name="total">    5.29    5.31</time>
   <dipole>
    <v name="dipole">      0.00000000       0.00000000       0.01136688 </v>
    <i name="Tr[quadrupol]"> -10200.82972228 </i>
    <i name="Echarged">      0.00000000 </i>
    <i name="Edipol_quadrupol">      0.00000000 </i>
    <i name="Eion">      0.00000000 </i>
   </dipole>
   <energy>
    <i name="e_fr_energy">   -191.32488675 </i>
    <i name="e_wo_entrp">   -191.09735516 </i>
    <i name="e_0_energy">   -191.21112095 </i>
   </energy>
  </scstep>
  <scstep>
   <time name="diag">    1.23    1.24</time>
   <time name="diis">    3.54    3.55</time>
   <time name="orth">    0.28    0.28</time>
   <time name="total">    5.34    5.35</time>
   <dipole>
    <v name="dipole">      0.00000000       0.00000000      -0.00231540 </v>
    <i name="Tr[quadrupol]"> -10200.79247278 </i>
    <i name="Echarged">      0.00000000 </i>
    <i name="Edipol_quadrupol">      0.00000000 </i>
    <i name="Eion">      0.00000000 </i>
   </dipole>
   <energy>
    <i name="e_fr_energy">   -191.31832687 </i>
    <i name="e_wo_entrp">   -191.09667760 </i>
    <i name="e_0_energy">   -191.20750224 </i>
   </energy>
  </scstep>
  <scstep>
   <time name="diag">    1.23    1.24</time>
   <time name="diis">    3.54    3.55</time>
   <time name="orth">    0.28    0.28</time>
   <time name="total">    5.34    5.36</time>
   <dipole>
    <v name="dipole">      0.00000000       0.00000000       0.00320395 </v>
    <i name="Tr[quadrupol]"> -10200.79691258 </i>
    <i name="Echarged">      0.00000000 </i>
    <i name="Edipol_quadrupol">      0.00000000 </i>
    <i name="Eion">      0.00000000 </i>
   </dipole>
   <energy>
    <i name="e_fr_energy">   -191.31651905 </i>
    <i name="e_wo_entrp">   -191.09068767 </i>
    <i name="e_0_energy">   -191.20360336 </i>
   </energy>
  </scstep>
  <scstep>
   <time name="diag">    1.23    1.23</time>
   <time name="diis">    3.54    3.55</time>
   <time name="orth">    0.28    0.28</time>
   <time name="total">    5.34    5.36</time>
   <dipole>
    <v name="dipole">      0.00000000       0.00000000       0.00288754 </v>
    <i name="Tr[quadrupol]"> -10200.79402119 </i>
    <i name="Echarged">      0.00000000 </i>
    <i name="Edipol_quadrupol">      0.00000000 </i>
    <i name="Eion">      0.00000000 </i>
   </dipole>
   <energy>
    <i name="e_fr_energy">   -191.31620599 </i>
    <i name="e_wo_entrp">   -191.09181594 </i>
    <i name="e_0_energy">   -191.20401097 </i>
   </energy>
  </scstep>
  <scstep>
   <time name="diag">    1.25    1.25</time>
   <time name="diis">    3.49    3.50</time>
   <time name="orth">    0.28    0.28</time>
   <time name="total">    5.30    5.33</time>
   <dipole>
    <v name="dipole">      0.00000000       0.00000000       0.00298163 </v>
    <i name="Tr[quadrupol]"> -10200.81266878 </i>
    <i name="Echarged">      0.00000000 </i>
    <i name="Edipol_quadrupol">      0.00000000 </i>
    <i name="Eion">      0.00000000 </i>
[...]
       <r>    2.2885    0.0000 </r>
       <r>    2.3397    0.0000 </r>
       <r>    2.4595    0.0000 </r>
       <r>    2.5007    0.0000 </r>
       <r>    2.6663    0.0000 </r>
       <r>    2.9391    0.0000 </r>
       <r>    3.2198    0.0000 </r>
       <r>    3.2491    0.0000 </r>
       <r>    3.4954    0.0000 </r>
       <r>    3.6305    0.0000 </r>
       <r>    3.6813    0.0000 </r>
       <r>    3.9462    0.0000 </r>
       <r>    4.0898    0.0000 </r>
       <r>    4.1973    0.0000 </r>
       <r>    4.4649    0.0000 </r>
       <r>    4.5111    0.0000 </r>
       <r>    4.6187    0.0000 </r>
       <r>    4.6481    0.0000 </r>
       <r>    4.7167    0.0000 </r>
       <r>    4.8288    0.0000 </r>
       <r>    4.8910    0.0000 </r>
       <r>    4.9306    0.0000 </r>
       <r>    4.9651    0.0000 </r>
       <r>    5.0198    0.0000 </r>
       <r>    5.0780    0.0000 </r>
       <r>    5.0911    0.0000 </r>
       <r>    5.1784    0.0000 </r>
       <r>    5.2781    0.0000 </r>
      </set>
     </set>
    </set>
   </array>
  </eigenvalues>
  <separator name="orbital magnetization" >
   <v name="MAGDIPOLOUT">      0.00000000      0.00000000      0.00000000</v>
  </separator>
  <dos>
   <i name="efermi">     -1.10716072 </i>
   <total>
    <array>
     <dimension dim="1">gridpoints</dimension>
     <dimension dim="2">spin</dimension>
     <field>energy</field>
     <field>total</field>
     <field>integrated</field>
     <set>
      <set comment="spin 1">
       <r>    -9.8938     0.0000     0.0000 </r>
       <r>    -9.8397     0.0000     0.0000 </r>
       <r>    -9.7855     0.0000     0.0000 </r>
       <r>    -9.7313     0.0000     0.0000 </r>
       <r>    -9.6771     0.0000     0.0000 </r>
       <r>    -9.6229     0.0000     0.0000 </r>
       <r>    -9.5687     0.0000     0.0000 </r>
       <r>    -9.5145     0.0000     0.0000 </r>
       <r>    -9.4603     0.0000     0.0000 </r>
       <r>    -9.4061     0.0000     0.0000 </r>
       <r>    -9.3519     0.0000     0.0000 </r>
       <r>    -9.2978     0.0000     0.0000 </r>
       <r>    -9.2436     0.0000     0.0000 </r>
       <r>    -9.1894     0.0001     0.0000 </r>
       <r>    -9.1352     0.0035     0.0002 </r>
       <r>    -9.0810     0.0458     0.0027 </r>
       <r>    -9.0268     0.3473     0.0215 </r>
       <r>    -8.9726     1.5112     0.1034 </r>
       <r>    -8.9184     3.7862     0.3086 </r>
       <r>    -8.8642     5.5249     0.6079 </r>
       <r>    -8.8101     5.0441     0.8813 </r>
       <r>    -8.7559     4.0675     1.1017 </r>
       <r>    -8.7017     4.6315     1.3527 </r>
       <r>    -8.6475     5.2358     1.6364 </r>
       <r>    -8.5933     4.0353     1.8551 </r>
       <r>    -8.5391     1.9683     1.9617 </r>
       <r>    -8.4849     0.6594     1.9975 </r>
       <r>    -8.4307     0.4594     2.0224 </r>
       <r>    -8.3765     1.0562     2.0796 </r>
       <r>    -8.3223     1.8524     2.1800 </r>
       <r>    -8.2682     2.2717     2.3031 </r>
       <r>    -8.2140     2.8147     2.4556 </r>
       <r>    -8.1598     4.0850     2.6770 </r>
       <r>    -8.1056     5.6308     2.9821 </r>
       <r>    -8.0514     7.3466     3.3802 </r>
       <r>    -7.9972     8.7199     3.8527 </r>
       <r>    -7.9430     8.3775     4.3067 </r>
       <r>    -7.8888     6.5189     4.6600 </r>
       <r>    -7.8346     4.2515     4.8904 </r>
       <r>    -7.7805     2.9052     5.0478 </r>
       <r>    -7.7263     3.9529     5.2620 </r>
       <r>    -7.6721     7.0153     5.6422 </r>
       <r>    -7.6179     9.3821     6.1506 </r>
       <r>    -7.5637     8.9390     6.6350 </r>
       <r>    -7.5095     7.3463     7.0331 </r>
       <r>    -7.4553     7.9780     7.4654 </r>
       <r>    -7.4011    11.5350     8.0905 </r>
       <r>    -7.3469    15.5481     8.9330 </r>
       <r>    -7.2927    17.3928     9.8755 </r>
       <r>    -7.2386    17.6942    10.8344 </r>
       <r>    -7.1844    19.2851    11.8794 </r>
       <r>    -7.1302    22.3971    13.0931 </r>
       <r>    -7.0760    24.5882    14.4255 </r>
       <r>    -7.0218    24.8870    15.7741 </r>
       <r>    -6.9676    24.6071    17.1076 </r>
       <r>    -6.9134    25.1247    18.4691 </r>
       <r>    -6.8592    26.2529    19.8917 </r>
       <r>    -6.8050    27.8372    21.4002 </r>
       <r>    -6.7509    31.1531    23.0884 </r>
       <r>    -6.6967    36.2421    25.0523 </r>
       <r>    -6.6425    41.2926    27.2899 </r>
       <r>    -6.5883    45.0151    29.7293 </r>
       <r>    -6.5341    47.9577    32.3281 </r>
       <r>    -6.4799    52.2514    35.1596 </r>
       <r>    -6.4257    59.3346    38.3749 </r>
       <r>    -6.3715    67.4297    42.0289 </r>
       <r>    -6.3173    73.6907    46.0221 </r>
       <r>    -6.2631    77.1435    50.2025 </r>
       <r>    -6.2090    77.9709    54.4277 </r>
       <r>    -6.1548    78.2150    58.6662 </r>
       <r>    -6.1006    79.9595    62.9991 </r>
       <r>    -6.0464    82.6189    67.4762 </r>
       <r>    -5.9922    83.8228    72.0185 </r>
       <r>    -5.9380    81.9996    76.4621 </r>
       <r>    -5.8838    78.9738    80.7416 </r>
       <r>    -5.8296    77.5000    84.9413 </r>
       <r>    -5.7754    76.4610    89.0847 </r>
       <r>    -5.7212    72.9626    93.0385 </r>
       <r>    -5.6671    68.4461    96.7476 </r>
       <r>    -5.6129    66.2996   100.3403 </r>
       <r>    -5.5587    65.8931   103.9110 </r>
       <r>    -5.5045    65.2627   107.4476 </r>
       <r>    -5.4503    64.4125   110.9381 </r>
       <r>    -5.3961    65.1524   114.4686 </r>
       <r>    -5.3419    68.5976   118.1859 </r>
       <r>    -5.2877    72.7765   122.1296 </r>
       <r>    -5.2335    75.9340   126.2445 </r>
       <r>    -5.1794    78.4433   130.4953 </r>
       <r>    -5.1252    80.6858   134.8676 </r>
       <r>    -5.0710    82.9631   139.3633 </r>
       <r>    -5.0168    85.5847   144.0011 </r>
       <r>    -4.9626    88.0013   148.7699 </r>
       <r>    -4.9084    89.3393   153.6111 </r>
       <r>    -4.8542    89.9125   158.4835 </r>
       <r>    -4.8000    90.0158   163.3614 </r>
       <r>    -4.7458    89.0906   168.1892 </r>
       <r>    -4.6916    87.4884   172.9301 </r>
       <r>    -4.6375    86.4065   177.6124 </r>
       <r>    -4.5833    86.1576   182.2813 </r>
       <r>    -4.5291    85.8861   186.9354 </r>
       <r>    -4.4749    85.4357   191.5651 </r>
       <r>    -4.4207    84.7647   196.1585 </r>
       <r>    -4.3665    83.4234   200.6792 </r>
       <r>    -4.3123    81.4611   205.0935 </r>
       <r>    -4.2581    79.1061   209.3802 </r>
       <r>    -4.2039    77.4667   213.5781 </r>
       <r>    -4.1498    78.8340   217.8501 </r>
       <r>    -4.0956    83.5208   222.3761 </r>
       <r>    -4.0414    88.9694   227.1973 </r>
       <r>    -3.9872    93.5017   232.2641 </r>
       <r>    -3.9330    96.8454   237.5121 </r>
       <r>    -3.8788    98.3187   242.8399 </r>
       <r>    -3.8246    98.2616   248.1647 </r>
       <r>    -3.7704    98.1304   253.4823 </r>
       <r>    -3.7162    97.7184   258.7776 </r>
       <r>    -3.6620    95.8331   263.9708 </r>
       <r>    -3.6079    93.7194   269.0494 </r>
       <r>    -3.5537    92.6948   274.0725 </r>
       <r>    -3.4995    91.5050   279.0311 </r>
       <r>    -3.4453    91.2864   283.9779 </r>
       <r>    -3.3911    94.4719   289.0973 </r>
       <r>    -3.3369    98.7846   294.4503 </r>
       <r>    -3.2827   100.1373   299.8767 </r>
       <r>    -3.2285    97.8332   305.1783 </r>
       <r>    -3.1743    93.7690   310.2596 </r>
       <r>    -3.1202    89.9581   315.1344 </r>
       <r>    -3.0660    88.2367   319.9159 </r>
       <r>    -3.0118    89.4246   324.7617 </r>
       <r>    -2.9576    91.5308   329.7218 </r>
       <r>    -2.9034    92.2945   334.7232 </r>
       <r>    -2.8492    92.6797   339.7454 </r>
       <r>    -2.7950    94.4773   344.8651 </r>
       <r>    -2.7408    97.8337   350.1667 </r>
       <r>    -2.6866   101.1958   355.6504 </r>
       <r>    -2.6324   102.4184   361.2004 </r>
       <r>    -2.5783   101.6578   366.7092 </r>
       <r>    -2.5241    99.8680   372.1210 </r>
       <r>    -2.4699    96.6889   377.3605 </r>
       <r>    -2.4157    93.6096   382.4332 </r>
       <r>    -2.3615    92.3272   387.4364 </r>
       <r>    -2.3073    91.3401   392.3861 </r>
       <r>    -2.2531    88.8560   397.2011 </r>
       <r>    -2.1989    86.3963   401.8829 </r>
       <r>    -2.1447    86.9900   406.5968 </r>
       <r>    -2.0905    90.3934   411.4952 </r>
       <r>    -2.0364    94.8049   416.6327 </r>
       <r>    -1.9822    99.5934   422.0296 </r>
       <r>    -1.9280   103.1329   427.6183 </r>
       <r>    -1.8738   103.7728   433.2417 </r>
       <r>    -1.8196   103.6270   438.8572 </r>
       <r>    -1.7654   106.2355   444.6141 </r>
       <r>    -1.7112   110.3888   450.5960 </r>
       <r>    -1.6570   111.9983   456.6651 </r>
       <r>    -1.6028   110.5609   462.6564 </r>
       <r>    -1.5487   107.0989   468.4600 </r>
       <r>    -1.4945   101.5251   473.9616 </r>
       <r>    -1.4403    95.8476   479.1555 </r>
       <r>    -1.3861    91.8234   484.1314 </r>
       <r>    -1.3319    88.0429   488.9024 </r>
       <r>    -1.2777    82.9403   493.3969 </r>
       <r>    -1.2235    74.9230   497.4570 </r>
       <r>    -1.1693    63.3309   500.8888 </r>
       <r>    -1.1151    50.8626   503.6451 </r>
       <r>    -1.0609    40.3604   505.8322 </r>
       <r>    -1.0068    30.4898   507.4844 </r>
       <r>    -0.9526    19.7795   508.5562 </r>
       <r>    -0.8984    11.8498   509.1984 </r>
       <r>    -0.8442     9.2242   509.6982 </r>
       <r>    -0.7900     9.4695   510.2114 </r>
       <r>    -0.7358    10.3565   510.7726 </r>
       <r>    -0.6816    11.0315   511.3704 </r>
       <r>    -0.6274    11.6019   511.9991 </r>
       <r>    -0.5732    13.9660   512.7559 </r>
       <r>    -0.5191    19.0350   513.7874 </r>
       <r>    -0.4649    24.5390   515.1171 </r>
       <r>    -0.4107    26.4490   516.5504 </r>
       <r>    -0.3565    23.9216   517.8467 </r>
       <r>    -0.3023    21.2536   518.9984 </r>
       <r>    -0.2481    20.5903   520.1142 </r>
       <r>    -0.1939    18.8878   521.1377 </r>
       <r>    -0.1397    14.7067   521.9347 </r>
       <r>    -0.0855    10.9970   522.5306 </r>
       <r>    -0.0313     9.8172   523.0626 </r>
       <r>     0.0228     9.8153   523.5945 </r>
       <r>     0.0770    10.3536   524.1555 </r>
       <r>     0.1312    12.1815   524.8156 </r>
       <r>     0.1854    13.3749   525.5404 </r>
       <r>     0.2396    12.8173   526.2350 </r>
       <r>     0.2938    13.4450   526.9636 </r>
       <r>     0.3480    16.6195   527.8642 </r>
       <r>     0.4022    20.3156   528.9651 </r>
       <r>     0.4564    21.9951   530.1570 </r>
       <r>     0.5105    22.1865   531.3592 </r>
       <r>     0.5647    23.9988   532.6597 </r>
       <r>     0.6189    27.1752   534.1323 </r>
       <r>     0.6731    27.8221   535.6400 </r>
       <r>     0.7273    25.2885   537.0104 </r>
       <r>     0.7815    22.3097   538.2193 </r>
       <r>     0.8357    18.3174   539.2119 </r>
       <r>     0.8899    12.7319   539.9019 </r>
       <r>     0.9441     8.9979   540.3895 </r>
       <r>     0.9983     8.1705   540.8322 </r>
       <r>     1.0524     8.5107   541.2934 </r>
       <r>     1.1066     8.9914   541.7807 </r>
       <r>     1.1608     8.8519   542.2603 </r>
       <r>     1.2150     8.4567   542.7186 </r>
       <r>     1.2692     8.1861   543.1622 </r>
       <r>     1.3234     7.7449   543.5819 </r>
       <r>     1.3776     7.4119   543.9836 </r>
       <r>     1.4318     7.4216   544.3857 </r>
       <r>     1.4860     8.6442   544.8541 </r>
       <r>     1.5401    12.3343   545.5225 </r>
       <r>     1.5943    16.8042   546.4331 </r>
       <r>     1.6485    18.4763   547.4344 </r>
       <r>     1.7027    16.8980   548.3501 </r>
       <r>     1.7569    15.0942   549.1680 </r>
       <r>     1.8111    15.1272   549.9877 </r>
       <r>     1.8653    15.3175   550.8178 </r>
       <r>     1.9195    13.8189   551.5666 </r>
       <r>     1.9737    11.7472   552.2032 </r>
       <r>     2.0279    11.0487   552.8019 </r>
       <r>     2.0820    12.8202   553.4967 </r>
       <r>     2.1362    16.5592   554.3940 </r>
       <r>     2.1904    19.4523   555.4481 </r>
       <r>     2.2446    20.5727   556.5629 </r>
       <r>     2.2988    22.2604   557.7692 </r>
       <r>     2.3530    24.6582   559.1054 </r>
       <r>     2.4072    25.4242   560.4832 </r>
       <r>     2.4614    23.8389   561.7750 </r>
       <r>     2.5156    21.5682   562.9437 </r>
       <r>     2.5698    20.5091   564.0551 </r>
       <r>     2.6239    21.1505   565.2013 </r>
       <r>     2.6781    21.6684   566.3755 </r>
       <r>     2.7323    19.4694   567.4305 </r>
       <r>     2.7865    14.7156   568.2279 </r>
       <r>     2.8407     9.6279   568.7497 </r>
       <r>     2.8949     6.4620   569.0998 </r>
       <r>     2.9491     5.9167   569.4205 </r>
       <r>     3.0033     5.7319   569.7311 </r>
       <r>     3.0575     4.5663   569.9785 </r>
       <r>     3.1116     4.2905   570.2110 </r>
       <r>     3.1658     5.7527   570.5227 </r>
       <r>     3.2200     7.6756   570.9387 </r>
       <r>     3.2742     9.4543   571.4510 </r>
       <r>     3.3284    10.9095   572.0422 </r>
       <r>     3.3826    11.7239   572.6775 </r>
       <r>     3.4368    12.9187   573.3776 </r>
       <r>     3.4910    15.3986   574.2120 </r>
       <r>     3.5452    18.1457   575.1953 </r>
       <r>     3.5994    19.8374   576.2703 </r>
       <r>     3.6535    19.9603   577.3519 </r>
       <r>     3.7077    18.8905   578.3756 </r>
       <r>     3.7619    16.8052   579.2863 </r>
       <r>     3.8161    13.7766   580.0328 </r>
       <r>     3.8703    10.9856   580.6281 </r>
       <r>     3.9245    10.0478   581.1726 </r>
       <r>     3.9787    12.1640   581.8318 </r>
       <r>     4.0329    15.1678   582.6537 </r>
       <r>     4.0871    14.9625   583.4645 </r>
       <r>     4.1412    12.7175   584.1537 </r>
       <r>     4.1954    11.9929   584.8036 </r>
       <r>     4.2496    11.1630   585.4085 </r>
       <r>     4.3038     8.2800   585.8572 </r>
       <r>     4.3580     6.8094   586.2262 </r>
       <r>     4.4122     9.6066   586.7467 </r>
       <r>     4.4664    14.2150   587.5170 </r>
       <r>     4.5206    17.7718   588.4801 </r>
       <r>     4.5748    21.0907   589.6230 </r>
       <r>     4.6290    25.1946   590.9883 </r>
       <r>     4.6831    27.8068   592.4951 </r>
       <r>     4.7373    26.7155   593.9428 </r>
       <r>     4.7915    23.8596   595.2357 </r>
       <r>     4.8457    23.1665   596.4911 </r>
       <r>     4.8999    25.5067   597.8733 </r>
       <r>     4.9541    28.6806   599.4275 </r>
       <r>     5.0083    31.6921   601.1449 </r>
       <r>     5.0625    34.9127   603.0368 </r>
       <r>     5.1167    36.7141   605.0263 </r>
       <r>     5.1708    34.9089   606.9180 </r>
       <r>     5.2250    30.4930   608.5704 </r>
       <r>     5.2792    25.2931   609.9410 </r>
       <r>     5.3334    19.0212   610.9718 </r>
       <r>     5.3876    11.6686   611.6041 </r>
       <r>     5.4418     5.2939   611.8910 </r>
       <r>     5.4960     1.6421   611.9800 </r>
       <r>     5.5502     0.3269   611.9977 </r>
       <r>     5.6044     0.0399   611.9998 </r>
       <r>     5.6586     0.0029   612.0000 </r>
       <r>     5.7127     0.0001   612.0000 </r>
       <r>     5.7669     0.0000   612.0000 </r>
       <r>     5.8211     0.0000   612.0000 </r>
       <r>     5.8753     0.0000   612.0000 </r>
       <r>     5.9295     0.0000   612.0000 </r>
       <r>     5.9837     0.0000   612.0000 </r>
       <r>     6.0379     0.0000   612.0000 </r>
       <r>     6.0921     0.0000   612.0000 </r>
       <r>     6.1463     0.0000   612.0000 </r>
       <r>     6.2005     0.0000   612.0000 </r>
       <r>     6.2546     0.0000   612.0000 </r>
       <r>     6.3088     0.0000   612.0000 </r>
       <r>     6.3630     0.0000   612.0000 </r>
      </set>
     </set>
    </array>
   </total>
  </dos>
 </calculation>
 <structure name="finalpos" >
  <crystal>
   <varray name="basis" >
    <v>      11.00258152       0.00000000       0.00000000 </v>
    <v>       5.50129076       9.52851510       0.00000000 </v>
    <v>       0.00000000       0.00000000      24.49178509 </v>
   </varray>
   <i name="volume">   2567.67623402 </i>
   <varray name="rec_basis" >
    <v>       0.09088776      -0.05247407       0.00000000 </v>
    <v>       0.00000000       0.10494815       0.00000000 </v>
    <v>       0.00000000       0.00000000       0.04083002 </v>
   </varray>
  </crystal>
  <varray name="positions" >
   <v>       0.08091084       0.08333552       0.39749933 </v>
   <v>       0.66826164       0.66713591       0.49975944 </v>
   <v>       0.75320658       0.25078171       0.60430090 </v>
   <v>       0.66785267       0.41531022       0.50042001 </v>
   <v>       0.83040040       0.33549197       0.39521272 </v>
   <v>       0.75170381      -0.00059317       0.60675549 </v>
   <v>       0.66843432       0.16467667       0.50046087 </v>
   <v>       0.41487351       0.91937785       0.49935185 </v>
   <v>       0.58448322       0.82975265       0.39206496 </v>
   <v>       0.41363816       0.66762581       0.50085915 </v>
   <v>       0.49838494       0.25026318       0.60283221 </v>
   <v>       0.41481249       0.41688443       0.49987040 </v>
   <v>       0.58487501       0.08325195       0.39499625 </v>
   <v>       0.66782751       0.91698183       0.50034142 </v>
   <v>       0.16223218       0.91864302       0.50111021 </v>
   <v>       0.16658688       0.41610332       0.49853154 </v>
   <v>       0.25294755       0.74807917       0.60550944 </v>
   <v>       0.75116488       0.74654438       0.60492113 </v>
   <v>       0.08038523       0.58687741       0.39857023 </v>
   <v>       0.00250679       0.74734598       0.60292566 </v>
   <v>       0.25077435       0.00245747       0.60356097 </v>
   <v>       0.33138356       0.08376012       0.39540897 </v>
   <v>       0.33240780       0.33622193       0.39378536 </v>
   <v>       0.91858829       0.41475415       0.49891081 </v>
   <v>       0.50210359       0.74859344       0.59853638 </v>
   <v>       0.83301401       0.08250149       0.40416003 </v>
   <v>       0.00125285       0.25015578       0.59565712 </v>
   <v>       0.08114091       0.33517713       0.40005649 </v>
   <v>       0.83208204       0.58438344       0.40236827 </v>
   <v>       0.91732178       0.16562077       0.49963767 </v>
   <v>       0.75191847       0.49886663       0.59821006 </v>
   <v>       0.83326893       0.83420219       0.40465784 </v>
   <v>       0.00169363       0.00078454       0.59859147 </v>
   <v>       0.91807117       0.66770608       0.50169308 </v>
   <v>       0.25162263       0.24900664       0.59431821 </v>
   <v>       0.08197220       0.83318016       0.40515669 </v>
   <v>       0.58092479       0.58410837       0.40206457 </v>
   <v>       0.91620385       0.91601910       0.50281708 </v>
   <v>       0.58216179       0.33499381       0.40224607 </v>
   <v>       0.50105300      -0.00088452       0.59635345 </v>
   <v>       0.41605774       0.16685415       0.49692130 </v>
   <v>       0.16669366       0.16611634       0.49821412 </v>
   <v>       0.33168146       0.83258661       0.40231402 </v>
   <v>       0.25081542       0.49847172       0.59731505 </v>
   <v>       0.16303818       0.66836763       0.50144891 </v>
   <v>       0.33303279       0.58562064       0.40276367 </v>
   <v>       0.00298122       0.49602756       0.59708613 </v>
   <v>       0.50125124       0.50047683       0.59945303 </v>
  </varray>
 </structure>
</modeling>
