unknown system                          
           1
    11.002582    0.000000    0.000000
     5.501291    9.528515    0.000000
     0.000000    0.000000   24.491785
   Au   Pd
  24  24
Direct configuration=     1
   0.08333333  0.08333333  0.40830017
   0.66666667  0.66666667  0.50000000
   0.75000000  0.25000000  0.59169983
   0.66666667  0.41666667  0.50000000
   0.83333333  0.33333333  0.40830017
   0.75000000  0.00000000  0.59169983
   0.66666667  0.16666667  0.50000000
   0.41666667  0.91666667  0.50000000
   0.58333333  0.83333333  0.40830017
   0.41666667  0.66666667  0.50000000
   0.50000000  0.25000000  0.59169983
   0.41666667  0.41666667  0.50000000
   0.58333333  0.08333333  0.40830017
   0.66666667  0.91666667  0.50000000
   0.16666667  0.91666667  0.50000000
   0.16666667  0.41666667  0.50000000
   0.25000000  0.75000000  0.59169983
   0.75000000  0.75000000  0.59169983
   0.08333333  0.58333333  0.40830017
   0.00000000  0.75000000  0.59169983
   0.25000000  0.00000000  0.59169983
   0.33333333  0.08333333  0.40830017
   0.33333333  0.33333333  0.40830017
   0.91666667  0.41666667  0.50000000
   0.50000000  0.75000000  0.59169983
   0.83333333  0.08333333  0.40830017
   0.00000000  0.25000000  0.59169983
   0.08333333  0.33333333  0.40830017
   0.83333333  0.58333333  0.40830017
   0.91666667  0.16666667  0.50000000
   0.75000000  0.50000000  0.59169983
   0.83333333  0.83333333  0.40830017
   0.00000000  0.00000000  0.59169983
   0.91666667  0.66666667  0.50000000
   0.25000000  0.25000000  0.59169983
   0.08333333  0.83333333  0.40830017
   0.58333333  0.58333333  0.40830017
   0.91666667  0.91666667  0.50000000
   0.58333333  0.33333333  0.40830017
   0.50000000  0.00000000  0.59169983
   0.41666667  0.16666667  0.50000000
   0.16666667  0.16666667  0.50000000
   0.33333333  0.83333333  0.40830017
   0.25000000  0.50000000  0.59169983
   0.16666667  0.66666667  0.50000000
   0.33333333  0.58333333  0.40830017
   0.00000000  0.50000000  0.59169983
   0.50000000  0.50000000  0.59169983
Direct configuration=     2
   0.08304776  0.08312586  0.40646224
   0.66772166  0.66548780  0.50000959
   0.75134437  0.25040492  0.59388426
   0.66657901  0.41685251  0.49995469
   0.83299022  0.33357102  0.40614404
   0.75051935 -0.00024452  0.59392508
   0.66810570  0.16602482  0.49923958
   0.41607442  0.91771187  0.50041542
   0.58419728  0.83167247  0.40574796
   0.41639385  0.66617024  0.49959942
   0.49822371  0.25045640  0.59389878
   0.41571007  0.41781579  0.49999837
   0.58428172  0.08359426  0.40610086
   0.66763459  0.91664505  0.49999297
   0.16438389  0.91724465  0.49959537
   0.16617806  0.41630625  0.50073275
   0.25043748  0.74906474  0.59391489
   0.74987080  0.74900385  0.59389249
   0.08231992  0.58473953  0.40648229
   0.00068295  0.74926146  0.59327963
   0.24968378  0.00145847  0.59382905
   0.33225808  0.08386025  0.40633750
   0.33354298  0.33362471  0.40610685
   0.91797562  0.41611792  0.50037896
   0.50053761  0.74946378  0.59321241
   0.83365466  0.08275399  0.40734744
  -0.00010444  0.25020271  0.59263436
   0.08296624  0.33347902  0.40706757
   0.83333818  0.58348646  0.40704214
   0.91760492  0.16556041  0.50020979
   0.75010052  0.49992210  0.59311156
   0.83436900  0.83301749  0.40736256
  -0.00023920  0.00070459  0.59270267
   0.91729486  0.66692675  0.49976845
   0.24989872  0.25004635  0.59265165
   0.08319772  0.83290402  0.40745317
   0.58285605  0.58339013  0.40689058
   0.91749999  0.91629974  0.49948161
   0.58328434  0.33378762  0.40688651
   0.49922637  0.00033568  0.59296470
   0.41559591  0.16663288  0.50048208
   0.16612870  0.16774996  0.50032742
   0.33325039  0.83240425  0.40686509
   0.24977307  0.49989683  0.59284319
   0.16576652  0.66711149  0.49975504
   0.33364592  0.58393756  0.40706050
   0.00036187  0.49932152  0.59275475
   0.49983481  0.50069433  0.59320172
Direct configuration=     3
   0.08219104  0.08250345  0.40094845
   0.67088662  0.66195119  0.50003836
   0.75537748  0.25161968  0.60043753
   0.66631605  0.41741006  0.49981876
   0.83196089  0.33428409  0.39967566
   0.75207739 -0.00097809  0.60060082
   0.67242281  0.16409930  0.49695832
   0.41429769  0.92084749  0.50166169
   0.58678914  0.82668987  0.39809133
   0.41557538  0.66468096  0.49839766
   0.49289486  0.25182560  0.60049562
   0.41284030  0.42126318  0.49999347
   0.58712687  0.08437704  0.39950292
   0.67053836  0.91658021  0.49997188
   0.15753556  0.91897860  0.49838150
   0.16471222  0.41522500  0.50293102
   0.25174994  0.74625894  0.60056008
   0.74948319  0.74601541  0.60047048
   0.07927966  0.58895814  0.40102866
   0.00273181  0.74704584  0.59801902
   0.24873511  0.00583390  0.60021673
   0.32903232  0.08544100  0.40044949
   0.33417191  0.33449883  0.39952688
   0.92190250  0.41447167  0.50151583
   0.50215043  0.74785510  0.59775013
   0.83461864  0.08101596  0.40448923
  -0.00041774  0.25081085  0.59543794
   0.08186494  0.33391609  0.40336976
   0.83335274  0.58394586  0.40326807
   0.92041967  0.16224164  0.50083916
   0.75040206  0.49968841  0.59734675
   0.83747599  0.83206998  0.40454973
  -0.00095678  0.00281836  0.59571119
   0.91917943  0.66770700  0.49907382
   0.24959487  0.25018542  0.59550713
   0.08279087  0.83161607  0.40491218
   0.58142419  0.58356051  0.40266180
   0.91999995  0.91519895  0.49792643
   0.58313734  0.33515046  0.40264553
   0.49690549  0.00134271  0.59675932
   0.41238362  0.16653151  0.50192833
   0.16451482  0.17099982  0.50130969
   0.33300157  0.82961702  0.40255984
   0.24909229  0.49958732  0.59627325
   0.16306607  0.66844596  0.49902015
   0.33458370  0.58575023  0.40334149
   0.00144748  0.49728610  0.59591950
   0.49933924  0.50277732  0.59770740
Direct configuration=     4
   0.08193744  0.08265463  0.39960959
   0.67003905  0.66457417  0.49997355
   0.75277423  0.25193936  0.60165282
   0.66843637  0.41479038  0.49996379
   0.83194453  0.33450001  0.39852423
   0.75107899 -0.00002506  0.60174296
   0.67007440  0.16556421  0.49789651
   0.41421860  0.91889886  0.50121922
   0.58576108  0.82848407  0.39676639
   0.41387522  0.66868157  0.49894139
   0.49561326  0.25159294  0.60156050
   0.41348687  0.41790352  0.50003586
   0.58607322  0.08314327  0.39807683
   0.66956132  0.91638390  0.50009775
   0.16241873  0.91780952  0.49898378
   0.16661341  0.41678600  0.50183173
   0.25195268  0.74799836  0.60167780
   0.74979522  0.74665257  0.60174007
   0.08132886  0.58613162  0.39974426
   0.00177187  0.74754991  0.59898479
   0.24839667  0.00400144  0.60159662
   0.33092817  0.08399004  0.39946967
   0.33316194  0.33551994  0.39848718
   0.91899570  0.41473156  0.50086460
   0.50099105  0.74846302  0.59833279
   0.83537483  0.08138995  0.40318732
  -0.00008560  0.25120442  0.59655865
   0.08152663  0.33502875  0.40273560
   0.83372099  0.58298530  0.40260084
   0.91859986  0.16525888  0.50054169
   0.75046056  0.49953648  0.59830484
   0.83545228  0.83320456  0.40354669
   0.00052663  0.00142157  0.59650871
   0.91879598  0.66784915  0.49944404
   0.24874354  0.25066081  0.59697625
   0.08358553  0.83170766  0.40343975
   0.58200621  0.58301672  0.40164168
   0.91789654  0.91493735  0.49882309
   0.58291420  0.33570899  0.40176046
   0.49866686  0.00015574  0.59770072
   0.41463983  0.16726673  0.50118402
   0.16542035  0.16769208  0.50080742
   0.33280923  0.83085702  0.40192274
   0.24924532  0.49959700  0.59720598
   0.16328200  0.66766016  0.49932088
   0.33410501  0.58499504  0.40215991
   0.00091585  0.49766133  0.59729587
   0.50016848  0.50148451  0.59855813
Direct configuration=     5
   0.08185953  0.08270109  0.39919823
   0.66977864  0.66538006  0.49995364
   0.75197439  0.25203758  0.60202621
   0.66908782  0.41398550  0.50000835
   0.83193951  0.33456636  0.39817046
   0.75077223  0.00026776  0.60209388
   0.66935286  0.16601429  0.49818476
   0.41419430  0.91830015  0.50108328
   0.58544521  0.82903533  0.39635931
   0.41335285  0.66991074  0.49910845
   0.49644848  0.25152146  0.60188768
   0.41368552  0.41687128  0.50004889
   0.58574949  0.08276420  0.39763867
   0.66926113  0.91632358  0.50013643
   0.16391906  0.91745033  0.49916883
   0.16719754  0.41726561  0.50149398
   0.25201498  0.74853279  0.60202121
   0.74989109  0.74684833  0.60213015
   0.08195847  0.58526319  0.39934964
   0.00147693  0.74770478  0.59928152
   0.24829268  0.00343843  0.60202058
   0.33151066  0.08354423  0.39916862
   0.33285163  0.33583367  0.39816774
   0.91810260  0.41481141  0.50066451
   0.50063483  0.74864980  0.59851181
   0.83560717  0.08150486  0.40278732
   0.00001645  0.25132534  0.59690298
   0.08142268  0.33537061  0.40254076
   0.83383413  0.58269017  0.40239584
   0.91804074  0.16618591  0.50045030
   0.75047853  0.49948980  0.59859921
   0.83483050  0.83355316  0.40323851
   0.00098240  0.00099242  0.59675374
   0.91867817  0.66789282  0.49955778
   0.24848198  0.25080687  0.59742764
   0.08382969  0.83173580  0.40298735
   0.58218503  0.58284964  0.40132825
   0.91725028  0.91485697  0.49909859
   0.58284564  0.33588059  0.40148853
   0.49920803 -0.00020895  0.59798996
   0.41533304  0.16749262  0.50095534
   0.16569857  0.16667580  0.50065310
   0.33275014  0.83123800  0.40172699
   0.24929234  0.49959997  0.59749256
   0.16334834  0.66741873  0.49941328
   0.33395794  0.58476301  0.40179688
   0.00075251  0.49777662  0.59771875
   0.50042326  0.50108730  0.59881951
Direct configuration=     6
   0.08209535  0.08292965  0.39864426
   0.66885090  0.66633669  0.49988927
   0.75140965  0.25153389  0.60258919
   0.66748756  0.41528288  0.50008633
   0.83203013  0.33453278  0.39757300
   0.75056375  0.00060239  0.60261166
   0.66864063  0.16553072  0.49859124
   0.41530017  0.91884506  0.50087123
   0.58506070  0.82955236  0.39573908
   0.41450028  0.66773757  0.49939079
   0.49748081  0.25121681  0.60234082
   0.41529491  0.41710432  0.50003382
   0.58522032  0.08285891  0.39706073
   0.66782484  0.91690043  0.50021127
   0.16307686  0.91798250  0.49943726
   0.16624954  0.41679875  0.50098615
   0.25189259  0.74877894  0.60252819
   0.74986736  0.74727197  0.60272279
   0.08201735  0.58500526  0.39879097
   0.00111652  0.74819457  0.59971489
   0.24870235  0.00283366  0.60269845
   0.33213822  0.08333536  0.39883767
   0.33303877  0.33528691  0.39764640
   0.91853175  0.41513751  0.50041260
   0.50051424  0.74884784  0.59864716
   0.83512722  0.08183052  0.40244472
  -0.00016197  0.25149150  0.59730250
   0.08176862  0.33510301  0.40242975
   0.83362867  0.58278888  0.40222622
   0.91809796  0.16559318  0.50022965
   0.75032174  0.49963455  0.59887944
   0.83438108  0.83357350  0.40281827
   0.00106936  0.00067628  0.59692277
   0.91853325  0.66730455  0.49979259
   0.24869950  0.25072358  0.59776185
   0.08396614  0.83181555  0.40257316
   0.58222855  0.58299125  0.40119640
   0.91710558  0.91558680  0.49961629
   0.58275558  0.33550075  0.40127860
   0.49959456 -0.00046801  0.59812005
   0.41629013  0.16660053  0.50055111
   0.16636081  0.16624646  0.50041295
   0.33283050  0.83182982  0.40140943
   0.24959862  0.49966391  0.59789237
   0.16381615  0.66783395  0.49957883
   0.33403413  0.58461744  0.40152539
   0.00067429  0.49773415  0.59811326
   0.50037396  0.50089010  0.59886919
Direct configuration=     7
   0.08214729  0.08297998  0.39852225
   0.66864658  0.66654738  0.49987510
   0.75128528  0.25142295  0.60271319
   0.66713512  0.41556862  0.50010350
   0.83205008  0.33452539  0.39744141
   0.75051783  0.00067609  0.60272570
   0.66848377  0.16542422  0.49868077
   0.41554373  0.91896508  0.50082453
   0.58497602  0.82966623  0.39560248
   0.41475299  0.66725894  0.49945297
   0.49770818  0.25114971  0.60244062
   0.41564937  0.41715564  0.50003050
   0.58510378  0.08287977  0.39693344
   0.66750851  0.91702748  0.50022776
   0.16289138  0.91809970  0.49949638
   0.16604075  0.41669593  0.50087431
   0.25186564  0.74883316  0.60263984
   0.74986213  0.74736527  0.60285332
   0.08203032  0.58494845  0.39866793
   0.00103714  0.74830244  0.59981034
   0.24879258  0.00270047  0.60284774
   0.33227644  0.08328936  0.39876478
   0.33307999  0.33516650  0.39753158
   0.91862627  0.41520934  0.50035711
   0.50048768  0.74889146  0.59867697
   0.83502151  0.08190225  0.40236926
  -0.00020126  0.25152809  0.59739050
   0.08184481  0.33504407  0.40240530
   0.83358342  0.58281063  0.40218886
   0.91811056  0.16546264  0.50018105
   0.75028721  0.49966643  0.59894116
   0.83428209  0.83357798  0.40272571
   0.00108852  0.00060666  0.59695999
   0.91850133  0.66717498  0.49984430
   0.24874741  0.25070524  0.59783546
   0.08399619  0.83183312  0.40248193
   0.58223814  0.58302244  0.40116736
   0.91707371  0.91574754  0.49973031
   0.58273574  0.33541709  0.40123236
   0.49967969 -0.00052507  0.59814871
   0.41650092  0.16640406  0.50046209
   0.16650666  0.16615190  0.50036006
   0.33284820  0.83196016  0.40133949
   0.24966608  0.49967800  0.59798042
   0.16391918  0.66792540  0.49961530
   0.33405091  0.58458538  0.40146560
   0.00065706  0.49772480  0.59820015
   0.50036310  0.50084667  0.59888013
Direct configuration=     8
   0.08233366  0.08303347  0.39822399
   0.66846496  0.66649115  0.49984321
   0.75179388  0.25121026  0.60302859
   0.66746611  0.41587444  0.50013646
   0.83195658  0.33452383  0.39710753
   0.75068013  0.00042104  0.60314460
   0.66878419  0.16491443  0.49877945
   0.41537951  0.91905787  0.50070748
   0.58506820  0.82946763  0.39509663
   0.41476169  0.66707030  0.49952106
   0.49734845  0.25111604  0.60270322
   0.41526705  0.41730625  0.50001556
   0.58527117  0.08311403  0.39654375
   0.66793292  0.91689793  0.50021372
   0.16270941  0.91805289  0.49952957
   0.16652339  0.41603886  0.50076972
   0.25179964  0.74855513  0.60298118
   0.74982709  0.74744690  0.60322248
   0.08163614  0.58551732  0.39840702
   0.00108116  0.74835082  0.60006655
   0.24915157  0.00282585  0.60323886
   0.33213981  0.08347122  0.39852131
   0.33332785  0.33484645  0.39721739
   0.91850127  0.41510089  0.50033891
   0.50069746  0.74889671  0.59867296
   0.83444451  0.08201558  0.40238416
  -0.00046211  0.25147402  0.59742886
   0.08215800  0.33456682  0.40229267
   0.83325586  0.58316168  0.40214922
   0.91771047  0.16551951  0.50002367
   0.75020278  0.49968202  0.59893543
   0.83438112  0.83342840  0.40269025
   0.00083544  0.00089959  0.59707308
   0.91826420  0.66743462  0.49998379
   0.24929352  0.25051740  0.59772171
   0.08380726  0.83193591  0.40247061
   0.58214390  0.58327970  0.40118979
   0.91686506  0.91596591  0.49990286
   0.58286427  0.33490884  0.40120497
   0.49945782 -0.00027219  0.59815037
   0.41607845  0.16684109  0.50029256
   0.16685459  0.16617444  0.50033826
   0.33292634  0.83198068  0.40136633
   0.24983900  0.49950236  0.59799678
   0.16403752  0.66799779  0.49969929
   0.33414517  0.58472526  0.40143939
   0.00085289  0.49759456  0.59829345
   0.50014065  0.50106432  0.59894133
Direct configuration=     9
   0.08247421  0.08307380  0.39799907
   0.66832800  0.66644875  0.49981917
   0.75217742  0.25104987  0.60326644
   0.66771571  0.41610505  0.50016132
   0.83188608  0.33452266  0.39685575
   0.75080253  0.00022870  0.60346049
   0.66901073  0.16453000  0.49885386
   0.41525568  0.91912784  0.50061920
   0.58513772  0.82931787  0.39471517
   0.41476826  0.66692805  0.49957240
   0.49707719  0.25109065  0.60290124
   0.41497875  0.41741983  0.50000430
   0.58539740  0.08329067  0.39624988
   0.66825296  0.91680024  0.50020314
   0.16257219  0.91801760  0.49955461
   0.16688734  0.41554336  0.50069084
   0.25174988  0.74834547  0.60323857
   0.74980066  0.74750846  0.60350086
   0.08133889  0.58594630  0.39821026
   0.00111436  0.74838730  0.60025976
   0.24942228  0.00292040  0.60353379
   0.33203678  0.08360836  0.39833771
   0.33351477  0.33460511  0.39698046
   0.91840701  0.41501911  0.50032518
   0.50085565  0.74890066  0.59866994
   0.83400940  0.08210104  0.40239539
  -0.00065882  0.25143324  0.59745779
   0.08239418  0.33420693  0.40220775
   0.83300885  0.58342640  0.40211933
   0.91740876  0.16556240  0.49990500
   0.75013912  0.49969378  0.59893111
   0.83445579  0.83331561  0.40266351
   0.00064459  0.00112048  0.59715836
   0.91808539  0.66763041  0.50008899
   0.24970533  0.25037575  0.59763593
   0.08366480  0.83201342  0.40246206
   0.58207283  0.58347369  0.40120671
   0.91670772  0.91613058  0.50003298
   0.58296119  0.33452557  0.40118431
   0.49929051 -0.00008151  0.59815163
   0.41575987  0.16717064  0.50016472
   0.16711696  0.16619144  0.50032181
   0.33298527  0.83199616  0.40138658
   0.24996939  0.49936990  0.59800912
   0.16412676  0.66805237  0.49976263
   0.33421626  0.58483074  0.40141962
   0.00100056  0.49749634  0.59836380
   0.49997290  0.50122845  0.59898747
Direct configuration=    10
   0.08228444  0.08293894  0.39776117
   0.66833785  0.66670497  0.49980291
   0.75219052  0.25113687  0.60355306
   0.66802404  0.41552517  0.50016953
   0.83170897  0.33461963  0.39654273
   0.75076752  0.00011884  0.60399522
   0.66880254  0.16498013  0.49900460
   0.41504508  0.91903120  0.50051295
   0.58518222  0.82943223  0.39412168
   0.41431902  0.66748230  0.49964780
   0.49714459  0.25103011  0.60312905
   0.41495775  0.41716371  0.49995545
   0.58560902  0.08296664  0.39582956
   0.66841208  0.91656860  0.50015665
   0.16258116  0.91813184  0.49959032
   0.16673186  0.41584913  0.50060022
   0.25170126  0.74842991  0.60361020
   0.74981445  0.74744765  0.60387040
   0.08125875  0.58607004  0.39806658
   0.00131202  0.74817534  0.60051813
   0.24951757  0.00299206  0.60387577
   0.33221948  0.08347080  0.39802736
   0.33338208  0.33499291  0.39663772
   0.91869507  0.41480150  0.50030986
   0.50090960  0.74897749  0.59861602
   0.83392507  0.08201960  0.40247966
  -0.00045494  0.25122985  0.59733205
   0.08231942  0.33428069  0.40207661
   0.83294096  0.58350083  0.40215119
   0.91731282  0.16568349  0.49970730
   0.75014632  0.49973018  0.59887828
   0.83440136  0.83337815  0.40274098
   0.00077761  0.00129585  0.59725838
   0.91831182  0.66755799  0.50026607
   0.24989219  0.25024392  0.59741055
   0.08337064  0.83237208  0.40260877
   0.58198208  0.58342970  0.40127023
   0.91687754  0.91587050  0.50017690
   0.58305237  0.33448176  0.40128932
   0.49931257  0.00001052  0.59802238
   0.41585007  0.16722022  0.49996393
   0.16695699  0.16605992  0.50038513
   0.33293800  0.83198929  0.40152859
   0.24992080  0.49922749  0.59791587
   0.16371484  0.66799568  0.49982738
   0.33425127  0.58488539  0.40147096
   0.00127273  0.49733926  0.59829083
   0.50001853  0.50115961  0.59904369
Direct configuration=    11
   0.08213204  0.08283065  0.39757012
   0.66834576  0.66691074  0.49978986
   0.75220104  0.25120674  0.60378324
   0.66827165  0.41505949  0.50017613
   0.83156675  0.33469750  0.39629136
   0.75073941  0.00003061  0.60442465
   0.66863535  0.16534161  0.49912566
   0.41487596  0.91895359  0.50042761
   0.58521796  0.82952407  0.39364507
   0.41395826  0.66792739  0.49970835
   0.49719872  0.25098149  0.60331200
   0.41494089  0.41695803  0.49991622
   0.58577896  0.08270643  0.39549201
   0.66853986  0.91638258  0.50011932
   0.16258836  0.91822359  0.49961899
   0.16660701  0.41609469  0.50052744
   0.25166221  0.74849772  0.60390863
   0.74982553  0.74739881  0.60416715
   0.08119439  0.58616942  0.39795120
   0.00147075  0.74800512  0.60072561
   0.24959409  0.00304961  0.60415040
   0.33236621  0.08336033  0.39777813
   0.33327553  0.33530433  0.39636249
   0.91892640  0.41462675  0.50029755
   0.50095293  0.74903920  0.59857273
   0.83385735  0.08195421  0.40254733
  -0.00029122  0.25106651  0.59723108
   0.08225938  0.33433992  0.40197130
   0.83288645  0.58356060  0.40217677
   0.91723577  0.16578073  0.49954853
   0.75015209  0.49975941  0.59883586
   0.83435766  0.83342838  0.40280319
   0.00088444  0.00143668  0.59733871
   0.91849366  0.66749983  0.50040828
   0.25004225  0.25013805  0.59722956
   0.08313441  0.83266010  0.40272658
   0.58190921  0.58339438  0.40132124
   0.91701392  0.91566164  0.50029248
   0.58312560  0.33444658  0.40137366
   0.49933028  0.00008443  0.59791859
   0.41592251  0.16726003  0.49980269
   0.16682853  0.16595430  0.50043597
   0.33290003  0.83198378  0.40164264
   0.24988177  0.49911312  0.59784098
   0.16338404  0.66795015  0.49987939
   0.33427938  0.58492927  0.40151219
   0.00149129  0.49721312  0.59823223
   0.50005517  0.50110433  0.59908884
Direct configuration=    12
   0.08207956  0.08279335  0.39750433
   0.66834848  0.66698160  0.49978537
   0.75220467  0.25123081  0.60386250
   0.66835692  0.41489912  0.50017840
   0.83151777  0.33472431  0.39620479
   0.75072973  0.00000023  0.60457252
   0.66857778  0.16546609  0.49916734
   0.41481772  0.91892686  0.50039823
   0.58523027  0.82955570  0.39348094
   0.41383403  0.66808067  0.49972920
   0.49721736  0.25096474  0.60337500
   0.41493508  0.41688720  0.49990271
   0.58583749  0.08261682  0.39537577
   0.66858386  0.91631853  0.50010646
   0.16259084  0.91825518  0.49962887
   0.16656401  0.41617925  0.50050238
   0.25164877  0.74852108  0.60401140
   0.74982935  0.74738200  0.60426935
   0.08117223  0.58620364  0.39791147
   0.00152541  0.74794650  0.60079706
   0.24962044  0.00306943  0.60424497
   0.33241673  0.08332229  0.39769231
   0.33323883  0.33541157  0.39626771
   0.91900606  0.41456657  0.50029332
   0.50096785  0.74906045  0.59855782
   0.83383403  0.08193169  0.40257063
  -0.00023483  0.25101026  0.59719631
   0.08223871  0.33436032  0.40193503
   0.83286767  0.58358118  0.40218558
   0.91720924  0.16581422  0.49949386
   0.75015408  0.49976948  0.59882125
   0.83434261  0.83344568  0.40282462
   0.00092122  0.00148518  0.59736637
   0.91855628  0.66747980  0.50045725
   0.25009392  0.25010160  0.59716723
   0.08305306  0.83275929  0.40276716
   0.58188411  0.58338221  0.40133880
   0.91706089  0.91558971  0.50033229
   0.58315082  0.33443447  0.40140270
   0.49933638  0.00010988  0.59788284
   0.41594746  0.16727374  0.49974716
   0.16678429  0.16591793  0.50045348
   0.33288696  0.83198188  0.40168191
   0.24986833  0.49907373  0.59781520
   0.16327012  0.66793448  0.49989729
   0.33428907  0.58494438  0.40152639
   0.00156656  0.49716968  0.59821206
   0.50006779  0.50108529  0.59910439
Direct configuration=    13
   0.08185492  0.08288190  0.39730357
   0.66861895  0.66672162  0.49973595
   0.75201992  0.25126917  0.60416506
   0.66796760  0.41528838  0.50021860
   0.83141723  0.33490520  0.39585798
   0.75086158 -0.00003765  0.60515653
   0.66851776  0.16502908  0.49941078
   0.41488716  0.91932018  0.50029153
   0.58524834  0.82949933  0.39279280
   0.41378464  0.66763567  0.49993013
   0.49768310  0.25090084  0.60357724
   0.41499567  0.41723539  0.49987389
   0.58575675  0.08251239  0.39498236
   0.66828800  0.91676027  0.50008666
   0.16215274  0.91857623  0.49980196
   0.16633597  0.41639787  0.50023992
   0.25176562  0.74874448  0.60439253
   0.74997476  0.74725241  0.60465025
   0.08121533  0.58615024  0.39784675
   0.00154368  0.74797180  0.60114014
   0.24965626  0.00291082  0.60456489
   0.33238689  0.08338331  0.39735768
   0.33309968  0.33578978  0.39584607
   0.91895605  0.41471685  0.50017080
   0.50081961  0.74916944  0.59847585
   0.83391651  0.08187066  0.40275189
   0.00007461  0.25087782  0.59697347
   0.08203856  0.33454962  0.40181821
   0.83290677  0.58349968  0.40232697
   0.91760023  0.16550113  0.49929038
   0.75035733  0.49975485  0.59866947
   0.83426754  0.83348449  0.40299688
   0.00110279  0.00136388  0.59739173
   0.91859865  0.66728655  0.50069364
   0.25009424  0.24996751  0.59681253
   0.08289109  0.83284732  0.40305584
   0.58185345  0.58339765  0.40152062
   0.91690950  0.91569146  0.50063039
   0.58306588  0.33452850  0.40157728
   0.49969144 -0.00011298  0.59757525
   0.41635299  0.16664068  0.49936701
   0.16663862  0.16576945  0.50038961
   0.33276389  0.83207729  0.40179586
   0.24996753  0.49901747  0.59766965
   0.16322484  0.66793406  0.49998551
   0.33408175  0.58507534  0.40169751
   0.00163588  0.49701783  0.59808001
   0.50015770  0.50097476  0.59906039
Direct configuration=    14
   0.08181226  0.08289872  0.39726544
   0.66867031  0.66667225  0.49972656
   0.75198484  0.25127645  0.60422251
   0.66789367  0.41536230  0.50022624
   0.83139814  0.33493955  0.39579213
   0.75088662 -0.00004484  0.60526744
   0.66850637  0.16494609  0.49945701
   0.41490035  0.91939487  0.50027127
   0.58525178  0.82948863  0.39266212
   0.41377526  0.66755116  0.49996829
   0.49777154  0.25088870  0.60361564
   0.41500717  0.41730151  0.49986841
   0.58574142  0.08249256  0.39490765
   0.66823182  0.91684416  0.50008290
   0.16206955  0.91863720  0.49983483
   0.16629267  0.41643938  0.50019008
   0.25178781  0.74878690  0.60446491
   0.75000237  0.74722780  0.60472258
   0.08122351  0.58614010  0.39783445
   0.00154715  0.74797661  0.60120528
   0.24966306  0.00288070  0.60462565
   0.33238123  0.08339490  0.39729413
   0.33307325  0.33586160  0.39576600
   0.91894655  0.41474538  0.50014753
   0.50079145  0.74919014  0.59846028
   0.83393217  0.08185907  0.40278631
   0.00013337  0.25085267  0.59693115
   0.08200055  0.33458557  0.40179603
   0.83291420  0.58348420  0.40235382
   0.91767448  0.16544168  0.49925174
   0.75039592  0.49975207  0.59864065
   0.83425328  0.83349186  0.40302959
   0.00113727  0.00134085  0.59739654
   0.91860669  0.66724985  0.50073853
   0.25009429  0.24994205  0.59674518
   0.08286033  0.83286404  0.40311066
   0.58184763  0.58340058  0.40155514
   0.91688075  0.91571078  0.50068700
   0.58304975  0.33454636  0.40161043
   0.49975886 -0.00015530  0.59751684
   0.41643000  0.16652046  0.49929482
   0.16661096  0.16574125  0.50037749
   0.33274052  0.83209540  0.40181750
   0.24998636  0.49900678  0.59764201
   0.16321624  0.66793398  0.50000226
   0.33404238  0.58510020  0.40173000
   0.00164904  0.49698899  0.59805494
   0.50017478  0.50095377  0.59905204
Direct configuration=    15
   0.08186368  0.08312703  0.39718913
   0.66855498  0.66685194  0.49969149
   0.75214023  0.25118094  0.60432228
   0.66787307  0.41547129  0.50028312
   0.83132552  0.33505258  0.39558388
   0.75118566 -0.00013689  0.60561394
   0.66870003  0.16458010  0.49965479
   0.41508442  0.91923990  0.50015526
   0.58526284  0.82915086  0.39227226
   0.41375838  0.66763014  0.50017920
   0.49791202  0.25081928  0.60363533
   0.41495734  0.41711178  0.49988465
   0.58550323  0.08283798  0.39474254
   0.66821487  0.91681149  0.50007159
   0.16224903  0.91838235  0.50003933
   0.16680802  0.41588195  0.49988028
   0.25192149  0.74877654  0.60466732
   0.75015705  0.74712075  0.60489726
   0.08113847  0.58617742  0.39788551
   0.00153845  0.74811668  0.60145051
   0.24982814  0.00270727  0.60474277
   0.33199389  0.08369756  0.39708604
   0.33313884  0.33574531  0.39546448
   0.91860770  0.41471617  0.49995816
   0.50082941  0.74916306  0.59837813
   0.83382601  0.08200821  0.40299226
   0.00008040  0.25084496  0.59672733
   0.08196476  0.33455434  0.40171632
   0.83292878  0.58352200  0.40246940
   0.91744597  0.16562724  0.49918532
   0.75064499  0.49959895  0.59851188
   0.83420257  0.83342613  0.40324931
   0.00103370  0.00122398  0.59741342
   0.91820887  0.66756670  0.50092510
   0.25033381  0.24980220  0.59640656
   0.08290483  0.83262440  0.40340345
   0.58180757  0.58359699  0.40173214
   0.91642276  0.91592049  0.50102552
   0.58295468  0.33451255  0.40177276
   0.50006579 -0.00035599  0.59726702
   0.41624345  0.16671368  0.49890329
   0.16669519  0.16584108  0.50013494
   0.33262890  0.83225652  0.40191991
   0.25019913  0.49904107  0.59750140
   0.16331551  0.66820197  0.50012390
   0.33375782  0.58530439  0.40189157
   0.00158908  0.49694033  0.59797084
   0.50019867  0.50101433  0.59902714
Direct configuration=    16
   0.08188124  0.08320498  0.39716307
   0.66851561  0.66691329  0.49967952
   0.75219329  0.25114833  0.60435634
   0.66786604  0.41550851  0.50030254
   0.83130072  0.33509117  0.39551277
   0.75128777 -0.00016833  0.60573226
   0.66876615  0.16445514  0.49972232
   0.41514727  0.91918698  0.50011565
   0.58526662  0.82903553  0.39213915
   0.41375261  0.66765710  0.50025122
   0.49795999  0.25079558  0.60364205
   0.41494032  0.41704700  0.49989019
   0.58542191  0.08295592  0.39468617
   0.66820908  0.91680033  0.50006773
   0.16231031  0.91829534  0.50010916
   0.16698399  0.41569161  0.49977450
   0.25196714  0.74877300  0.60473643
   0.75020987  0.74708419  0.60495690
   0.08110944  0.58619016  0.39790294
   0.00153548  0.74816450  0.60153424
   0.24988450  0.00264806  0.60478276
   0.33186164  0.08380091  0.39701499
   0.33316123  0.33570560  0.39536152
   0.91849200  0.41470620  0.49989350
   0.50084238  0.74915381  0.59835007
   0.83378977  0.08205913  0.40306258
   0.00006232  0.25084233  0.59665774
   0.08195254  0.33454368  0.40168910
   0.83293375  0.58353490  0.40250887
   0.91736795  0.16569060  0.49916264
   0.75073003  0.49954667  0.59846791
   0.83418525  0.83340369  0.40332433
   0.00099833  0.00118408  0.59741918
   0.91807303  0.66767489  0.50098881
   0.25041559  0.24975445  0.59629094
   0.08292003  0.83254258  0.40350342
   0.58179389  0.58366405  0.40179258
   0.91626638  0.91599210  0.50114110
   0.58292222  0.33450100  0.40182818
   0.50017059 -0.00042451  0.59718172
   0.41617975  0.16677965  0.49876960
   0.16672394  0.16587517  0.50005212
   0.33259078  0.83231153  0.40195487
   0.25027178  0.49905278  0.59745339
   0.16334941  0.66829348  0.50016544
   0.33366065  0.58537410  0.40194674
   0.00156860  0.49692372  0.59794213
   0.50020682  0.50103501  0.59901864
Direct configuration=    17
   0.08182446  0.08319424  0.39720986
   0.66820282  0.66730809  0.49968292
   0.75243511  0.25113671  0.60433851
   0.66778837  0.41526554  0.50034326