  48  48   0   0
  0.5349325E+02  0.1100258E-08  0.1100258E-08  0.2449179E-08  0.3500000E-15
  1.000000000000000E-004
  CAR 
 unknown system                          
      6.31811399    -10.06561477  301     -1.08010320      1.00000000
    -10.066  0.0000E+00  0.0000E+00
    -10.011  0.0000E+00  0.0000E+00
     -9.956  0.0000E+00  0.0000E+00
     -9.902  0.0000E+00  0.0000E+00
     -9.847  0.0000E+00  0.0000E+00
     -9.793  0.0000E+00  0.0000E+00
     -9.738  0.0000E+00  0.0000E+00
     -9.683  0.0000E+00  0.0000E+00
     -9.629  0.1152E-16  0.6291E-18
     -9.574  0.4654E-14  0.2548E-15
     -9.519  0.1035E-11  0.5678E-13
     -9.465  0.1293E-09  0.7120E-11
     -9.410  0.9108E-08  0.5045E-09
     -9.356  0.3626E-06  0.2031E-07
     -9.301  0.8192E-05  0.4677E-06
     -9.246  0.1054E-03  0.6222E-05
     -9.192  0.7739E-03  0.4849E-04
     -9.137  0.3258E-02  0.2264E-03
     -9.083  0.7903E-02  0.6580E-03
     -9.028  0.1132E-01  0.1276E-02
     -8.973  0.1077E-01  0.1864E-02
     -8.919  0.9805E-02  0.2400E-02
     -8.864  0.1066E-01  0.2982E-02
     -8.810  0.9777E-02  0.3516E-02
     -8.755  0.5961E-02  0.3841E-02
     -8.700  0.2285E-02  0.3966E-02
     -8.646  0.5502E-03  0.3996E-02
     -8.591  0.1915E-03  0.4007E-02
     -8.536  0.6418E-03  0.4042E-02
     -8.482  0.2018E-02  0.4152E-02
     -8.427  0.3903E-02  0.4365E-02
     -8.373  0.5444E-02  0.4662E-02
     -8.318  0.7007E-02  0.5045E-02
     -8.263  0.8426E-02  0.5505E-02
     -8.209  0.9270E-02  0.6011E-02
     -8.154  0.1224E-01  0.6680E-02
     -8.100  0.1716E-01  0.7617E-02
     -8.045  0.1781E-01  0.8590E-02
     -7.990  0.1293E-01  0.9296E-02
     -7.936  0.8158E-02  0.9742E-02
     -7.881  0.6888E-02  0.1012E-01
     -7.827  0.9132E-02  0.1062E-01
     -7.772  0.1218E-01  0.1128E-01
     -7.717  0.1334E-01  0.1201E-01
     -7.663  0.1442E-01  0.1280E-01
     -7.608  0.1691E-01  0.1372E-01
     -7.553  0.2005E-01  0.1482E-01
     -7.499  0.2410E-01  0.1613E-01
     -7.444  0.2760E-01  0.1764E-01
     -7.390  0.3019E-01  0.1929E-01
     -7.335  0.3596E-01  0.2125E-01
     -7.280  0.4674E-01  0.2380E-01
     -7.226  0.5911E-01  0.2703E-01
     -7.171  0.6687E-01  0.3069E-01
     -7.117  0.6690E-01  0.3434E-01
     -7.062  0.6321E-01  0.3779E-01
     -7.007  0.5757E-01  0.4093E-01
     -6.953  0.4817E-01  0.4357E-01
     -6.898  0.4083E-01  0.4580E-01
     -6.843  0.4192E-01  0.4808E-01
     -6.789  0.4934E-01  0.5078E-01
     -6.734  0.6016E-01  0.5406E-01
     -6.680  0.7281E-01  0.5804E-01
     -6.625  0.8380E-01  0.6262E-01
     -6.570  0.9132E-01  0.6760E-01
     -6.516  0.9927E-01  0.7303E-01
     -6.461  0.1117E+00  0.7913E-01
     -6.407  0.1251E+00  0.8596E-01
     -6.352  0.1351E+00  0.9334E-01
     -6.297  0.1443E+00  0.1012E+00
     -6.243  0.1540E+00  0.1096E+00
     -6.188  0.1593E+00  0.1183E+00
     -6.134  0.1588E+00  0.1270E+00
     -6.079  0.1567E+00  0.1356E+00
     -6.024  0.1562E+00  0.1441E+00
     -5.970  0.1549E+00  0.1525E+00
     -5.915  0.1502E+00  0.1607E+00
     -5.860  0.1470E+00  0.1688E+00
     -5.806  0.1478E+00  0.1769E+00
     -5.751  0.1466E+00  0.1849E+00
     -5.697  0.1406E+00  0.1925E+00
     -5.642  0.1348E+00  0.1999E+00
     -5.587  0.1327E+00  0.2071E+00
     -5.533  0.1360E+00  0.2146E+00
     -5.478  0.1432E+00  0.2224E+00
     -5.424  0.1492E+00  0.2305E+00
     -5.369  0.1517E+00  0.2388E+00
     -5.314  0.1519E+00  0.2471E+00
     -5.260  0.1532E+00  0.2555E+00
     -5.205  0.1554E+00  0.2640E+00
     -5.150  0.1560E+00  0.2725E+00
     -5.096  0.1569E+00  0.2811E+00
     -5.041  0.1584E+00  0.2897E+00
     -4.987  0.1580E+00  0.2983E+00
     -4.932  0.1568E+00  0.3069E+00
     -4.877  0.1575E+00  0.3155E+00
     -4.823  0.1598E+00  0.3242E+00
     -4.768  0.1620E+00  0.3331E+00
     -4.714  0.1651E+00  0.3421E+00
     -4.659  0.1714E+00  0.3515E+00
     -4.604  0.1772E+00  0.3611E+00
     -4.550  0.1755E+00  0.3707E+00
     -4.495  0.1688E+00  0.3799E+00
     -4.441  0.1639E+00  0.3889E+00
     -4.386  0.1633E+00  0.3978E+00
     -4.331  0.1644E+00  0.4068E+00
     -4.277  0.1649E+00  0.4158E+00
     -4.222  0.1674E+00  0.4249E+00
     -4.167  0.1751E+00  0.4345E+00
     -4.113  0.1849E+00  0.4446E+00
     -4.058  0.1900E+00  0.4550E+00
     -4.004  0.1882E+00  0.4653E+00
     -3.949  0.1849E+00  0.4754E+00
     -3.894  0.1843E+00  0.4854E+00
     -3.840  0.1858E+00  0.4956E+00
     -3.785  0.1886E+00  0.5059E+00
     -3.731  0.1918E+00  0.5163E+00
     -3.676  0.1922E+00  0.5268E+00
     -3.621  0.1857E+00  0.5370E+00
     -3.567  0.1735E+00  0.5465E+00
     -3.512  0.1654E+00  0.5555E+00
     -3.458  0.1667E+00  0.5646E+00
     -3.403  0.1721E+00  0.5740E+00
     -3.348  0.1761E+00  0.5836E+00
     -3.294  0.1791E+00  0.5934E+00
     -3.239  0.1816E+00  0.6033E+00
     -3.184  0.1830E+00  0.6133E+00
     -3.130  0.1847E+00  0.6234E+00
     -3.075  0.1875E+00  0.6336E+00
     -3.021  0.1888E+00  0.6439E+00
     -2.966  0.1870E+00  0.6542E+00
     -2.911  0.1843E+00  0.6642E+00
     -2.857  0.1835E+00  0.6742E+00
     -2.802  0.1852E+00  0.6843E+00
     -2.748  0.1894E+00  0.6947E+00
     -2.693  0.1971E+00  0.7055E+00
     -2.638  0.2050E+00  0.7166E+00
     -2.584  0.2067E+00  0.7279E+00
     -2.529  0.2030E+00  0.7390E+00
     -2.474  0.1993E+00  0.7499E+00
     -2.420  0.1977E+00  0.7607E+00
     -2.365  0.1948E+00  0.7713E+00
     -2.311  0.1869E+00  0.7816E+00
     -2.256  0.1767E+00  0.7912E+00
     -2.201  0.1728E+00  0.8006E+00
     -2.147  0.1755E+00  0.8102E+00
     -2.092  0.1770E+00  0.8199E+00
     -2.038  0.1772E+00  0.8296E+00
     -1.983  0.1834E+00  0.8396E+00
     -1.928  0.1971E+00  0.8503E+00
     -1.874  0.2114E+00  0.8619E+00
     -1.819  0.2184E+00  0.8738E+00
     -1.765  0.2172E+00  0.8857E+00
     -1.710  0.2160E+00  0.8975E+00
     -1.655  0.2213E+00  0.9096E+00
     -1.601  0.2296E+00  0.9221E+00
     -1.546  0.2332E+00  0.9348E+00
     -1.491  0.2288E+00  0.9473E+00
     -1.437  0.2182E+00  0.9592E+00
     -1.382  0.2006E+00  0.9702E+00
     -1.328  0.1754E+00  0.9798E+00
     -1.273  0.1483E+00  0.9879E+00
     -1.218  0.1253E+00  0.9947E+00
     -1.164  0.1073E+00  0.1001E+01
     -1.109  0.9242E-01  0.1006E+01
     -1.055  0.7809E-01  0.1010E+01
     -1.000  0.6275E-01  0.1013E+01
     -0.945  0.4873E-01  0.1016E+01
     -0.891  0.3670E-01  0.1018E+01
     -0.836  0.2470E-01  0.1019E+01
     -0.782  0.1623E-01  0.1020E+01
     -0.727  0.1665E-01  0.1021E+01
     -0.672  0.2475E-01  0.1022E+01
     -0.618  0.3549E-01  0.1024E+01
     -0.563  0.4462E-01  0.1027E+01
     -0.508  0.4852E-01  0.1030E+01
     -0.454  0.4531E-01  0.1032E+01
     -0.399  0.3988E-01  0.1034E+01
     -0.345  0.3991E-01  0.1036E+01
     -0.290  0.4460E-01  0.1039E+01
     -0.235  0.4425E-01  0.1041E+01
     -0.181  0.3390E-01  0.1043E+01
     -0.126  0.2114E-01  0.1044E+01
     -0.072  0.1463E-01  0.1045E+01
     -0.017  0.1395E-01  0.1046E+01
      0.038  0.1466E-01  0.1047E+01
      0.092  0.1648E-01  0.1047E+01
      0.147  0.2285E-01  0.1049E+01
      0.202  0.3146E-01  0.1050E+01
      0.256  0.3465E-01  0.1052E+01
      0.311  0.3260E-01  0.1054E+01
      0.365  0.3301E-01  0.1056E+01
      0.420  0.3835E-01  0.1058E+01
      0.475  0.4552E-01  0.1060E+01
      0.529  0.5424E-01  0.1063E+01
      0.584  0.6115E-01  0.1067E+01
      0.638  0.5848E-01  0.1070E+01
      0.693  0.4724E-01  0.1073E+01
      0.748  0.3765E-01  0.1075E+01
      0.802  0.3450E-01  0.1076E+01
      0.857  0.3183E-01  0.1078E+01
      0.911  0.2596E-01  0.1080E+01
      0.966  0.2123E-01  0.1081E+01
      1.021  0.2015E-01  0.1082E+01
      1.075  0.2002E-01  0.1083E+01
      1.130  0.1890E-01  0.1084E+01
      1.185  0.1860E-01  0.1085E+01
      1.239  0.1901E-01  0.1086E+01
      1.294  0.1683E-01  0.1087E+01
      1.348  0.1209E-01  0.1088E+01
      1.403  0.9260E-02  0.1088E+01
      1.458  0.1249E-01  0.1089E+01
      1.512  0.2131E-01  0.1090E+01
      1.567  0.3078E-01  0.1092E+01
      1.621  0.3496E-01  0.1094E+01
      1.676  0.3354E-01  0.1095E+01
      1.731  0.3213E-01  0.1097E+01
      1.785  0.3092E-01  0.1099E+01
      1.840  0.2585E-01  0.1100E+01
      1.895  0.2066E-01  0.1101E+01
      1.949  0.2180E-01  0.1103E+01
      2.004  0.2866E-01  0.1104E+01
      2.058  0.3653E-01  0.1106E+01
      2.113  0.4220E-01  0.1108E+01
      2.168  0.4592E-01  0.1111E+01
      2.222  0.4886E-01  0.1114E+01
      2.277  0.4952E-01  0.1116E+01
      2.331  0.4617E-01  0.1119E+01
      2.386  0.4026E-01  0.1121E+01
      2.441  0.3400E-01  0.1123E+01
      2.495  0.3095E-01  0.1125E+01
      2.550  0.3375E-01  0.1126E+01
      2.604  0.4022E-01  0.1129E+01
      2.659  0.4664E-01  0.1131E+01
      2.714  0.4717E-01  0.1134E+01
      2.768  0.3800E-01  0.1136E+01
      2.823  0.2437E-01  0.1137E+01
      2.878  0.1436E-01  0.1138E+01
      2.932  0.1157E-01  0.1139E+01
      2.987  0.1179E-01  0.1139E+01
      3.041  0.9257E-02  0.1140E+01
      3.096  0.6535E-02  0.1140E+01
      3.151  0.8889E-02  0.1141E+01
      3.205  0.1495E-01  0.1141E+01
      3.260  0.1934E-01  0.1142E+01
      3.314  0.2006E-01  0.1144E+01
      3.369  0.1923E-01  0.1145E+01
      3.424  0.1963E-01  0.1146E+01
      3.478  0.2397E-01  0.1147E+01
      3.533  0.3367E-01  0.1149E+01
      3.587  0.4443E-01  0.1151E+01
      3.642  0.4886E-01  0.1154E+01
      3.697  0.4375E-01  0.1156E+01
      3.751  0.3484E-01  0.1158E+01
      3.806  0.2994E-01  0.1160E+01
      3.861  0.2813E-01  0.1161E+01
      3.915  0.2611E-01  0.1163E+01
      3.970  0.2593E-01  0.1164E+01
      4.024  0.2764E-01  0.1166E+01
      4.079  0.2607E-01  0.1167E+01
      4.134  0.2131E-01  0.1168E+01
      4.188  0.1850E-01  0.1169E+01
      4.243  0.1789E-01  0.1170E+01
      4.297  0.1685E-01  0.1171E+01
      4.352  0.1589E-01  0.1172E+01
      4.407  0.1910E-01  0.1173E+01
      4.461  0.2676E-01  0.1175E+01
      4.516  0.3630E-01  0.1177E+01
      4.571  0.4834E-01  0.1179E+01
      4.625  0.5805E-01  0.1182E+01
      4.680  0.5651E-01  0.1185E+01
      4.734  0.4743E-01  0.1188E+01
      4.789  0.4227E-01  0.1190E+01
      4.844  0.4473E-01  0.1193E+01
      4.898  0.4921E-01  0.1196E+01
      4.953  0.5265E-01  0.1198E+01
      5.007  0.6056E-01  0.1202E+01
      5.062  0.7272E-01  0.1206E+01
      5.117  0.7813E-01  0.1210E+01
      5.171  0.7381E-01  0.1214E+01
      5.226  0.6596E-01  0.1218E+01
      5.280  0.5443E-01  0.1221E+01
      5.335  0.3696E-01  0.1223E+01
      5.390  0.1846E-01  0.1224E+01
      5.444  0.6193E-02  0.1224E+01
      5.499  0.1305E-02  0.1224E+01
      5.554  0.1655E-03  0.1224E+01
      5.608  0.1229E-04  0.1224E+01
      5.663  0.5268E-06  0.1224E+01
      5.717  0.1289E-07  0.1224E+01
      5.772  0.1790E-09  0.1224E+01
      5.827  0.1403E-11  0.1224E+01
      5.881  0.6181E-14  0.1224E+01
      5.936  0.1491E-16  0.1224E+01
      5.990  0.0000E+00  0.1224E+01
      6.045  0.0000E+00  0.1224E+01
      6.100  0.0000E+00  0.1224E+01
      6.154  0.0000E+00  0.1224E+01
      6.209  0.0000E+00  0.1224E+01
      6.264  0.0000E+00  0.1224E+01
      6.318  0.0000E+00  0.1224E+01
