  48  48   0   0
  0.5349325E+02  0.1100258E-08  0.1100258E-08  0.2449179E-08  0.3500000E-15
  1.000000000000000E-004
  CAR 
 unknown system                          
      6.40096772     -9.73958877  301     -1.10583975      1.00000000
     -9.740  0.0000E+00  0.0000E+00
     -9.686  0.0000E+00  0.0000E+00
     -9.632  0.0000E+00  0.0000E+00
     -9.578  0.0000E+00  0.0000E+00
     -9.524  0.0000E+00  0.0000E+00
     -9.471  0.0000E+00  0.0000E+00
     -9.417  0.0000E+00  0.0000E+00
     -9.363  0.0000E+00  0.0000E+00
     -9.309  0.8942E-17  0.4811E-18
     -9.255  0.3536E-14  0.1907E-15
     -9.202  0.7847E-12  0.4241E-13
     -9.148  0.9880E-10  0.5358E-11
     -9.094  0.7069E-08  0.3857E-09
     -9.040  0.2880E-06  0.1588E-07
     -8.986  0.6694E-05  0.3760E-06
     -8.933  0.8900E-04  0.5164E-05
     -8.879  0.6785E-03  0.4167E-04
     -8.825  0.2973E-02  0.2016E-03
     -8.771  0.7514E-02  0.6059E-03
     -8.717  0.1108E-01  0.1202E-02
     -8.664  0.1028E-01  0.1755E-02
     -8.610  0.8555E-02  0.2215E-02
     -8.556  0.1001E-01  0.2754E-02
     -8.502  0.1106E-01  0.3349E-02
     -8.448  0.7861E-02  0.3772E-02
     -8.395  0.3301E-02  0.3950E-02
     -8.341  0.8186E-03  0.3994E-02
     -8.287  0.2223E-03  0.4006E-02
     -8.233  0.6930E-03  0.4043E-02
     -8.179  0.2641E-02  0.4185E-02
     -8.126  0.6389E-02  0.4529E-02
     -8.072  0.1037E-01  0.5087E-02
     -8.018  0.1323E-01  0.5798E-02
     -7.964  0.1677E-01  0.6701E-02
     -7.910  0.2113E-01  0.7837E-02
     -7.857  0.2099E-01  0.8967E-02
     -7.803  0.1528E-01  0.9789E-02
     -7.749  0.1123E-01  0.1039E-01
     -7.695  0.1168E-01  0.1102E-01
     -7.641  0.1240E-01  0.1169E-01
     -7.588  0.1263E-01  0.1237E-01
     -7.534  0.1503E-01  0.1318E-01
     -7.480  0.1928E-01  0.1421E-01
     -7.426  0.2259E-01  0.1543E-01
     -7.372  0.2218E-01  0.1662E-01
     -7.319  0.1937E-01  0.1766E-01
     -7.265  0.1870E-01  0.1867E-01
     -7.211  0.2191E-01  0.1985E-01
     -7.157  0.2787E-01  0.2135E-01
     -7.103  0.3383E-01  0.2317E-01
     -7.049  0.3837E-01  0.2523E-01
     -6.996  0.4578E-01  0.2770E-01
     -6.942  0.5955E-01  0.3090E-01
     -6.888  0.7232E-01  0.3479E-01
     -6.834  0.7657E-01  0.3891E-01
     -6.780  0.7689E-01  0.4305E-01
     -6.727  0.7880E-01  0.4729E-01
     -6.673  0.8126E-01  0.5166E-01
     -6.619  0.8420E-01  0.5619E-01
     -6.565  0.8934E-01  0.6100E-01
     -6.511  0.9726E-01  0.6623E-01
     -6.458  0.1083E+00  0.7205E-01
     -6.404  0.1207E+00  0.7855E-01
     -6.350  0.1309E+00  0.8559E-01
     -6.296  0.1368E+00  0.9295E-01
     -6.242  0.1395E+00  0.1005E+00
     -6.189  0.1420E+00  0.1081E+00
     -6.135  0.1478E+00  0.1160E+00
     -6.081  0.1575E+00  0.1245E+00
     -6.027  0.1668E+00  0.1335E+00
     -5.973  0.1704E+00  0.1427E+00
     -5.920  0.1675E+00  0.1517E+00
     -5.866  0.1619E+00  0.1604E+00
     -5.812  0.1579E+00  0.1689E+00
     -5.758  0.1557E+00  0.1773E+00
     -5.704  0.1524E+00  0.1855E+00
     -5.651  0.1465E+00  0.1933E+00
     -5.597  0.1378E+00  0.2007E+00
     -5.543  0.1295E+00  0.2077E+00
     -5.489  0.1260E+00  0.2145E+00
     -5.435  0.1288E+00  0.2214E+00
     -5.382  0.1365E+00  0.2288E+00
     -5.328  0.1447E+00  0.2366E+00
     -5.274  0.1498E+00  0.2446E+00
     -5.220  0.1542E+00  0.2529E+00
     -5.166  0.1618E+00  0.2616E+00
     -5.113  0.1693E+00  0.2707E+00
     -5.059  0.1740E+00  0.2801E+00
     -5.005  0.1777E+00  0.2896E+00
     -4.951  0.1799E+00  0.2993E+00
     -4.897  0.1802E+00  0.3090E+00
     -4.844  0.1774E+00  0.3186E+00
     -4.790  0.1717E+00  0.3278E+00
     -4.736  0.1692E+00  0.3369E+00
     -4.682  0.1729E+00  0.3462E+00
     -4.628  0.1781E+00  0.3558E+00
     -4.575  0.1809E+00  0.3655E+00
     -4.521  0.1818E+00  0.3753E+00
     -4.467  0.1821E+00  0.3851E+00
     -4.413  0.1795E+00  0.3947E+00
     -4.359  0.1723E+00  0.4040E+00
     -4.306  0.1648E+00  0.4129E+00
     -4.252  0.1624E+00  0.4216E+00
     -4.198  0.1646E+00  0.4305E+00
     -4.144  0.1693E+00  0.4396E+00
     -4.090  0.1750E+00  0.4490E+00
     -4.037  0.1792E+00  0.4586E+00
     -3.983  0.1811E+00  0.4684E+00
     -3.929  0.1826E+00  0.4782E+00
     -3.875  0.1870E+00  0.4883E+00
     -3.821  0.1940E+00  0.4987E+00
     -3.768  0.1993E+00  0.5094E+00
     -3.714  0.2010E+00  0.5202E+00
     -3.660  0.2014E+00  0.5311E+00
     -3.606  0.2004E+00  0.5419E+00
     -3.552  0.1975E+00  0.5525E+00
     -3.499  0.1949E+00  0.5630E+00
     -3.445  0.1940E+00  0.5734E+00
     -3.391  0.1951E+00  0.5839E+00
     -3.337  0.1970E+00  0.5945E+00
     -3.283  0.1953E+00  0.6050E+00
     -3.230  0.1877E+00  0.6151E+00
     -3.176  0.1786E+00  0.6247E+00
     -3.122  0.1755E+00  0.6342E+00
     -3.068  0.1789E+00  0.6438E+00
     -3.014  0.1832E+00  0.6537E+00
     -2.961  0.1863E+00  0.6637E+00
     -2.907  0.1882E+00  0.6738E+00
     -2.853  0.1875E+00  0.6839E+00
     -2.799  0.1863E+00  0.6939E+00
     -2.745  0.1878E+00  0.7040E+00
     -2.692  0.1899E+00  0.7142E+00
     -2.638  0.1881E+00  0.7244E+00
     -2.584  0.1817E+00  0.7341E+00
     -2.530  0.1746E+00  0.7435E+00
     -2.476  0.1702E+00  0.7527E+00
     -2.423  0.1681E+00  0.7617E+00
     -2.369  0.1693E+00  0.7708E+00
     -2.315  0.1758E+00  0.7803E+00
     -2.261  0.1851E+00  0.7903E+00
     -2.207  0.1911E+00  0.8005E+00
     -2.154  0.1930E+00  0.8109E+00
     -2.100  0.1945E+00  0.8214E+00
     -2.046  0.1981E+00  0.8320E+00
     -1.992  0.2015E+00  0.8429E+00
     -1.938  0.2024E+00  0.8538E+00
     -1.885  0.2013E+00  0.8646E+00
     -1.831  0.2009E+00  0.8754E+00
     -1.777  0.2035E+00  0.8864E+00
     -1.723  0.2094E+00  0.8976E+00
     -1.669  0.2155E+00  0.9092E+00
     -1.616  0.2174E+00  0.9209E+00
     -1.562  0.2120E+00  0.9323E+00
     -1.508  0.2015E+00  0.9432E+00
     -1.454  0.1906E+00  0.9534E+00
     -1.400  0.1811E+00  0.9632E+00
     -1.346  0.1746E+00  0.9726E+00
     -1.293  0.1726E+00  0.9818E+00
     -1.239  0.1681E+00  0.9909E+00
     -1.185  0.1500E+00  0.9990E+00
     -1.131  0.1208E+00  0.1005E+01
     -1.077  0.9373E-01  0.1010E+01
     -1.024  0.7103E-01  0.1014E+01
     -0.970  0.4849E-01  0.1017E+01
     -0.916  0.3092E-01  0.1019E+01
     -0.862  0.2248E-01  0.1020E+01
     -0.808  0.1914E-01  0.1021E+01
     -0.755  0.1739E-01  0.1022E+01
     -0.701  0.1691E-01  0.1023E+01
     -0.647  0.1779E-01  0.1024E+01
     -0.593  0.2099E-01  0.1025E+01
     -0.539  0.2813E-01  0.1026E+01
     -0.486  0.3815E-01  0.1028E+01
     -0.432  0.4482E-01  0.1031E+01
     -0.378  0.4311E-01  0.1033E+01
     -0.324  0.3859E-01  0.1035E+01
     -0.270  0.3952E-01  0.1037E+01
     -0.217  0.4359E-01  0.1040E+01
     -0.163  0.4258E-01  0.1042E+01
     -0.109  0.3514E-01  0.1044E+01
     -0.055  0.2639E-01  0.1045E+01
     -0.001  0.2165E-01  0.1046E+01
      0.052  0.2315E-01  0.1048E+01
      0.106  0.2800E-01  0.1049E+01
      0.160  0.3194E-01  0.1051E+01
      0.214  0.3402E-01  0.1053E+01
      0.268  0.3613E-01  0.1055E+01
      0.321  0.3835E-01  0.1057E+01
      0.375  0.3943E-01  0.1059E+01
      0.429  0.4026E-01  0.1061E+01
      0.483  0.4042E-01  0.1063E+01
      0.537  0.3947E-01  0.1065E+01
      0.590  0.3884E-01  0.1067E+01
      0.644  0.3969E-01  0.1069E+01
      0.698  0.4212E-01  0.1072E+01
      0.752  0.4361E-01  0.1074E+01
      0.806  0.4091E-01  0.1076E+01
      0.859  0.3349E-01  0.1078E+01
      0.913  0.2414E-01  0.1079E+01
      0.967  0.1838E-01  0.1080E+01
      1.021  0.1884E-01  0.1081E+01
      1.075  0.2080E-01  0.1083E+01
      1.128  0.1976E-01  0.1084E+01
      1.182  0.1703E-01  0.1085E+01
      1.236  0.1447E-01  0.1085E+01
      1.290  0.1261E-01  0.1086E+01
      1.344  0.1340E-01  0.1087E+01
      1.397  0.1755E-01  0.1088E+01
      1.451  0.2422E-01  0.1089E+01
      1.505  0.3133E-01  0.1091E+01
      1.559  0.3356E-01  0.1092E+01
      1.613  0.3078E-01  0.1094E+01
      1.666  0.2942E-01  0.1096E+01
      1.720  0.3122E-01  0.1097E+01
      1.774  0.3405E-01  0.1099E+01
      1.828  0.3512E-01  0.1101E+01
      1.882  0.2996E-01  0.1103E+01
      1.935  0.2038E-01  0.1104E+01
      1.989  0.1468E-01  0.1105E+01
      2.043  0.1470E-01  0.1105E+01
      2.097  0.1765E-01  0.1106E+01
      2.151  0.2503E-01  0.1108E+01
      2.204  0.3528E-01  0.1110E+01
      2.258  0.4241E-01  0.1112E+01
      2.312  0.4614E-01  0.1114E+01
      2.366  0.4923E-01  0.1117E+01
      2.420  0.5147E-01  0.1120E+01
      2.473  0.5079E-01  0.1122E+01
      2.527  0.4703E-01  0.1125E+01
      2.581  0.4482E-01  0.1127E+01
      2.635  0.4646E-01  0.1130E+01
      2.689  0.4741E-01  0.1132E+01
      2.742  0.4241E-01  0.1135E+01
      2.796  0.3145E-01  0.1136E+01
      2.850  0.2021E-01  0.1138E+01
      2.904  0.1412E-01  0.1138E+01
      2.958  0.1288E-01  0.1139E+01
      3.011  0.1204E-01  0.1140E+01
      3.065  0.1116E-01  0.1140E+01
      3.119  0.1386E-01  0.1141E+01
      3.173  0.1937E-01  0.1142E+01
      3.227  0.2262E-01  0.1143E+01
      3.280  0.2183E-01  0.1144E+01
      3.334  0.1995E-01  0.1145E+01
      3.388  0.1876E-01  0.1146E+01
      3.442  0.1823E-01  0.1147E+01
      3.496  0.1988E-01  0.1149E+01
      3.549  0.2480E-01  0.1150E+01
      3.603  0.3116E-01  0.1152E+01
      3.657  0.3552E-01  0.1153E+01
      3.711  0.3669E-01  0.1155E+01
      3.765  0.3613E-01  0.1157E+01
      3.818  0.3296E-01  0.1159E+01
      3.872  0.2669E-01  0.1161E+01
      3.926  0.2246E-01  0.1162E+01
      3.980  0.2503E-01  0.1163E+01
      4.034  0.3100E-01  0.1165E+01
      4.087  0.3156E-01  0.1166E+01
      4.141  0.2637E-01  0.1168E+01
      4.195  0.2379E-01  0.1169E+01
      4.249  0.2359E-01  0.1170E+01
      4.303  0.1954E-01  0.1172E+01
      4.356  0.1528E-01  0.1172E+01
      4.410  0.1773E-01  0.1173E+01
      4.464  0.2555E-01  0.1175E+01
      4.518  0.3479E-01  0.1177E+01
      4.572  0.4411E-01  0.1179E+01
      4.626  0.5208E-01  0.1182E+01
      4.679  0.5459E-01  0.1185E+01
      4.733  0.5045E-01  0.1187E+01
      4.787  0.4702E-01  0.1190E+01
      4.841  0.5088E-01  0.1193E+01
      4.895  0.5720E-01  0.1196E+01
      4.948  0.5851E-01  0.1199E+01
      5.002  0.5781E-01  0.1202E+01
      5.056  0.6116E-01  0.1205E+01
      5.110  0.6485E-01  0.1209E+01
      5.164  0.6302E-01  0.1212E+01
      5.217  0.5913E-01  0.1215E+01
      5.271  0.5491E-01  0.1218E+01
      5.325  0.4512E-01  0.1221E+01
      5.379  0.3106E-01  0.1222E+01
      5.433  0.1826E-01  0.1223E+01
      5.486  0.8583E-02  0.1224E+01
      5.540  0.2812E-02  0.1224E+01
      5.594  0.5814E-03  0.1224E+01
      5.648  0.7225E-04  0.1224E+01
      5.702  0.5275E-05  0.1224E+01
      5.755  0.2235E-06  0.1224E+01
      5.809  0.5453E-08  0.1224E+01
      5.863  0.7622E-10  0.1224E+01
      5.917  0.6077E-12  0.1224E+01
      5.971  0.2756E-14  0.1224E+01
      6.024  0.8254E-17  0.1224E+01
      6.078  0.0000E+00  0.1224E+01
      6.132  0.0000E+00  0.1224E+01
      6.186  0.0000E+00  0.1224E+01
      6.240  0.0000E+00  0.1224E+01
      6.293  0.0000E+00  0.1224E+01
      6.347  0.0000E+00  0.1224E+01
      6.401  0.0000E+00  0.1224E+01
