unknown system                          
           1
    11.002582    0.000000    0.000000
     5.501291    9.528515    0.000000
     0.000000    0.000000   26.191785
   Au   O    Pd
  24   8  24
Direct configuration=     1
   0.08333333  0.08333333  0.38179910
   0.33333333  0.83333333  0.38179910
   0.91666667  0.16666667  0.46754708
   0.66666667  0.91666667  0.46754708
   0.08333333  0.33333333  0.38179910
   0.91666667  0.41666667  0.46754708
   0.83333333  0.58333333  0.38179910
   0.08333333  0.58333333  0.38179910
   0.66666667  0.41666667  0.46754708
   0.50000000  0.75000000  0.55329505
   0.58333333  0.83333333  0.38179910
   0.16666667  0.91666667  0.46754708
   0.91666667  0.91666667  0.46754708
   0.50000000  0.50000000  0.55329505
   0.16666667  0.16666667  0.46754708
   0.50000000  0.25000000  0.55329505
   0.41666667  0.41666667  0.46754708
   0.58333333  0.33333333  0.38179910
   0.16666667  0.41666667  0.46754708
   0.25000000  0.25000000  0.55329505
   0.41666667  0.16666667  0.46754708
   0.25000000  0.75000000  0.55329505
   0.16666667  0.66666667  0.46754708
   0.00000000  0.75000000  0.55329505
   0.33333333  0.33333333  0.61820090
   0.08333333  0.58333333  0.61820090
   0.08333333  0.33333333  0.61820090
   0.83333333  0.83333333  0.61820090
   0.58333333  0.58333333  0.61820090
   0.83333333  0.58333333  0.61820090
   0.83333333  0.33333333  0.61820090
   0.58333333  0.33333333  0.61820090
   0.33333333  0.33333333  0.38179910
   0.08333333  0.83333333  0.38179910
   0.25000000  0.00000000  0.55329505
   0.33333333  0.08333333  0.38179910
   0.58333333  0.58333333  0.38179910
   0.41666667  0.66666667  0.46754708
   0.75000000  0.75000000  0.55329505
   0.33333333  0.58333333  0.38179910
   0.00000000  0.50000000  0.55329505
   0.41666667  0.91666667  0.46754708
   0.83333333  0.08333333  0.38179910
   0.66666667  0.16666667  0.46754708
   0.75000000  0.00000000  0.55329505
   0.83333333  0.33333333  0.38179910
   0.91666667  0.66666667  0.46754708
   0.75000000  0.25000000  0.55329505
   0.00000000  0.25000000  0.55329505
   0.66666667  0.66666667  0.46754708
   0.75000000  0.50000000  0.55329505
   0.83333333  0.83333333  0.38179910
   0.00000000  0.00000000  0.55329505
   0.25000000  0.50000000  0.55329505
   0.58333333  0.08333333  0.38179910
   0.50000000  0.00000000  0.55329505
Direct configuration=     2
   0.08333333  0.08333333  0.38179910
   0.33333333  0.83333333  0.38179910
   0.91483985  0.16714781  0.46822855
   0.66701953  0.91596369  0.46791897
   0.08333333  0.33333333  0.38179910
   0.91492996  0.41867353  0.46834999
   0.83333333  0.58333333  0.38179910
   0.08333333  0.58333333  0.38179910
   0.66695041  0.41768319  0.46741453
   0.49944649  0.75216395  0.55528062
   0.58333333  0.83333333  0.38179910
   0.16763453  0.91624228  0.46788438
   0.91551276  0.91715087  0.46736573
   0.49881128  0.50099400  0.55625094
   0.16803275  0.16532552  0.46830954
   0.50208697  0.24735518  0.55634613
   0.41639295  0.41768907  0.46739647
   0.58333333  0.33333333  0.38179910
   0.16577882  0.41803162  0.46777534
   0.25006439  0.24781869  0.55672432
   0.41790783  0.16518101  0.46733343
   0.24969001  0.75142008  0.55517928
   0.16689635  0.66631046  0.46751194
   0.00001252  0.75066474  0.55644308
   0.33340983  0.33414874  0.61552467
   0.08470654  0.58265048  0.61496278
   0.08260853  0.33230503  0.61496279
   0.83088224  0.83574461  0.61459597
   0.58297938  0.58505166  0.61537073
   0.83223035  0.58429256  0.61455759
   0.83438860  0.33162188  0.61418907
   0.58441638  0.33187626  0.61546991
   0.33333333  0.33333333  0.38179910
   0.08333333  0.83333333  0.38179910
   0.24991287 -0.00030389  0.55432585
   0.33333333  0.08333333  0.38179910
   0.58333333  0.58333333  0.38179910
   0.41770898  0.66641260  0.46727913
   0.75019254  0.75002634  0.55673002
   0.33333333  0.58333333  0.38179910
  -0.00121331  0.50077649  0.55764895
   0.41732399  0.91573011  0.46817949
   0.83333333  0.08333333  0.38179910
   0.66729223  0.16591405  0.46830416
   0.75045823 -0.00064414  0.55556819
   0.83333333  0.33333333  0.38179910
   0.91570146  0.66659421  0.46776733
   0.75125135  0.24904266  0.55676449
  -0.00030727  0.24960904  0.55711669
   0.66696327  0.66639936  0.46815681
   0.75130236  0.50007891  0.55778226
   0.83333333  0.83333333  0.38179910
   0.00007135  0.00062273  0.55445627
   0.24862280  0.50098288  0.55708150
   0.58333333  0.08333333  0.38179910
   0.50041607 -0.00112004  0.55427159
Direct configuration=     3
   0.08333333  0.08333333  0.38179910
   0.33333333  0.83333333  0.38179910
   0.91161567  0.16799699  0.46943130
   0.66764232  0.91472298  0.46857534
   0.08333333  0.33333333  0.38179910
   0.91186482  0.42221549  0.46976708
   0.83333333  0.58333333  0.38179910
   0.08333333  0.58333333  0.38179910
   0.66745118  0.41947727  0.46718059
   0.49846960  0.75598315  0.55878501
   0.58333333  0.83333333  0.38179910
   0.16934274  0.91549328  0.46847969
   0.91347619  0.91800544  0.46704567
   0.49671328  0.50274833  0.56146787
   0.17044380  0.16295849  0.46965522
   0.50577032  0.24268728  0.56173105
   0.41590987  0.41949354  0.46713067
   0.58333333  0.33333333  0.38179910
   0.16421182  0.42044067  0.46817820
   0.25017804  0.24396885  0.56277673
   0.42009839  0.16255895  0.46695636
   0.24914291  0.75392642  0.55850480
   0.16730173  0.66568178  0.46744992
   0.00003461  0.75183797  0.56199912
   0.33354483  0.33558786  0.61080132
   0.08713016  0.58144529  0.60924773
   0.08132930  0.33049014  0.60924776
   0.82655623  0.84000035  0.60823355
   0.58235468  0.58808437  0.61037569
   0.83028366  0.58598553  0.60812742
   0.83625106  0.32860129  0.60710849
   0.58632787  0.32930464  0.61064993
   0.33333333  0.33333333  0.38179910
   0.08333333  0.83333333  0.38179910
   0.24975909 -0.00084023  0.55614514
   0.33333333  0.08333333  0.38179910
   0.58333333  0.58333333  0.38179910
   0.41954859  0.66596418  0.46680623
   0.75053236  0.75007282  0.56279249
   0.33333333  0.58333333  0.38179910
  -0.00335472  0.50214695  0.56533324
   0.41848412  0.91407715  0.46929565
   0.83333333  0.08333333  0.38179910
   0.66839629  0.16458574  0.46964037
   0.75126697 -0.00178099  0.55958011
   0.83333333  0.33333333  0.38179910
   0.91399794  0.66646634  0.46815607
   0.75345989  0.24735304  0.56288778
  -0.00084959  0.24891901  0.56386159
   0.66748675  0.66592759  0.46923295
   0.75360093  0.50021819  0.56570183
   0.83333333  0.83333333  0.38179910
   0.00019727  0.00172180  0.55650573
   0.24619214  0.50271759  0.56376430
   0.58333333  0.08333333  0.38179910
   0.50115041 -0.00309683  0.55599509
Direct configuration=     4
   0.08333333  0.08333333  0.38179910
   0.33333333  0.83333333  0.38179910
   0.91225946  0.16782743  0.46919114
   0.66751796  0.91497072  0.46844428
   0.08333333  0.33333333  0.38179910
   0.91247685  0.42150825  0.46948412
   0.83333333  0.58333333  0.38179910
   0.08333333  0.58333333  0.38179910
   0.66735119  0.41911904  0.46722731
   0.49866466  0.75522055  0.55808527
   0.58333333  0.83333333  0.38179910
   0.16900166  0.91564284  0.46836083
   0.91388284  0.91783481  0.46710958
   0.49713220  0.50239803  0.56042618
   0.16996237  0.16343113  0.46938652
   0.50503485  0.24361934  0.56065582
   0.41600633  0.41913323  0.46718374
   0.58333333  0.33333333  0.38179910
   0.16452471  0.41995964  0.46809776
   0.25015535  0.24473756  0.56156822
   0.41966099  0.16308251  0.46703165
   0.24925215  0.75342596  0.55784078
   0.16722078  0.66580731  0.46746230
   0.00003020  0.75160370  0.56088972
   0.33351787  0.33530050  0.61174446
   0.08664622  0.58168594  0.61038888
   0.08158473  0.33085253  0.61038890
   0.82742003  0.83915058  0.60950396
   0.58247942  0.58747881  0.61137307
   0.83067236  0.58564749  0.60941136
   0.83587917  0.32920443  0.60852230
   0.58594619  0.32981813  0.61161236
   0.33333333  0.33333333  0.38179910
   0.08333333  0.83333333  0.38179910
   0.24978979 -0.00073314  0.55578187
   0.33333333  0.08333333  0.38179910
   0.58333333  0.58333333  0.38179910
   0.41918126  0.66605372  0.46690066
   0.75046450  0.75006354  0.56158197
   0.33333333  0.58333333  0.38179910
  -0.00292714  0.50187330  0.56379888
   0.41825247  0.91440720  0.46907278
   0.83333333  0.08333333  0.38179910
   0.66817584  0.16485097  0.46937356
   0.75110548 -0.00155399  0.55877903
   0.83333333  0.33333333  0.38179910
   0.91433809  0.66649187  0.46807845
   0.75301890  0.24769041  0.56166511
  -0.00074130  0.24905679  0.56251480
   0.66738222  0.66602179  0.46901808
   0.75314196  0.50019038  0.56412049
   0.83333333  0.83333333  0.38179910
   0.00017213  0.00150234  0.55609650
   0.24667748  0.50237121  0.56242992
   0.58333333  0.08333333  0.38179910
   0.50100378 -0.00270212  0.55565095
Direct configuration=     5
   0.08333333  0.08333333  0.38179910
   0.33333333  0.83333333  0.38179910
   0.91208417  0.16787360  0.46925653
   0.66755182  0.91490327  0.46847996
   0.08333333  0.33333333  0.38179910
   0.91231021  0.42170081  0.46956116
   0.83333333  0.58333333  0.38179910
   0.08333333  0.58333333  0.38179910
   0.66737842  0.41921658  0.46721459
   0.49861155  0.75542819  0.55827580
   0.58333333  0.83333333  0.38179910
   0.16909453  0.91560212  0.46839319
   0.91377212  0.91788127  0.46709218
   0.49701814  0.50249341  0.56070981
   0.17009345  0.16330244  0.46945968
   0.50523510  0.24336556  0.56094858
   0.41598007  0.41923134  0.46716929
   0.58333333  0.33333333  0.38179910
   0.16443952  0.42009062  0.46811967
   0.25016153  0.24452826  0.56189727
   0.41978009  0.16293995  0.46701115
   0.24922241  0.75356223  0.55802158
   0.16724282  0.66577313  0.46745893
   0.00003140  0.75166749  0.56119179
   0.33352521  0.33537874  0.61148766
   0.08677799  0.58162042  0.61007817
   0.08151518  0.33075386  0.61007819
   0.82718484  0.83938196  0.60915805
   0.58244545  0.58764369  0.61110150
   0.83056653  0.58573953  0.60906177
   0.83598043  0.32904020  0.60813735
   0.58605011  0.32967832  0.61135031
   0.33333333  0.33333333  0.38179910
   0.08333333  0.83333333  0.38179910
   0.24978143 -0.00076230  0.55588078
   0.33333333  0.08333333  0.38179910
   0.58333333  0.58333333  0.38179910
   0.41928128  0.66602934  0.46687495
   0.75048298  0.75006607  0.56191157
   0.33333333  0.58333333  0.38179910
  -0.00304356  0.50194781  0.56421666
   0.41831554  0.91431733  0.46913346
   0.83333333  0.08333333  0.38179910
   0.66823586  0.16477875  0.46944621
   0.75114945 -0.00161580  0.55899715
   0.83333333  0.33333333  0.38179910
   0.91424547  0.66648492  0.46809959
   0.75313897  0.24759855  0.56199802
  -0.00077079  0.24901928  0.56288150
   0.66741068  0.66599614  0.46907658
   0.75326693  0.50019795  0.56455106
   0.83333333  0.83333333  0.38179910
   0.00017898  0.00156209  0.55620792
   0.24654534  0.50246552  0.56279324
   0.58333333  0.08333333  0.38179910
   0.50104370 -0.00280959  0.55574466
Direct configuration=     6
   0.08333333  0.08333333  0.38179910
   0.33333333  0.83333333  0.38179910
   0.91191422  0.16922556  0.47084600
   0.66829926  0.91354165  0.46975380
   0.08333333  0.33333333  0.38179910
   0.91324318  0.42082332  0.47177437
   0.83333333  0.58333333  0.38179910
   0.08333333  0.58333333  0.38179910
   0.66674352  0.41975800  0.46903852
   0.49584563  0.76043889  0.55895352
   0.58333333  0.83333333  0.38179910
   0.16877079  0.91488605  0.46934949
   0.91461960  0.91644423  0.46829676
   0.48968948  0.50660233  0.56082333
   0.16897570  0.16517369  0.47116290
   0.50761980  0.23712222  0.56160209
   0.41665683  0.41847472  0.46930086
   0.58333333  0.33333333  0.38179910
   0.16451564  0.41896959  0.47033495
   0.25530480  0.23667120  0.56292248
   0.41941883  0.16438390  0.46847564
   0.24867226  0.75466181  0.55930425
   0.16636796  0.66715837  0.46924427
   0.00436355  0.75588289  0.56144271
   0.33388093  0.33636959  0.61049407
   0.08998669  0.58011391  0.60992756
   0.08116931  0.32811273  0.60973837
   0.82189396  0.84550316  0.60819346
   0.58122464  0.59039169  0.61077367
   0.82738938  0.58970258  0.60822558
   0.83769597  0.32381559  0.60693826
   0.58927625  0.32670382  0.61073691
   0.33333333  0.33333333  0.38179910
   0.08333333  0.83333333  0.38179910
   0.24931193 -0.00117681  0.55704787
   0.33333333  0.08333333  0.38179910
   0.58333333  0.58333333  0.38179910
   0.42011195  0.66573452  0.46811489
   0.74559917  0.75226929  0.56348573
   0.33333333  0.58333333  0.38179910
  -0.00277202  0.50184999  0.56482871
   0.41971096  0.91257675  0.47020713
   0.83333333  0.08333333  0.38179910
   0.66713783  0.16567863  0.47136155
   0.75001801  0.00118675  0.55990281
   0.83333333  0.33333333  0.38179910
   0.91380651  0.66728514  0.46972383
   0.75453732  0.24368610  0.56371236
   0.00257725  0.24304349  0.56420666
   0.66693808  0.66652360  0.47070497
   0.75147543  0.50227073  0.56552872
   0.83333333  0.83333333  0.38179910
   0.00108239  0.00088017  0.55701116
   0.24986449  0.50412018  0.56434828
   0.58333333  0.08333333  0.38179910
   0.50080767 -0.00257242  0.55652457
Direct configuration=     7
   0.08333333  0.08333333  0.38179910
   0.33333333  0.83333333  0.38179910
   0.91179079  0.17020743  0.47200035
   0.66884210  0.91255278  0.47067892
   0.08333333  0.33333333  0.38179910
   0.91392075  0.42018605  0.47338172
   0.83333333  0.58333333  0.38179910
   0.08333333  0.58333333  0.38179910
   0.66628243  0.42015121  0.47036316
   0.49383689  0.76407791  0.55944572
   0.58333333  0.83333333  0.38179910
   0.16853568  0.91436600  0.47004400
   0.91523509  0.91540058  0.46917159
   0.48436703  0.50958644  0.56090577
   0.16816393  0.16653268  0.47239986
   0.50935169  0.23258799  0.56207670
   0.41714832  0.41792523  0.47084891
   0.58333333  0.33333333  0.38179910
   0.16457092  0.41815544  0.47194380
   0.25904011  0.23096501  0.56366704
   0.41915646  0.16543257  0.46953922
   0.24827271  0.75546039  0.56023579
   0.16573260  0.66816439  0.47054087
   0.00750978  0.75894433  0.56162494
   0.33413928  0.33708919  0.60977248
   0.09231701  0.57901981  0.60981817
   0.08091812  0.32619460  0.60949157
   0.81805146  0.84994869  0.60749292
   0.58033803  0.59238743  0.61053558
   0.82508198  0.59258074  0.60761830
   0.83894188  0.32002121  0.60606741
   0.59161924  0.32454359  0.61029143
   0.33333333  0.33333333  0.38179910
   0.08333333  0.83333333  0.38179910
   0.24897095 -0.00147784  0.55789547
   0.33333333  0.08333333  0.38179910
   0.58333333  0.58333333  0.38179910
   0.42071522  0.66552040  0.46901539
   0.74205230  0.75386937  0.56462897
   0.33333333  0.58333333  0.38179910
  -0.00257481  0.50177894  0.56527322
   0.42072438  0.91131265  0.47098688
   0.83333333  0.08333333  0.38179910
   0.66634039  0.16633216  0.47275257
   0.74919630  0.00322210  0.56056055
   0.83333333  0.33333333  0.38179910
   0.91348772  0.66786631  0.47090343
   0.75555287  0.24084468  0.56495741
   0.00500876  0.23870358  0.56516905
   0.66659486  0.66690666  0.47188759
   0.75017435  0.50377609  0.56623875
   0.83333333  0.83333333  0.38179910
   0.00173849  0.00038492  0.55759452
   0.25227502  0.50532187  0.56547763
   0.58333333  0.08333333  0.38179910
   0.50063625 -0.00240017  0.55709099
Direct configuration=     8
   0.08333333  0.08333333  0.38179910
   0.33333333  0.83333333  0.38179910
   0.91186355  0.17030771  0.47291774
   0.66882760  0.91293254  0.47149164
   0.08333333  0.33333333  0.38179910
   0.91394651  0.42037417  0.47510647
   0.83333333  0.58333333  0.38179910
   0.08333333  0.58333333  0.38179910
   0.66622543  0.42006319  0.47209991
   0.49138134  0.76550412  0.56034393
   0.58333333  0.83333333  0.38179910
   0.16836023  0.91537332  0.47045989
   0.91454738  0.91661135  0.46984111
   0.48448369  0.50989014  0.56147404
   0.16796817  0.16616216  0.47317660
   0.51028458  0.23152305  0.56300295
   0.41644908  0.41798446  0.47226457
   0.58333333  0.33333333  0.38179910
   0.16471439  0.41861790  0.47392710
   0.25985027  0.22854149  0.56515856
   0.41883504  0.16542597  0.47012851
   0.24929306  0.75822479  0.56157739
   0.16682502  0.66653848  0.47135944
   0.00645625  0.76012203  0.56257418
   0.33529098  0.33639638  0.61008152
   0.09227947  0.57945529  0.61104204
   0.08306855  0.32448294  0.61054589
   0.81631442  0.85237663  0.60856993
   0.57697169  0.59516046  0.61107355
   0.82444621  0.59471555  0.60989884
   0.84017790  0.31893312  0.60805952
   0.59154098  0.32387097  0.61060926
   0.33333333  0.33333333  0.38179910
   0.08333333  0.83333333  0.38179910
   0.24835999 -0.00303578  0.55903877
   0.33333333  0.08333333  0.38179910
   0.58333333  0.58333333  0.38179910
   0.42031403  0.66564171  0.46992861
   0.73841039  0.75943858  0.56446385
   0.33333333  0.58333333  0.38179910
  -0.00041740  0.50172154  0.56428947
   0.41990017  0.91234452  0.47140325
   0.83333333  0.08333333  0.38179910
   0.66694095  0.16618969  0.47373044
   0.74867664  0.00570544  0.55999084
   0.83333333  0.33333333  0.38179910
   0.91399102  0.66721439  0.47256524
   0.75564565  0.23614330  0.56413392
   0.00841291  0.23255365  0.56460398
   0.66719926  0.66614220  0.47289109
   0.74810489  0.50208087  0.56494603
   0.83333333  0.83333333  0.38179910
   0.00279215  0.00044641  0.55836608
   0.25423277  0.50577525  0.56538598
   0.58333333  0.08333333  0.38179910
   0.50158519 -0.00325324  0.55786140
Direct configuration=     9
   0.08333333  0.08333333  0.38179910
   0.33333333  0.83333333  0.38179910
   0.91185998  0.17030279  0.47287276
   0.66882831  0.91291392  0.47145179
   0.08333333  0.33333333  0.38179910
   0.91394524  0.42036495  0.47502191
   0.83333333  0.58333333  0.38179910
   0.08333333  0.58333333  0.38179910
   0.66622823  0.42006750  0.47201476
   0.49150173  0.76543420  0.56029989
   0.58333333  0.83333333  0.38179910
   0.16836883  0.91532393  0.47043950
   0.91458110  0.91655199  0.46980828
   0.48447797  0.50987525  0.56144618
   0.16797777  0.16618032  0.47313852
   0.51023884  0.23157527  0.56295754
   0.41648337  0.41798156  0.47219517
   0.58333333  0.33333333  0.38179910
   0.16470735  0.41859523  0.47382986
   0.25981055  0.22866032  0.56508543
   0.41885080  0.16542629  0.47009962
   0.24924303  0.75808925  0.56151161
   0.16677146  0.66661819  0.47131931
   0.00650791  0.76006429  0.56252764
   0.33523452  0.33643035  0.61006637
   0.09228131  0.57943394  0.61098203
   0.08296312  0.32456687  0.61049420
   0.81639958  0.85225759  0.60851713
   0.57713674  0.59502450  0.61104717
   0.82447739  0.59461088  0.60978703
   0.84011730  0.31898647  0.60796185
   0.59154482  0.32390395  0.61059367
   0.33333333  0.33333333  0.38179910
   0.08333333  0.83333333  0.38179910
   0.24838994 -0.00295939  0.55898271
   0.33333333  0.08333333  0.38179910
   0.58333333  0.58333333  0.38179910
   0.42033370  0.66563576  0.46988383
   0.73858895  0.75916552  0.56447194
   0.33333333  0.58333333  0.38179910
  -0.00052317  0.50172435  0.56433771
   0.41994058  0.91229392  0.47138283
   0.83333333  0.08333333  0.38179910
   0.66691150  0.16619668  0.47368249
   0.74870212  0.00558368  0.56001877
   0.83333333  0.33333333  0.38179910
   0.91396634  0.66724635  0.47248376
   0.75564110  0.23637381  0.56417429
   0.00824601  0.23285518  0.56463168
   0.66716962  0.66617968  0.47284189
   0.74820635  0.50216398  0.56500942
   0.83333333  0.83333333  0.38179910
   0.00274049  0.00044340  0.55832825
   0.25413678  0.50575302  0.56539047
   0.58333333  0.08333333  0.38179910
   0.50153867 -0.00321142  0.55782363
Direct configuration=    10
   0.08333333  0.08333333  0.38179910
   0.33333333  0.83333333  0.38179910
   0.91202631  0.17004333  0.47301972
   0.66850434  0.91353724  0.47160724
   0.08333333  0.33333333  0.38179910
   0.91395224  0.42055980  0.47600593
   0.83333333  0.58333333  0.38179910
   0.08333333  0.58333333  0.38179910
   0.66618664  0.41966838  0.47303522
   0.49131291  0.76475605  0.56115442
   0.58333333  0.83333333  0.38179910
   0.16821761  0.91586480  0.47050568
   0.91456381  0.91729489  0.46999354
   0.48741382  0.50888791  0.56233905
   0.16832100  0.16557062  0.47337023
   0.50877928  0.23278483  0.56395047
   0.41620485  0.41776686  0.47282964
   0.58333333  0.33333333  0.38179910
   0.16486067  0.41877314  0.47504486
   0.25946446  0.22835413  0.56684493
   0.41859494  0.16506273  0.47027339
   0.24916932  0.75940678  0.56274052
   0.16745254  0.66590250  0.47168393
   0.00460621  0.75944165  0.56386519
   0.33614618  0.33580327  0.61059072
   0.09232786  0.57959101  0.61153245
   0.08393628  0.32335459  0.61081214
   0.81518608  0.85432017  0.60945607
   0.57511252  0.59655088  0.61146293
   0.82328846  0.59546799  0.60990966
   0.84096279  0.31725887  0.60834822
   0.59159241  0.32376701  0.61095558
   0.33333333  0.33333333  0.38179910
   0.08333333  0.83333333  0.38179910
   0.24846414 -0.00361608  0.55999279
   0.33333333  0.08333333  0.38179910
   0.58333333  0.58333333  0.38179910
   0.41960519  0.66604893  0.47035714
   0.73953058  0.75938317  0.56512539
   0.33333333  0.58333333  0.38179910
  -0.00071472  0.50245790  0.56453732
   0.41895093  0.91362484  0.47156129
   0.83333333  0.08333333  0.38179910
   0.66721022  0.16627000  0.47381102
   0.75043251  0.00386349  0.55973744
   0.83333333  0.33333333  0.38179910
   0.91451503  0.66678914  0.47367961
   0.75709487  0.23680608  0.56449112
   0.00758442  0.23321466  0.56542728
   0.66752972  0.66578468  0.47347705
   0.74891293  0.50163427  0.56540557
   0.83333333  0.83333333  0.38179910
   0.00370857 -0.00044823  0.55911072
   0.25256243  0.50660466  0.56564346
   0.58333333  0.08333333  0.38179910
   0.50144035 -0.00329860  0.55852323
Direct configuration=    11
   0.08333333  0.08333333  0.38179910
   0.33333333  0.83333333  0.38179910
   0.91215710  0.16983930  0.47313528
   0.66824958  0.91402738  0.47172947
   0.08333333  0.33333333  0.38179910
   0.91395775  0.42071303  0.47677971
   0.83333333  0.58333333  0.38179910
   0.08333333  0.58333333  0.38179910
   0.66615394  0.41935454  0.47383766
   0.49116443  0.76422279  0.56182638
   0.58333333  0.83333333  0.38179910
   0.16809869  0.91629011  0.47055772
   0.91455022  0.91787907  0.47013922
   0.48972241  0.50811151  0.56304116
   0.16859091  0.16509118  0.47355243
   0.50763156  0.23373597  0.56473127
   0.41598584  0.41759803  0.47332856
   0.58333333  0.33333333  0.38179910
   0.16498123  0.41891305  0.47600026
   0.25919232  0.22811335  0.56822851
   0.41839375  0.16477683  0.47041004
   0.24911137  0.76044281  0.56370688
   0.16798811  0.66533972  0.47197064
   0.00311081  0.75895203  0.56491697
   0.33686306  0.33531016  0.61100304
   0.09236447  0.57971452  0.61196526
   0.08470153  0.32240132  0.61106216
   0.81423184  0.85594207  0.61019441
   0.57352078  0.59775115  0.61178985
   0.82235356  0.59614198  0.61000609
   0.84162764  0.31590037  0.60865203
   0.59162983  0.32365933  0.61124017
   0.33333333  0.33333333  0.38179910
   0.08333333  0.83333333  0.38179910
   0.24852249 -0.00413245  0.56078706
   0.33333333  0.08333333  0.38179910
   0.58333333  0.58333333  0.38179910
   0.41903233  0.66637382  0.47072933
   0.74027102  0.75955431  0.56563923
   0.33333333  0.58333333  0.38179910
  -0.00086535  0.50303472  0.56469429
   0.41817272  0.91467140  0.47170162
   0.83333333  0.08333333  0.38179910
   0.66744512  0.16632766  0.47391209
   0.75179319  0.00251082  0.55951621
   0.83333333  0.33333333  0.38179910
   0.91494649  0.66642961  0.47461997
   0.75823803  0.23714599  0.56474025
   0.00706419  0.23349734  0.56605289
   0.66781287  0.66547407  0.47397651
   0.74946855  0.50121772  0.56571709
   0.83333333  0.83333333  0.38179910
   0.00446982 -0.00114936  0.55972601
   0.25132444  0.50727434  0.56584240
   0.58333333  0.08333333  0.38179910
   0.50136303 -0.00336716  0.55907336
Direct configuration=    12
   0.08333333  0.08333333  0.38179910
   0.33333333  0.83333333  0.38179910
   0.91259555  0.16975715  0.47317518
   0.66799293  0.91415010  0.47172548
   0.08333333  0.33333333  0.38179910
   0.91433544  0.42035867  0.47735417
   0.83333333  0.58333333  0.38179910
   0.08333333  0.58333333  0.38179910
   0.66593527  0.41918631  0.47442656
   0.49160609  0.76480775  0.56229115
   0.58333333  0.83333333  0.38179910
   0.16800032  0.91609260  0.47080376
   0.91541736  0.91737899  0.47022015
   0.48975102  0.50763416  0.56362719
   0.16864188  0.16524346  0.47397250
   0.50891835  0.23273517  0.56519221
   0.41636026  0.41718932  0.47387795
   0.58333333  0.33333333  0.38179910
   0.16523549  0.41823534  0.47685913
   0.26019966  0.22658547  0.56994591
   0.41813720  0.16484506  0.47069958
   0.24835087  0.75948098  0.56493311
   0.16779368  0.66597118  0.47241453
   0.00264238  0.75882946  0.56623914
   0.33631782  0.33602382  0.61203812
   0.09224346  0.57947285  0.61278840
   0.08426721  0.32234297  0.61172172
   0.81271366  0.85814916  0.61158170
   0.57317567  0.59835453  0.61283873
   0.82139115  0.59626838  0.60998335
   0.84213210  0.31498041  0.60946568
   0.59257062  0.32316112  0.61180201
   0.33333333  0.33333333  0.38179910
   0.08333333  0.83333333  0.38179910
   0.24862841 -0.00341087  0.56169682
   0.33333333  0.08333333  0.38179910
   0.58333333  0.58333333  0.38179910
   0.41857187  0.66675615  0.47119774
   0.74089031  0.75916401  0.56633064
   0.33333333  0.58333333  0.38179910
  -0.00171080  0.50336969  0.56545912
   0.41791458  0.91500854  0.47208999
   0.83333333  0.08333333  0.38179910
   0.66695186  0.16676519  0.47409609
   0.75194999  0.00278662  0.55915215
   0.83333333  0.33333333  0.38179910
   0.91518322  0.66677272  0.47551021
   0.75843535  0.23716066  0.56508221
   0.00709536  0.23409234  0.56684676
   0.66754148  0.66588470  0.47455227
   0.75036148  0.50162471  0.56676328
   0.83333333  0.83333333  0.38179910
   0.00523033 -0.00250100  0.56050390
   0.25128487  0.50799966  0.56620135
   0.58333333  0.08333333  0.38179910
   0.50091664 -0.00338646  0.55976650
Direct configuration=    13
   0.08333333  0.08333333  0.38179910
   0.33333333  0.83333333  0.38179910
   0.91334814  0.16961613  0.47324366
   0.66755240  0.91436073  0.47171864
   0.08333333  0.33333333  0.38179910
   0.91498374  0.41975042  0.47834021
   0.83333333  0.58333333  0.38179910
   0.08333333  0.58333333  0.38179910
   0.66555994  0.41889754  0.47543738
   0.49236417  0.76581180  0.56308890
   0.58333333  0.83333333  0.38179910
   0.16783147  0.91575358  0.47122609
   0.91690577  0.91652061  0.47035906
   0.48980011  0.50681481  0.56463307
   0.16872937  0.16550485  0.47469352
   0.51112709  0.23101733  0.56598341
   0.41700293  0.41648777  0.47482095
   0.58333333  0.33333333  0.38179910
   0.16567190  0.41707209  0.47833335
   0.26192873  0.22396292  0.57289378
   0.41769685  0.16496216  0.47119657
   0.24704552  0.75783003  0.56703790
   0.16745994  0.66705507  0.47317644
   0.00183832  0.75861906  0.56850859
   0.33538194  0.33724880  0.61381480
   0.09203576  0.57905802  0.61420128
   0.08352172  0.32224281  0.61285383
   0.81010778  0.86193755  0.61396295
   0.57258331  0.59939020  0.61463908
   0.81973922  0.59648534  0.60994430
   0.84299797  0.31340135  0.61086229
   0.59418546  0.32230596  0.61276640
   0.33333333  0.33333333  0.38179910
   0.08333333  0.83333333  0.38179910
   0.24881021 -0.00217231  0.56325838
   0.33333333  0.08333333  0.38179910
   0.58333333  0.58333333  0.38179910
   0.41778151  0.66741241  0.47200176
   0.74195330  0.75849405  0.56751741
   0.33333333  0.58333333  0.38179910
  -0.00316198  0.50394465  0.56677193
   0.41747151  0.91558722  0.47275661
   0.83333333  0.08333333  0.38179910
   0.66610521  0.16751619  0.47441192
   0.75221913  0.00326001  0.55852724
   0.83333333  0.33333333  0.38179910
   0.91558957  0.66736166  0.47703828
   0.75877403  0.23718585  0.56566918
   0.00714885  0.23511362  0.56820941
   0.66707564  0.66658952  0.47554053
   0.75189417  0.50232329  0.56855904
   0.83333333  0.83333333  0.38179910
   0.00653573 -0.00482103  0.56183912
   0.25121693  0.50924465  0.56681747
   0.58333333  0.08333333  0.38179910
   0.50015041 -0.00341958  0.56095624
Direct configuration=    14
   0.08333333  0.08333333  0.38179910
   0.33333333  0.83333333  0.38179910
   0.91363187  0.16952160  0.47337538
   0.66748629  0.91430616  0.47172739
   0.08333333  0.33333333  0.38179910
   0.91505516  0.41966280  0.47859755
   0.83333333  0.58333333  0.38179910
   0.08333333  0.58333333  0.38179910
   0.66549805  0.41908207  0.47572557
   0.49242090  0.76586637  0.56344829
   0.58333333  0.83333333  0.38179910
   0.16796639  0.91557869  0.47161040
   0.91735479  0.91609141  0.47041485
   0.48943318  0.50708202  0.56513238
   0.16869178  0.16566641  0.47511809
   0.51152100  0.23041902  0.56644665
   0.41705791  0.41645164  0.47515347
   0.58333333  0.33333333  0.38179910
   0.16581514  0.41668847  0.47886716
   0.26319231  0.22301923  0.57432217
   0.41760000  0.16508759  0.47146399
   0.24704859  0.75706078  0.56790461
   0.16727979  0.66732639  0.47353676
   0.00122294  0.75922504  0.56962611
   0.33509342  0.33802751  0.61444085
   0.09226872  0.57848412  0.61483710
   0.08290461  0.32284193  0.61363298
   0.80861775  0.86403344  0.61474110
   0.57266271  0.59961401  0.61539478
   0.81966368  0.59668845  0.61061950
   0.84300977  0.31301784  0.61164191
   0.59506591  0.32182064  0.61326141
   0.33333333  0.33333333  0.38179910
   0.08333333  0.83333333  0.38179910
   0.24882254 -0.00218001  0.56382320
   0.33333333  0.08333333  0.38179910
   0.58333333  0.58333333  0.38179910
   0.41766991  0.66756671  0.47238256
   0.74187673  0.75954454  0.56797224
   0.33333333  0.58333333  0.38179910
  -0.00302969  0.50369832  0.56745318
   0.41742031  0.91551898  0.47309981
   0.83333333  0.08333333  0.38179910
   0.66592404  0.16764105  0.47447589
   0.75259812  0.00262300  0.55850994