       N       E                     dE             d eps       ncg     rms          rms(c)
DAV:   1     0.319987018096E+04    0.31999E+04   -0.18978E+05  3672   0.112E+03
DAV:   2     0.147576571341E+02   -0.31851E+04   -0.29281E+04  4380   0.263E+02
DAV:   3    -0.200730135350E+03   -0.21549E+03   -0.20075E+03  4152   0.651E+01
DAV:   4    -0.206492463153E+03   -0.57623E+01   -0.56905E+01  4212   0.107E+01
DAV:   5    -0.206684527410E+03   -0.19206E+00   -0.19147E+00  4452   0.200E+00    0.624E+01
RMM:   6    -0.201303740933E+03    0.53808E+01   -0.96786E+01  3678   0.154E+01    0.551E+01
RMM:   7    -0.214974713148E+03   -0.13671E+02   -0.58511E+01  3681   0.124E+01    0.488E+01
RMM:   8    -0.220526408820E+03   -0.55517E+01   -0.89969E+01  3677   0.141E+01    0.418E+01
RMM:   9    -0.212571880111E+03    0.79545E+01   -0.44440E+01  3679   0.102E+01    0.366E+01
RMM:  10    -0.197870710495E+03    0.14701E+02   -0.19336E+01  3683   0.736E+00    0.200E+01
RMM:  11    -0.191813481933E+03    0.60572E+01   -0.12340E+01  3681   0.552E+00    0.126E+01
RMM:  12    -0.188979770826E+03    0.28337E+01   -0.46408E+00  3681   0.332E+00    0.767E+00
RMM:  13    -0.189294428748E+03   -0.31466E+00   -0.14499E+00  3681   0.189E+00    0.794E+00
RMM:  14    -0.189120758775E+03    0.17367E+00   -0.61481E-01  3682   0.122E+00    0.666E+00
RMM:  15    -0.188792187289E+03    0.32857E+00   -0.28120E-01  3678   0.830E-01    0.441E+00
RMM:  16    -0.188635875134E+03    0.15631E+00   -0.27308E-01  3681   0.783E-01    0.308E+00
RMM:  17    -0.188559563387E+03    0.76312E-01   -0.98878E-02  3680   0.481E-01    0.166E+00
RMM:  18    -0.188526217752E+03    0.33346E-01   -0.39603E-02  3679   0.292E-01    0.970E-01
RMM:  19    -0.188522741723E+03    0.34760E-02   -0.10927E-02  3682   0.160E-01    0.732E-01
RMM:  20    -0.188518843101E+03    0.38986E-02   -0.33037E-03  3685   0.860E-02    0.521E-01
RMM:  21    -0.188517391594E+03    0.14515E-02   -0.39948E-03  3678   0.937E-02    0.429E-01
RMM:  22    -0.188516425678E+03    0.96592E-03   -0.29137E-03  3681   0.807E-02    0.325E-01
RMM:  23    -0.188515543020E+03    0.88266E-03   -0.12971E-03  3680   0.548E-02    0.151E-01
RMM:  24    -0.188515548498E+03   -0.54786E-05   -0.32451E-04  3684   0.275E-02    0.797E-02
RMM:  25    -0.188515754852E+03   -0.20635E-03   -0.15918E-04  3679   0.190E-02    0.664E-02
RMM:  26    -0.188516113242E+03   -0.35839E-03   -0.87402E-05  3678   0.132E-02    0.520E-02
RMM:  27    -0.188516476807E+03   -0.36357E-03   -0.50325E-05  3672   0.104E-02    0.305E-02
RMM:  28    -0.188517041380E+03   -0.56457E-03   -0.41464E-05  3672   0.939E-03    0.203E-02
RMM:  29    -0.188517482705E+03   -0.44133E-03   -0.25060E-05  3630   0.689E-03    0.184E-02
RMM:  30    -0.188518300616E+03   -0.81791E-03   -0.47002E-05  3671   0.921E-03    0.138E-02
RMM:  31    -0.188518751102E+03   -0.45049E-03   -0.33299E-05  3486   0.731E-03    0.133E-02
RMM:  32    -0.188518934653E+03   -0.18355E-03   -0.12943E-05  2990   0.451E-03    0.793E-03
RMM:  33    -0.188519050717E+03   -0.11606E-03   -0.40383E-06  2600   0.258E-03    0.477E-03
RMM:  34    -0.188519146777E+03   -0.96060E-04   -0.21716E-06  2366   0.206E-03    0.345E-03
RMM:  35    -0.188519193617E+03   -0.46840E-04   -0.98251E-07  2179   0.136E-03    0.195E-03
RMM:  36    -0.188519234216E+03   -0.40599E-04   -0.76919E-07  2166   0.120E-03    0.183E-03
RMM:  37    -0.188519249895E+03   -0.15679E-04   -0.40917E-07  2048   0.864E-04    0.150E-03
RMM:  38    -0.188519259863E+03   -0.99681E-05   -0.25860E-07  1735   0.694E-04    0.842E-04
RMM:  39    -0.188519261896E+03   -0.20334E-05   -0.81175E-08  1167   0.430E-04    0.457E-04
RMM:  40    -0.188519263240E+03   -0.13436E-05   -0.48141E-08  1019   0.407E-04    0.330E-04
RMM:  41    -0.188519264185E+03   -0.94445E-06   -0.47776E-08  1036   0.393E-04
   1 F= -.18851926E+03 E0= -.18838266E+03  d E =-.188519E+03
       N       E                     dE             d eps       ncg     rms          rms(c)
DAV:   1    -0.189085340523E+03   -0.56608E+00   -0.19458E+02  3696   0.214E+01    0.239E+00
RMM:   2    -0.189295723456E+03   -0.21038E+00   -0.20839E+00  3682   0.310E+00    0.184E+00
RMM:   3    -0.189470383715E+03   -0.17466E+00   -0.22090E-01  3713   0.787E-01    0.412E+00
RMM:   4    -0.189292301849E+03    0.17808E+00   -0.99499E-02  3687   0.497E-01    0.157E+00
RMM:   5    -0.189280709873E+03    0.11592E-01   -0.49576E-02  3682   0.357E-01    0.105E+00
RMM:   6    -0.189279179757E+03    0.15301E-02   -0.21944E-02  3687   0.239E-01    0.934E-01
RMM:   7    -0.189271858215E+03    0.73215E-02   -0.94248E-03  3681   0.157E-01    0.403E-01
RMM:   8    -0.189270463896E+03    0.13943E-02   -0.24539E-03  3681   0.772E-02    0.256E-01
RMM:   9    -0.189269885386E+03    0.57851E-03   -0.10828E-03  3686   0.517E-02    0.140E-01
RMM:  10    -0.189269747903E+03    0.13748E-03   -0.48296E-04  3684   0.343E-02    0.961E-02
RMM:  11    -0.189269658287E+03    0.89615E-04   -0.17111E-04  3687   0.206E-02    0.433E-02
RMM:  12    -0.189269655715E+03    0.25720E-05   -0.34364E-05  3685   0.933E-03    0.332E-02
RMM:  13    -0.189269647739E+03    0.79760E-05   -0.13211E-05  3616   0.603E-03    0.133E-02
RMM:  14    -0.189269647363E+03    0.37628E-06   -0.46139E-06  2812   0.340E-03
   2 F= -.18926965E+03 E0= -.18913349E+03  d E =-.750383E+00
       N       E                     dE             d eps       ncg     rms          rms(c)
DAV:   1    -0.188368747385E+03    0.90090E+00   -0.18200E+03  3672   0.665E+01    0.594E+00
RMM:   2    -0.190238982382E+03   -0.18702E+01   -0.19215E+01  3681   0.943E+00    0.382E+00
RMM:   3    -0.190950605156E+03   -0.71162E+00   -0.13939E+00  3710   0.202E+00    0.815E+00
RMM:   4    -0.190191110828E+03    0.75949E+00   -0.45104E-01  3687   0.109E+00    0.342E+00
RMM:   5    -0.190147199993E+03    0.43911E-01   -0.22968E-01  3685   0.757E-01    0.270E+00
RMM:   6    -0.190182385670E+03   -0.35186E-01   -0.20994E-01  3685   0.716E-01    0.296E+00
RMM:   7    -0.190090282909E+03    0.92103E-01   -0.10020E-01  3683   0.502E-01    0.110E+00
RMM:   8    -0.190081866493E+03    0.84164E-02   -0.27323E-02  3684   0.259E-01    0.873E-01
RMM:   9    -0.190073697321E+03    0.81692E-02   -0.10573E-02  3681   0.163E-01    0.318E-01
RMM:  10    -0.190072877219E+03    0.82010E-03   -0.37525E-03  3684   0.935E-02    0.244E-01
RMM:  11    -0.190072496870E+03    0.38035E-03   -0.11214E-03  3685   0.520E-02    0.158E-01
RMM:  12    -0.190072358283E+03    0.13859E-03   -0.40097E-04  3686   0.320E-02    0.878E-02
RMM:  13    -0.190072342706E+03    0.15577E-04   -0.16491E-04  3682   0.207E-02    0.621E-02
RMM:  14    -0.190072318377E+03    0.24329E-04   -0.62144E-05  3678   0.126E-02    0.347E-02
RMM:  15    -0.190072311251E+03    0.71258E-05   -0.18273E-05  3671   0.694E-03    0.132E-02
RMM:  16    -0.190072315805E+03   -0.45542E-05   -0.49513E-06  2903   0.359E-03    0.892E-03
RMM:  17    -0.190072319189E+03   -0.33834E-05   -0.21061E-06  2225   0.251E-03    0.617E-03
RMM:  18    -0.190072323639E+03   -0.44501E-05   -0.82115E-07  2066   0.166E-03    0.352E-03
RMM:  19    -0.190072325876E+03   -0.22372E-05   -0.24994E-07  1990   0.879E-04    0.187E-03
RMM:  20    -0.190072329291E+03   -0.34150E-05   -0.76619E-08  1142   0.487E-04    0.125E-03
RMM:  21    -0.190072332706E+03   -0.34145E-05   -0.91586E-08  1438   0.514E-04    0.132E-03
RMM:  22    -0.190072337456E+03   -0.47502E-05   -0.13022E-07  1611   0.534E-04    0.171E-03
RMM:  23    -0.190072342002E+03   -0.45461E-05   -0.15889E-07  1512   0.495E-04    0.134E-03
RMM:  24    -0.190072344614E+03   -0.26125E-05   -0.92499E-08  1002   0.417E-04    0.874E-04
RMM:  25    -0.190072346832E+03   -0.22180E-05   -0.11914E-07  1266   0.484E-04    0.618E-04
RMM:  26    -0.190072347683E+03   -0.85026E-06   -0.46691E-08   859   0.397E-04
   3 F= -.19007235E+03 E0= -.18993792E+03  d E =-.155308E+01
       N       E                     dE             d eps       ncg     rms          rms(c)
DAV:   1    -0.190428639735E+03   -0.35629E+00   -0.32950E+02  3672   0.280E+01    0.211E+00
RMM:   2    -0.190799786583E+03   -0.37115E+00   -0.34725E+00  3682   0.403E+00    0.221E+00
RMM:   3    -0.190899918604E+03   -0.10013E+00   -0.26481E-01  3720   0.877E-01    0.390E+00
RMM:   4    -0.190756349099E+03    0.14357E+00   -0.55337E-02  3687   0.403E-01    0.140E+00
RMM:   5    -0.190747754979E+03    0.85941E-02   -0.29398E-02  3683   0.280E-01    0.107E+00
RMM:   6    -0.190746566127E+03    0.11889E-02   -0.43518E-02  3685   0.327E-01    0.910E-01
RMM:   7    -0.190739184320E+03    0.73818E-02   -0.17232E-02  3681   0.207E-01    0.516E-01
RMM:   8    -0.190736441279E+03    0.27430E-02   -0.29402E-03  3683   0.868E-02    0.214E-01
RMM:   9    -0.190735951792E+03    0.48949E-03   -0.11116E-03  3682   0.532E-02    0.128E-01
RMM:  10    -0.190735790084E+03    0.16171E-03   -0.33140E-04  3682   0.284E-02    0.836E-02
RMM:  11    -0.190735740149E+03    0.49935E-04   -0.14543E-04  3684   0.187E-02    0.606E-02
RMM:  12    -0.190735720997E+03    0.19152E-04   -0.11374E-04  3685   0.164E-02    0.387E-02
RMM:  13    -0.190735710010E+03    0.10987E-04   -0.33881E-05  3681   0.919E-03    0.180E-02
RMM:  14    -0.190735710973E+03   -0.96291E-06   -0.59523E-06  3032   0.401E-03
   4 F= -.19073571E+03 E0= -.19060309E+03  d E =-.663363E+00
       N       E                     dE             d eps       ncg     rms          rms(c)
DAV:   1    -0.189388666238E+03    0.13470E+01   -0.25124E+03  3672   0.789E+01    0.496E+00
RMM:   2    -0.191887975003E+03   -0.24993E+01   -0.25003E+01  3682   0.109E+01    0.432E+00
RMM:   3    -0.192540293395E+03   -0.65232E+00   -0.15669E+00  3715   0.214E+00    0.825E+00
RMM:   4    -0.191752897385E+03    0.78740E+00   -0.30701E-01  3685   0.933E-01    0.359E+00
RMM:   5    -0.191693862340E+03    0.59035E-01   -0.13254E-01  3685   0.587E-01    0.283E+00
RMM:   6    -0.191694828288E+03   -0.96595E-03   -0.28946E-01  3682   0.831E-01    0.277E+00
RMM:   7    -0.191642563741E+03    0.52265E-01   -0.18434E-01  3683   0.674E-01    0.195E+00
RMM:   8    -0.191607411585E+03    0.35152E-01   -0.38030E-02  3684   0.314E-01    0.774E-01
RMM:   9    -0.191602356733E+03    0.50549E-02   -0.10826E-02  3685   0.164E-01    0.515E-01
RMM:  10    -0.191600316542E+03    0.20402E-02   -0.39810E-03  3682   0.101E-01    0.399E-01
RMM:  11    -0.191599278266E+03    0.10383E-02   -0.22283E-03  3682   0.737E-02    0.278E-01
RMM:  12    -0.191598521972E+03    0.75629E-03   -0.19211E-03  3684   0.677E-02    0.127E-01
RMM:  13    -0.191598506193E+03    0.15780E-04   -0.80890E-04  3683   0.441E-02    0.989E-02
RMM:  14    -0.191598420193E+03    0.85999E-04   -0.18881E-04  3686   0.221E-02    0.382E-02
RMM:  15    -0.191598410515E+03    0.96784E-05   -0.26679E-05  3673   0.842E-03    0.234E-02
RMM:  16    -0.191598408951E+03    0.15635E-05   -0.13370E-05  3672   0.585E-03    0.143E-02
RMM:  17    -0.191598412090E+03   -0.31383E-05   -0.58559E-06  3096   0.384E-03    0.902E-03
RMM:  18    -0.191598419128E+03   -0.70388E-05   -0.30473E-06  2287   0.293E-03    0.400E-03
RMM:  19    -0.191598422717E+03   -0.35886E-05   -0.80633E-07  2043   0.170E-03    0.231E-03
RMM:  20    -0.191598427322E+03   -0.46055E-05   -0.25456E-07  2057   0.881E-04    0.151E-03
RMM:  21    -0.191598431529E+03   -0.42065E-05   -0.13357E-07  1479   0.579E-04    0.123E-03
RMM:  22    -0.191598435904E+03   -0.43748E-05   -0.13177E-07  1703   0.554E-04    0.130E-03
RMM:  23    -0.191598442362E+03   -0.64583E-05   -0.23739E-07  1557   0.578E-04    0.139E-03
RMM:  24    -0.191598445119E+03   -0.27573E-05   -0.12436E-07  1218   0.473E-04    0.102E-03
RMM:  25    -0.191598447365E+03   -0.22454E-05   -0.14161E-07  1445   0.477E-04    0.698E-04
RMM:  26    -0.191598448146E+03   -0.78191E-06   -0.53012E-08   833   0.352E-04
   5 F= -.19159845E+03 E0= -.19147076E+03  d E =-.152610E+01
       N       E                     dE             d eps       ncg     rms          rms(c)
DAV:   1    -0.191539599855E+03    0.58848E-01   -0.88606E+01  3720   0.145E+01    0.879E-01
RMM:   2    -0.191645930385E+03   -0.10633E+00   -0.95959E-01  3683   0.212E+00    0.131E+00
RMM:   3    -0.191650659479E+03   -0.47291E-02   -0.66173E-02  3721   0.446E-01    0.152E+00
RMM:   4    -0.191629509610E+03    0.21150E-01   -0.97352E-03  3685   0.173E-01    0.624E-01
RMM:   5    -0.191627695490E+03    0.18141E-02   -0.42203E-03  3684   0.108E-01    0.509E-01
RMM:   6    -0.191626988594E+03    0.70690E-03   -0.12060E-02  3681   0.172E-01    0.476E-01
RMM:   7    -0.191625211231E+03    0.17774E-02   -0.62290E-03  3681   0.123E-01    0.251E-01
RMM:   8    -0.191624703311E+03    0.50792E-03   -0.89702E-04  3687   0.481E-02    0.142E-01
RMM:   9    -0.191624499251E+03    0.20406E-03   -0.31177E-04  3680   0.283E-02    0.807E-02
RMM:  10    -0.191624438929E+03    0.60321E-04   -0.12271E-04  3680   0.172E-02    0.553E-02
RMM:  11    -0.191624411372E+03    0.27557E-04   -0.56813E-05  3680   0.116E-02    0.327E-02
RMM:  12    -0.191624407623E+03    0.37497E-05   -0.49298E-05  3683   0.107E-02    0.256E-02
RMM:  13    -0.191624402763E+03    0.48598E-05   -0.20570E-05  3677   0.700E-03    0.104E-02
RMM:  14    -0.191624402891E+03   -0.12785E-06   -0.25708E-06  2331   0.276E-03
   6 F= -.19162440E+03 E0= -.19149762E+03  d E =-.155206E+01
       N       E                     dE             d eps       ncg     rms          rms(c)
DAV:   1    -0.191589453408E+03    0.34949E-01   -0.40082E+02  3672   0.311E+01    0.242E+00
RMM:   2    -0.192072747665E+03   -0.48329E+00   -0.44671E+00  3685   0.451E+00    0.272E+00
RMM:   3    -0.192220550655E+03   -0.14780E+00   -0.35987E-01  3706   0.990E-01    0.462E+00
RMM:   4    -0.192013781190E+03    0.20677E+00   -0.77895E-02  3687   0.467E-01    0.179E+00
RMM:   5    -0.191994660033E+03    0.19121E-01   -0.30023E-02  3682   0.283E-01    0.112E+00
RMM:   6    -0.191997435238E+03   -0.27752E-02   -0.49645E-02  3683   0.346E-01    0.117E+00
RMM:   7    -0.191986160203E+03    0.11275E-01   -0.29588E-02  3682   0.271E-01    0.595E-01
RMM:   8    -0.191983431643E+03    0.27286E-02   -0.53424E-03  3684   0.117E-01    0.347E-01
RMM:   9    -0.191981961320E+03    0.14703E-02   -0.18418E-03  3681   0.695E-02    0.139E-01
RMM:  10    -0.191981814701E+03    0.14662E-03   -0.41541E-04  3681   0.318E-02    0.933E-02
RMM:  11    -0.191981737560E+03    0.77141E-04   -0.19082E-04  3681   0.214E-02    0.572E-02
RMM:  12    -0.191981721694E+03    0.15866E-04   -0.14497E-04  3683   0.185E-02    0.447E-02
RMM:  13    -0.191981707966E+03    0.13728E-04   -0.49920E-05  3685   0.111E-02    0.233E-02
RMM:  14    -0.191981708290E+03   -0.32393E-06   -0.11680E-05  3646   0.546E-03    0.184E-02
RMM:  15    -0.191981705837E+03    0.24531E-05   -0.34826E-06  2664   0.314E-03    0.611E-03
RMM:  16    -0.191981706433E+03   -0.59583E-06   -0.93134E-07  2023   0.168E-03
   7 F= -.19198171E+03 E0= -.19185681E+03  d E =-.357304E+00
       N       E                     dE             d eps       ncg     rms          rms(c)
DAV:   1    -0.191952828092E+03    0.28878E-01   -0.54399E+01  3672   0.114E+01    0.833E-01
RMM:   2    -0.192021194774E+03   -0.68367E-01   -0.61476E-01  3685   0.167E+00    0.113E+00
RMM:   3    -0.192032624105E+03   -0.11429E-01   -0.47893E-02  3708   0.364E-01    0.158E+00
RMM:   4    -0.192010220028E+03    0.22404E-01   -0.90656E-03  3686   0.162E-01    0.604E-01
RMM:   5    -0.192008260095E+03    0.19599E-02   -0.37569E-03  3682   0.101E-01    0.410E-01
RMM:   6    -0.192008559561E+03   -0.29947E-03   -0.69303E-03  3681   0.130E-01    0.423E-01
RMM:   7    -0.192007009123E+03    0.15504E-02   -0.39749E-03  3682   0.993E-02    0.175E-01
RMM:   8    -0.192006813585E+03    0.19554E-03   -0.62569E-04  3687   0.399E-02    0.120E-01
RMM:   9    -0.192006634998E+03    0.17859E-03   -0.21714E-04  3680   0.239E-02    0.505E-02
RMM:  10    -0.192006615997E+03    0.19001E-04   -0.52824E-05  3680   0.113E-02    0.333E-02
RMM:  11    -0.192006605217E+03    0.10780E-04   -0.25750E-05  3678   0.772E-03    0.184E-02
RMM:  12    -0.192006605071E+03    0.14641E-06   -0.20448E-05  3678   0.693E-03    0.168E-02
RMM:  13    -0.192006603585E+03    0.14851E-05   -0.80481E-06  3648   0.442E-03    0.768E-03
RMM:  14    -0.192006603826E+03   -0.24032E-06   -0.10973E-06  2031   0.184E-03
   8 F= -.19200660E+03 E0= -.19188239E+03  d E =-.382201E+00
       N       E                     dE             d eps       ncg     rms          rms(c)
DAV:   1    -0.191999782028E+03    0.68216E-02   -0.46037E+01  3672   0.105E+01    0.755E-01
RMM:   2    -0.192058413878E+03   -0.58632E-01   -0.53082E-01  3685   0.154E+00    0.104E+00
RMM:   3    -0.192067117532E+03   -0.87037E-02   -0.40301E-02  3706   0.330E-01    0.142E+00
RMM:   4    -0.192049078818E+03    0.18039E-01   -0.74425E-03  3686   0.146E-01    0.520E-01
RMM:   5    -0.192047818955E+03    0.12599E-02   -0.32418E-03  3682   0.934E-02    0.391E-01
RMM:   6    -0.192048148068E+03   -0.32911E-03   -0.56647E-03  3681   0.117E-01    0.411E-01
RMM:   7    -0.192046693254E+03    0.14548E-02   -0.36601E-03  3685   0.951E-02    0.145E-01
RMM:   8    -0.192046559777E+03    0.13348E-03   -0.49050E-04  3683   0.355E-02    0.105E-01
RMM:   9    -0.192046426592E+03    0.13318E-03   -0.16139E-04  3681   0.203E-02    0.460E-02
RMM:  10    -0.192046405419E+03    0.21173E-04   -0.46344E-05  3678   0.105E-02    0.301E-02
RMM:  11    -0.192046394857E+03    0.10562E-04   -0.23330E-05  3679   0.728E-03    0.157E-02
RMM:  12    -0.192046394235E+03    0.62214E-06   -0.20720E-05  3673   0.684E-03    0.145E-02
RMM:  13    -0.192046393050E+03    0.11851E-05   -0.64079E-06  3325   0.396E-03    0.617E-03
RMM:  14    -0.192046393385E+03   -0.33526E-06   -0.87471E-07  1996   0.171E-03
   9 F= -.19204639E+03 E0= -.19192265E+03  d E =-.397896E-01
       N       E                     dE             d eps       ncg     rms          rms(c)
DAV:   1    -0.192045646143E+03    0.74691E-03   -0.14986E+00  3732   0.189E+00    0.133E-01
RMM:   2    -0.192047580531E+03   -0.19344E-02   -0.17339E-02  3685   0.278E-01    0.203E-01
RMM:   3    -0.192047710947E+03   -0.13042E-03   -0.13122E-03  3706   0.597E-02    0.240E-01
RMM:   4    -0.192047197102E+03    0.51384E-03   -0.22476E-04  3686   0.257E-02    0.897E-02
RMM:   5    -0.192047181529E+03    0.15573E-04   -0.10187E-04  3682   0.166E-02    0.712E-02
RMM:   6    -0.192047208566E+03   -0.27037E-04   -0.18639E-04  3681   0.213E-02    0.747E-02
RMM:   7    -0.192047163599E+03    0.44966E-04   -0.11855E-04  3685   0.171E-02    0.243E-02
RMM:   8    -0.192047161145E+03    0.24539E-05   -0.15277E-05  3672   0.629E-03    0.183E-02
RMM:   9    -0.192047157213E+03    0.39323E-05   -0.49077E-06  2845   0.360E-03    0.831E-03
RMM:  10    -0.192047156595E+03    0.61854E-06   -0.14952E-06  1971   0.210E-03
  10 F= -.19204716E+03 E0= -.19192351E+03  d E =-.405528E-01
       N       E                     dE             d eps       ncg     rms          rms(c)
DAV:   1    -0.192048958467E+03   -0.18013E-02   -0.72992E+00  3672   0.417E+00    0.302E-01
RMM:   2    -0.192058608403E+03   -0.96499E-02   -0.86530E-02  3685   0.618E-01    0.446E-01
RMM:   3    -0.192058923402E+03   -0.31500E-03   -0.63824E-03  3709   0.132E-01    0.472E-01
RMM:   4    -0.192056935250E+03    0.19882E-02   -0.12852E-03  3684   0.604E-02    0.196E-01
RMM:   5    -0.192056761607E+03    0.17364E-03   -0.66485E-04  3679   0.420E-02    0.157E-01
RMM:   6    -0.192056949826E+03   -0.18822E-03   -0.10539E-03  3681   0.505E-02    0.190E-01
RMM:   7    -0.192056651844E+03    0.29798E-03   -0.68324E-04  3683   0.410E-02    0.732E-02
RMM:   8    -0.192056617915E+03    0.33930E-04   -0.10142E-04  3685   0.160E-02    0.465E-02
RMM:   9    -0.192056590252E+03    0.27663E-04   -0.33716E-05  3677   0.907E-03    0.236E-02
RMM:  10    -0.192056584804E+03    0.54482E-05   -0.10887E-05  3655   0.513E-03    0.150E-02
RMM:  11    -0.192056581843E+03    0.29605E-05   -0.74375E-06  3608   0.405E-03    0.786E-03
RMM:  12    -0.192056581565E+03    0.27777E-06   -0.31434E-06  2402   0.281E-03
  11 F= -.19205658E+03 E0= -.19193315E+03  d E =-.942497E-02
       N       E                     dE             d eps       ncg     rms          rms(c)
DAV:   1    -0.192053461409E+03    0.31204E-02   -0.44577E+00  3672   0.326E+00    0.234E-01
RMM:   2    -0.192059419400E+03   -0.59580E-02   -0.52893E-02  3685   0.483E-01    0.359E-01
RMM:   3    -0.192059432421E+03   -0.13020E-04   -0.38869E-03  3709   0.103E-01    0.357E-01
RMM:   4    -0.192058314078E+03    0.11183E-02   -0.76418E-04  3684   0.466E-02    0.153E-01
RMM:   5    -0.192058211558E+03    0.10252E-03   -0.39792E-04  3679   0.326E-02    0.123E-01
RMM:   6    -0.192058336776E+03   -0.12522E-03   -0.64669E-04  3681   0.395E-02    0.151E-01
RMM:   7    -0.192058151544E+03    0.18523E-03   -0.42808E-04  3683   0.325E-02    0.569E-02
RMM:   8    -0.192058130954E+03    0.20590E-04   -0.62551E-05  3685   0.126E-02    0.357E-02
RMM:   9    -0.192058114658E+03    0.16296E-04   -0.20541E-05  3675   0.708E-03    0.188E-02
RMM:  10    -0.192058111256E+03    0.34011E-05   -0.65391E-06  3177   0.402E-03    0.119E-02
RMM:  11    -0.192058109435E+03    0.18214E-05   -0.46864E-06  2850   0.337E-03    0.627E-03
RMM:  12    -0.192058109288E+03    0.14663E-06   -0.22624E-06  2028   0.259E-03
  12 F= -.19205811E+03 E0= -.19193486E+03  d E =-.109527E-01
       N       E                     dE             d eps       ncg     rms          rms(c)
DAV:   1    -0.192055981716E+03    0.21277E-02   -0.57882E+00  3672   0.371E+00    0.244E-01
RMM:   2    -0.192064133065E+03   -0.81513E-02   -0.68849E-02  3684   0.551E-01    0.454E-01
RMM:   3    -0.192063300594E+03    0.83247E-03   -0.50284E-03  3709   0.118E-01    0.339E-01
RMM:   4    -0.192062409857E+03    0.89074E-03   -0.92503E-04  3684   0.509E-02    0.201E-01
RMM:   5    -0.192062115296E+03    0.29456E-03   -0.32647E-04  3685   0.301E-02    0.115E-01
RMM:   6    -0.192062249264E+03   -0.13397E-03   -0.73820E-04  3681   0.421E-02    0.152E-01
RMM:   7    -0.192062074768E+03    0.17450E-03   -0.63963E-04  3684   0.392E-02    0.671E-02
RMM:   8    -0.192062050081E+03    0.24687E-04   -0.90282E-05  3684   0.150E-02    0.464E-02
RMM:   9    -0.192062023936E+03    0.26145E-04   -0.27532E-05  3676   0.834E-03    0.237E-02
RMM:  10    -0.192062018793E+03    0.51426E-05   -0.92346E-06  3597   0.477E-03    0.142E-02
RMM:  11    -0.192062016248E+03    0.25450E-05   -0.71006E-06  3589   0.395E-03    0.728E-03
RMM:  12    -0.192062016044E+03    0.20413E-06   -0.38371E-06  2608   0.304E-03
  13 F= -.19206202E+03 E0= -.19193899E+03  d E =-.390676E-02
       N       E                     dE             d eps       ncg     rms          rms(c)
DAV:   1    -0.192061776617E+03    0.23963E-03   -0.35202E-01  3720   0.914E-01    0.601E-02
RMM:   2    -0.192062291694E+03   -0.51508E-03   -0.42140E-03  3685   0.136E-01    0.123E-01
RMM:   3    -0.192062199905E+03    0.91789E-04   -0.31113E-04  3708   0.295E-02    0.789E-02
RMM:   4    -0.192062158242E+03    0.41663E-04   -0.55744E-05  3684   0.125E-02    0.495E-02
RMM:   5    -0.192062142317E+03    0.15925E-04   -0.19959E-05  3681   0.746E-03    0.287E-02
RMM:   6    -0.192062154435E+03   -0.12118E-04   -0.45023E-05  3677   0.104E-02    0.384E-02
RMM:   7    -0.192062144089E+03    0.10346E-04   -0.40957E-05  3682   0.993E-03    0.163E-02
RMM:   8    -0.192062142616E+03    0.14730E-05   -0.53551E-06  2871   0.371E-03    0.112E-02
RMM:   9    -0.192062141166E+03    0.14495E-05   -0.16168E-06  2064   0.221E-03    0.619E-03
RMM:  10    -0.192062140869E+03    0.29689E-06   -0.68841E-07  1946   0.150E-03
  14 F= -.19206214E+03 E0= -.19193918E+03  d E =-.403158E-02
       N       E                     dE             d eps       ncg     rms          rms(c)
DAV:   1    -0.192061769230E+03    0.37194E-03   -0.20843E+00  3672   0.223E+00    0.154E-01
RMM:   2    -0.192064435668E+03   -0.26664E-02   -0.24295E-02  3685   0.328E-01    0.235E-01
RMM:   3    -0.192064560864E+03   -0.12520E-03   -0.17974E-03  3702   0.702E-02    0.257E-01
RMM:   4    -0.192064032057E+03    0.52881E-03   -0.36825E-04  3686   0.316E-02    0.132E-01
RMM:   5    -0.192063909014E+03    0.12304E-03   -0.14391E-04  3679   0.198E-02    0.690E-02
RMM:   6    -0.192063957171E+03   -0.48157E-04   -0.27637E-04  3681   0.258E-02    0.897E-02
RMM:   7    -0.192063892594E+03    0.64577E-04   -0.18519E-04  3683   0.213E-02    0.364E-02
RMM:   8    -0.192063886893E+03    0.57009E-05   -0.30024E-05  3680   0.870E-03    0.263E-02
RMM:   9    -0.192063878140E+03    0.87526E-05   -0.90737E-06  3663   0.477E-03    0.119E-02
RMM:  10    -0.192063876657E+03    0.14833E-05   -0.27934E-06  2345   0.275E-03    0.720E-03
RMM:  11    -0.192063875985E+03    0.67244E-06   -0.25269E-06  1970   0.266E-03
  15 F= -.19206388E+03 E0= -.19194104E+03  d E =-.173512E-02
       N       E                     dE             d eps       ncg     rms          rms(c)
DAV:   1    -0.192063857046E+03    0.19611E-04   -0.44730E-02  3744   0.327E-01    0.227E-02
RMM:   2    -0.192063917471E+03   -0.60424E-04   -0.52870E-04  3685   0.485E-02    0.396E-02
RMM:   3    -0.192063914045E+03    0.34261E-05   -0.39945E-05  3702   0.105E-02    0.357E-02
RMM:   4    -0.192063904554E+03    0.94907E-05   -0.80252E-06  3395   0.471E-03    0.199E-02
RMM:   5    -0.192063902011E+03    0.25428E-05   -0.30587E-06  2498   0.303E-03    0.103E-02
RMM:   6    -0.192063903483E+03   -0.14717E-05   -0.60768E-06  3120   0.397E-03    0.138E-02
RMM:   7    -0.192063901915E+03    0.15679E-05   -0.47120E-06  2794   0.363E-03    0.561E-03
RMM:   8    -0.192063901756E+03    0.15892E-06   -0.87794E-07  1942   0.177E-03
  16 F= -.19206390E+03 E0= -.19194109E+03  d E =-.176089E-02
       N       E                     dE             d eps       ncg     rms          rms(c)
DAV:   1    -0.192063656766E+03    0.24515E-03   -0.10176E+00  3672   0.156E+00    0.103E-01
RMM:   2    -0.192064910280E+03   -0.12535E-02   -0.11738E-02  3684   0.230E-01    0.149E-01
RMM:   3    -0.192065009724E+03   -0.99444E-04   -0.86163E-04  3706   0.491E-02    0.180E-01
RMM:   4    -0.192064740265E+03    0.26946E-03   -0.15221E-04  3688   0.206E-02    0.807E-02
RMM:   5    -0.192064708459E+03    0.31806E-04   -0.71781E-05  3683   0.139E-02    0.567E-02
RMM:   6    -0.192064726022E+03   -0.17563E-04   -0.13448E-04  3681   0.180E-02    0.658E-02
RMM:   7    -0.192064691885E+03    0.34137E-04   -0.96577E-05  3685   0.154E-02    0.245E-02
RMM:   8    -0.192064690256E+03    0.16290E-05   -0.15212E-05  3615   0.622E-03    0.177E-02
RMM:   9    -0.192064686863E+03    0.33932E-05   -0.34501E-06  2587   0.299E-03    0.976E-03
RMM:  10    -0.192064685816E+03    0.10466E-05   -0.16191E-06  1960   0.225E-03    0.598E-03
RMM:  11    -0.192064685282E+03    0.53438E-06   -0.22069E-06  1948   0.247E-03
  17 F= -.19206469E+03 E0= -.19194198E+03  d E =-.783526E-03
       N       E                     dE             d eps       ncg     rms          rms(c)
DAV:   1    -0.192064546406E+03    0.13941E-03   -0.19716E-01  3684   0.686E-01    0.454E-02
RMM:   2    -0.192064796264E+03   -0.24986E-03   -0.22871E-03  3685   0.101E-01    0.709E-02
RMM:   3    -0.192064802663E+03   -0.63983E-05   -0.16919E-04  3706   0.217E-02    0.773E-02
RMM:   4    -0.192064753681E+03    0.48982E-04   -0.29460E-05  3688   0.907E-03    0.359E-02
RMM:   5    -0.192064748046E+03    0.56354E-05   -0.13809E-05  3675   0.612E-03    0.251E-02
RMM:   6    -0.192064752940E+03   -0.48947E-05   -0.26315E-05  3678   0.796E-03    0.302E-02
RMM:   7    -0.192064745652E+03    0.72879E-05   -0.19716E-05  3672   0.696E-03    0.107E-02
RMM:   8    -0.192064745260E+03    0.39233E-06   -0.27728E-06  2441   0.275E-03
  18 F= -.19206475E+03 E0= -.19194208E+03  d E =-.843504E-03
       N       E                     dE             d eps       ncg     rms          rms(c)
DAV:   1    -0.192064452500E+03    0.29315E-03   -0.69938E-01  3672   0.129E+00    0.812E-02
RMM:   2    -0.192065290956E+03   -0.83846E-03   -0.79369E-03  3684   0.190E-01    0.114E-01
RMM:   3    -0.192065359795E+03   -0.68839E-04   -0.56721E-04  3710   0.404E-02    0.142E-01
RMM:   4    -0.192065185882E+03    0.17391E-03   -0.96944E-05  3682   0.166E-02    0.616E-02
RMM:   5    -0.192065170549E+03    0.15333E-04   -0.42366E-05  3685   0.108E-02    0.461E-02
RMM:   6    -0.192065180463E+03   -0.99142E-05   -0.83844E-05  3679   0.142E-02    0.520E-02
RMM:   7    -0.192065161838E+03    0.18626E-04   -0.76052E-05  3684   0.136E-02    0.226E-02
RMM:   8    -0.192065159928E+03    0.19100E-05   -0.10912E-05  3434   0.528E-03    0.156E-02
RMM:   9    -0.192065157249E+03    0.26784E-05   -0.23947E-06  2236   0.261E-03    0.819E-03
RMM:  10    -0.192065156633E+03    0.61655E-06   -0.10392E-06  1947   0.185E-03
  19 F= -.19206516E+03 E0= -.19194255E+03  d E =-.411373E-03
