 vasp.5.4.1 24Jun15 (build Mar 14 2019 10:18:33) complex                        
  
 executed on INTEL-19.0.2+OPENMPI date 2023.01.30  16:27:02
 running on   36 total cores
 distrk:  each k-point on   36 cores,    1 groups
 distr:  one band on NCORES_PER_BAND=   6 cores,    6 groups


--------------------------------------------------------------------------------------------------------


 INCAR:
 POTCAR:    PAW_PBE Au 04Oct2007                  
 POTCAR:    PAW_PBE Pd 04Jan2005                  
 POTCAR:    PAW_PBE Au 04Oct2007                  
  local pseudopotential read in
  partial core-charges read in
  partial kinetic energy density read in
  atomic valenz-charges read in
  non local Contribution for L=           2  read in
    real space projection operators read in
  non local Contribution for L=           2  read in
    real space projection operators read in
  non local Contribution for L=           0  read in
    real space projection operators read in
  non local Contribution for L=           0  read in
    real space projection operators read in
  non local Contribution for L=           1  read in
    real space projection operators read in
  non local Contribution for L=           1  read in
    real space projection operators read in
    PAW grid and wavefunctions read in
 
   number of l-projection  operators is LMAX  =           6
   number of lm-projection operators is LMMAX =          18
 
 POTCAR:    PAW_PBE Pd 04Jan2005                  
  local pseudopotential read in
  partial core-charges read in
  partial kinetic energy density read in
  atomic valenz-charges read in
  non local Contribution for L=           2  read in
    real space projection operators read in
  non local Contribution for L=           2  read in
    real space projection operators read in
  non local Contribution for L=           0  read in
    real space projection operators read in
  non local Contribution for L=           0  read in
    real space projection operators read in
  non local Contribution for L=           1  read in
    real space projection operators read in
  non local Contribution for L=           1  read in
    real space projection operators read in
    PAW grid and wavefunctions read in
 
   number of l-projection  operators is LMAX  =           6
   number of lm-projection operators is LMMAX =          18
 
 Optimization of the real space projectors (new method)

 maximal supplied QI-value         = 15.12
 optimisation between [QCUT,QGAM] = [ 10.13, 20.41] = [ 28.73,116.64] Ry 
 Optimized for a Real-space Cutoff    1.51 Angstroem

   l    n(q)    QCUT    max X(q) W(low)/X(q) W(high)/X(q)  e(spline) 
   2      8    10.129    60.898    0.46E-03    0.46E-03    0.14E-06
   2      8    10.129    58.894    0.47E-03    0.47E-03    0.14E-06
   0      9    10.129   109.617    0.16E-03    0.11E-03    0.54E-07
   0      9    10.129    75.026    0.15E-03    0.11E-03    0.52E-07
   1      9    10.129    16.344    0.96E-04    0.15E-03    0.14E-06
   1      9    10.129    10.160    0.81E-04    0.12E-03    0.11E-06
 Optimization of the real space projectors (new method)

 maximal supplied QI-value         = 14.36
 optimisation between [QCUT,QGAM] = [ 10.20, 20.39] = [ 29.12,116.47] Ry 
 Optimized for a Real-space Cutoff    1.51 Angstroem

   l    n(q)    QCUT    max X(q) W(low)/X(q) W(high)/X(q)  e(spline) 
   2      8    10.197    59.108    0.26E-03    0.14E-03    0.96E-07
   2      8    10.197    58.101    0.27E-03    0.14E-03    0.98E-07
   0      9    10.197   102.235    0.54E-04    0.60E-05    0.72E-07
   0      9    10.197    58.388    0.52E-04    0.60E-05    0.68E-07
   1      9    10.197    22.191    0.18E-03    0.25E-03    0.79E-07
   1      9    10.197    15.590    0.15E-03    0.21E-03    0.69E-07
  PAW_PBE Au 04Oct2007                  :
 energy of atom  1       EATOM= -926.0867
 kinetic energy error for atom=    0.0062 (will be added to EATOM!!)
  PAW_PBE Pd 04Jan2005                  :
 energy of atom  2       EATOM= -809.7530
 kinetic energy error for atom=    0.0091 (will be added to EATOM!!)
 
 
 POSCAR: Au Pd                                   
  positions in cartesian coordinates
  No initial velocities read in
 exchange correlation table for  LEXCH =        8
   RHO(1)=    0.500       N(1)  =     2000
   RHO(2)=  100.500       N(2)  =     4000

 VTST: version 3.2, (02/03/18)

 CHAIN: initializing optimizer
 
 OPT: Using VASP Conjugate-Gradient optimizer
 CHAIN: Read ICHAIN            0
 
 POSCAR: Au Pd                                   
  positions in cartesian coordinates
  No initial velocities read in
 


--------------------------------------------------------------------------------------------------------


 ion  position               nearest neighbor table
   1  0.083  0.083  0.408-  32 2.75  30 2.75  26 2.75  36 2.75  40 2.75  19 2.75   5 2.75  34 2.75
                             6 2.75
   2  0.083  0.583  0.408-  11 2.75  13 2.75  23 2.75  26 2.75  36 2.75  29 2.75  43 2.75   9 2.75
                            47 2.75
   3  0.000  0.250  0.592-  39 2.75  32 2.75  35 2.75   7 2.75  44 2.75  45 2.75  10 2.75  42 2.75
                             6 2.75
   4  0.917  0.917  0.500-  23 2.75  28 2.75  21 2.75   6 2.75  11 2.75  20 2.75  47 2.75  34 2.75
                            12 2.75  19 2.75  44 2.75  26 2.75
   5  0.333  0.083  0.408-  27 2.75  13 2.75  30 2.75  36 2.75  46 2.75   1 2.75  24 2.75  38 2.75
                            32 2.75
   6  0.917  0.167  0.500-  19 2.75  44 2.75  42 2.75  39 2.75  41 2.75   4 2.75  34 2.75  32 2.75
                            20 2.75  40 2.75   1 2.75   3 2.75
   7  0.250  0.000  0.592-  32 2.75  38 2.75  18 2.75   3 2.75  10 2.75  48 2.75  44 2.75  14 2.75
                            34 2.75
   8  0.750  0.750  0.592-  12 2.75  47 2.75  21 2.75  35 2.75  45 2.75  14 2.75  28 2.75  18 2.75
                            22 2.75
   9  0.167  0.417  0.500-  36 2.75  10 2.75  35 2.75  32 2.75  11 2.75  27 2.75  47 2.75  39 2.75
                            25 2.75   2 2.75  31 2.75  13 2.75
  10  0.250  0.250  0.592-   9 2.75  27 2.75  14 2.75   7 2.75  31 2.75  35 2.75  33 2.75   3 2.75
                            32 2.75
  11  0.167  0.667  0.500-   2 2.75  31 2.75  28 2.75  25 2.75   4 2.75   9 2.75  34 2.75  17 2.75
                            47 2.75  26 2.75  29 2.75  48 2.75
  12  0.667  0.917  0.500-  46 2.75   8 2.75  14 2.75  22 2.75  27 2.75  20 2.75  47 2.75   4 2.75
                            38 2.75  24 2.75  23 2.75  21 2.75
  13  0.333  0.333  0.408-  25 2.75   5 2.75  24 2.75   2 2.75  29 2.75  15 2.75  36 2.75  27 2.75
                             9 2.75
  14  0.500  0.000  0.592-  27 2.75  12 2.75   8 2.75  18 2.75  10 2.75  33 2.75   7 2.75  21 2.75
                            38 2.75
  15  0.583  0.333  0.408-  41 2.75  19 2.75  24 2.75  29 2.75  16 2.75  40 2.75  13 2.75  20 2.75
                            25 2.75
  16  0.583  0.583  0.408-  22 2.75  15 2.75  30 2.75  40 2.75  46 2.75  43 2.75  29 2.75  41 2.75
                            17 2.75
  17  0.417  0.667  0.500-  29 2.75  37 2.75  48 2.75  25 2.75  38 2.75  41 2.75  34 2.75  22 2.75
                            11 2.75  30 2.75  18 2.75  16 2.75
  18  0.500  0.750  0.592-  38 2.75  22 2.75   7 2.75  37 2.75  14 2.75  45 2.75   8 2.75  48 2.75
                            17 2.75
  19  0.833  0.083  0.408-   6 2.75  15 2.75  23 2.75  26 2.75  40 2.75   1 2.75  24 2.75   4 2.75
                            20 2.75
  20  0.667  0.167  0.500-  24 2.75  21 2.75  33 2.75  12 2.75  25 2.75   4 2.75  41 2.75   6 2.75
                            27 2.75  15 2.75  19 2.75  42 2.75
  21  0.750  0.000  0.592-  20 2.75   4 2.75   8 2.75  28 2.75  33 2.75  42 2.75  14 2.75  44 2.75
                            12 2.75
  22  0.667  0.667  0.500-  16 2.75  45 2.75  18 2.75  38 2.75  39 2.75  41 2.75  12 2.75  17 2.75
                            47 2.75  46 2.75  43 2.75   8 2.75
  23  0.833  0.833  0.408-   4 2.75   2 2.75  19 2.75  24 2.75  43 2.75  26 2.75  46 2.75  47 2.75
                            12 2.75
  24  0.583  0.083  0.408-  20 2.75  15 2.75  13 2.75  23 2.75  46 2.75  19 2.75   5 2.75  12 2.75
                            27 2.75
  25  0.417  0.417  0.500-  13 2.75  33 2.75  31 2.75  20 2.75  27 2.75  11 2.75  17 2.75   9 2.75
                            41 2.75  29 2.75  37 2.75  15 2.75
  26  0.083  0.833  0.408-  34 2.75   2 2.75  19 2.75  29 2.75   1 2.75  30 2.75  23 2.75  11 2.75
                             4 2.75
  27  0.417  0.167  0.500-   5 2.75  14 2.75  10 2.75  12 2.75   9 2.75  25 2.75  38 2.75  32 2.75
                            20 2.75  13 2.75  33 2.75  24 2.75
  28  0.000  0.750  0.592-   4 2.75  11 2.75  21 2.75  31 2.75  35 2.75  44 2.75   8 2.75  48 2.75
                            47 2.75
  29  0.333  0.583  0.408-  17 2.75  15 2.75  13 2.75  26 2.75  30 2.75  16 2.75   2 2.75  25 2.75
                            11 2.75
  30  0.333  0.833  0.408-  38 2.75   5 2.75  16 2.75  29 2.75   1 2.75  26 2.75  46 2.75  17 2.75
                            34 2.75
  31  0.250  0.500  0.592-  11 2.75  25 2.75  10 2.75  28 2.75  33 2.75  48 2.75  37 2.75  35 2.75
                             9 2.75
  32  0.167  0.167  0.500-   1 2.75   7 2.75   3 2.75   9 2.75  34 2.75  38 2.75  39 2.75  27 2.75
                             6 2.75  36 2.75  10 2.75   5 2.75
  33  0.500  0.250  0.592-  25 2.75  20 2.75  21 2.75  14 2.75  31 2.75  37 2.75  10 2.75  42 2.75
                            27 2.75
  34  0.167  0.917  0.500-  26 2.75  48 2.75  44 2.75   6 2.75  32 2.75  11 2.75  17 2.75   4 2.75
                            38 2.75   1 2.75   7 2.75  30 2.75
  35  0.000  0.500  0.592-  47 2.75   9 2.75   3 2.75  10 2.75  28 2.75   8 2.75  45 2.75  31 2.75
                            39 2.75
  36  0.083  0.333  0.408-   9 2.75   2 2.75   5 2.75   1 2.75  43 2.75  40 2.75  13 2.75  32 2.75
                            39 2.75
  37  0.500  0.500  0.592-  17 2.75  41 2.75  33 2.75  18 2.75  42 2.75  48 2.75  45 2.75  31 2.75
                            25 2.75
  38  0.417  0.917  0.500-  30 2.75  18 2.75   7 2.75  22 2.75  27 2.75  17 2.75  32 2.75  12 2.75
                            34 2.75   5 2.75  14 2.75  46 2.75
  39  0.917  0.417  0.500-  40 2.75   3 2.75  45 2.75  32 2.75   6 2.75  22 2.75  47 2.75   9 2.75
                            41 2.75  43 2.75  36 2.75  35 2.75
  40  0.833  0.333  0.408-  39 2.75  16 2.75  19 2.75   1 2.75  43 2.75  15 2.75  36 2.75   6 2.75
                            41 2.75
  41  0.667  0.417  0.500-  15 2.75  42 2.75  37 2.75  20 2.75  22 2.75   6 2.75  17 2.75  39 2.75
                            25 2.75  16 2.75  40 2.75  45 2.75
  42  0.750  0.250  0.592-  41 2.75   6 2.75  37 2.75  21 2.75  44 2.75  45 2.75   3 2.75  33 2.75
                            20 2.75
  43  0.833  0.583  0.408-  47 2.75  36 2.75  40 2.75  46 2.75  23 2.75  16 2.75   2 2.75  39 2.75
                            22 2.75
  44  0.000  0.000  0.592-   6 2.75  34 2.75  28 2.75   3 2.75  42 2.75  48 2.75   7 2.75  21 2.75
                             4 2.75
  45  0.750  0.500  0.592-  22 2.75  39 2.75  18 2.75   3 2.75   8 2.75  42 2.75  35 2.75  37 2.75
                            41 2.75
  46  0.583  0.833  0.408-  12 2.75   5 2.75  16 2.75  24 2.75  43 2.75  30 2.75  23 2.75  22 2.75
                            38 2.75
  47  0.917  0.667  0.500-  43 2.75  35 2.75   8 2.75  12 2.75   4 2.75  39 2.75   9 2.75  22 2.75
                            11 2.75  23 2.75  28 2.75   2 2.75
  48  0.250  0.750  0.592-  34 2.75  17 2.75  31 2.75   7 2.75  37 2.75  44 2.75  18 2.75  28 2.75
                            11 2.75
 
  LATTYP: Found a hexagonal cell.
 ALAT       =    11.0025815153
 C/A-ratio  =     2.2260035120
  
  Lattice vectors:
  
 A1 = (   5.5012907576,  -9.5285150994,   0.0000000000)
 A2 = ( -11.0025815153,   0.0000000000,   0.0000000000)
 A3 = (   0.0000000000,   0.0000000000, -24.4917850943)


Analysis of symmetry for initial positions (statically):
=====================================================================
 Subroutine PRICEL returns:
 Original cell was already a primitive cell.
 

 Routine SETGRP: Setting up the symmetry group for a 
 hexagonal supercell.


 Subroutine GETGRP returns: Found  1 space group operations
 (whereof  1 operations were pure point group operations)
 out of a pool of 24 trial point group operations.


The static configuration has the point symmetry C_1 .


Analysis of symmetry for dynamics (positions and initial velocities):
=====================================================================
 Subroutine PRICEL returns:
 Original cell was already a primitive cell.
 

 Routine SETGRP: Setting up the symmetry group for a 
 hexagonal supercell.


 Subroutine GETGRP returns: Found  1 space group operations
 (whereof  1 operations were pure point group operations)
 out of a pool of 24 trial point group operations.


The dynamic configuration has the point symmetry C_1 .


Analysis of constrained symmetry for selective dynamics:
=====================================================================
 Subroutine PRICEL returns:
 Original cell was already a primitive cell.
 

 Routine SETGRP: Setting up the symmetry group for a 
 hexagonal supercell.


 Subroutine GETGRP returns: Found  1 space group operations
 (whereof  1 operations were pure point group operations)
 out of a pool of 24 trial point group operations.


The constrained configuration has the point symmetry C_1 .
 
 
 KPOINTS: Automatic mesh                          

Automatic generation of k-mesh.
Space group operators:
 irot       det(A)        alpha          n_x          n_y          n_z        tau_x        tau_y        tau_z
    1     1.000000     0.000000     1.000000     0.000000     0.000000     0.000000     0.000000     0.000000
 
 Subroutine IBZKPT returns following result:
 ===========================================
 
 Found      6 irreducible k-points:
 
 Following reciprocal coordinates:
            Coordinates               Weight
  0.250000  0.250000  0.000000     16.000000
  0.000000  0.250000  0.000000     16.000000
 -0.250000  0.000000  0.000000     16.000000
 -0.250000  0.250000  0.000000     16.000000
  0.500000 -0.250000  0.000000     16.000000
 -0.250000  0.500000  0.000000     16.000000
 
 Following cartesian coordinates:
            Coordinates               Weight
  0.022722  0.013119  0.000000     16.000000
  0.000000  0.026237  0.000000     16.000000
 -0.022722  0.013119  0.000000     16.000000
 -0.022722  0.039356  0.000000     16.000000
  0.045444 -0.052474  0.000000     16.000000
 -0.022722  0.065593  0.000000     16.000000
 


--------------------------------------------------------------------------------------------------------




 Dimension of arrays:
   k-points           NKPTS =      6   k-points in BZ     NKDIM =      6   number of bands    NBANDS=    306
   number of dos      NEDOS =    301   number of ions     NIONS =     48
   non local maximal  LDIM  =      6   non local SUM 2l+1 LMDIM =     18
   total plane-waves  NPLWV = 349920
   max r-space proj   IRMAX =   2009   max aug-charges    IRDMAX=   8532
   dimension x,y,z NGX =    54 NGY =   54 NGZ =  120
   dimension x,y,z NGXF=   108 NGYF=  108 NGZF=  240
   support grid    NGXF=   108 NGYF=  108 NGZF=  240
   ions per type =              24  24
 NGX,Y,Z   is equivalent  to a cutoff of   8.16,  8.16,  8.15 a.u.
 NGXF,Y,Z  is equivalent  to a cutoff of  16.32, 16.32, 16.29 a.u.


 I would recommend the setting:
   dimension x,y,z NGX =    54 NGY =   54 NGZ =  120
 SYSTEM =  unknown system                          
 POSCAR =  Au Pd                                   

 Startparameter for this run:
   NWRITE =      1    write-flag & timer
   PREC   = normal    normal or accurate (medium, high low for compatibility)
   ISTART =      0    job   : 0-new  1-cont  2-samecut
   ICHARG =      2    charge: 1-file 2-atom 10-const
   ISPIN  =      1    spin polarized calculation?
   LNONCOLLINEAR =      F non collinear calculations
   LSORBIT =      F    spin-orbit coupling
   INIWAV =      1    electr: 0-lowe 1-rand  2-diag
   LASPH  =      F    aspherical Exc in radial PAW
   METAGGA=      F    non-selfconsistent MetaGGA calc.

 Electronic Relaxation 1
   ENCUT  =  400.0 eV  29.40 Ry    5.42 a.u.  17.94 17.94 39.94*2*pi/ulx,y,z
   ENINI  =  400.0     initial cutoff
   ENAUG  =  416.2 eV  augmentation charge cutoff
   NELM   =    500;   NELMIN=  2; NELMDL= -5     # of ELM steps 
   EDIFF  = 0.1E-05   stopping-criterion for ELM
   LREAL  =      T    real-space projection
   NLSPLINE    = F    spline interpolate recip. space projectors
   LCOMPAT=      F    compatible to vasp.4.4
   GGA_COMPAT  = T    GGA compatible to vasp.4.4-vasp.4.6
   LMAXPAW     = -100 max onsite density
   LMAXMIX     =    2 max onsite mixed and CHGCAR
   VOSKOWN=      1    Vosko Wilk Nusair interpolation
   ROPT   =   -0.00050  -0.00050
 Ionic relaxation
   EDIFFG = -.2E-01   stopping-criterion for IOM
   NSW    =    500    number of steps for IOM
   NBLOCK =      1;   KBLOCK =    500    inner block; outer block 
   IBRION =      2    ionic relax: 0-MD 1-quasi-New 2-CG
   NFREE  =      2    steps in history (QN), initial steepest desc. (CG)
   ISIF   =      0    stress and relaxation
   IWAVPR =     11    prediction:  0-non 1-charg 2-wave 3-comb
   ISYM   =      2    0-nonsym 1-usesym 2-fastsym
   LCORR  =      T    Harris-Foulkes like correction to forces

   POTIM  = 0.3500    time-step for ionic-motion
   TEIN   =    0.0    initial temperature
   TEBEG  =    0.0;   TEEND  =   0.0 temperature during run
   SMASS  =  -3.00    Nose mass-parameter (am)
   estimated Nose-frequenzy (Omega)   =  0.10E-29 period in steps =****** mass=  -0.277E-26a.u.
   SCALEE = 1.0000    scale energy and forces
   NPACO  =    256;   APACO  = 16.0  distance and # of slots for P.C.
   PSTRESS=    0.0 pullay stress

  Mass of Ions in am
   POMASS = 196.97106.42
  Ionic Valenz
   ZVAL   =  11.00 10.00
  Atomic Wigner-Seitz radii
   RWIGS  =  -1.00 -1.00
  virtual crystal weights 
   VCA    =   1.00  1.00
   NELECT =     504.0000    total number of electrons
   NUPDOWN=      -1.0000    fix difference up-down

 DOS related values:
   EMIN   =  10.00;   EMAX   =-10.00  energy-range for DOS
   EFERMI =   0.00
   ISMEAR =     0;   SIGMA  =   0.10  broadening in eV -4-tet -1-fermi 0-gaus

 Electronic relaxation 2 (details)
   IALGO  =     68    algorithm
   LDIAG  =      T    sub-space diagonalisation (order eigenvalues)
   LSUBROT=      F    optimize rotation matrix (better conditioning)
   TURBO    =      0    0=normal 1=particle mesh
   IRESTART =      0    0=no restart 2=restart with 2 vectors
   NREBOOT  =      0    no. of reboots
   NMIN     =      0    reboot dimension
   EREF     =   0.00    reference energy to select bands
   IMIX   =      4    mixing-type and parameters
     AMIX     =   0.40;   BMIX     =  1.00
     AMIX_MAG =   1.60;   BMIX_MAG =  1.00
     AMIN     =   0.10
     WC   =   100.;   INIMIX=   1;  MIXPRE=   1;  MAXMIX= -45

 Intra band minimization:
   WEIMIN = 0.0010     energy-eigenvalue tresh-hold
   EBREAK =  0.82E-09  absolut break condition
   DEPER  =   0.30     relativ break condition  

   TIME   =   0.40     timestep for ELM

  volume/ion in A,a.u.               =      53.49       360.99
  Fermi-wavevector in a.u.,A,eV,Ry     =   0.951418  1.797920 12.315955  0.905197
  Thomas-Fermi vector in A             =   2.079887
 
 Write flags
   LWAVE  =      F    write WAVECAR
   LCHARG =      F    write CHGCAR
   LVTOT  =      F    write LOCPOT, total local potential
   LVHAR  =      F    write LOCPOT, Hartree potential only
   LELF   =      F    write electronic localiz. function (ELF)
   LORBIT =      0    0 simple, 1 ext, 2 COOP (PROOUT)


 Dipole corrections
   LMONO  =      F    monopole corrections only (constant potential shift)
   LDIPOL =      T    correct potential (dipole corrections)
   IDIPOL =      3    1-x, 2-y, 3-z, 4-all directions 
   EPSILON=  1.0000000 bulk dielectric constant

 Exchange correlation treatment:
   GGA     =    PE    GGA type
   LEXCH   =     8    internal setting for exchange type
   VOSKOWN=      1    Vosko Wilk Nusair interpolation
   LHFCALC =     F    Hartree Fock is set to
   LHFONE  =     F    Hartree Fock one center treatment
   AEXX    =    0.0000 exact exchange contribution

 Linear response parameters
   LEPSILON=     F    determine dielectric tensor
   LRPA    =     F    only Hartree local field effects (RPA)
   LNABLA  =     F    use nabla operator in PAW spheres
   LVEL    =     F    velocity operator in full k-point grid
   LINTERFAST=   F  fast interpolation
   KINTER  =     0    interpolate to denser k-point grid
   CSHIFT  =0.1000    complex shift for real part using Kramers Kronig
   OMEGAMAX=  -1.0    maximum frequency
   DEG_THRESHOLD= 0.2000000E-02 threshold for treating states as degnerate
   RTIME   =    0.100 relaxation time in fs

 Orbital magnetization related:
   ORBITALMAG=     F  switch on orbital magnetization
   LCHIMAG   =     F  perturbation theory with respect to B field
   DQ        =  0.001000  dq finite difference perturbation B field



--------------------------------------------------------------------------------------------------------


 conjugate gradient relaxation of ions
   using selective dynamics as specified on POSCAR
   WARNING: If single coordinates had been selected the selection of coordinates
            is made according to the corresponding   d i r e c t   coordinates!
            Don't support selection of single cartesian coordinates -- sorry ...
  !
 charge density and potential will be updated during run
 non-spin polarized calculation
 RMM-DIIS sequential band-by-band and
  variant of blocked Davidson during initial phase
 perform sub-space diagonalisation
    before iterative eigenvector-optimisation
 modified Broyden-mixing scheme, WC =      100.0
 initial mixing is a Kerker type mixing with AMIX =  0.4000 and BMIX =      1.0000
 Hartree-type preconditioning will be used
 using additional bands           54
 real space projection scheme for non local part
 use partial core corrections
 calculate Harris-corrections to forces 
   (improved forces if not selfconsistent)
 use gradient corrections 
 use of overlap-Matrix (Vanderbilt PP)
 Gauss-broadening in eV      SIGMA  =   0.10


--------------------------------------------------------------------------------------------------------


  energy-cutoff  :      400.00
  volume of cell :     2567.68
      direct lattice vectors                 reciprocal lattice vectors
    11.002581515  0.000000000  0.000000000     0.090887761 -0.052474073  0.000000000
     5.501290758  9.528515099  0.000000000     0.000000000  0.104948147  0.000000000
     0.000000000  0.000000000 24.491785094     0.000000000  0.000000000  0.040830017

  length of vectors
    11.002581515 11.002581515 24.491785094     0.104948147  0.104948147  0.040830017


 
 k-points in units of 2pi/SCALE and weight: Automatic mesh                          
   0.02272194  0.01311852  0.00000000       0.167
   0.00000000  0.02623704  0.00000000       0.167
  -0.02272194  0.01311852  0.00000000       0.167
  -0.02272194  0.03935555  0.00000000       0.167
   0.04544388 -0.05247407  0.00000000       0.167
  -0.02272194  0.06559259  0.00000000       0.167
 
 k-points in reciprocal lattice and weights: Automatic mesh                          
   0.25000000  0.25000000  0.00000000       0.167
   0.00000000  0.25000000  0.00000000       0.167
  -0.25000000  0.00000000  0.00000000       0.167
  -0.25000000  0.25000000  0.00000000       0.167
   0.50000000 -0.25000000  0.00000000       0.167
  -0.25000000  0.50000000  0.00000000       0.167
 
 position of ions in fractional coordinates (direct lattice) 
   0.08333333  0.08333333  0.40830017
   0.08333333  0.58333333  0.40830017
   0.00000000  0.25000000  0.59169983
   0.91666667  0.91666667  0.50000000
   0.33333333  0.08333333  0.40830017
   0.91666667  0.16666667  0.50000000
   0.25000000  0.00000000  0.59169983
   0.75000000  0.75000000  0.59169983
   0.16666667  0.41666667  0.50000000
   0.25000000  0.25000000  0.59169983
   0.16666667  0.66666667  0.50000000
   0.66666667  0.91666667  0.50000000
   0.33333333  0.33333333  0.40830017
   0.50000000  0.00000000  0.59169983
   0.58333333  0.33333333  0.40830017
   0.58333333  0.58333333  0.40830017
   0.41666667  0.66666667  0.50000000
   0.50000000  0.75000000  0.59169983
   0.83333333  0.08333333  0.40830017
   0.66666667  0.16666667  0.50000000
   0.75000000  0.00000000  0.59169983
   0.66666667  0.66666667  0.50000000
   0.83333333  0.83333333  0.40830017
   0.58333333  0.08333333  0.40830017
   0.41666667  0.41666667  0.50000000
   0.08333333  0.83333333  0.40830017
   0.41666667  0.16666667  0.50000000
   0.00000000  0.75000000  0.59169983
   0.33333333  0.58333333  0.40830017
   0.33333333  0.83333333  0.40830017
   0.25000000  0.50000000  0.59169983
   0.16666667  0.16666667  0.50000000
   0.50000000  0.25000000  0.59169983
   0.16666667  0.91666667  0.50000000
   0.00000000  0.50000000  0.59169983
   0.08333333  0.33333333  0.40830017
   0.50000000  0.50000000  0.59169983
   0.41666667  0.91666667  0.50000000
   0.91666667  0.41666667  0.50000000
   0.83333333  0.33333333  0.40830017
   0.66666667  0.41666667  0.50000000
   0.75000000  0.25000000  0.59169983
   0.83333333  0.58333333  0.40830017
   0.00000000  0.00000000  0.59169983
   0.75000000  0.50000000  0.59169983
   0.58333333  0.83333333  0.40830017
   0.91666667  0.66666667  0.50000000
   0.25000000  0.75000000  0.59169983
 
 position of ions in cartesian coordinates  (Angst):
   1.37532269  0.79404292 10.00000000
   4.12596807  5.55830047 10.00000000
   1.37532269  2.38212877 14.49178509
  15.12854958  8.73447217 12.24589255
   4.12596807  0.79404292 10.00000000
  11.00258152  1.58808585 12.24589255
   2.75064538  0.00000000 14.49178509
  12.37790420  7.14638632 14.49178509
   4.12596807  3.97021462 12.24589255
   4.12596807  2.38212877 14.49178509
   5.50129076  6.35234340 12.24589255
  12.37790420  8.73447217 12.24589255
   5.50129076  3.17617170 10.00000000
   5.50129076  0.00000000 14.49178509
   8.25193614  3.17617170 10.00000000
   9.62725883  5.55830047 10.00000000
   8.25193614  6.35234340 12.24589255
   9.62725883  7.14638632 14.49178509
   9.62725883  0.79404292 10.00000000
   8.25193614  1.58808585 12.24589255
   8.25193614  0.00000000 14.49178509
  11.00258152  6.35234340 12.24589255
  13.75322689  7.94042925 10.00000000
   6.87661345  0.79404292 10.00000000
   6.87661345  3.97021462 12.24589255
   5.50129076  7.94042925 10.00000000
   5.50129076  1.58808585 12.24589255
   4.12596807  7.14638632 14.49178509
   6.87661345  5.55830047 10.00000000
   8.25193614  7.94042925 10.00000000
   5.50129076  4.76425755 14.49178509
   2.75064538  1.58808585 12.24589255
   6.87661345  2.38212877 14.49178509
   6.87661345  8.73447217 12.24589255
   2.75064538  4.76425755 14.49178509
   2.75064538  3.17617170 10.00000000
   8.25193614  4.76425755 14.49178509
   9.62725883  8.73447217 12.24589255
  12.37790420  3.97021462 12.24589255
  11.00258152  3.17617170 10.00000000
   9.62725883  3.97021462 12.24589255
   9.62725883  2.38212877 14.49178509
  12.37790420  5.55830047 10.00000000
   0.00000000  0.00000000 14.49178509
  11.00258152  4.76425755 14.49178509
  11.00258152  7.94042925 10.00000000
  13.75322689  6.35234340 12.24589255
   6.87661345  7.14638632 14.49178509
 


--------------------------------------------------------------------------------------------------------


 k-point  1 :   0.2500 0.2500 0.0000  plane waves:   46635
 k-point  2 :   0.0000 0.2500 0.0000  plane waves:   46635
 k-point  3 :  -0.2500 0.0000 0.0000  plane waves:   46635
 k-point  4 :  -0.2500 0.2500 0.0000  plane waves:   46644
 k-point  5 :   0.5000-0.2500 0.0000  plane waves:   46644
 k-point  6 :  -0.2500 0.5000 0.0000  plane waves:   46644

 maximum and minimum number of plane-waves per node :      7818     7732

 maximum number of plane-waves:     46644
 maximum index in each direction: 
   IXMAX=   18   IYMAX=   18   IZMAX=   39
   IXMIN=  -18   IYMIN=  -18   IZMIN=  -39

 WARNING: aliasing errors must be expected set NGX to  74 to avoid them
 WARNING: aliasing errors must be expected set NGY to  74 to avoid them
 WARNING: aliasing errors must be expected set NGZ to 158 to avoid them
 aliasing errors are usually negligible using standard VASP settings
 and one can safely disregard these warnings

 real space projection operators:
  total allocation   :      12803.06 KBytes
  max/ min on nodes  :       2145.66       2127.94


 parallel 3D FFT for wavefunctions:
    minimum data exchange during FFTs selected (reduces bandwidth)
 parallel 3D FFT for charge:
    minimum data exchange during FFTs selected (reduces bandwidth)


 total amount of memory used by VASP on root node    84353. kBytes
========================================================================

   base      :      30000. kBytes
   nonlr-proj:       4285. kBytes
   fftplans  :       4447. kBytes
   grid      :       6721. kBytes
   one-center:        124. kBytes
   wavefun   :      38776. kBytes
 
     INWAV:  cpu time    0.0000: real time    0.0000
 Broyden mixing: mesh for mixing (old mesh)
   NGX = 35   NGY = 35   NGZ = 79
  (NGX  =108   NGY  =108   NGZ  =240)
  gives a total of  96775 points

 initial charge density was supplied:
 charge density of overlapping atoms calculated
 number of electron     504.0000000 magnetization 
 keeping initial charge density in first step


--------------------------------------------------------------------------------------------------------


 Maximum index for non-local projection operator          355
 Maximum index for augmentation-charges          437 (set IRDMAX)


--------------------------------------------------------------------------------------------------------


 First call to EWALD:  gamma=   0.129
 Maximum number of real-space cells 4x 4x 2
 Maximum number of reciprocal cells 2x 2x 5

 FEWALD executed in parallel
    FEWALD:  cpu time    0.0023: real time    0.0023


----------------------------------------- Iteration    1(   1)  ---------------------------------------


    POTLOK:  cpu time    0.0471: real time    0.0482
    SETDIJ:  cpu time    0.0057: real time    0.0057
     EDDAV:  cpu time    7.1743: real time    7.1942
       DOS:  cpu time    0.0013: real time    0.0013
    --------------------------------------------
      LOOP:  cpu time    7.2308: real time    7.2566

 eigenvalue-minimisations  :  3672
 total energy-change (2. order) : 0.3199870E+04  (-0.1897816E+05)
 number of electron     504.0000000 magnetization 
 augmentation part      504.0000000 magnetization 

 DIPCOR: dipole corrections for dipol
 direction  3 min pos     1,
 dipolmoment           0.000000      0.000000      0.000001 electrons x Angstroem
 Tr[quadrupol]    -10215.112372

 energy correction for charged system         0.000000 eV
 dipol+quadrupol energy correction           -0.000000 eV
 added-field ion interaction          0.000000 eV  (added to PSCEN)


 Free energy of the ion-electron system (eV)
  ---------------------------------------------------
  alpha Z        PSCENC =       805.86936475
  Ewald energy   TEWEN  =    200166.39604918
  -Hartree energ DENC   =   -242580.80534892
  -exchange      EXHF   =         0.00000000
  -V(xc)+E(xc)   XCENC  =      -327.62438007
  PAW double counting   =     40340.05962942   -38292.62782345
  entropy T*S    EENTRO =        -0.13054422
  eigenvalues    EBANDS =      1428.94736194
  atomic energy  EATOM  =     41659.78587232
  Solvation  Ediel_sol  =         0.00000000
  ---------------------------------------------------
  free energy    TOTEN  =      3199.87018096 eV

  energy without entropy =     3200.00072518  energy(sigma->0) =     3199.93545307


--------------------------------------------------------------------------------------------------------




----------------------------------------- Iteration    1(   2)  ---------------------------------------


     EDDAV:  cpu time    8.4490: real time    8.4730
       DOS:  cpu time    0.0014: real time    0.0014
    --------------------------------------------
      LOOP:  cpu time    8.4510: real time    8.4767

 eigenvalue-minimisations  :  4380
 total energy-change (2. order) :-0.3185113E+04  (-0.2928142E+04)
 number of electron     504.0000000 magnetization 
 augmentation part      504.0000000 magnetization 

 DIPCOR: dipole corrections for dipol
 direction  3 min pos     1,
 dipolmoment           0.000000      0.000000      0.000001 electrons x Angstroem
 Tr[quadrupol]    -10215.112372

 energy correction for charged system         0.000000 eV
 dipol+quadrupol energy correction           -0.000000 eV
 added-field ion interaction          0.000000 eV  (added to PSCEN)


 Free energy of the ion-electron system (eV)
  ---------------------------------------------------
  alpha Z        PSCENC =       805.86936475
  Ewald energy   TEWEN  =    200166.39604918
  -Hartree energ DENC   =   -242580.80534892
  -exchange      EXHF   =         0.00000000
  -V(xc)+E(xc)   XCENC  =      -327.62438007
  PAW double counting   =     40340.05962942   -38292.62782345
  entropy T*S    EENTRO =        -0.12533017
  eigenvalues    EBANDS =     -1756.17037593
  atomic energy  EATOM  =     41659.78587232
  Solvation  Ediel_sol  =         0.00000000
  ---------------------------------------------------
  free energy    TOTEN  =        14.75765713 eV

  energy without entropy =       14.88298731  energy(sigma->0) =       14.82032222


--------------------------------------------------------------------------------------------------------




----------------------------------------- Iteration    1(   3)  ---------------------------------------


     EDDAV:  cpu time    8.2294: real time    8.3823
       DOS:  cpu time    0.0014: real time    0.0015
    --------------------------------------------
      LOOP:  cpu time    8.2315: real time    8.3875

 eigenvalue-minimisations  :  4152
 total energy-change (2. order) :-0.2154878E+03  (-0.2007488E+03)
 number of electron     504.0000000 magnetization 
 augmentation part      504.0000000 magnetization 

 DIPCOR: dipole corrections for dipol
 direction  3 min pos     1,
 dipolmoment           0.000000      0.000000      0.000001 electrons x Angstroem
 Tr[quadrupol]    -10215.112372

 energy correction for charged system         0.000000 eV
 dipol+quadrupol energy correction           -0.000000 eV
 added-field ion interaction          0.000000 eV  (added to PSCEN)


 Free energy of the ion-electron system (eV)
  ---------------------------------------------------
  alpha Z        PSCENC =       805.86936475
  Ewald energy   TEWEN  =    200166.39604918
  -Hartree energ DENC   =   -242580.80534892
  -exchange      EXHF   =         0.00000000
  -V(xc)+E(xc)   XCENC  =      -327.62438007
  PAW double counting   =     40340.05962942   -38292.62782345
  entropy T*S    EENTRO =        -0.20196278
  eigenvalues    EBANDS =     -1971.58153580
  atomic energy  EATOM  =     41659.78587232
  Solvation  Ediel_sol  =         0.00000000
  ---------------------------------------------------
  free energy    TOTEN  =      -200.73013535 eV

  energy without entropy =     -200.52817257  energy(sigma->0) =     -200.62915396


--------------------------------------------------------------------------------------------------------




----------------------------------------- Iteration    1(   4)  ---------------------------------------


     EDDAV:  cpu time    8.3308: real time    8.3533
       DOS:  cpu time    0.0015: real time    0.0015
    --------------------------------------------
      LOOP:  cpu time    8.3330: real time    8.3610

 eigenvalue-minimisations  :  4212
 total energy-change (2. order) :-0.5762328E+01  (-0.5690457E+01)
 number of electron     504.0000000 magnetization 
 augmentation part      504.0000000 magnetization 

 DIPCOR: dipole corrections for dipol
 direction  3 min pos     1,
 dipolmoment           0.000000      0.000000      0.000001 electrons x Angstroem
 Tr[quadrupol]    -10215.112372

 energy correction for charged system         0.000000 eV
 dipol+quadrupol energy correction           -0.000000 eV
 added-field ion interaction          0.000000 eV  (added to PSCEN)


 Free energy of the ion-electron system (eV)
  ---------------------------------------------------
  alpha Z        PSCENC =       805.86936475
  Ewald energy   TEWEN  =    200166.39604918
  -Hartree energ DENC   =   -242580.80534892
  -exchange      EXHF   =         0.00000000
  -V(xc)+E(xc)   XCENC  =      -327.62438007
  PAW double counting   =     40340.05962942   -38292.62782345
  entropy T*S    EENTRO =        -0.20629107
  eigenvalues    EBANDS =     -1977.33953531
  atomic energy  EATOM  =     41659.78587232
  Solvation  Ediel_sol  =         0.00000000
  ---------------------------------------------------
  free energy    TOTEN  =      -206.49246315 eV

  energy without entropy =     -206.28617208  energy(sigma->0) =     -206.38931762


--------------------------------------------------------------------------------------------------------




----------------------------------------- Iteration    1(   5)  ---------------------------------------


     EDDAV:  cpu time    8.6866: real time    8.7104
       DOS:  cpu time    0.0015: real time    0.0015
    CHARGE:  cpu time    0.2205: real time    0.2211
    MIXING:  cpu time    0.0021: real time    0.0022
    --------------------------------------------
      LOOP:  cpu time    8.9115: real time    8.9392

 eigenvalue-minimisations  :  4452
 total energy-change (2. order) :-0.1920643E+00  (-0.1914670E+00)
 number of electron     503.9998404 magnetization 
 augmentation part      191.3040550 magnetization 

 DIPCOR: dipole corrections for dipol
 direction  3 min pos     1,
 dipolmoment           0.000000      0.000000      0.000001 electrons x Angstroem
 Tr[quadrupol]    -10215.112372

 energy correction for charged system         0.000000 eV
 dipol+quadrupol energy correction           -0.000000 eV
 added-field ion interaction          0.000000 eV  (added to PSCEN)


 Broyden mixing:
  rms(total) = 0.62417E+01    rms(broyden)= 0.62416E+01
  rms(prec ) = 0.63696E+01
  weight for this iteration     100.00

 Free energy of the ion-electron system (eV)
  ---------------------------------------------------
  alpha Z        PSCENC =       805.86936475
  Ewald energy   TEWEN  =    200166.39604918
  -Hartree energ DENC   =   -242580.80534892
  -exchange      EXHF   =         0.00000000
  -V(xc)+E(xc)   XCENC  =      -327.62438007
  PAW double counting   =     40340.05962942   -38292.62782345
  entropy T*S    EENTRO =        -0.20635278
  eigenvalues    EBANDS =     -1977.53153786
  atomic energy  EATOM  =     41659.78587232
  Solvation  Ediel_sol  =         0.00000000
  ---------------------------------------------------
  free energy    TOTEN  =      -206.68452741 eV

  energy without entropy =     -206.47817463  energy(sigma->0) =     -206.58135102


--------------------------------------------------------------------------------------------------------




----------------------------------------- Iteration    1(   6)  ---------------------------------------


    POTLOK:  cpu time    0.0414: real time    0.0416
    SETDIJ:  cpu time    0.0060: real time    0.0060
    EDDIAG:  cpu time    1.2865: real time    1.2925
  RMM-DIIS:  cpu time    3.4324: real time    3.4408
    ORTHCH:  cpu time    0.3552: real time    0.3560
       DOS:  cpu time    0.0014: real time    0.0014
    CHARGE:  cpu time    0.2204: real time    0.2210
    MIXING:  cpu time    0.0019: real time    0.0020
    --------------------------------------------
      LOOP:  cpu time    5.3458: real time    5.3654

 eigenvalue-minimisations  :  3678
 total energy-change (2. order) : 0.5380786E+01  (-0.9678629E+01)
 number of electron     503.9998425 magnetization 
 augmentation part      191.6091035 magnetization 

 DIPCOR: dipole corrections for dipol
 direction  3 min pos     1,
 dipolmoment           0.000000      0.000000      0.673032 electrons x Angstroem
 Tr[quadrupol]    -10216.512133

 energy correction for charged system         0.000000 eV
 dipol+quadrupol energy correction           -0.015962 eV
 added-field ion interaction          0.213053 eV  (added to PSCEN)


 Broyden mixing:
  rms(total) = 0.55074E+01    rms(broyden)= 0.55073E+01
  rms(prec ) = 0.57735E+01
  weight for this iteration     100.00

 eigenvalues of (default mixing * dielectric matrix)
  average eigenvalue GAMMA=   0.7321
  0.7321

 Free energy of the ion-electron system (eV)
  ---------------------------------------------------
  alpha Z        PSCENC =       806.06645580
  Ewald energy   TEWEN  =    200166.39604918
  -Hartree energ DENC   =   -242330.37802582
  -exchange      EXHF   =         0.00000000
  -V(xc)+E(xc)   XCENC  =      -340.20569802
  PAW double counting   =     43919.95309866   -41931.82514697
  entropy T*S    EENTRO =        -0.25869068
  eigenvalues    EBANDS =     -2150.83765540
  atomic energy  EATOM  =     41659.78587232
  Solvation  Ediel_sol  =         0.00000000
  ---------------------------------------------------
  free energy    TOTEN  =      -201.30374093 eV

  energy without entropy =     -201.04505026  energy(sigma->0) =     -201.17439560


--------------------------------------------------------------------------------------------------------




----------------------------------------- Iteration    1(   7)  ---------------------------------------


    POTLOK:  cpu time    0.0404: real time    0.0405
    SETDIJ:  cpu time    0.0056: real time    0.0057
    EDDIAG:  cpu time    1.2855: real time    1.2903
  RMM-DIIS:  cpu time    3.3813: real time    3.4319
    ORTHCH:  cpu time    0.3521: real time    0.3531
       DOS:  cpu time    0.0014: real time    0.0014
    CHARGE:  cpu time    0.2200: real time    0.2206
    MIXING:  cpu time    0.0019: real time    0.0019
    --------------------------------------------
      LOOP:  cpu time    5.2888: real time    5.3489

 eigenvalue-minimisations  :  3681
 total energy-change (2. order) :-0.1367097E+02  (-0.5851051E+01)
 number of electron     503.9998375 magnetization 
 augmentation part      194.6112693 magnetization 

 DIPCOR: dipole corrections for dipol
 direction  3 min pos     1,
 dipolmoment           0.000000      0.000000     -1.424777 electrons x Angstroem
 Tr[quadrupol]    -10215.624171

 energy correction for charged system         0.000000 eV
 dipol+quadrupol energy correction           -0.071531 eV
 added-field ion interaction         -0.451023 eV  (added to PSCEN)


 Broyden mixing:
  rms(total) = 0.48829E+01    rms(broyden)= 0.48826E+01
  rms(prec ) = 0.58080E+01
  weight for this iteration     100.00

 eigenvalues of (default mixing * dielectric matrix)
  average eigenvalue GAMMA=   0.8351
  1.3265  0.3437

 Free energy of the ion-electron system (eV)
  ---------------------------------------------------
  alpha Z        PSCENC =       805.34680974
  Ewald energy   TEWEN  =    200166.39604918
  -Hartree energ DENC   =   -242198.49542099
  -exchange      EXHF   =         0.00000000
  -V(xc)+E(xc)   XCENC  =      -342.55821826
  PAW double counting   =     45320.04979316   -43357.25674516
  entropy T*S    EENTRO =        -0.25138624
  eigenvalues    EBANDS =     -2267.99146690
  atomic energy  EATOM  =     41659.78587232
  Solvation  Ediel_sol  =         0.00000000
  ---------------------------------------------------
  free energy    TOTEN  =      -214.97471315 eV

  energy without entropy =     -214.72332691  energy(sigma->0) =     -214.84902003


--------------------------------------------------------------------------------------------------------




----------------------------------------- Iteration    1(   8)  ---------------------------------------


    POTLOK:  cpu time    0.0407: real time    0.0409
    SETDIJ:  cpu time    0.0060: real time    0.0060
    EDDIAG:  cpu time    1.2824: real time    1.2855
  RMM-DIIS:  cpu time    3.4541: real time    3.4628
    ORTHCH:  cpu time    0.3495: real time    0.3512
       DOS:  cpu time    0.0013: real time    0.0013
    CHARGE:  cpu time    0.2222: real time    0.2227
    MIXING:  cpu time    0.0020: real time    0.0021
    --------------------------------------------
      LOOP:  cpu time    5.3588: real time    5.3772

 eigenvalue-minimisations  :  3677
 total energy-change (2. order) :-0.5551696E+01  (-0.8996909E+01)
 number of electron     503.9998356 magnetization 
 augmentation part      196.6791840 magnetization 

 DIPCOR: dipole corrections for dipol
 direction  3 min pos     1,
 dipolmoment           0.000000      0.000000      1.777261 electrons x Angstroem
 Tr[quadrupol]    -10216.526145

 energy correction for charged system         0.000000 eV
 dipol+quadrupol energy correction           -0.111303 eV
 added-field ion interaction          0.562604 eV  (added to PSCEN)


 Broyden mixing:
  rms(total) = 0.41849E+01    rms(broyden)= 0.41845E+01
  rms(prec ) = 0.50038E+01
  weight for this iteration     100.00

 eigenvalues of (default mixing * dielectric matrix)
  average eigenvalue GAMMA=   0.9121
  2.0449  0.4591  0.2323

 Free energy of the ion-electron system (eV)
  ---------------------------------------------------
  alpha Z        PSCENC =       806.32066609
  Ewald energy   TEWEN  =    200166.39604918
  -Hartree energ DENC   =   -242154.74000879
  -exchange      EXHF   =         0.00000000
  -V(xc)+E(xc)   XCENC  =      -344.65394665
  PAW double counting   =     46759.81941073   -44821.34297574
  entropy T*S    EENTRO =        -0.26304624
  eigenvalues    EBANDS =     -2291.84842972
  atomic energy  EATOM  =     41659.78587232
  Solvation  Ediel_sol  =         0.00000000
  ---------------------------------------------------
  free energy    TOTEN  =      -220.52640882 eV

  energy without entropy =     -220.26336258  energy(sigma->0) =     -220.39488570


--------------------------------------------------------------------------------------------------------




----------------------------------------- Iteration    1(   9)  ---------------------------------------


    POTLOK:  cpu time    0.0410: real time    0.0412
    SETDIJ:  cpu time    0.0059: real time    0.0060
    EDDIAG:  cpu time    1.2617: real time    1.3694
  RMM-DIIS:  cpu time    3.3810: real time    3.4273
    ORTHCH:  cpu time    0.3497: real time    0.3505
       DOS:  cpu time    0.0014: real time    0.0014
    CHARGE:  cpu time    0.2221: real time    0.2226
    MIXING:  cpu time    0.0020: real time    0.0020
    --------------------------------------------
      LOOP:  cpu time    5.2656: real time    5.4242

 eigenvalue-minimisations  :  3679
 total energy-change (2. order) : 0.7954529E+01  (-0.4443989E+01)
 number of electron     503.9998333 magnetization 
 augmentation part      198.5724602 magnetization 

 DIPCOR: dipole corrections for dipol
 direction  3 min pos     1,
 dipolmoment           0.000000      0.000000     -0.226059 electrons x Angstroem
 Tr[quadrupol]    -10217.580604

 energy correction for charged system         0.000000 eV
 dipol+quadrupol energy correction           -0.001801 eV
 added-field ion interaction         -0.071561 eV  (added to PSCEN)


 Broyden mixing:
  rms(total) = 0.36581E+01    rms(broyden)= 0.36579E+01
  rms(prec ) = 0.40458E+01
  weight for this iteration     100.00

 eigenvalues of (default mixing * dielectric matrix)
  average eigenvalue GAMMA=   0.8086
  2.2241  0.4305  0.2900  0.2900

 Free energy of the ion-electron system (eV)
  ---------------------------------------------------
  alpha Z        PSCENC =       805.79600294
  Ewald energy   TEWEN  =    200166.39604918
  -Hartree energ DENC   =   -242143.45081168
  -exchange      EXHF   =         0.00000000
  -V(xc)+E(xc)   XCENC  =      -346.65480215
  PAW double counting   =     48500.93510818   -46588.90679007
  entropy T*S    EENTRO =        -0.20334317
  eigenvalues    EBANDS =     -2266.26916566
  atomic energy  EATOM  =     41659.78587232
  Solvation  Ediel_sol  =         0.00000000
  ---------------------------------------------------
  free energy    TOTEN  =      -212.57188011 eV

  energy without entropy =     -212.36853694  energy(sigma->0) =     -212.47020853


--------------------------------------------------------------------------------------------------------




----------------------------------------- Iteration    1(  10)  ---------------------------------------


    POTLOK:  cpu time    0.0403: real time    0.0404
    SETDIJ:  cpu time    0.0052: real time    0.0052
    EDDIAG:  cpu time    1.2799: real time    1.2838
  RMM-DIIS:  cpu time    3.4550: real time    3.4677
    ORTHCH:  cpu time    0.3500: real time    0.3508
       DOS:  cpu time    0.0014: real time    0.0014
    CHARGE:  cpu time    0.2177: real time    0.2182
    MIXING:  cpu time    0.0021: real time    0.0021
    --------------------------------------------
      LOOP:  cpu time    5.3523: real time    5.3722

 eigenvalue-minimisations  :  3683
 total energy-change (2. order) : 0.1470117E+02  (-0.1933636E+01)
 number of electron     503.9998337 magnetization 
 augmentation part      199.4796698 magnetization 

 DIPCOR: dipole corrections for dipol
 direction  3 min pos     1,
 dipolmoment           0.000000      0.000000      0.420761 electrons x Angstroem
 Tr[quadrupol]    -10216.420527

 energy correction for charged system         0.000000 eV
 dipol+quadrupol energy correction           -0.006238 eV
 added-field ion interaction          0.133195 eV  (added to PSCEN)


 Broyden mixing:
  rms(total) = 0.19965E+01    rms(broyden)= 0.19963E+01
  rms(prec ) = 0.22964E+01
  weight for this iteration     100.00

 eigenvalues of (default mixing * dielectric matrix)
  average eigenvalue GAMMA=   0.7684
  2.2775  0.5011  0.5011  0.3323  0.2304

 Free energy of the ion-electron system (eV)
  ---------------------------------------------------
  alpha Z        PSCENC =       805.99632062
  Ewald energy   TEWEN  =    200166.39604918
  -Hartree energ DENC   =   -242114.83647101
  -exchange      EXHF   =         0.00000000
  -V(xc)+E(xc)   XCENC  =      -346.40929006
  PAW double counting   =     49028.44722114   -47121.73758476
  entropy T*S    EENTRO =        -0.16596548
  eigenvalues    EBANDS =     -2275.34686244
  atomic energy  EATOM  =     41659.78587232
  Solvation  Ediel_sol  =         0.00000000
  ---------------------------------------------------
  free energy    TOTEN  =      -197.87071050 eV

  energy without entropy =     -197.70474501  energy(sigma->0) =     -197.78772775


--------------------------------------------------------------------------------------------------------




----------------------------------------- Iteration    1(  11)  ---------------------------------------


    POTLOK:  cpu time    0.0400: real time    0.0401
    SETDIJ:  cpu time    0.0052: real time    0.0052
    EDDIAG:  cpu time    1.2725: real time    1.2755
  RMM-DIIS:  cpu time    3.4451: real time    3.4534
    ORTHCH:  cpu time    0.3494: real time    0.3503
       DOS:  cpu time    0.0014: real time    0.0014
    CHARGE:  cpu time    0.2181: real time    0.2187
    MIXING:  cpu time    0.0023: real time    0.0023
    --------------------------------------------
      LOOP:  cpu time    5.3347: real time    5.3497

 eigenvalue-minimisations  :  3681
 total energy-change (2. order) : 0.6057229E+01  (-0.1234008E+01)
 number of electron     503.9998340 magnetization 
 augmentation part      198.8599286 magnetization 

 DIPCOR: dipole corrections for dipol
 direction  3 min pos     1,
 dipolmoment           0.000000      0.000000      0.174022 electrons x Angstroem
 Tr[quadrupol]    -10217.378190

 energy correction for charged system         0.000000 eV
 dipol+quadrupol energy correction           -0.001067 eV
 added-field ion interaction          0.055088 eV  (added to PSCEN)


 Broyden mixing:
  rms(total) = 0.12564E+01    rms(broyden)= 0.12561E+01
  rms(prec ) = 0.14234E+01
  weight for this iteration     100.00

 eigenvalues of (default mixing * dielectric matrix)
  average eigenvalue GAMMA=   0.7252
  2.2272  0.6072  0.6072  0.3808  0.2450  0.2835

 Free energy of the ion-electron system (eV)
  ---------------------------------------------------
  alpha Z        PSCENC =       805.92338496
  Ewald energy   TEWEN  =    200166.39604918
  -Hartree energ DENC   =   -242177.13309947
  -exchange      EXHF   =         0.00000000
  -V(xc)+E(xc)   XCENC  =      -345.75076700
  PAW double counting   =     49208.08096174   -47299.19261492
  entropy T*S    EENTRO =        -0.22667730
  eigenvalues    EBANDS =     -2209.69659144
  atomic energy  EATOM  =     41659.78587232
  Solvation  Ediel_sol  =         0.00000000
  ---------------------------------------------------
  free energy    TOTEN  =      -191.81348193 eV

  energy without entropy =     -191.58680464  energy(sigma->0) =     -191.70014329


--------------------------------------------------------------------------------------------------------




----------------------------------------- Iteration    1(  12)  ---------------------------------------


    POTLOK:  cpu time    0.0402: real time    0.0405
    SETDIJ:  cpu time    0.0051: real time    0.0051
    EDDIAG:  cpu time    1.2823: real time    1.2874
  RMM-DIIS:  cpu time    3.4399: real time    3.4498
    ORTHCH:  cpu time    0.3497: real time    0.3505
       DOS:  cpu time    0.0015: real time    0.0015
    CHARGE:  cpu time    0.2212: real time    0.2217
    MIXING:  cpu time    0.0026: real time    0.0026
    --------------------------------------------
      LOOP:  cpu time    5.3430: real time    5.3618

 eigenvalue-minimisations  :  3681
 total energy-change (2. order) : 0.2833711E+01  (-0.4640850E+00)
 number of electron     503.9998358 magnetization 
 augmentation part      197.7238005 magnetization 

 DIPCOR: dipole corrections for dipol
 direction  3 min pos     1,
 dipolmoment           0.000000      0.000000      0.192450 electrons x Angstroem
 Tr[quadrupol]    -10217.579017

 energy correction for charged system         0.000000 eV
 dipol+quadrupol energy correction           -0.001305 eV
 added-field ion interaction          0.060921 eV  (added to PSCEN)


 Broyden mixing:
  rms(total) = 0.76718E+00    rms(broyden)= 0.76706E+00
  rms(prec ) = 0.84391E+00
  weight for this iteration     100.00

 eigenvalues of (default mixing * dielectric matrix)
  average eigenvalue GAMMA=   0.7173
  2.2729  0.6321  0.6321  0.6274  0.3137  0.3137  0.2294

 Free energy of the ion-electron system (eV)
  ---------------------------------------------------
  alpha Z        PSCENC =       805.92898050
  Ewald energy   TEWEN  =    200166.39604918
  -Hartree energ DENC   =   -242221.67019413
  -exchange      EXHF   =         0.00000000
  -V(xc)+E(xc)   XCENC  =      -344.69736991
  PAW double counting   =     49250.75633863   -47336.91837473
  entropy T*S    EENTRO =        -0.22068815
  eigenvalues    EBANDS =     -2168.34038453
  atomic energy  EATOM  =     41659.78587232
  Solvation  Ediel_sol  =         0.00000000
  ---------------------------------------------------
  free energy    TOTEN  =      -188.97977083 eV

  energy without entropy =     -188.75908267  energy(sigma->0) =     -188.86942675


--------------------------------------------------------------------------------------------------------




----------------------------------------- Iteration    1(  13)  ---------------------------------------


    POTLOK:  cpu time    0.0402: real time    0.0403
    SETDIJ:  cpu time    0.0052: real time    0.0052
    EDDIAG:  cpu time    1.2768: real time    1.2805
  RMM-DIIS:  cpu time    3.4532: real time    3.4638
    ORTHCH:  cpu time    0.3475: real time    0.3483
       DOS:  cpu time    0.0014: real time    0.0014
    CHARGE:  cpu time    0.2207: real time    0.2212
    MIXING:  cpu time    0.0027: real time    0.0027
    --------------------------------------------
      LOOP:  cpu time    5.3484: real time    5.3670

 eigenvalue-minimisations  :  3681
 total energy-change (2. order) :-0.3146579E+00  (-0.1449922E+00)
 number of electron     503.9998355 magnetization 
 augmentation part      197.5944865 magnetization 

 DIPCOR: dipole corrections for dipol
 direction  3 min pos     1,
 dipolmoment           0.000000      0.000000      0.081608 electrons x Angstroem
 Tr[quadrupol]    -10218.033554

 energy correction for charged system         0.000000 eV
 dipol+quadrupol energy correction           -0.000235 eV
 added-field ion interaction          0.025834 eV  (added to PSCEN)


 Broyden mixing:
  rms(total) = 0.79432E+00    rms(broyden)= 0.79418E+00
  rms(prec ) = 0.90341E+00
  weight for this iteration     100.00

 eigenvalues of (default mixing * dielectric matrix)
  average eigenvalue GAMMA=   0.7201
  2.2788  0.8250  0.8250  0.7244  0.3183  0.3183  0.2265  0.2445

 Free energy of the ion-electron system (eV)
  ---------------------------------------------------
  alpha Z        PSCENC =       805.89496331
  Ewald energy   TEWEN  =    200166.39604918
  -Hartree energ DENC   =   -242239.55675818
  -exchange      EXHF   =         0.00000000
  -V(xc)+E(xc)   XCENC  =      -344.60261941
  PAW double counting   =     49309.42583898   -47395.07642629
  entropy T*S    EENTRO =        -0.24533558
  eigenvalues    EBANDS =     -2151.31601309
  atomic energy  EATOM  =     41659.78587232
  Solvation  Ediel_sol  =         0.00000000
  ---------------------------------------------------
  free energy    TOTEN  =      -189.29442875 eV

  energy without entropy =     -189.04909317  energy(sigma->0) =     -189.17176096


--------------------------------------------------------------------------------------------------------




----------------------------------------- Iteration    1(  14)  ---------------------------------------


    POTLOK:  cpu time    0.0403: real time    0.0407
    SETDIJ:  cpu time    0.0053: real time    0.0053
    EDDIAG:  cpu time    1.2819: real time    1.2850
  RMM-DIIS:  cpu time    3.4187: real time    3.4271
    ORTHCH:  cpu time    0.3456: real time    0.3465
       DOS:  cpu time    0.0014: real time    0.0014
    CHARGE:  cpu time    0.2192: real time    0.2198
    MIXING:  cpu time    0.0028: real time    0.0028
    --------------------------------------------
      LOOP:  cpu time    5.3159: real time    5.3330

 eigenvalue-minimisations  :  3682
 total energy-change (2. order) : 0.1736700E+00  (-0.6148142E-01)
 number of electron     503.9998356 magnetization 
 augmentation part      197.6071776 magnetization 

 DIPCOR: dipole corrections for dipol
 direction  3 min pos     1,
 dipolmoment           0.000000      0.000000      0.056144 electrons x Angstroem
 Tr[quadrupol]    -10218.221721

 energy correction for charged system         0.000000 eV
 dipol+quadrupol energy correction           -0.000111 eV
 added-field ion interaction          0.017773 eV  (added to PSCEN)


 Broyden mixing:
  rms(total) = 0.66626E+00    rms(broyden)= 0.66613E+00
  rms(prec ) = 0.75102E+00
  weight for this iteration     100.00

 eigenvalues of (default mixing * dielectric matrix)
  average eigenvalue GAMMA=   0.6915
  2.2613  0.9248  0.9248  0.7208  0.3482  0.3482  0.2510  0.2510  0.1936

 Free energy of the ion-electron system (eV)
  ---------------------------------------------------
  alpha Z        PSCENC =       805.88702601
  Ewald energy   TEWEN  =    200166.39604918
  -Hartree energ DENC   =   -242251.74396572
  -exchange      EXHF   =         0.00000000
  -V(xc)+E(xc)   XCENC  =      -344.37461128
  PAW double counting   =     49332.78016670   -47417.03969200
  entropy T*S    EENTRO =        -0.25814818
  eigenvalues    EBANDS =     -2140.55345581
  atomic energy  EATOM  =     41659.78587232
  Solvation  Ediel_sol  =         0.00000000
  ---------------------------------------------------
  free energy    TOTEN  =      -189.12075877 eV

  energy without entropy =     -188.86261060  energy(sigma->0) =     -188.99168469


--------------------------------------------------------------------------------------------------------




----------------------------------------- Iteration    1(  15)  ---------------------------------------


    POTLOK:  cpu time    0.0403: real time    0.0404
    SETDIJ:  cpu time    0.0052: real time    0.0056
    EDDIAG:  cpu time    1.2715: real time    1.2753
  RMM-DIIS:  cpu time    3.4943: real time    3.5038
    ORTHCH:  cpu time    0.3439: real time    0.3448
       DOS:  cpu time    0.0015: real time    0.0015
    CHARGE:  cpu time    0.2170: real time    0.2176
    MIXING:  cpu time    0.0029: real time    0.0030
    --------------------------------------------
      LOOP:  cpu time    5.3774: real time    5.3952

 eigenvalue-minimisations  :  3678
 total energy-change (2. order) : 0.3285715E+00  (-0.2811989E-01)
 number of electron     503.9998357 magnetization 
 augmentation part      197.5507080 magnetization 

 DIPCOR: dipole corrections for dipol
 direction  3 min pos     1,
 dipolmoment           0.000000      0.000000      0.044786 electrons x Angstroem
 Tr[quadrupol]    -10218.376803

 energy correction for charged system         0.000000 eV
 dipol+quadrupol energy correction           -0.000071 eV
 added-field ion interaction          0.014177 eV  (added to PSCEN)


 Broyden mixing:
  rms(total) = 0.44061E+00    rms(broyden)= 0.44056E+00
  rms(prec ) = 0.49031E+00
  weight for this iteration     100.00

 eigenvalues of (default mixing * dielectric matrix)
  average eigenvalue GAMMA=   0.7483
  2.1404  1.3611  1.3611  0.5882  0.5882  0.4197  0.2949  0.2949  0.2350  0.1998

 Free energy of the ion-electron system (eV)
  ---------------------------------------------------
  alpha Z        PSCENC =       805.88347095
  Ewald energy   TEWEN  =    200166.39604918
  -Hartree energ DENC   =   -242261.28173593
  -exchange      EXHF   =         0.00000000
  -V(xc)+E(xc)   XCENC  =      -344.21515459
  PAW double counting   =     49332.88559225   -47415.99332072
  entropy T*S    EENTRO =        -0.26017216
  eigenvalues    EBANDS =     -2131.99278859
  atomic energy  EATOM  =     41659.78587232
  Solvation  Ediel_sol  =         0.00000000
  ---------------------------------------------------
  free energy    TOTEN  =      -188.79218729 eV

  energy without entropy =     -188.53201513  energy(sigma->0) =     -188.66210121


--------------------------------------------------------------------------------------------------------




----------------------------------------- Iteration    1(  16)  ---------------------------------------


    POTLOK:  cpu time    0.0404: real time    0.0405
    SETDIJ:  cpu time    0.0056: real time    0.0058
    EDDIAG:  cpu time    1.2794: real time    1.2825
  RMM-DIIS:  cpu time    3.3274: real time    3.5530
    ORTHCH:  cpu time    0.3437: real time    0.3445
       DOS:  cpu time    0.0015: real time    0.0015
    CHARGE:  cpu time    0.2189: real time    0.2194
    MIXING:  cpu time    0.0028: real time    0.0028
    --------------------------------------------
      LOOP:  cpu time    5.2204: real time    5.4524

 eigenvalue-minimisations  :  3681
 total energy-change (2. order) : 0.1563122E+00  (-0.2730789E-01)
 number of electron     503.9998359 magnetization 
 augmentation part      197.3080008 magnetization 

 DIPCOR: dipole corrections for dipol
 direction  3 min pos     1,
 dipolmoment           0.000000      0.000000      0.053812 electrons x Angstroem
 Tr[quadrupol]    -10218.900232

 energy correction for charged system         0.000000 eV
 dipol+quadrupol energy correction           -0.000102 eV
 added-field ion interaction          0.017034 eV  (added to PSCEN)


 Broyden mixing:
  rms(total) = 0.30771E+00    rms(broyden)= 0.30764E+00
  rms(prec ) = 0.35134E+00
  weight for this iteration     100.00

 eigenvalues of (default mixing * dielectric matrix)
  average eigenvalue GAMMA=   0.7491
  2.1375  1.5381  1.5381  0.6001  0.6001  0.4759  0.3356  0.3356  0.2409  0.2409
  0.1970

 Free energy of the ion-electron system (eV)
  ---------------------------------------------------
  alpha Z        PSCENC =       805.88629673
  Ewald energy   TEWEN  =    200166.39604918
  -Hartree energ DENC   =   -242290.90057039
  -exchange      EXHF   =         0.00000000
  -V(xc)+E(xc)   XCENC  =      -343.80604960
  PAW double counting   =     49332.69691500   -47412.60781004
  entropy T*S    EENTRO =        -0.26399500
  eigenvalues    EBANDS =     -2105.82258333
  atomic energy  EATOM  =     41659.78587232
  Solvation  Ediel_sol  =         0.00000000
  ---------------------------------------------------
  free energy    TOTEN  =      -188.63587513 eV

  energy without entropy =     -188.37188013  energy(sigma->0) =     -188.50387763


--------------------------------------------------------------------------------------------------------




----------------------------------------- Iteration    1(  17)  ---------------------------------------


    POTLOK:  cpu time    0.0398: real time    0.0399
    SETDIJ:  cpu time    0.0051: real time    0.0051
    EDDIAG:  cpu time    1.2739: real time    1.2770
  RMM-DIIS:  cpu time    3.4587: real time    3.4694
    ORTHCH:  cpu time    0.3433: real time    0.3441
       DOS:  cpu time    0.0014: real time    0.0014
    CHARGE:  cpu time    0.2182: real time    0.2188
    MIXING:  cpu time    0.0030: real time    0.0030
    --------------------------------------------
      LOOP:  cpu time    5.3443: real time    5.3613

 eigenvalue-minimisations  :  3680
 total energy-change (2. order) : 0.7631175E-01  (-0.9887756E-02)
 number of electron     503.9998360 magnetization 
 augmentation part      197.2377312 magnetization 

 DIPCOR: dipole corrections for dipol
 direction  3 min pos     1,
 dipolmoment           0.000000      0.000000      0.053113 electrons x Angstroem
 Tr[quadrupol]    -10219.166607

 energy correction for charged system         0.000000 eV
 dipol+quadrupol energy correction           -0.000099 eV
 added-field ion interaction          0.016813 eV  (added to PSCEN)


 Broyden mixing:
  rms(total) = 0.16611E+00    rms(broyden)= 0.16607E+00
  rms(prec ) = 0.19135E+00
  weight for this iteration     100.00

 eigenvalues of (default mixing * dielectric matrix)
  average eigenvalue GAMMA=   0.7434
  2.1074  1.6446  1.6446  0.6419  0.6419  0.5591  0.3539  0.3539  0.2718  0.2718
  0.2322  0.1975

 Free energy of the ion-electron system (eV)
  ---------------------------------------------------
  alpha Z        PSCENC =       805.88607820
  Ewald energy   TEWEN  =    200166.39604918
  -Hartree energ DENC   =   -242303.83555641
  -exchange      EXHF   =         0.00000000
  -V(xc)+E(xc)   XCENC  =      -343.67758008
  PAW double counting   =     49349.12611159   -47428.13765830
  entropy T*S    EENTRO =        -0.26694690
  eigenvalues    EBANDS =     -2093.83593299
  atomic energy  EATOM  =     41659.78587232
  Solvation  Ediel_sol  =         0.00000000
  ---------------------------------------------------
  free energy    TOTEN  =      -188.55956339 eV

  energy without entropy =     -188.29261649  energy(sigma->0) =     -188.42608994


--------------------------------------------------------------------------------------------------------




----------------------------------------- Iteration    1(  18)  ---------------------------------------


    POTLOK:  cpu time    0.0401: real time    0.0402
    SETDIJ:  cpu time    0.0051: real time    0.0059
    EDDIAG:  cpu time    1.2803: real time    1.2835
  RMM-DIIS:  cpu time    3.4604: real time    3.4897
    ORTHCH:  cpu time    0.3434: real time    0.3442
       DOS:  cpu time    0.0014: real time    0.0014
    CHARGE:  cpu time    0.2161: real time    0.2172
    MIXING:  cpu time    0.0032: real time    0.0032
    --------------------------------------------
      LOOP:  cpu time    5.3507: real time    5.3887

 eigenvalue-minimisations  :  3679
 total energy-change (2. order) : 0.3334564E-01  (-0.3960350E-02)
 number of electron     503.9998361 magnetization 
 augmentation part      197.1622304 magnetization 

 DIPCOR: dipole corrections for dipol
 direction  3 min pos     1,
 dipolmoment           0.000000      0.000000      0.045908 electrons x Angstroem
 Tr[quadrupol]    -10219.319847

 energy correction for charged system         0.000000 eV
 dipol+quadrupol energy correction           -0.000074 eV
 added-field ion interaction          0.014532 eV  (added to PSCEN)


 Broyden mixing:
  rms(total) = 0.96978E-01    rms(broyden)= 0.96950E-01
  rms(prec ) = 0.11043E+00
  weight for this iteration     100.00

 eigenvalues of (default mixing * dielectric matrix)
  average eigenvalue GAMMA=   0.7240
  2.2151  1.6360  1.6360  0.6553  0.6553  0.4539  0.4539  0.4396  0.3000  0.3000
  0.2346  0.2346  0.1973

 Free energy of the ion-electron system (eV)
  ---------------------------------------------------
  alpha Z        PSCENC =       805.88382244
  Ewald energy   TEWEN  =    200166.39604918
  -Hartree energ DENC   =   -242312.18108224
  -exchange      EXHF   =         0.00000000
  -V(xc)+E(xc)   XCENC  =      -343.56427652
  PAW double counting   =     49361.89931963   -47440.27431637
  entropy T*S    EENTRO =        -0.27035940
  eigenvalues    EBANDS =     -2086.20124681
  atomic energy  EATOM  =     41659.78587232
  Solvation  Ediel_sol  =         0.00000000
  ---------------------------------------------------
  free energy    TOTEN  =      -188.52621775 eV

  energy without entropy =     -188.25585835  energy(sigma->0) =     -188.39103805


--------------------------------------------------------------------------------------------------------




----------------------------------------- Iteration    1(  19)  ---------------------------------------


    POTLOK:  cpu time    0.0399: real time    0.0400
    SETDIJ:  cpu time    0.0052: real time    0.0052
    EDDIAG:  cpu time    1.2724: real time    1.2756
  RMM-DIIS:  cpu time    3.4638: real time    3.4722
    ORTHCH:  cpu time    0.3436: real time    0.3444
       DOS:  cpu time    0.0014: real time    0.0014
    CHARGE:  cpu time    0.2171: real time    0.2176
    MIXING:  cpu time    0.0033: real time    0.0033
    --------------------------------------------
      LOOP:  cpu time    5.3474: real time    5.3619

 eigenvalue-minimisations  :  3682
 total energy-change (2. order) : 0.3476029E-02  (-0.1092735E-02)
 number of electron     503.9998361 magnetization 
 augmentation part      197.1512087 magnetization 

 DIPCOR: dipole corrections for dipol
 direction  3 min pos     1,
 dipolmoment           0.000000      0.000000      0.037487 electrons x Angstroem
 Tr[quadrupol]    -10219.425594

 energy correction for charged system         0.000000 eV
 dipol+quadrupol energy correction           -0.000050 eV
 added-field ion interaction          0.011867 eV  (added to PSCEN)


 Broyden mixing:
  rms(total) = 0.73222E-01    rms(broyden)= 0.73208E-01
  rms(prec ) = 0.81431E-01
  weight for this iteration     100.00

 eigenvalues of (default mixing * dielectric matrix)
  average eigenvalue GAMMA=   0.7249
  2.2278  1.6325  1.6325  0.7728  0.7728  0.5942  0.5942  0.3863  0.3187  0.3187
  0.2514  0.2356  0.1980  0.2131

 Free energy of the ion-electron system (eV)
  ---------------------------------------------------
  alpha Z        PSCENC =       805.88118146
  Ewald energy   TEWEN  =    200166.39604918
  -Hartree energ DENC   =   -242316.18594929
  -exchange      EXHF   =         0.00000000
  -V(xc)+E(xc)   XCENC  =      -343.54641250
  PAW double counting   =     49368.79450429   -47447.08466957
  entropy T*S    EENTRO =        -0.27176505
  eigenvalues    EBANDS =     -2082.29155256
  atomic energy  EATOM  =     41659.78587232
  Solvation  Ediel_sol  =         0.00000000
  ---------------------------------------------------
  free energy    TOTEN  =      -188.52274172 eV

  energy without entropy =     -188.25097667  energy(sigma->0) =     -188.38685920


--------------------------------------------------------------------------------------------------------




----------------------------------------- Iteration    1(  20)  ---------------------------------------


    POTLOK:  cpu time    0.0400: real time    0.0401
    SETDIJ:  cpu time    0.0052: real time    0.0052
    EDDIAG:  cpu time    1.2752: real time    1.2785
  RMM-DIIS:  cpu time    3.4376: real time    3.4458
    ORTHCH:  cpu time    0.3440: real time    0.3448
       DOS:  cpu time    0.0014: real time    0.0014
    CHARGE:  cpu time    0.2192: real time    0.2198
    MIXING:  cpu time    0.0036: real time    0.0036
    --------------------------------------------
      LOOP:  cpu time    5.3269: real time    5.3416

 eigenvalue-minimisations  :  3685
 total energy-change (2. order) : 0.3898622E-02  (-0.3303730E-03)
 number of electron     503.9998361 magnetization 
 augmentation part      197.1316710 magnetization 

 DIPCOR: dipole corrections for dipol
 direction  3 min pos     1,
 dipolmoment           0.000000      0.000000      0.030951 electrons x Angstroem
 Tr[quadrupol]    -10219.508896

 energy correction for charged system         0.000000 eV
 dipol+quadrupol energy correction           -0.000034 eV
 added-field ion interaction          0.009798 eV  (added to PSCEN)


 Broyden mixing:
  rms(total) = 0.52072E-01    rms(broyden)= 0.52066E-01
  rms(prec ) = 0.57330E-01
  weight for this iteration     100.00

 eigenvalues of (default mixing * dielectric matrix)
  average eigenvalue GAMMA=   0.7488
  2.2765  1.7135  1.7135  0.9549  0.9549  0.6403  0.6403  0.4599  0.3453  0.3453
  0.2792  0.2701  0.2323  0.1985  0.2075

 Free energy of the ion-electron system (eV)
  ---------------------------------------------------
  alpha Z        PSCENC =       805.87912827
  Ewald energy   TEWEN  =    200166.39604918
  -Hartree energ DENC   =   -242319.86460076
  -exchange      EXHF   =         0.00000000
  -V(xc)+E(xc)   XCENC  =      -343.51884377
  PAW double counting   =     49372.38783144   -47450.57502195
  entropy T*S    EENTRO =        -0.27176953
  eigenvalues    EBANDS =     -2078.73748830
  atomic energy  EATOM  =     41659.78587232
  Solvation  Ediel_sol  =         0.00000000
  ---------------------------------------------------
  free energy    TOTEN  =      -188.51884310 eV

  energy without entropy =     -188.24707357  energy(sigma->0) =     -188.38295833


--------------------------------------------------------------------------------------------------------




----------------------------------------- Iteration    1(  21)  ---------------------------------------


    POTLOK:  cpu time    0.0412: real time    0.0414
    SETDIJ:  cpu time    0.0052: real time    0.0053
    EDDIAG:  cpu time    1.2724: real time    1.2783
  RMM-DIIS:  cpu time    3.4908: real time    3.5000
    ORTHCH:  cpu time    0.3437: real time    0.3445
       DOS:  cpu time    0.0014: real time    0.0015
    CHARGE:  cpu time    0.2151: real time    0.2188
    MIXING:  cpu time    0.0038: real time    0.0038
    --------------------------------------------
      LOOP:  cpu time    5.3743: real time    5.3970

 eigenvalue-minimisations  :  3678
 total energy-change (2. order) : 0.1451507E-02  (-0.3994825E-03)
 number of electron     503.9998362 magnetization 
 augmentation part      197.1107653 magnetization 

 DIPCOR: dipole corrections for dipol
 direction  3 min pos     1,
 dipolmoment           0.000000      0.000000      0.027336 electrons x Angstroem
 Tr[quadrupol]    -10219.662940

 energy correction for charged system         0.000000 eV
 dipol+quadrupol energy correction           -0.000026 eV
 added-field ion interaction          0.008653 eV  (added to PSCEN)


 Broyden mixing:
  rms(total) = 0.42857E-01    rms(broyden)= 0.42852E-01
  rms(prec ) = 0.47710E-01
  weight for this iteration     100.00

 eigenvalues of (default mixing * dielectric matrix)
  average eigenvalue GAMMA=   0.7935
  2.3713  2.0919  2.0919  1.1140  0.7638  0.7638  0.6674  0.6674  0.3540  0.3540
  0.2948  0.2756  0.2480  0.2325  0.1996  0.2057

 Free energy of the ion-electron system (eV)
  ---------------------------------------------------
  alpha Z        PSCENC =       805.87799137
  Ewald energy   TEWEN  =    200166.39604918
  -Hartree energ DENC   =   -242326.08346394
  -exchange      EXHF   =         0.00000000
  -V(xc)+E(xc)   XCENC  =      -343.48636921
  PAW double counting   =     49377.40007831   -47455.46795910
  entropy T*S    EENTRO =        -0.27304526
  eigenvalues    EBANDS =     -2072.66654526
  atomic energy  EATOM  =     41659.78587232
  Solvation  Ediel_sol  =         0.00000000
  ---------------------------------------------------
  free energy    TOTEN  =      -188.51739159 eV

  energy without entropy =     -188.24434634  energy(sigma->0) =     -188.38086897


--------------------------------------------------------------------------------------------------------




----------------------------------------- Iteration    1(  22)  ---------------------------------------


    POTLOK:  cpu time    0.0409: real time    0.0411
    SETDIJ:  cpu time    0.0051: real time    0.0051
    EDDIAG:  cpu time    1.2775: real time    1.2814
  RMM-DIIS:  cpu time    3.4690: real time    3.4775
    ORTHCH:  cpu time    0.3423: real time    0.3431
       DOS:  cpu time    0.0015: real time    0.0015
    CHARGE:  cpu time    0.2176: real time    0.2181
    MIXING:  cpu time    0.0038: real time    0.0038
    --------------------------------------------
      LOOP:  cpu time    5.3585: real time    5.3756

 eigenvalue-minimisations  :  3681
 total energy-change (2. order) : 0.9659161E-03  (-0.2913694E-03)
 number of electron     503.9998362 magnetization 
 augmentation part      197.0929457 magnetization 

 DIPCOR: dipole corrections for dipol
 direction  3 min pos     1,
 dipolmoment           0.000000      0.000000      0.026250 electrons x Angstroem
 Tr[quadrupol]    -10219.858351

 energy correction for charged system         0.000000 eV
 dipol+quadrupol energy correction           -0.000024 eV
 added-field ion interaction          0.008310 eV  (added to PSCEN)


 Broyden mixing:
  rms(total) = 0.32477E-01    rms(broyden)= 0.32471E-01
  rms(prec ) = 0.38104E-01
  weight for this iteration     100.00

 eigenvalues of (default mixing * dielectric matrix)
  average eigenvalue GAMMA=   0.7944
  2.4876  2.1816  2.1816  1.2955  0.7657  0.7657  0.6769  0.6769  0.3647  0.3647
  0.3062  0.3062  0.2553  0.2499  0.2265  0.1998  0.1998

 Free energy of the ion-electron system (eV)
  ---------------------------------------------------
  alpha Z        PSCENC =       805.87764975
  Ewald energy   TEWEN  =    200166.39604918
  -Hartree energ DENC   =   -242333.92298116
  -exchange      EXHF   =         0.00000000
  -V(xc)+E(xc)   XCENC  =      -343.44455877
  PAW double counting   =     49382.58103469   -47460.53992674
  entropy T*S    EENTRO =        -0.27199595
  eigenvalues    EBANDS =     -2064.97756900
  atomic energy  EATOM  =     41659.78587232
  Solvation  Ediel_sol  =         0.00000000
  ---------------------------------------------------
  free energy    TOTEN  =      -188.51642568 eV

  energy without entropy =     -188.24442972  energy(sigma->0) =     -188.38042770


--------------------------------------------------------------------------------------------------------




----------------------------------------- Iteration    1(  23)  ---------------------------------------


    POTLOK:  cpu time    0.0409: real time    0.0411
    SETDIJ:  cpu time    0.0052: real time    0.0052
    EDDIAG:  cpu time    1.2700: real time    1.2730
  RMM-DIIS:  cpu time    3.4546: real time    3.4630
[...]
    275       1.7676      0.00000
    276       1.8333      0.00000
    277       2.1565      0.00000
    278       2.2279      0.00000
    279       2.2422      0.00000
    280       2.3786      0.00000
    281       2.4963      0.00000
    282       2.5877      0.00000
    283       2.7241      0.00000
    284       2.9435      0.00000
    285       3.1467      0.00000
    286       3.2403      0.00000
    287       3.5556      0.00000
    288       3.6389      0.00000
    289       3.7607      0.00000
    290       3.9978      0.00000
    291       4.1091      0.00000
    292       4.1966      0.00000
    293       4.4612      0.00000
    294       4.5644      0.00000
    295       4.6123      0.00000
    296       4.6368      0.00000
    297       4.7342      0.00000
    298       4.8258      0.00000
    299       4.8892      0.00000
    300       4.9280      0.00000
    301       4.9638      0.00000
    302       5.0533      0.00000
    303       5.0777      0.00000
    304       5.0870      0.00000
    305       5.1778      0.00000
    306       5.2296      0.00000


--------------------------------------------------------------------------------------------------------


 soft charge-density along one line, spin component           1
         0         1         2         3         4         5         6         7         8         9
 total charge-density along one line
 
 pseudopotential strength for first ion, spin component:           1
 -8.029   0.000  -0.001  -0.002  -0.001  -8.176   0.000  -0.001
  0.000  -7.948   0.000   0.001  -0.002   0.000  -8.097   0.000
 -0.001   0.000  -7.948   0.000   0.008  -0.001   0.000  -8.097
 -0.002   0.001   0.000  -7.958   0.001  -0.002   0.001   0.000
 -0.001  -0.002   0.008   0.001  -8.029  -0.001  -0.002   0.008
 -8.176   0.000  -0.001  -0.002  -0.001  -8.307   0.000  -0.001
  0.000  -8.097   0.000   0.001  -0.002   0.000  -8.229   0.000
 -0.001   0.000  -8.097   0.000   0.008  -0.001   0.000  -8.229
 -0.002   0.001   0.000  -8.107   0.001  -0.002   0.001   0.000
 -0.001  -0.002   0.008   0.001  -8.176  -0.001  -0.002   0.008
 -0.001  -0.000  -0.024  -0.000   0.003  -0.001  -0.000  -0.024
 -0.001  -0.000  -0.035  -0.000   0.005  -0.001  -0.000  -0.035
 -0.001  -0.005  -0.001  -0.000  -0.001  -0.001  -0.005  -0.001
 -0.000   0.001  -0.007  -0.001   0.000  -0.000   0.001  -0.007
  0.001  -0.000   0.001  -0.005  -0.001   0.001  -0.000   0.001
 -0.001  -0.005  -0.001  -0.000  -0.001  -0.001  -0.005  -0.001
 -0.000   0.002  -0.007  -0.002   0.000  -0.000   0.002  -0.007
  0.002  -0.000   0.001  -0.005  -0.001   0.002  -0.000   0.001
 total augmentation occupancy for first ion, spin component:           1
  3.991  -0.034  -0.026   0.015  -0.035  -2.195   0.028   0.024  -0.051   0.026   0.028  -0.009  -0.003   0.003  -0.025  -0.001
 -0.034   4.154   0.040  -0.034   0.032   0.029  -1.894  -0.032   0.034  -0.066  -0.003   0.019  -0.158  -0.007   0.003   0.002
 -0.026   0.040   4.444  -0.057  -0.170   0.024  -0.032  -2.337   0.052   0.197   0.930  -0.112  -0.008  -0.232   0.006  -0.000
  0.015  -0.034  -0.057   4.180   0.013  -0.050   0.034   0.052  -1.925  -0.009   0.029  -0.025   0.004   0.012  -0.139  -0.000
 -0.035   0.032  -0.170   0.013   4.526   0.026  -0.067   0.198  -0.009  -2.708  -0.241   0.141  -0.023  -0.003  -0.006  -0.000
 -2.195   0.029   0.024  -0.050   0.026   2.279  -0.025  -0.022   0.077  -0.019  -0.020   0.007   0.003  -0.002   0.023   0.000
  0.028  -1.894  -0.032   0.034  -0.067  -0.025   1.603   0.024  -0.034   0.093  -0.002  -0.015   0.146   0.003  -0.002  -0.005
  0.024  -0.032  -2.337   0.052   0.198  -0.022   0.024   2.174  -0.048  -0.217  -0.869   0.128   0.005   0.241  -0.004  -0.000
 -0.051   0.034   0.052  -1.925  -0.009   0.077  -0.034  -0.048   1.640   0.005  -0.024   0.022  -0.003  -0.008   0.128   0.000
  0.026  -0.066   0.197  -0.009  -2.708  -0.019   0.093  -0.217   0.005   2.770   0.215  -0.129   0.024   0.000   0.005  -0.001
  0.028  -0.003   0.930   0.029  -0.241  -0.020  -0.002  -0.869  -0.024   0.215   2.411  -0.491  -0.002   0.117  -0.001   0.000
 -0.009   0.019  -0.112  -0.025   0.141   0.007  -0.015   0.128   0.022  -0.129  -0.491   0.137  -0.002  -0.052   0.002   0.000
 -0.003  -0.158  -0.008   0.004  -0.023   0.003   0.146   0.005  -0.003   0.024  -0.002  -0.002   0.187   0.000  -0.000  -0.005
  0.003  -0.007  -0.232   0.012  -0.003  -0.002   0.003   0.241  -0.008   0.000   0.117  -0.052   0.000   0.097   0.001  -0.000
 -0.025   0.003   0.006  -0.139  -0.006   0.023  -0.002  -0.004   0.128   0.005  -0.001   0.002  -0.000   0.001   0.202   0.000
 -0.001   0.002  -0.000  -0.000  -0.000   0.000  -0.005  -0.000   0.000  -0.001   0.000   0.000  -0.005  -0.000   0.000   0.000
 -0.000   0.002  -0.001  -0.002   0.000   0.000  -0.001  -0.006   0.001  -0.000  -0.008   0.002  -0.000  -0.003   0.000   0.000
  0.002  -0.000  -0.000   0.003  -0.001  -0.001   0.000   0.000  -0.005   0.000  -0.000  -0.000   0.000   0.000  -0.006  -0.000


------------------------ aborting loop because EDIFF is reached ----------------------------------------


    CHARGE:  cpu time    0.2173: real time    0.2178
    FORLOC:  cpu time    0.0159: real time    0.0159
    FORNL :  cpu time    1.3318: real time    1.3350
    FORCOR:  cpu time    0.0559: real time    0.0561
    FORHAR:  cpu time    0.0237: real time    0.0237
    MIXING:  cpu time    0.0027: real time    0.0028
    OFIELD:  cpu time    0.0000: real time    0.0000

 VOLUME and BASIS-vectors are now :
 -----------------------------------------------------------------------------
  energy-cutoff  :      400.00
  volume of cell :     2567.68
      direct lattice vectors                 reciprocal lattice vectors
    11.002581515  0.000000000  0.000000000     0.090887761 -0.052474073  0.000000000
     5.501290758  9.528515099  0.000000000     0.000000000  0.104948147  0.000000000
     0.000000000  0.000000000 24.491785094     0.000000000  0.000000000  0.040830017

  length of vectors
    11.002581515 11.002581515 24.491785094     0.104948147  0.104948147  0.040830017


 FORCES acting on ions
    electron-ion (+dipol)            ewald-force                    non-local-force                 convergence-correction
 -----------------------------------------------------------------------------------------------
   -.575E+01 -.162E+00 0.221E+04   0.587E+01 -.704E-01 -.221E+04   -.520E-01 0.209E+00 -.248E+00   -.222E-02 0.500E-02 0.612E-03
   0.898E+01 -.558E+00 0.222E+04   -.908E+01 0.762E+00 -.222E+04   0.219E-01 -.175E+00 0.150E+00   -.405E-02 -.202E-02 0.203E-02
   0.653E+01 -.745E+01 -.226E+04   -.710E+01 0.817E+01 0.226E+04   0.557E+00 -.716E+00 0.189E+00   -.784E-03 -.265E-02 -.500E-02
   0.942E+01 -.269E+01 -.469E+02   -.876E+01 0.198E+01 0.476E+02   -.661E+00 0.700E+00 -.653E+00   0.323E-03 0.780E-03 -.597E-02
   0.869E+01 0.108E+02 0.221E+04   -.875E+01 -.113E+02 -.221E+04   -.159E-01 0.304E+00 -.474E+00   0.119E-03 0.302E-02 -.134E-02
   -.101E+02 -.162E+01 -.320E+02   0.106E+02 0.222E+01 0.324E+02   -.503E+00 -.605E+00 -.484E+00   -.274E-02 0.133E-02 -.448E-02
   0.113E+02 0.729E+01 -.220E+04   -.122E+02 -.783E+01 0.220E+04   0.850E+00 0.544E+00 0.775E+00   -.170E-02 -.217E-02 -.914E-02
   -.213E+01 0.200E+02 -.230E+04   0.290E+01 -.211E+02 0.230E+04   -.768E+00 0.109E+01 -.222E-01   0.653E-03 0.147E-02 -.230E-02
   0.488E+01 0.744E+01 -.169E+02   -.547E+01 -.779E+01 0.175E+02   0.590E+00 0.364E+00 -.561E+00   0.236E-02 0.141E-02 -.989E-02
   0.242E+01 -.134E+02 -.227E+04   -.177E+01 0.141E+02 0.227E+04   -.644E+00 -.634E+00 0.336E+00   -.346E-02 0.302E-02 -.234E-02
   0.165E+00 -.119E+01 0.168E+02   0.837E-01 0.139E+01 -.162E+02   -.236E+00 -.199E+00 -.560E+00   -.811E-02 -.167E-02 0.137E-02
   0.192E+01 0.399E+01 -.549E+02   -.279E+01 -.407E+01 0.543E+02   0.866E+00 0.859E-01 0.623E+00   0.495E-02 -.568E-02 -.647E-02
   0.840E+01 -.479E+01 0.221E+04   -.837E+01 0.526E+01 -.221E+04   -.884E-01 -.332E+00 -.249E+00   -.120E-02 0.118E-02 0.802E-03
   0.101E+02 -.113E+01 -.225E+04   -.101E+02 0.170E+01 0.225E+04   -.570E-01 -.554E+00 0.243E+00   0.240E-02 -.513E-02 -.156E-01
   -.781E+01 -.112E+02 0.221E+04   0.803E+01 0.118E+02 -.221E+04   -.127E+00 -.417E+00 -.223E+00   0.327E-02 -.393E-03 0.278E-02
   -.862E+01 -.110E+02 0.223E+04   0.879E+01 0.111E+02 -.223E+04   -.927E-01 -.284E-01 0.111E-01   0.435E-02 -.478E-02 0.200E-02
   -.885E+01 -.981E+01 0.611E+01   0.842E+01 0.987E+01 -.614E+01   0.420E+00 -.561E-01 0.287E-01   0.146E-02 -.146E-02 -.104E-02
   0.145E+02 0.143E+02 -.226E+04   -.150E+02 -.150E+02 0.226E+04   0.428E+00 0.733E+00 -.147E-01   0.167E-02 -.149E-02 0.100E-01
   -.134E+02 0.438E+00 0.221E+04   0.138E+02 -.451E+00 -.221E+04   -.201E+00 0.197E-01 0.429E+00   -.211E-03 0.299E-02 0.304E-02
   0.162E+01 0.112E+02 -.829E+02   -.233E+01 -.100E+02 0.841E+02   0.694E+00 -.119E+01 -.118E+01   0.924E-02 -.417E-02 -.140E-01
   -.147E+02 -.455E+01 -.235E+04   0.155E+02 0.485E+01 0.235E+04   -.761E+00 -.295E+00 -.226E+00   -.763E-03 -.391E-02 -.108E-01
   -.170E+01 -.103E+02 0.302E+01   0.236E+01 0.978E+01 -.345E+01   -.666E+00 0.514E+00 0.432E+00   0.947E-02 -.154E-02 -.651E-02
   0.784E+01 0.149E+02 0.221E+04   -.800E+01 -.156E+02 -.221E+04   0.747E-01 0.482E+00 0.842E-01   -.132E-02 -.200E-02 0.248E-02
   0.105E+02 0.108E+02 0.220E+04   -.109E+02 -.112E+02 -.220E+04   0.305E+00 0.227E+00 0.210E+00   0.224E-02 0.444E-03 0.907E-03
   0.195E+01 -.282E+00 -.243E+01   -.171E+01 0.129E+00 0.336E+01   -.252E+00 0.160E+00 -.917E+00   0.146E-02 0.255E-02 -.379E-02
   -.183E+02 0.457E+01 0.202E+04   0.189E+02 -.477E+01 -.202E+04   -.326E+00 0.107E+00 -.142E+01   -.277E-02 0.514E-03 0.154E-02
   0.107E+02 0.735E+01 -.495E+02   -.107E+02 -.733E+01 0.500E+02   -.189E-01 -.281E-01 -.467E+00   0.192E-02 -.255E-02 -.878E-02
   -.156E+02 0.132E+02 -.201E+04   0.157E+02 -.135E+02 0.200E+04   -.114E+00 0.323E+00 0.163E+01   -.989E-03 0.765E-03 -.104E-01
   -.303E+01 -.181E+02 0.203E+04   0.295E+01 0.184E+02 -.203E+04   0.943E-01 -.719E-01 -.153E+01   -.169E-03 -.294E-02 0.132E-02
   0.245E+01 0.391E+01 0.202E+04   -.265E+01 -.393E+01 -.202E+04   0.106E+00 -.342E-01 -.181E+01   0.425E-03 -.486E-03 0.564E-03
   -.926E+01 -.974E+01 -.200E+04   0.950E+01 0.984E+01 0.200E+04   -.236E+00 -.988E-01 0.169E+01   0.303E-02 0.217E-02 -.521E-02
   -.227E+01 0.909E+00 -.141E+02   0.241E+01 -.103E+01 0.135E+02   -.137E+00 0.123E+00 0.502E+00   -.866E-03 0.117E-03 0.288E-02
   -.301E+01 -.239E+02 -.201E+04   0.312E+01 0.245E+02 0.201E+04   -.108E+00 -.572E+00 0.189E+01   0.325E-02 0.132E-02 -.130E-01
   -.903E+01 -.298E+01 0.190E+02   0.939E+01 0.296E+01 -.190E+02   -.360E+00 0.102E-01 -.348E-01   0.139E-02 0.280E-02 -.244E-02
   -.179E+01 -.107E+01 -.198E+04   0.165E+01 0.147E+01 0.197E+04   0.140E+00 -.393E+00 0.158E+01   -.147E-02 0.190E-02 -.178E-01
   0.185E+02 -.542E+01 0.202E+04   -.191E+02 0.567E+01 -.202E+04   0.350E+00 -.125E+00 -.181E+01   -.295E-02 0.339E-02 0.778E-03
   0.466E+01 -.247E+01 -.198E+04   -.472E+01 0.200E+01 0.198E+04   0.631E-01 0.473E+00 0.182E+01   -.101E-02 0.678E-04 -.124E-01
   -.138E+01 0.102E+01 0.622E+01   0.110E+01 -.596E+00 -.705E+01   0.280E+00 -.417E+00 0.824E+00   -.256E-02 0.743E-03 0.274E-02
   -.238E+01 0.776E+00 0.434E+02   0.235E+01 -.594E+00 -.439E+02   0.368E-01 -.172E+00 0.451E+00   -.386E-02 0.195E-02 -.737E-02
   -.185E+02 -.112E+02 0.202E+04   0.190E+02 0.116E+02 -.202E+04   -.227E+00 -.290E+00 -.180E+01   0.106E-02 0.233E-02 0.305E-02
   -.564E+01 -.272E+01 0.902E+01   0.580E+01 0.262E+01 -.819E+01   -.163E+00 0.107E+00 -.824E+00   0.606E-02 -.354E-02 -.826E-02
   -.625E+01 -.172E+02 -.202E+04   0.598E+01 0.176E+02 0.202E+04   0.280E+00 -.428E+00 0.156E+01   -.564E-03 -.215E-02 -.126E-01
   0.251E+01 0.906E+01 0.202E+04   -.243E+01 -.936E+01 -.202E+04   -.710E-01 0.171E+00 -.170E+01   -.749E-04 -.294E-02 0.251E-02
   -.884E+01 0.642E+01 -.200E+04   0.891E+01 -.677E+01 0.200E+04   -.714E-01 0.354E+00 0.157E+01   -.243E-02 -.696E-03 -.294E-02
   0.686E+01 0.103E+02 -.196E+04   -.687E+01 -.106E+02 0.196E+04   0.182E-01 0.284E+00 0.154E+01   -.120E-02 -.102E-02 -.955E-02
   0.882E+01 0.863E+01 0.202E+04   -.910E+01 -.876E+01 -.202E+04   0.208E+00 0.383E-01 -.149E+01   0.348E-02 -.289E-02 0.509E-03
   0.100E+02 -.415E+00 -.147E+02   -.103E+02 -.563E-01 0.152E+02   0.252E+00 0.461E+00 -.455E+00   -.284E-02 0.137E-02 -.802E-02
   0.458E+01 0.802E+01 -.200E+04   -.495E+01 -.805E+01 0.199E+04   0.368E+00 0.378E-01 0.143E+01   0.194E-02 -.393E-02 0.121E-02
 -----------------------------------------------------------------------------------------------
   -.655E-01 -.719E-01 -.698E+00   -.702E-12 0.469E-12 0.136E-11   0.480E-01 0.948E-01 0.853E+00   0.162E-01 -.196E-01 -.174E+00
 
 
 POSITION                                       TOTAL-FORCE (eV/Angst)
 -----------------------------------------------------------------------------------
      1.37532      0.79404     10.00000         0.060369     -0.018477     -0.101068
      4.12597      5.55830     10.00000        -0.088464      0.027227     -0.281896
      1.35469      2.41037     14.96296        -0.006217     -0.000671      0.003102
     15.14235      8.72475     12.50122         0.000376     -0.006273     -0.004888
      4.12597      0.79404     10.00000        -0.079742     -0.191035      0.049960
     11.02400      1.61665     12.48689        -0.001371      0.003220     -0.000866
      2.72629     -0.01251     14.89993        -0.003242      0.002521     -0.001351
     12.40599      7.11460     15.04817         0.005114     -0.000600      0.004026
      4.09868      3.94830     12.46692        -0.001226      0.011042      0.009095
      4.13583      2.41180     14.98692        -0.000451     -0.001361      0.005676
      5.50639      6.35194     12.43145         0.004861     -0.006800      0.004729
     12.34828      8.73164     12.49625         0.001183      0.000943      0.001827
      5.50129      3.17617     10.00000        -0.058845      0.139237     -0.118821
      5.51065      0.00698     14.99670         0.000956      0.005511      0.014577
      8.25194      3.17617     10.00000         0.095444      0.204377     -0.174935
      9.62726      5.55830     10.00000         0.083209      0.084205     -0.287414
      8.24817      6.36029     12.43608        -0.005341     -0.000749     -0.005473
      9.60782      7.11245     14.98362        -0.000670      0.001630     -0.001576
      9.62726      0.79404     10.00000         0.199286      0.009351     -0.256583
      8.23243      1.61221     12.54725        -0.008450      0.004846      0.000448
      8.28753      0.01176     15.10436         0.007820      0.004703      0.012144
     11.01724      6.33955     12.43409         0.005906     -0.010653     -0.009650
     13.75323      7.94043     10.00000        -0.089348     -0.259501     -0.174261
      6.87661      0.79404     10.00000        -0.155178     -0.127089     -0.131775
      6.87342      3.96354     12.45148        -0.008589      0.009630      0.004612
      5.50129      7.94043     10.00000         0.214738     -0.084247      0.153602
      5.48402      1.58865     12.50928        -0.004312     -0.005227      0.001721
      4.14051      7.12577     14.85585        -0.001197      0.005587      0.007224
      6.87661      5.55830     10.00000         0.018230      0.200188      0.130396
      8.25194      7.94043     10.00000        -0.092824     -0.060569      0.209025
      5.50979      4.77575     14.82400         0.003421     -0.000059     -0.001465
      2.75799      1.58113     12.45801        -0.001429      0.000498      0.001374
      6.87881      2.41072     14.87204         0.001640     -0.005591      0.006955
      6.89665      8.74758     12.42686         0.003607     -0.003034     -0.002050
      2.74909      4.77414     14.82415        -0.002396      0.003899      0.004184
      2.75065      3.17617     10.00000        -0.257442      0.134685      0.235224
      8.24761      4.74169     14.80490        -0.000092      0.003124      0.006758
      9.61396      8.75110     12.42988        -0.010068      0.004325     -0.002145
     12.37837      3.96126     12.39525        -0.001636      0.012039      0.000418
     11.00258      3.17617     10.00000         0.230429      0.123543      0.198438
      9.62841      3.97062     12.43578         0.003694      0.004714     -0.003156
      9.61586      2.40727     14.86846         0.007705      0.004893      0.011396
     12.37790      5.55830     10.00000         0.012782     -0.130043      0.227915
     -0.00016     -0.01279     14.85713        -0.007029      0.004768      0.004882
     11.00284      4.76232     14.79778         0.002009     -0.007786      0.002306
     11.00258      7.94043     10.00000        -0.066037     -0.084752      0.244650
     13.73835      6.34456     12.46333        -0.007334     -0.008543      0.005670
      6.85492      7.13157     14.82582        -0.003846      0.002357     -0.002961
 -----------------------------------------------------------------------------------
    total drift:                               -0.001293      0.003363     -0.019784


--------------------------------------------------------------------------------------------------------



  FREE ENERGIE OF THE ION-ELECTRON SYSTEM (eV)
  ---------------------------------------------------
  free  energy   TOTEN  =      -192.06515663 eV

  energy  without entropy=     -191.81993801  energy(sigma->0) =     -191.94254732
 
 d Force = 0.4268280E-03[ 0.199E-03, 0.655E-03]  d Energy = 0.4113729E-03 0.155E-04
 d Force = 0.4215000E+02[ 0.422E+02, 0.421E+02]  d Ewald  = 0.4215001E+02-0.286E-05


--------------------------------------------------------------------------------------------------------


    POTLOK:  cpu time    0.0475: real time    0.0477


--------------------------------------------------------------------------------------------------------


 stress matrix after NEB project (eV)
      0.00000      0.00000      0.00000
      0.00000      0.00000      0.00000
      0.00000      0.00000      0.00000
  FORCES: max atom, RMS     0.015613    0.007676
  FORCE total and by dimension    0.053180    0.014577
  Stress total and by dimension    0.000000    0.000000
 Conjugate gradient step on ions:
 trial-energy change:   -0.000411  1 .order   -0.000427   -0.000655   -0.000199
  (g-gl).g = 0.276E-03      g.g   = 0.252E-03  gl.gl    = 0.517E-03
 g(Force)  = 0.252E-03   g(Stress)= 0.000E+00 ortho     =-0.144E-04
 gamma     =   0.53382
 trial     =   2.68185
 opt step  =   4.44039  (harmonic =   3.84884) maximal distance =0.00572818
 next E    =  -192.065217   (d E  =  -0.00047)


--------------------------------------------------------------------------------------------------------


  
 reached required accuracy - stopping structural energy minimisation
     LOOP+:  cpu time   54.2373: real time   54.6054
    4ORBIT:  cpu time    0.0000: real time    0.0000

 total amount of memory used by VASP on root node    84353. kBytes
========================================================================

   base      :      30000. kBytes
   nonlr-proj:       4285. kBytes
   fftplans  :       4447. kBytes
   grid      :       6721. kBytes
   one-center:        124. kBytes
   wavefun   :      38776. kBytes
 
  
  
 General timing and accounting informations for this job:
 ========================================================
  
                  Total CPU time used (sec):     1535.599
                            User time (sec):     1466.162
                          System time (sec):       69.437
                         Elapsed time (sec):     1548.673
  
                   Maximum memory used (kb):      839916.
                   Average memory used (kb):           0.
  
                          Minor page faults:       718754
                          Major page faults:            2
                 Voluntary context switches:         9986
