<?xml version="1.0" encoding="ISO-8859-1"?>
<modeling>
 <generator>
  <i name="program" type="string">vasp </i>
  <i name="version" type="string">5.4.1  </i>
  <i name="subversion" type="string">24Jun15 (build Mar 14 2019 10:18:33) complex                          parallel </i>
  <i name="platform" type="string">INTEL-19.0.2+OPENMPI-3.1.3 </i>
  <i name="date" type="string">2023 01 24 </i>
  <i name="time" type="string">11:01:44 </i>
 </generator>
 <incar>
  <i type="int" name="ISTART">     0</i>
  <i type="string" name="PREC">normal</i>
  <i type="string" name="ALGO"> Fast</i>
  <i type="int" name="NELM">   500</i>
  <i type="int" name="IBRION">     2</i>
  <i type="int" name="NFREE">     2</i>
  <i name="EDIFF">      0.00000100</i>
  <i name="EDIFFG">     -0.02000000</i>
  <i type="int" name="NSW">   500</i>
  <i type="int" name="ISIF">     0</i>
  <i type="int" name="ISYM">     2</i>
  <i name="ENCUT">    400.00000000</i>
  <i name="POTIM">      0.35000000</i>
  <i type="string" name="LREAL"> Auto</i>
  <i type="logical" name="LPLANE"> T  </i>
  <i type="int" name="ISMEAR">     0</i>
  <i name="SIGMA">      0.10000000</i>
  <i type="int" name="NWRITE">     1</i>
  <i type="logical" name="LWAVE"> F  </i>
  <i type="logical" name="LCHARG"> F  </i>
  <i type="logical" name="LVTOT"> F  </i>
  <i type="logical" name="LORBIT"> F  </i>
  <i type="logical" name="LAECHG"> F  </i>
  <v type="int" name="KPOINT_BSE">    -1     0     0     0</v>
  <i type="int" name="NELM">   500</i>
  <i type="string" name="GGA"> PE          ! optPBE-vdW XC-functional</i>
  <i type="int" name="VOSKOWN">     1</i>
  <i type="logical" name="LDIPOL"> T  </i>
  <i type="logical" name="LMONO"> F  </i>
  <i type="int" name="IDIPOL">     3</i>
  <v name="DIPOL">      0.00000000      0.00000000      0.50000000</v>
 </incar>
 <kpoints>
  <generation param="Monkhorst-Pack">
   <v type="int" name="divisions">       2        2        1 </v>
   <v name="usershift">      0.00000000       0.00000000       0.00000000 </v>
   <v name="genvec1">      0.50000000       0.00000000       0.00000000 </v>
   <v name="genvec2">      0.00000000       0.50000000       0.00000000 </v>
   <v name="genvec3">      0.00000000       0.00000000       1.00000000 </v>
   <v name="shift">      0.50000000       0.50000000       0.00000000 </v>
  </generation>
  <varray name="kpointlist" >
   <v>       0.25000000       0.25000000       0.00000000 </v>
   <v>       0.00000000       0.25000000       0.00000000 </v>
   <v>      -0.25000000       0.00000000       0.00000000 </v>
   <v>      -0.25000000       0.25000000       0.00000000 </v>
   <v>       0.50000000      -0.25000000       0.00000000 </v>
   <v>      -0.25000000       0.50000000       0.00000000 </v>
  </varray>
  <varray name="weights" >
   <v>       0.16666667 </v>
   <v>       0.16666667 </v>
   <v>       0.16666667 </v>
   <v>       0.16666667 </v>
   <v>       0.16666667 </v>
   <v>       0.16666667 </v>
  </varray>
 </kpoints>
 <parameters>
  <separator name="general" >
   <i type="string" name="SYSTEM">unknown system</i>
   <i type="logical" name="LCOMPAT"> F  </i>
  </separator>
  <separator name="electronic" >
   <i type="string" name="PREC">normal</i>
   <i name="ENMAX">    400.00000000</i>
   <i name="ENAUG">    605.39200000</i>
   <i name="EDIFF">      0.00000100</i>
   <i type="int" name="IALGO">    68</i>
   <i type="int" name="IWAVPR">    11</i>
   <i type="int" name="NBANDS">   336</i>
   <i name="NELECT">    552.00000000</i>
   <i type="int" name="TURBO">     0</i>
   <i type="int" name="IRESTART">     0</i>
   <i type="int" name="NREBOOT">     0</i>
   <i type="int" name="NMIN">     0</i>
   <i name="EREF">      0.00000000</i>
   <separator name="electronic smearing" >
    <i type="int" name="ISMEAR">     0</i>
    <i name="SIGMA">      0.10000000</i>
    <i name="KSPACING">      0.50000000</i>
    <i type="logical" name="KGAMMA"> T  </i>
   </separator>
   <separator name="electronic projectors" >
    <i type="logical" name="LREAL"> T  </i>
    <v name="ROPT">     -0.00050000     -0.00050000     -0.00050000</v>
    <i type="int" name="LMAXPAW">  -100</i>
    <i type="int" name="LMAXMIX">     2</i>
    <i type="logical" name="NLSPLINE"> F  </i>
   </separator>
   <separator name="electronic startup" >
    <i type="int" name="ISTART">     0</i>
    <i type="int" name="ICHARG">     2</i>
    <i type="int" name="INIWAV">     1</i>
   </separator>
   <separator name="electronic spin" >
    <i type="int" name="ISPIN">     1</i>
    <i type="logical" name="LNONCOLLINEAR"> F  </i>
    <v name="MAGMOM">      1.00000000      1.00000000      1.00000000      1.00000000      1.00000000      1.00000000      1.00000000      1.00000000      1.00000000      1.00000000      1.00000000      1.00000000      1.00000000      1.00000000      1.00000000      1.00000000      1.00000000      1.00000000      1.00000000      1.00000000
      1.00000000      1.00000000      1.00000000      1.00000000      1.00000000      1.00000000      1.00000000      1.00000000      1.00000000      1.00000000      1.00000000      1.00000000      1.00000000      1.00000000      1.00000000      1.00000000      1.00000000      1.00000000      1.00000000      1.00000000
      1.00000000      1.00000000      1.00000000      1.00000000      1.00000000      1.00000000      1.00000000      1.00000000      1.00000000      1.00000000      1.00000000      1.00000000      1.00000000      1.00000000      1.00000000      1.00000000</v>
    <i name="NUPDOWN">     -1.00000000</i>
    <i type="logical" name="LSORBIT"> F  </i>
    <v name="SAXIS">      0.00000000      0.00000000      1.00000000</v>
    <i type="logical" name="LSPIRAL"> F  </i>
    <v name="QSPIRAL">      0.00000000      0.00000000      0.00000000</v>
    <i type="logical" name="LZEROZ"> F  </i>
   </separator>
   <separator name="electronic exchange-correlation" >
    <i type="logical" name="LASPH"> F  </i>
    <i type="logical" name="LMETAGGA"> F  </i>
   </separator>
   <separator name="electronic convergence" >
    <i type="int" name="NELM">   500</i>
    <i type="int" name="NELMDL">    -5</i>
    <i type="int" name="NELMIN">     2</i>
    <i name="ENINI">    400.00000000</i>
    <separator name="electronic convergence detail" >
     <i type="logical" name="LDIAG"> T  </i>
     <i type="logical" name="LSUBROT"> F  </i>
     <i name="WEIMIN">      0.00100000</i>
     <i name="EBREAK">      0.00000000</i>
     <i name="DEPER">      0.30000000</i>
     <i type="int" name="NRMM">     4</i>
     <i name="TIME">      0.40000000</i>
    </separator>
   </separator>
   <separator name="electronic mixer" >
    <i name="AMIX">      0.40000000</i>
    <i name="BMIX">      1.00000000</i>
    <i name="AMIN">      0.10000000</i>
    <i name="AMIX_MAG">      1.60000000</i>
    <i name="BMIX_MAG">      1.00000000</i>
    <separator name="electronic mixer details" >
     <i type="int" name="IMIX">     4</i>
     <i type="logical" name="MIXFIRST"> F  </i>
     <i type="int" name="MAXMIX">   -45</i>
     <i name="WC">    100.00000000</i>
     <i type="int" name="INIMIX">     1</i>
     <i type="int" name="MIXPRE">     1</i>
     <i type="int" name="MREMOVE">     5</i>
    </separator>
   </separator>
   <separator name="electronic dipolcorrection" >
    <i type="logical" name="LDIPOL"> T  </i>
    <i type="logical" name="LMONO"> F  </i>
    <i type="int" name="IDIPOL">     3</i>
    <i name="EPSILON">      1.00000000</i>
    <v name="DIPOL">      0.00000000      0.00000000      0.50000000</v>
    <i name="EFIELD">      0.00000000</i>
   </separator>
  </separator>
  <separator name="grids" >
   <i type="int" name="NGX">    54</i>
   <i type="int" name="NGY">    54</i>
   <i type="int" name="NGZ">   128</i>
   <i type="int" name="NGXF">   108</i>
   <i type="int" name="NGYF">   108</i>
   <i type="int" name="NGZF">   256</i>
   <i type="logical" name="ADDGRID"> F  </i>
  </separator>
  <separator name="ionic" >
   <i type="int" name="NSW">   500</i>
   <i type="int" name="IBRION">     2</i>
   <i type="int" name="ISIF">     0</i>
   <i name="PSTRESS">      0.00000000</i>
   <i name="EDIFFG">     -0.02000000</i>
   <i type="int" name="NFREE">     2</i>
   <i name="POTIM">      0.35000000</i>
   <i name="SMASS">     -3.00000000</i>
   <i name="SCALEE">      1.00000000</i>
  </separator>
  <separator name="ionic md" >
   <i name="TEBEG">      0.00010000</i>
   <i name="TEEND">      0.00010000</i>
   <i type="int" name="NBLOCK">     1</i>
   <i type="int" name="KBLOCK">   500</i>
   <i type="int" name="NPACO">   256</i>
   <i name="APACO">     16.00000000</i>
  </separator>
  <separator name="symmetry" >
   <i type="int" name="ISYM">     2</i>
   <i name="SYMPREC">      0.00001000</i>
  </separator>
  <separator name="dos" >
   <i type="logical" name="LORBIT"> F  </i>
   <v name="RWIGS">     -1.00000000     -1.00000000     -1.00000000</v>
   <i type="int" name="NEDOS">   301</i>
   <i name="EMIN">     10.00000000</i>
   <i name="EMAX">    -10.00000000</i>
   <i name="EFERMI">      0.00000000</i>
  </separator>
  <separator name="writing" >
   <i type="int" name="NWRITE">     1</i>
   <i type="logical" name="LWAVE"> F  </i>
   <i type="logical" name="LCHARG"> F  </i>
   <i type="logical" name="LPARD"> F  </i>
   <i type="logical" name="LVTOT"> F  </i>
   <i type="logical" name="LVHAR"> F  </i>
   <i type="logical" name="LELF"> F  </i>
   <i type="logical" name="LOPTICS"> F  </i>
   <v name="STM">      0.00000000      0.00000000      0.00000000      0.00000000      0.00000000      0.00000000      0.00000000</v>
  </separator>
  <separator name="performance" >
   <i type="int" name="NPAR">     6</i>
   <i type="int" name="NSIM">     4</i>
   <i type="int" name="NBLK">    -1</i>
   <i type="logical" name="LPLANE"> T  </i>
   <i type="logical" name="LSCALAPACK"> T  </i>
   <i type="logical" name="LSCAAWARE"> F  </i>
   <i type="logical" name="LSCALU"> F  </i>
   <i type="logical" name="LASYNC"> F  </i>
   <i type="logical" name="LORBITALREAL"> F  </i>
  </separator>
  <separator name="miscellaneous" >
   <i type="int" name="IDIOT">     3</i>
   <i type="logical" name="LMUSIC"> F  </i>
   <v name="POMASS">    196.96600000     16.00000000    106.42000000</v>
   <v name="DARWINR">      0.00000000      0.00000000      0.00000000</v>
   <v name="DARWINV">      1.00000000      1.00000000      1.00000000</v>
   <i type="logical" name="LCORR"> T  </i>
  </separator>
  <i type="logical" name="GGA_COMPAT"> T  </i>
  <i type="logical" name="LBERRY"> F  </i>
  <i type="int" name="ICORELEVEL">     0</i>
  <i type="logical" name="LDAU"> F  </i>
  <i type="int" name="I_CONSTRAINED_M">     0</i>
  <separator name="electronic exchange-correlation" >
   <i type="string" name="GGA">PE</i>
   <i type="int" name="VOSKOWN">     1</i>
   <i type="logical" name="LHFCALC"> F  </i>
   <i type="string" name="PRECFOCK"></i>
   <i type="logical" name="LSYMGRAD"> F  </i>
   <i type="logical" name="LHFONE"> F  </i>
   <i type="logical" name="LRHFCALC"> F  </i>
   <i type="logical" name="LTHOMAS"> F  </i>
   <i type="logical" name="LMODELHF"> F  </i>
   <i name="ENCUT4O">     -1.00000000</i>
   <i type="int" name="EXXOEP">     0</i>
   <i type="int" name="FOURORBIT">     0</i>
   <i name="AEXX">      0.00000000</i>
   <i name="HFALPHA">      0.00000000</i>
   <i name="MCALPHA">      0.00000000</i>
   <i name="ALDAX">      1.00000000</i>
   <i name="AGGAX">      1.00000000</i>
   <i name="ALDAC">      1.00000000</i>
   <i name="AGGAC">      1.00000000</i>
   <i type="int" name="NKREDX">     1</i>
   <i type="int" name="NKREDY">     1</i>
   <i type="int" name="NKREDZ">     1</i>
   <i type="logical" name="SHIFTRED"> F  </i>
   <i type="logical" name="ODDONLY"> F  </i>
   <i type="logical" name="EVENONLY"> F  </i>
   <i type="int" name="LMAXFOCK">     0</i>
   <i type="int" name="NMAXFOCKAE">     0</i>
   <i type="logical" name="LFOCKAEDFT"> F  </i>
   <i name="HFSCREEN">      0.00000000</i>
   <i name="HFSCREENC">      0.00000000</i>
   <i type="int" name="NBANDSGWLOW">     0</i>
  </separator>
  <separator name="vdW DFT" >
   <i type="logical" name="LUSE_VDW"> F  </i>
   <i name="Zab_VDW">     -0.84910000</i>
   <i name="PARAM1">      0.12340000</i>
   <i name="PARAM2">      1.00000000</i>
   <i name="PARAM3">      0.00000000</i>
  </separator>
  <separator name="model GW" >
   <i type="int" name="MODEL_GW">     0</i>
   <i name="MODEL_EPS0">     29.42037089</i>
   <i name="MODEL_ALPHA">      1.00000000</i>
  </separator>
  <separator name="linear response parameters" >
   <i type="logical" name="LEPSILON"> F  </i>
   <i type="logical" name="LRPA"> F  </i>
   <i type="logical" name="LNABLA"> F  </i>
   <i type="logical" name="LVEL"> F  </i>
   <i type="int" name="KINTER">     0</i>
   <i name="CSHIFT">      0.10000000</i>
   <i name="OMEGAMAX">     -1.00000000</i>
   <i name="DEG_THRESHOLD">      0.00200000</i>
  </separator>
  <separator name="orbital magnetization" >
   <i type="logical" name="NUCIND"> F  </i>
   <v name="MAGPOS">      0.00000000      0.00000000      0.00000000</v>
   <i type="logical" name="LNICSALL"> T  </i>
   <i type="logical" name="ORBITALMAG"> F  </i>
   <i type="logical" name="LMAGBLOCH"> F  </i>
   <i type="logical" name="LCHIMAG"> F  </i>
   <i type="logical" name="LGAUGE"> T  </i>
   <i type="int" name="MAGATOM">     0</i>
   <v name="MAGDIPOL">      0.00000000      0.00000000      0.00000000</v>
   <v name="AVECCONST">      0.00000000      0.00000000      0.00000000</v>
  </separator>
  <separator name="response functions" >
   <i type="logical" name="LADDER"> F  </i>
   <i type="logical" name="LFXC"> F  </i>
   <i type="logical" name="LHARTREE"> T  </i>
   <i type="int" name="IBSE">     0</i>
   <v type="int" name="KPOINT">    -1     0     0     0</v>
   <i type="logical" name="LTCTE"> F  </i>
   <i type="logical" name="LTETE"> F  </i>
   <i type="logical" name="LTRIPLET"> F  </i>
   <i type="logical" name="LFXCEPS"> F  </i>
   <i type="logical" name="LFXHEG"> F  </i>
   <i type="int" name="NATURALO">     0</i>
   <i type="logical" name="L2ORDER"> F  </i>
   <i type="logical" name="LUSEW"> F  </i>
   <i name="ENCUTGW">     -2.00000000</i>
   <i name="ENCUTGWSOFT">     -2.00000000</i>
   <i name="ENCUTLF">     -1.00000000</i>
   <i type="int" name="LMAXMP2">    -1</i>
   <i name="SCISSOR">      0.00000000</i>
   <i type="int" name="NOMEGA">     0</i>
   <i type="int" name="NOMEGAR">     0</i>
   <i type="int" name="NBANDSGW">    -1</i>
   <i type="int" name="NBANDSO">    -1</i>
   <i type="int" name="NBANDSV">    -1</i>
   <i type="int" name="NELM">   500</i>
   <i type="int" name="NELMHF">     1</i>
   <i type="int" name="DIM">     3</i>
   <i type="int" name="ANTIRES">     0</i>
   <i name="OMEGAMAX">    -30.00000000</i>
   <i name="OMEGAMIN">    -30.00000000</i>
   <i name="OMEGATL">   -200.00000000</i>
   <i type="int" name="OMEGAGRID">     0</i>
   <i name="CSHIFT">     -0.10000000</i>
   <i type="logical" name="SELFENERGY"> F  </i>
   <i type="logical" name="LSPECTRAL"> F  </i>
   <i type="logical" name="LSPECTRALGW"> F  </i>
   <i type="logical" name="LSINGLES"> F  </i>
   <i type="logical" name="LFERMIGW"> F  </i>
   <i type="logical" name="ODDONLYGW"> F  </i>
   <i type="logical" name="EVENONLYGW"> F  </i>
   <i type="int" name="NKREDLFX">     1</i>
   <i type="int" name="NKREDLFY">     1</i>
   <i type="int" name="NKREDLFZ">     1</i>
   <i type="int" name="MAXMEM">  1800</i>
   <i type="int" name="TELESCOPE">     0</i>
   <i type="int" name="TAUPAR">     1</i>
   <i type="int" name="OMEGAPAR">    -1</i>
   <i name="LAMBDA">      1.00000000</i>
  </separator>
  <separator name="External order field" >
   <i name="OFIELD_KAPPA">      0.00000000</i>
   <v name="OFIELD_K">      0.00000000      0.00000000      0.00000000</v>
   <i name="OFIELD_Q6_NEAR">      0.00000000</i>
   <i name="OFIELD_Q6_FAR">      0.00000000</i>
   <i name="OFIELD_A">      0.00000000</i>
  </separator>
 </parameters>
 <atominfo>
  <atoms>      56 </atoms>
  <types>       3 </types>
  <array name="atoms" >
   <dimension dim="1">ion</dimension>
   <field type="string">element</field>
   <field type="int">atomtype</field>
   <set>
    <rc><c>Au</c><c>   1</c></rc>
    <rc><c>Au</c><c>   1</c></rc>
    <rc><c>Au</c><c>   1</c></rc>
    <rc><c>Au</c><c>   1</c></rc>
    <rc><c>Au</c><c>   1</c></rc>
    <rc><c>Au</c><c>   1</c></rc>
    <rc><c>Au</c><c>   1</c></rc>
    <rc><c>Au</c><c>   1</c></rc>
    <rc><c>Au</c><c>   1</c></rc>
    <rc><c>Au</c><c>   1</c></rc>
    <rc><c>Au</c><c>   1</c></rc>
    <rc><c>Au</c><c>   1</c></rc>
    <rc><c>Au</c><c>   1</c></rc>
    <rc><c>Au</c><c>   1</c></rc>
    <rc><c>Au</c><c>   1</c></rc>
    <rc><c>Au</c><c>   1</c></rc>
    <rc><c>Au</c><c>   1</c></rc>
    <rc><c>Au</c><c>   1</c></rc>
    <rc><c>Au</c><c>   1</c></rc>
    <rc><c>Au</c><c>   1</c></rc>
    <rc><c>Au</c><c>   1</c></rc>
    <rc><c>Au</c><c>   1</c></rc>
    <rc><c>Au</c><c>   1</c></rc>
    <rc><c>Au</c><c>   1</c></rc>
    <rc><c>O </c><c>   2</c></rc>
    <rc><c>O </c><c>   2</c></rc>
    <rc><c>O </c><c>   2</c></rc>
    <rc><c>O </c><c>   2</c></rc>
    <rc><c>O </c><c>   2</c></rc>
    <rc><c>O </c><c>   2</c></rc>
    <rc><c>O </c><c>   2</c></rc>
    <rc><c>O </c><c>   2</c></rc>
    <rc><c>Pd</c><c>   3</c></rc>
    <rc><c>Pd</c><c>   3</c></rc>
    <rc><c>Pd</c><c>   3</c></rc>
    <rc><c>Pd</c><c>   3</c></rc>
    <rc><c>Pd</c><c>   3</c></rc>
    <rc><c>Pd</c><c>   3</c></rc>
    <rc><c>Pd</c><c>   3</c></rc>
    <rc><c>Pd</c><c>   3</c></rc>
    <rc><c>Pd</c><c>   3</c></rc>
    <rc><c>Pd</c><c>   3</c></rc>
    <rc><c>Pd</c><c>   3</c></rc>
    <rc><c>Pd</c><c>   3</c></rc>
    <rc><c>Pd</c><c>   3</c></rc>
    <rc><c>Pd</c><c>   3</c></rc>
    <rc><c>Pd</c><c>   3</c></rc>
    <rc><c>Pd</c><c>   3</c></rc>
    <rc><c>Pd</c><c>   3</c></rc>
    <rc><c>Pd</c><c>   3</c></rc>
    <rc><c>Pd</c><c>   3</c></rc>
    <rc><c>Pd</c><c>   3</c></rc>
    <rc><c>Pd</c><c>   3</c></rc>
    <rc><c>Pd</c><c>   3</c></rc>
    <rc><c>Pd</c><c>   3</c></rc>
    <rc><c>Pd</c><c>   3</c></rc>
   </set>
  </array>
  <array name="atomtypes" >
   <dimension dim="1">type</dimension>
   <field type="int">atomspertype</field>
   <field type="string">element</field>
   <field>mass</field>
   <field>valence</field>
   <field type="string">pseudopotential</field>
   <set>
    <rc><c>  24</c><c>Au</c><c>    196.96600000</c><c>     11.00000000</c><c>  PAW_PBE Au 04Oct2007                  </c></rc>
    <rc><c>   8</c><c>O </c><c>     16.00000000</c><c>      6.00000000</c><c>  PAW_PBE O 08Apr2002                   </c></rc>
    <rc><c>  24</c><c>Pd</c><c>    106.42000000</c><c>     10.00000000</c><c>  PAW_PBE Pd 04Jan2005                  </c></rc>
   </set>
  </array>
 </atominfo>
 <structure name="initialpos" >
  <crystal>
   <varray name="basis" >
    <v>      11.00258152       0.00000000       0.00000000 </v>
    <v>       5.50129076       9.52851510       0.00000000 </v>
    <v>       0.00000000       0.00000000      26.19178509 </v>
   </varray>
   <i name="volume">   2745.90128299 </i>
   <varray name="rec_basis" >
    <v>       0.09088776      -0.05247407       0.00000000 </v>
    <v>       0.00000000       0.10494815       0.00000000 </v>
    <v>       0.00000000       0.00000000       0.03817991 </v>
   </varray>
  </crystal>
  <varray name="positions" >
   <v>       0.08333333       0.08333333       0.38179910 </v>
   <v>       0.66951213       0.16726917       0.47487388 </v>
   <v>       0.66815997       0.66551394       0.48326275 </v>
   <v>       0.01324653       0.98171413       0.56022360 </v>
   <v>       0.83333333       0.58333333       0.38179910 </v>
   <v>       0.08333333       0.33333333       0.38179910 </v>
   <v>       0.02046197       0.22949173       0.56635126 </v>
   <v>       0.75442772       0.23824384       0.56328978 </v>
   <v>       0.83333333       0.33333333       0.38179910 </v>
   <v>       0.92044191       0.66530769       0.47664687 </v>
   <v>       0.01637210       0.47516175       0.56533098 </v>
   <v>       0.58333333       0.08333333       0.38179910 </v>
   <v>       0.76255172       0.97492492       0.56038560 </v>
   <v>       0.49361287       0.79990265       0.65525434 </v>
   <v>       0.42103544       0.90501073       0.47006699 </v>
   <v>       0.41708659       0.66257308       0.51023968 </v>
   <v>       0.58333333       0.58333333       0.38179910 </v>
   <v>       0.26991269       0.95979852       0.56128176 </v>
   <v>       0.47052539       0.24263468       0.59980538 </v>
   <v>       0.17435675       0.41299413       0.47402607 </v>
   <v>       0.58333333       0.33333333       0.38179910 </v>
   <v>       0.52541970       0.94152644       0.56263303 </v>
   <v>       0.42158484       0.16287682       0.47377253 </v>
   <v>       0.27514532       0.48375430       0.56375845 </v>
   <v>       0.96522199       0.63216424       0.62479891 </v>
   <v>       0.07485227       0.82941172       0.61852079 </v>
   <v>       0.32675585       0.55769808       0.63068406 </v>
   <v>       0.28757431       0.92618418       0.64469930 </v>
   <v>       0.68732398       0.70673427       0.67625770 </v>
   <v>       0.60629502       0.03709894       0.61883371 </v>
   <v>       0.84230856       0.34338044       0.61394383 </v>
   <v>       0.60316639       0.31795857       0.62304257 </v>
   <v>       0.33333333       0.33333333       0.38179910 </v>
   <v>       0.01314650       0.72660413       0.56869978 </v>
   <v>       0.42099732       0.42259903       0.47179766 </v>
   <v>       0.27398044       0.21458129       0.56088823 </v>
   <v>       0.33333333       0.58333333       0.38179910 </v>
   <v>       0.17453748       0.66528563       0.47373697 </v>
   <v>       0.76344514       0.72134269       0.61147400 </v>
   <v>       0.27737713       0.75480377       0.63353831 </v>
   <v>       0.51584768       0.51930641       0.60656296 </v>
   <v>       0.17499937       0.90348392       0.47002230 </v>
   <v>       0.58333333       0.83333333       0.38179910 </v>
   <v>       0.33333333       0.83333333       0.38179910 </v>
   <v>       0.92333048       0.90915252       0.47159622 </v>
   <v>       0.83333333       0.08333333       0.38179910 </v>
   <v>       0.08333333       0.83333333       0.38179910 </v>
   <v>       0.08333333       0.58333333       0.38179910 </v>
   <v>       0.66533393       0.42142015       0.47645836 </v>
   <v>       0.92018663       0.41171990       0.47547149 </v>
   <v>       0.92065221       0.16004750       0.47536655 </v>
   <v>       0.73995261       0.50688824       0.56697474 </v>
   <v>       0.83333333       0.83333333       0.38179910 </v>
   <v>       0.67141072       0.91090791       0.47015533 </v>
   <v>       0.16899010       0.15748402       0.47475434 </v>
   <v>       0.33333333       0.08333333       0.38179910 </v>
  </varray>
  <varray name="selective"  type="logical" >
   <v type="logical" >  F  F  F </v>
   <v type="logical" >  T  T  T </v>
   <v type="logical" >  T  T  T </v>
   <v type="logical" >  T  T  T </v>
   <v type="logical" >  F  F  F </v>
   <v type="logical" >  F  F  F </v>
   <v type="logical" >  T  T  T </v>
   <v type="logical" >  T  T  T </v>
   <v type="logical" >  F  F  F </v>
   <v type="logical" >  T  T  T </v>
   <v type="logical" >  T  T  T </v>
   <v type="logical" >  F  F  F </v>
   <v type="logical" >  T  T  T </v>
   <v type="logical" >  T  T  T </v>
   <v type="logical" >  T  T  T </v>
   <v type="logical" >  T  T  T </v>
   <v type="logical" >  F  F  F </v>
   <v type="logical" >  T  T  T </v>
   <v type="logical" >  T  T  T </v>
   <v type="logical" >  T  T  T </v>
   <v type="logical" >  F  F  F </v>
   <v type="logical" >  T  T  T </v>
   <v type="logical" >  T  T  T </v>
   <v type="logical" >  T  T  T </v>
   <v type="logical" >  T  T  T </v>
   <v type="logical" >  T  T  T </v>
   <v type="logical" >  T  T  T </v>
   <v type="logical" >  T  T  T </v>
   <v type="logical" >  T  T  T </v>
   <v type="logical" >  T  T  T </v>
   <v type="logical" >  T  T  T </v>
   <v type="logical" >  T  T  T </v>
   <v type="logical" >  F  F  F </v>
   <v type="logical" >  T  T  T </v>
   <v type="logical" >  T  T  T </v>
   <v type="logical" >  T  T  T </v>
   <v type="logical" >  F  F  F </v>
   <v type="logical" >  T  T  T </v>
   <v type="logical" >  T  T  T </v>
   <v type="logical" >  T  T  T </v>
   <v type="logical" >  T  T  T </v>
   <v type="logical" >  T  T  T </v>
   <v type="logical" >  F  F  F </v>
   <v type="logical" >  F  F  F </v>
   <v type="logical" >  T  T  T </v>
   <v type="logical" >  F  F  F </v>
   <v type="logical" >  F  F  F </v>
   <v type="logical" >  F  F  F </v>
   <v type="logical" >  T  T  T </v>
   <v type="logical" >  T  T  T </v>
   <v type="logical" >  T  T  T </v>
   <v type="logical" >  T  T  T </v>
   <v type="logical" >  F  F  F </v>
   <v type="logical" >  T  T  T </v>
   <v type="logical" >  T  T  T </v>
   <v type="logical" >  F  F  F </v>
  </varray>
  <nose>
   <v>      -3.00000000       0.00000000       0.00010000       0.00010000 </v>
  </nose>
 </structure>
 <calculation>
  <scstep>
   <time name="dav">   11.19   11.21</time>
   <time name="total">   11.27   11.28</time>
   <dipole>
    <v name="dipole">      0.00000000       0.00000000       0.00007385 </v>
    <i name="Tr[quadrupol]"> -11113.17537086 </i>
    <i name="Echarged">      0.00000000 </i>
    <i name="Edipol_quadrupol">      0.00000000 </i>
    <i name="Eion">      0.00000000 </i>
   </dipole>
   <energy>
    <i name="alphaZ">    862.57693087 </i>
    <i name="ewald"> 226761.57499123 </i>
    <i name="hartreedc">-272411.38628499 </i>
    <i name="XCdc">   -119.53304287 </i>
    <i name="pawpsdc">  43112.45544455 </i>
    <i name="pawaedc"> -41079.41300390 </i>
    <i name="eentropy">     -0.15972900 </i>
    <i name="bandstr">   1351.80823156 </i>
    <i name="atom">  45117.89144060 </i>
    <i name="e_fr_energy">   3595.81497805 </i>
    <i name="e_wo_entrp">   3595.97470705 </i>
    <i name="e_0_energy">   3595.89484255 </i>
   </energy>
  </scstep>
  <scstep>
   <time name="dav">   14.28   14.34</time>
   <time name="total">   14.29   14.34</time>
   <dipole>
    <v name="dipole">      0.00000000       0.00000000       0.00007385 </v>
    <i name="Tr[quadrupol]"> -11113.17537086 </i>
    <i name="Echarged">      0.00000000 </i>
    <i name="Edipol_quadrupol">      0.00000000 </i>
    <i name="Eion">      0.00000000 </i>
   </dipole>
   <energy>
    <i name="e_fr_energy">     52.14448840 </i>
    <i name="e_wo_entrp">     52.27685545 </i>
    <i name="e_0_energy">     52.21067192 </i>
   </energy>
  </scstep>
  <scstep>
   <time name="dav">   12.98   13.07</time>
   <time name="total">   12.98   13.07</time>
   <dipole>
    <v name="dipole">      0.00000000       0.00000000       0.00007385 </v>
    <i name="Tr[quadrupol]"> -11113.17537086 </i>
    <i name="Echarged">      0.00000000 </i>
    <i name="Edipol_quadrupol">      0.00000000 </i>
    <i name="Eion">      0.00000000 </i>
   </dipole>
   <energy>
    <i name="e_fr_energy">   -252.17045491 </i>
    <i name="e_wo_entrp">   -251.94303940 </i>
    <i name="e_0_energy">   -252.05674715 </i>
   </energy>
  </scstep>
  <scstep>
   <time name="dav">   13.00   13.01</time>
   <time name="total">   13.00   13.02</time>
   <dipole>
    <v name="dipole">      0.00000000       0.00000000       0.00007385 </v>
    <i name="Tr[quadrupol]"> -11113.17537086 </i>
    <i name="Echarged">      0.00000000 </i>
    <i name="Edipol_quadrupol">      0.00000000 </i>
    <i name="Eion">      0.00000000 </i>
   </dipole>
   <energy>
    <i name="e_fr_energy">   -263.30007321 </i>
    <i name="e_wo_entrp">   -263.06382165 </i>
    <i name="e_0_energy">   -263.18194743 </i>
   </energy>
  </scstep>
  <scstep>
   <time name="dav">   13.11   13.13</time>
   <time name="total">   13.47   13.49</time>
   <dipole>
    <v name="dipole">      0.00000000       0.00000000       0.00007385 </v>
    <i name="Tr[quadrupol]"> -11113.17537086 </i>
    <i name="Echarged">      0.00000000 </i>
    <i name="Edipol_quadrupol">      0.00000000 </i>
    <i name="Eion">      0.00000000 </i>
   </dipole>
   <energy>
    <i name="e_fr_energy">   -263.60434071 </i>
    <i name="e_wo_entrp">   -263.36730652 </i>
    <i name="e_0_energy">   -263.48582362 </i>
   </energy>
  </scstep>
  <scstep>
   <time name="diag">    2.03    2.03</time>
   <time name="diis">    5.17    5.18</time>
   <time name="orth">    0.52    0.56</time>
   <time name="total">    8.13    8.21</time>
   <dipole>
    <v name="dipole">      0.00000000       0.00000000      -0.05630911 </v>
    <i name="Tr[quadrupol]"> -11110.00720792 </i>
    <i name="Echarged">      0.00000000 </i>
    <i name="Edipol_quadrupol">      0.00000000 </i>
    <i name="Eion">      0.00000000 </i>
   </dipole>
   <energy>
    <i name="e_fr_energy">   -248.00191596 </i>
    <i name="e_wo_entrp">   -247.73059623 </i>
    <i name="e_0_energy">   -247.86625609 </i>
   </energy>
  </scstep>
  <scstep>
   <time name="diag">    2.30    2.31</time>
   <time name="diis">    5.68    5.68</time>
   <time name="orth">    0.53    0.53</time>
   <time name="total">    8.93    8.94</time>
   <dipole>
    <v name="dipole">      0.00000000       0.00000000       1.46816832 </v>
    <i name="Tr[quadrupol]"> -11112.73693205 </i>
    <i name="Echarged">      0.00000000 </i>
    <i name="Edipol_quadrupol">      0.00000000 </i>
    <i name="Eion">      0.00000000 </i>
   </dipole>
   <energy>
    <i name="e_fr_energy">   -252.06436005 </i>
    <i name="e_wo_entrp">   -251.86320142 </i>
    <i name="e_0_energy">   -251.96378073 </i>
   </energy>
  </scstep>
  <scstep>
   <time name="diag">    2.04    2.04</time>
   <time name="diis">    5.29    5.29</time>
   <time name="orth">    0.53    0.53</time>
   <time name="total">    8.29    8.30</time>
   <dipole>
    <v name="dipole">      0.00000000       0.00000000      -2.80792233 </v>
    <i name="Tr[quadrupol]"> -11113.11837909 </i>
    <i name="Echarged">      0.00000000 </i>
    <i name="Edipol_quadrupol">      0.00000000 </i>
    <i name="Eion">      0.00000000 </i>
   </dipole>
   <energy>
    <i name="e_fr_energy">   -314.00932885 </i>
    <i name="e_wo_entrp">   -313.72496870 </i>
    <i name="e_0_energy">   -313.86714877 </i>
   </energy>
  </scstep>
  <scstep>
   <time name="diag">    2.04    2.04</time>
   <time name="diis">    5.24    5.24</time>
   <time name="orth">    0.53    0.53</time>
   <time name="total">    8.23    8.24</time>
   <dipole>
    <v name="dipole">      0.00000000       0.00000000      -0.74321013 </v>
    <i name="Tr[quadrupol]"> -11116.07368573 </i>
    <i name="Echarged">      0.00000000 </i>
    <i name="Edipol_quadrupol">      0.00000000 </i>
    <i name="Eion">      0.00000000 </i>
   </dipole>
   <energy>
    <i name="e_fr_energy">   -275.46548308 </i>
    <i name="e_wo_entrp">   -275.28017383 </i>
    <i name="e_0_energy">   -275.37282845 </i>
   </energy>
  </scstep>
  <scstep>
   <time name="diag">    2.03    2.03</time>
   <time name="diis">    5.30    5.30</time>
   <time name="orth">    0.53    0.53</time>
   <time name="total">    8.28    8.29</time>
   <dipole>
    <v name="dipole">      0.00000000       0.00000000      -0.52090416 </v>
    <i name="Tr[quadrupol]"> -11112.65278598 </i>
    <i name="Echarged">      0.00000000 </i>
    <i name="Edipol_quadrupol">      0.00000000 </i>
    <i name="Eion">      0.00000000 </i>
   </dipole>
   <energy>
    <i name="e_fr_energy">   -252.28028297 </i>
    <i name="e_wo_entrp">   -252.05603174 </i>
    <i name="e_0_energy">   -252.16815736 </i>
   </energy>
  </scstep>
  <scstep>
   <time name="diag">    2.03    2.03</time>
   <time name="diis">    5.15    5.23</time>
   <time name="orth">    0.53    0.53</time>
   <time name="total">    8.13    8.21</time>
   <dipole>
    <v name="dipole">      0.00000000       0.00000000      -0.20222100 </v>
    <i name="Tr[quadrupol]"> -11112.73256268 </i>
    <i name="Echarged">      0.00000000 </i>
    <i name="Edipol_quadrupol">      0.00000000 </i>
    <i name="Eion">      0.00000000 </i>
   </dipole>
   <energy>
    <i name="e_fr_energy">   -240.19568241 </i>
    <i name="e_wo_entrp">   -239.94242875 </i>
    <i name="e_0_energy">   -240.06905558 </i>
   </energy>
  </scstep>
  <scstep>
   <time name="diag">    2.03    2.03</time>
   <time name="diis">    5.25    5.26</time>
   <time name="orth">    0.52    0.52</time>
   <time name="total">    8.22    8.23</time>
   <dipole>
    <v name="dipole">      0.00000000       0.00000000       0.37533897 </v>
    <i name="Tr[quadrupol]"> -11112.81632330 </i>
    <i name="Echarged">      0.00000000 </i>
    <i name="Edipol_quadrupol">      0.00000000 </i>
    <i name="Eion">      0.00000000 </i>
   </dipole>
   <energy>
    <i name="e_fr_energy">   -233.09756905 </i>
    <i name="e_wo_entrp">   -232.91346553 </i>
    <i name="e_0_energy">   -233.00551729 </i>
   </energy>
  </scstep>
  <scstep>
   <time name="diag">    2.04    2.04</time>
   <time name="diis">    5.17    5.17</time>
   <time name="orth">    0.52    0.52</time>
   <time name="total">    8.14    8.15</time>
   <dipole>
    <v name="dipole">      0.00000000       0.00000000       0.48071108 </v>
    <i name="Tr[quadrupol]"> -11113.01993102 </i>
    <i name="Echarged">      0.00000000 </i>
    <i name="Edipol_quadrupol">      0.00000000 </i>
    <i name="Eion">      0.00000000 </i>
   </dipole>
   <energy>
    <i name="e_fr_energy">   -231.74370355 </i>
    <i name="e_wo_entrp">   -231.55636398 </i>
    <i name="e_0_energy">   -231.65003377 </i>
   </energy>
  </scstep>
  <scstep>
   <time name="diag">    2.01    2.01</time>
   <time name="diis">    5.80    5.84</time>
   <time name="orth">    0.51    0.51</time>
   <time name="total">    8.75    8.80</time>
   <dipole>
    <v name="dipole">      0.00000000       0.00000000       0.45249886 </v>
    <i name="Tr[quadrupol]"> -11113.27764918 </i>
    <i name="Echarged">      0.00000000 </i>
    <i name="Edipol_quadrupol">      0.00000000 </i>
    <i name="Eion">      0.00000000 </i>
   </dipole>
   <energy>
    <i name="e_fr_energy">   -231.21567227 </i>
    <i name="e_wo_entrp">   -231.02436609 </i>
    <i name="e_0_energy">   -231.12001918 </i>
   </energy>
  </scstep>
  <scstep>
   <time name="diag">    2.01    2.01</time>
   <time name="diis">    5.37    5.38</time>
   <time name="orth">    0.51    0.51</time>
   <time name="total">    8.30    8.31</time>
   <dipole>
    <v name="dipole">      0.00000000       0.00000000       0.38637990 </v>
    <i name="Tr[quadrupol]"> -11113.44828104 </i>
    <i name="Echarged">      0.00000000 </i>
    <i name="Edipol_quadrupol">      0.00000000 </i>
    <i name="Eion">      0.00000000 </i>
   </dipole>
   <energy>
    <i name="e_fr_energy">   -230.89027864 </i>
    <i name="e_wo_entrp">   -230.65665452 </i>
    <i name="e_0_energy">   -230.77346658 </i>
   </energy>
  </scstep>
  <scstep>
   <time name="diag">    2.00    2.00</time>
   <time name="diis">    5.20    5.28</time>
   <time name="orth">    0.50    0.50</time>
   <time name="total">    8.13    8.21</time>
   <dipole>
    <v name="dipole">      0.00000000       0.00000000       0.38438116 </v>
    <i name="Tr[quadrupol]"> -11113.55791335 </i>
    <i name="Echarged">      0.00000000 </i>
    <i name="Edipol_quadrupol">      0.00000000 </i>
    <i name="Eion">      0.00000000 </i>
   </dipole>
   <energy>
    <i name="e_fr_energy">   -230.82139921 </i>
    <i name="e_wo_entrp">   -230.59255871 </i>
    <i name="e_0_energy">   -230.70697896 </i>
   </energy>
  </scstep>
  <scstep>
   <time name="diag">    2.00    2.00</time>
   <time name="diis">    5.32    5.33</time>
   <time name="orth">    0.50    0.50</time>
   <time name="total">    8.25    8.26</time>
   <dipole>
    <v name="dipole">      0.00000000       0.00000000       0.34100656 </v>
    <i name="Tr[quadrupol]"> -11113.69983729 </i>
    <i name="Echarged">      0.00000000 </i>
    <i name="Edipol_quadrupol">      0.00000000 </i>
    <i name="Eion">      0.00000000 </i>
   </dipole>
   <energy>
    <i name="e_fr_energy">   -230.71076070 </i>
    <i name="e_wo_entrp">   -230.46125682 </i>
    <i name="e_0_energy">   -230.58600876 </i>
   </energy>
  </scstep>
  <scstep>
   <time name="diag">    2.00    2.00</time>
   <time name="diis">    5.31    5.31</time>
   <time name="orth">    0.50    0.50</time>
   <time name="total">    8.23    8.24</time>
   <dipole>
    <v name="dipole">      0.00000000       0.00000000       0.39963406 </v>
    <i name="Tr[quadrupol]"> -11113.96623547 </i>
    <i name="Echarged">      0.00000000 </i>
    <i name="Edipol_quadrupol">      0.00000000 </i>
    <i name="Eion">      0.00000000 </i>
   </dipole>
   <energy>
    <i name="e_fr_energy">   -230.61137135 </i>
    <i name="e_wo_entrp">   -230.36483320 </i>
    <i name="e_0_energy">   -230.48810228 </i>
   </energy>
  </scstep>
  <scstep>
   <time name="diag">    1.99    2.00</time>
   <time name="diis">    5.36    5.36</time>
   <time name="orth">    0.50    0.50</time>
   <time name="total">    8.27    8.28</time>
   <dipole>
    <v name="dipole">      0.00000000       0.00000000       0.43005551 </v>
    <i name="Tr[quadrupol]"> -11113.99638932 </i>
    <i name="Echarged">      0.00000000 </i>
    <i name="Edipol_quadrupol">      0.00000000 </i>
    <i name="Eion">      0.00000000 </i>
   </dipole>
   <energy>
    <i name="e_fr_energy">   -230.54917158 </i>
    <i name="e_wo_entrp">   -230.31068436 </i>
    <i name="e_0_energy">   -230.42992797 </i>
   </energy>
  </scstep>
  <scstep>
   <time name="diag">    2.01    2.01</time>
   <time name="diis">    5.28    5.29</time>
   <time name="orth">    0.50    0.50</time>
   <time name="total">    8.22    8.24</time>
   <dipole>
    <v name="dipole">      0.00000000       0.00000000       0.43427503 </v>
    <i name="Tr[quadrupol]"> -11114.13908273 </i>
    <i name="Echarged">      0.00000000 </i>
    <i name="Edipol_quadrupol">      0.00000000 </i>
    <i name="Eion">      0.00000000 </i>
   </dipole>
   <energy>
    <i name="e_fr_energy">   -230.53874673 </i>
    <i name="e_wo_entrp">   -230.29287900 </i>
    <i name="e_0_energy">   -230.41581287 </i>
   </energy>
  </scstep>
  <scstep>
   <time name="diag">    2.00    2.00</time>
   <time name="diis">    5.51    5.74</time>
   <time name="orth">    0.43    0.66</time>
   <time name="total">    8.36    8.94</time>
   <dipole>
    <v name="dipole">      0.00000000       0.00000000       0.44875214 </v>
    <i name="Tr[quadrupol]"> -11114.22695533 </i>
    <i name="Echarged">      0.00000000 </i>
    <i name="Edipol_quadrupol">      0.00000000 </i>
    <i name="Eion">      0.00000000 </i>
   </dipole>
   <energy>
    <i name="e_fr_energy">   -230.52925555 </i>
    <i name="e_wo_entrp">   -230.28601247 </i>
    <i name="e_0_energy">   -230.40763401 </i>
   </energy>
  </scstep>
  <scstep>
   <time name="diag">    1.99    1.99</time>
   <time name="diis">    5.21    5.22</time>
   <time name="orth">    0.50    0.50</time>
   <time name="total">    8.13    8.14</time>
   <dipole>
    <v name="dipole">      0.00000000       0.00000000       0.46253149 </v>
    <i name="Tr[quadrupol]"> -11114.37427735 </i>
    <i name="Echarged">      0.00000000 </i>
    <i name="Edipol_quadrupol">      0.00000000 </i>
    <i name="Eion">      0.00000000 </i>
   </dipole>
   <energy>
    <i name="e_fr_energy">   -230.52247592 </i>
    <i name="e_wo_entrp">   -230.27740359 </i>
    <i name="e_0_energy">   -230.39993976 </i>
   </energy>
  </scstep>
  <scstep>
   <time name="diag">    1.98    1.98</time>
   <time name="diis">    5.27    5.29</time>
   <time name="orth">    0.50    0.50</time>
   <time name="total">    8.17    8.19</time>
   <dipole>
    <v name="dipole">      0.00000000       0.00000000       0.47594434 </v>
    <i name="Tr[quadrupol]"> -11114.46511929 </i>
    <i name="Echarged">      0.00000000 </i>
    <i name="Edipol_quadrupol">      0.00000000 </i>
    <i name="Eion">      0.00000000 </i>
   </dipole>
   <energy>
    <i name="e_fr_energy">   -230.51638084 </i>
    <i name="e_wo_entrp">   -230.27414376 </i>
    <i name="e_0_energy">   -230.39526230 </i>
   </energy>
  </scstep>
  <scstep>
   <time name="diag">    1.98    1.98</time>
   <time name="diis">    5.30    5.31</time>
   <time name="orth">    0.50    0.50</time>
   <time name="total">    8.20    8.22</time>
   <dipole>
    <v name="dipole">      0.00000000       0.00000000       0.47878620 </v>
    <i name="Tr[quadrupol]"> -11114.55097362 </i>
    <i name="Echarged">      0.00000000 </i>
    <i name="Edipol_quadrupol">      0.00000000 </i>
    <i name="Eion">      0.00000000 </i>
   </dipole>
   <energy>
    <i name="e_fr_energy">   -230.51485876 </i>
    <i name="e_wo_entrp">   -230.27203751 </i>
    <i name="e_0_energy">   -230.39344814 </i>
   </energy>
  </scstep>
  <scstep>
   <time name="diag">    1.99    2.00</time>
   <time name="diis">    5.28    5.29</time>
   <time name="orth">    0.50    0.50</time>
   <time name="total">    8.20    8.22</time>
   <dipole>
    <v name="dipole">      0.00000000       0.00000000       0.48541109 </v>
    <i name="Tr[quadrupol]"> -11114.62595783 </i>
    <i name="Echarged">      0.00000000 </i>
    <i name="Edipol_quadrupol">      0.00000000 </i>
    <i name="Eion">      0.00000000 </i>
   </dipole>
   <energy>
    <i name="e_fr_energy">   -230.51395829 </i>
    <i name="e_wo_entrp">   -230.27220533 </i>
    <i name="e_0_energy">   -230.39308181 </i>
   </energy>
  </scstep>
  <scstep>
   <time name="diag">    1.94    2.01</time>
   <time name="diis">    5.33    5.34</time>
   <time name="orth">    0.50    0.50</time>
   <time name="total">    8.19    8.27</time>
   <dipole>
    <v name="dipole">      0.00000000       0.00000000       0.49373533 </v>
    <i name="Tr[quadrupol]"> -11114.70331587 </i>
    <i name="Echarged">      0.00000000 </i>
    <i name="Edipol_quadrupol">      0.00000000 </i>
    <i name="Eion">      0.00000000 </i>
   </dipole>
   <energy>
    <i name="e_fr_energy">   -230.51394240 </i>
    <i name="e_wo_entrp">   -230.27302685 </i>
    <i name="e_0_energy">   -230.39348463 </i>
   </energy>
  </scstep>
  <scstep>
   <time name="diag">    1.98    1.99</time>
   <time name="diis">    5.47    5.48</time>
   <time name="orth">    0.49    0.49</time>
   <time name="total">    8.37    8.39</time>
   <dipole>
    <v name="dipole">      0.00000000       0.00000000       0.49637649 </v>
    <i name="Tr[quadrupol]"> -11114.75307150 </i>
    <i name="Echarged">      0.00000000 </i>
    <i name="Edipol_quadrupol">      0.00000000 </i>
    <i name="Eion">      0.00000000 </i>
   </dipole>
   <energy>
    <i name="e_fr_energy">   -230.51413485 </i>
    <i name="e_wo_entrp">   -230.27254941 </i>
    <i name="e_0_energy">   -230.39334213 </i>
   </energy>
  </scstep>
  <scstep>
   <time name="diag">    1.98    1.98</time>
   <time name="diis">    5.10    5.32</time>
   <time name="orth">    0.43    0.66</time>
   <time name="total">    7.93    8.58</time>
   <dipole>
    <v name="dipole">      0.00000000       0.00000000       0.50137257 </v>
    <i name="Tr[quadrupol]"> -11114.80793335 </i>
    <i name="Echarged">      0.00000000 </i>
    <i name="Edipol_quadrupol">      0.00000000 </i>
    <i name="Eion">      0.00000000 </i>
   </dipole>
   <energy>
    <i name="e_fr_energy">   -230.51434900 </i>
    <i name="e_wo_entrp">   -230.27304408 </i>
    <i name="e_0_energy">   -230.39369654 </i>
   </energy>
  </scstep>
  <scstep>
   <time name="diag">    1.87    2.21</time>
   <time name="diis">    5.32    5.33</time>
   <time name="orth">    0.50    0.50</time>
   <time name="total">    8.11    8.48</time>
   <dipole>
    <v name="dipole">      0.00000000       0.00000000       0.50610476 </v>
    <i name="Tr[quadrupol]"> -11114.87334839 </i>
    <i name="Echarged">      0.00000000 </i>
    <i name="Edipol_quadrupol">      0.00000000 </i>
    <i name="Eion">      0.00000000 </i>
   </dipole>
   <energy>
    <i name="e_fr_energy">   -230.51469605 </i>
    <i name="e_wo_entrp">   -230.27330103 </i>
    <i name="e_0_energy">   -230.39399854 </i>
   </energy>
  </scstep>
  <scstep>
   <time name="diag">    1.98    1.98</time>
   <time name="diis">    5.22    5.26</time>
   <time name="orth">    0.48    0.51</time>
   <time name="total">    8.11    8.18</time>
   <dipole>
    <v name="dipole">      0.00000000       0.00000000       0.50984867 </v>
    <i name="Tr[quadrupol]"> -11114.92161956 </i>
    <i name="Echarged">      0.00000000 </i>
    <i name="Edipol_quadrupol">      0.00000000 </i>
    <i name="Eion">      0.00000000 </i>
   </dipole>
   <energy>
    <i name="e_fr_energy">   -230.51497706 </i>
    <i name="e_wo_entrp">   -230.27351727 </i>
    <i name="e_0_energy">   -230.39424717 </i>
   </energy>
  </scstep>
  <scstep>
   <time name="diag">    1.98    1.98</time>
   <time name="diis">    5.00    5.00</time>
   <time name="orth">    0.49    0.49</time>
   <time name="total">    7.89    7.90</time>
   <dipole>
    <v name="dipole">      0.00000000       0.00000000       0.51314710 </v>
    <i name="Tr[quadrupol]"> -11114.95730151 </i>
    <i name="Echarged">      0.00000000 </i>
    <i name="Edipol_quadrupol">      0.00000000 </i>
    <i name="Eion">      0.00000000 </i>
   </dipole>
   <energy>
    <i name="e_fr_energy">   -230.51519606 </i>
    <i name="e_wo_entrp">   -230.27383517 </i>
    <i name="e_0_energy">   -230.39451561 </i>
   </energy>
  </scstep>
  <scstep>
   <time name="diag">    1.97    1.98</time>
   <time name="diis">    4.58    4.58</time>
   <time name="orth">    0.48    0.48</time>
   <time name="total">    7.46    7.47</time>
   <dipole>
    <v name="dipole">      0.00000000       0.00000000       0.51618836 </v>
    <i name="Tr[quadrupol]"> -11114.99094901 </i>
    <i name="Echarged">      0.00000000 </i>
    <i name="Edipol_quadrupol">      0.00000000 </i>
    <i name="Eion">      0.00000000 </i>
   </dipole>
   <energy>
    <i name="e_fr_energy">   -230.51540673 </i>
    <i name="e_wo_entrp">   -230.27398024 </i>
    <i name="e_0_energy">   -230.39469348 </i>
   </energy>
  </scstep>
  <scstep>
   <time name="diag">    1.99    1.99</time>
   <time name="diis">    5.26    5.26</time>
   <time name="orth">    0.49    0.49</time>
   <time name="total">    8.15    8.17</time>
   <dipole>
    <v name="dipole">      0.00000000       0.00000000       0.52335698 </v>
    <i name="Tr[quadrupol]"> -11115.06601068 </i>
    <i name="Echarged">      0.00000000 </i>
    <i name="Edipol_quadrupol">      0.00000000 </i>
    <i name="Eion">      0.00000000 </i>
   </dipole>
   <energy>
    <i name="e_fr_energy">   -230.51584983 </i>
    <i name="e_wo_entrp">   -230.27445706 </i>
    <i name="e_0_energy">   -230.39515344 </i>
   </energy>
  </scstep>
  <scstep>
   <time name="diag">    1.98    1.98</time>
   <time name="diis">    4.78    4.78</time>
   <time name="orth">    0.49    0.49</time>
   <time name="total">    7.67    7.68</time>
   <dipole>
    <v name="dipole">      0.00000000       0.00000000       0.52754236 </v>
    <i name="Tr[quadrupol]"> -11115.10979053 </i>
    <i name="Echarged">      0.00000000 </i>
    <i name="Edipol_quadrupol">      0.00000000 </i>
    <i name="Eion">      0.00000000 </i>
   </dipole>
   <energy>
    <i name="e_fr_energy">   -230.51606994 </i>
    <i name="e_wo_entrp">   -230.27461881 </i>
    <i name="e_0_energy">   -230.39534437 </i>
   </energy>
  </scstep>
  <scstep>
   <time name="diag">    1.96    1.97</time>
   <time name="diis">    4.31    4.31</time>
   <time name="orth">    0.48    0.49</time>
   <time name="total">    7.18    7.19</time>
   <dipole>
    <v name="dipole">      0.00000000       0.00000000       0.53189303 </v>
    <i name="Tr[quadrupol]"> -11115.14943600 </i>
    <i name="Echarged">      0.00000000 </i>
    <i name="Edipol_quadrupol">      0.00000000 </i>
    <i name="Eion">      0.00000000 </i>
   </dipole>
   <energy>
    <i name="e_fr_energy">   -230.51622732 </i>
    <i name="e_wo_entrp">   -230.27477125 </i>
    <i name="e_0_energy">   -230.39549929 </i>
   </energy>
  </scstep>
  <scstep>
   <time name="diag">    1.92    1.99</time>
   <time name="diis">    3.68    4.61</time>
   <time name="orth">    0.43    0.66</time>
   <time name="total">    6.46    7.69</time>
   <dipole>
    <v name="dipole">      0.00000000       0.00000000       0.53543454 </v>
    <i name="Tr[quadrupol]"> -11115.18018594 </i>
    <i name="Echarged">      0.00000000 </i>
    <i name="Edipol_quadrupol">      0.00000000 </i>
    <i name="Eion">      0.00000000 </i>
   </dipole>
   <energy>
    <i name="e_fr_energy">   -230.51631802 </i>
    <i name="e_wo_entrp">   -230.27486063 </i>
    <i name="e_0_energy">   -230.39558933 </i>
   </energy>
  </scstep>
  <scstep>
   <time name="diag">    1.97    1.97</time>
   <time name="diis">    3.66    3.66</time>
   <time name="orth">    0.48    0.48</time>
   <time name="total">    6.54    6.55</time>
   <dipole>
    <v name="dipole">      0.00000000       0.00000000       0.53821594 </v>
    <i name="Tr[quadrupol]"> -11115.20220970 </i>
    <i name="Echarged">      0.00000000 </i>
    <i name="Edipol_quadrupol">      0.00000000 </i>
    <i name="Eion">      0.00000000 </i>
   </dipole>
   <energy>
    <i name="e_fr_energy">   -230.51636492 </i>
    <i name="e_wo_entrp">   -230.27489478 </i>
    <i name="e_0_energy">   -230.39562985 </i>
   </energy>
  </scstep>
  <scstep>
   <time name="diag">    1.97    1.97</time>
   <time name="diis">    3.22    3.22</time>
   <time name="orth">    0.48    0.49</time>
   <time name="total">    6.11    6.11</time>
   <dipole>
    <v name="dipole">      0.00000000       0.00000000       0.53956795 </v>
    <i name="Tr[quadrupol]"> -11115.21126273 </i>
    <i name="Echarged">      0.00000000 </i>
    <i name="Edipol_quadrupol">      0.00000000 </i>
    <i name="Eion">      0.00000000 </i>
   </dipole>
   <energy>
    <i name="e_fr_energy">   -230.51638510 </i>
    <i name="e_wo_entrp">   -230.27490093 </i>
    <i name="e_0_energy">   -230.39564302 </i>
   </energy>
  </scstep>
  <scstep>
   <time name="diag">    1.96    1.96</time>
   <time name="diis">    3.18    3.18</time>
   <time name="orth">    0.49    0.49</time>
   <time name="total">    6.04    6.05</time>
   <dipole>
    <v name="dipole">      0.00000000       0.00000000       0.54093799 </v>
    <i name="Tr[quadrupol]"> -11115.21846518 </i>
    <i name="Echarged">      0.00000000 </i>
    <i name="Edipol_quadrupol">      0.00000000 </i>
    <i name="Eion">      0.00000000 </i>
   </dipole>
   <energy>
    <i name="e_fr_energy">   -230.51640592 </i>
    <i name="e_wo_entrp">   -230.27493119 </i>
    <i name="e_0_energy">   -230.39566855 </i>
   </energy>
  </scstep>
  <scstep>
   <time name="diag">    1.96    1.96</time>
   <time name="diis">    3.15    3.16</time>
   <time name="orth">    0.49    0.49</time>
   <time name="total">    6.03    6.04</time>
   <dipole>
    <v name="dipole">      0.00000000       0.00000000       0.54244925 </v>
    <i name="Tr[quadrupol]"> -11115.22529203 </i>
    <i name="Echarged">      0.00000000 </i>
    <i name="Edipol_quadrupol">      0.00000000 </i>
    <i name="Eion">      0.00000000 </i>
   </dipole>
   <energy>
    <i name="e_fr_energy">   -230.51642866 </i>
    <i name="e_wo_entrp">   -230.27496139 </i>
    <i name="e_0_energy">   -230.39569502 </i>
   </energy>
  </scstep>
  <scstep>
   <time name="diag">    1.97    1.97</time>
   <time name="diis">    3.20    3.20</time>
   <time name="orth">    0.49    0.49</time>
   <time name="total">    6.08    6.09</time>
   <dipole>
    <v name="dipole">      0.00000000       0.00000000       0.54408056 </v>
    <i name="Tr[quadrupol]"> -11115.23316800 </i>
    <i name="Echarged">      0.00000000 </i>
    <i name="Edipol_quadrupol">      0.00000000 </i>
    <i name="Eion">      0.00000000 </i>
   </dipole>
   <energy>
    <i name="e_fr_energy">   -230.51644849 </i>
    <i name="e_wo_entrp">   -230.27497005 </i>
    <i name="e_0_energy">   -230.39570927 </i>
   </energy>
  </scstep>
  <scstep>
   <time name="diag">    1.95    1.98</time>
   <time name="diis">    2.95    3.00</time>
   <time name="orth">    0.49    0.49</time>
   <time name="total">    5.82    5.91</time>
   <dipole>
    <v name="dipole">      0.00000000       0.00000000       0.54503603 </v>
    <i name="Tr[quadrupol]"> -11115.23801179 </i>
    <i name="Echarged">      0.00000000 </i>
    <i name="Edipol_quadrupol">      0.00000000 </i>
    <i name="Eion">      0.00000000 </i>
   </dipole>
   <energy>
    <i name="e_fr_energy">   -230.51645624 </i>
    <i name="e_wo_entrp">   -230.27497086 </i>
    <i name="e_0_energy">   -230.39571355 </i>
   </energy>
  </scstep>
  <scstep>
   <time name="diag">    1.96    1.97</time>
   <time name="diis">    2.66    2.66</time>
   <time name="orth">    0.49    0.49</time>
   <time name="total">    5.53    5.54</time>
   <dipole>
    <v name="dipole">      0.00000000       0.00000000       0.54561036 </v>
    <i name="Tr[quadrupol]"> -11115.24053345 </i>
    <i name="Echarged">      0.00000000 </i>
    <i name="Edipol_quadrupol">      0.00000000 </i>
    <i name="Eion">      0.00000000 </i>
   </dipole>
   <energy>
    <i name="e_fr_energy">   -230.51646024 </i>
    <i name="e_wo_entrp">   -230.27497816 </i>
    <i name="e_0_energy">   -230.39571920 </i>
   </energy>
  </scstep>
  <scstep>
   <time name="diag">    1.96    1.96</time>
   <time name="diis">    2.75    2.77</time>
   <time name="orth">    0.49    0.49</time>
   <time name="total">    5.62    5.65</time>
   <dipole>
    <v name="dipole">      0.00000000       0.00000000       0.54602522 </v>
    <i name="Tr[quadrupol]"> -11115.24229432 </i>
    <i name="Echarged">      0.00000000 </i>
    <i name="Edipol_quadrupol">      0.00000000 </i>
    <i name="Eion">      0.00000000 </i>
   </dipole>
   <energy>
    <i name="e_fr_energy">   -230.51646324 </i>
    <i name="e_wo_entrp">   -230.27498240 </i>
    <i name="e_0_energy">   -230.39572282 </i>
   </energy>
  </scstep>
  <scstep>
   <time name="diag">    1.98    1.98</time>
   <time name="diis">    2.46    2.47</time>
   <time name="orth">    0.49    0.49</time>
   <time name="total">    5.35    5.36</time>
   <dipole>
    <v name="dipole">      0.00000000       0.00000000       0.54624658 </v>
    <i name="Tr[quadrupol]"> -11115.24335057 </i>
    <i name="Echarged">      0.00000000 </i>
    <i name="Edipol_quadrupol">      0.00000000 </i>
    <i name="Eion">      0.00000000 </i>
   </dipole>
   <energy>
    <i name="e_fr_energy">   -230.51646484 </i>
    <i name="e_wo_entrp">   -230.27498053 </i>
    <i name="e_0_energy">   -230.39572268 </i>
   </energy>
  </scstep>
  <scstep>
   <time name="diag">    1.97    1.97</time>
   <time name="diis">    2.02    2.56</time>
   <time name="orth">    0.43    0.66</time>
   <time name="total">    4.48    5.26</time>
   <dipole>
    <v name="dipole">      0.00000000       0.00000000       0.54635301 </v>
    <i name="Tr[quadrupol]"> -11115.24398491 </i>
    <i name="Echarged">      0.00000000 </i>
    <i name="Edipol_quadrupol">      0.00000000 </i>
    <i name="Eion">      0.00000000 </i>
   </dipole>
   <energy>
    <i name="alphaZ">    865.89235259 </i>
    <i name="ewald"> 226761.57499123 </i>
    <i name="hartreedc">-272060.77009841 </i>
    <i name="XCdc">   -131.40608116 </i>
    <i name="pawpsdc">  51617.68355990 </i>
    <i name="pawaedc"> -49704.16830878 </i>
    <i name="eentropy">     -0.24148334 </i>
    <i name="bandstr">  -2696.97283810 </i>
    <i name="atom">  45117.89144060 </i>
    <i name="e_fr_energy">   -230.51646546 </i>
    <i name="e_wo_entrp">   -230.27498212 </i>
    <i name="e_0_energy">   -230.39572379 </i>
   </energy>
  </scstep>
  <structure>
   <crystal>
    <varray name="basis" >
     <v>      11.00258152       0.00000000       0.00000000 </v>
     <v>       5.50129076       9.52851510       0.00000000 </v>
     <v>       0.00000000       0.00000000      26.19178509 </v>
    </varray>
    <i name="volume">   2745.90128299 </i>
    <varray name="rec_basis" >
     <v>       0.09088776      -0.05247407       0.00000000 </v>
     <v>       0.00000000       0.10494815       0.00000000 </v>
     <v>       0.00000000       0.00000000       0.03817991 </v>
    </varray>
   </crystal>
   <varray name="positions" >
    <v>       0.08333333       0.08333333       0.38179910 </v>
    <v>       0.66951213       0.16726917       0.47487388 </v>
    <v>       0.66815997       0.66551394       0.48326275 </v>
    <v>       0.01324653       0.98171413       0.56022360 </v>
    <v>       0.83333333       0.58333333       0.38179910 </v>
    <v>       0.08333333       0.33333333       0.38179910 </v>
    <v>       0.02046197       0.22949173       0.56635126 </v>
    <v>       0.75442772       0.23824384       0.56328978 </v>
    <v>       0.83333333       0.33333333       0.38179910 </v>
    <v>       0.92044191       0.66530769       0.47664687 </v>
    <v>       0.01637210       0.47516175       0.56533098 </v>
    <v>       0.58333333       0.08333333       0.38179910 </v>
    <v>       0.76255172       0.97492492       0.56038560 </v>
    <v>       0.49361287       0.79990265       0.65525434 </v>
    <v>       0.42103544       0.90501073       0.47006699 </v>
    <v>       0.41708659       0.66257308       0.51023968 </v>
    <v>       0.58333333       0.58333333       0.38179910 </v>
    <v>       0.26991269       0.95979852       0.56128176 </v>
    <v>       0.47052539       0.24263468       0.59980538 </v>
    <v>       0.17435675       0.41299413       0.47402607 </v>
    <v>       0.58333333       0.33333333       0.38179910 </v>
    <v>       0.52541970       0.94152644       0.56263303 </v>
    <v>       0.42158484       0.16287682       0.47377253 </v>
    <v>       0.27514532       0.48375430       0.56375845 </v>
    <v>       0.96522199       0.63216424       0.62479891 </v>
    <v>       0.07485227       0.82941172       0.61852079 </v>
    <v>       0.32675585       0.55769808       0.63068406 </v>
    <v>       0.28757431       0.92618418       0.64469930 </v>
    <v>       0.68732398       0.70673427       0.67625770 </v>
    <v>       0.60629502       0.03709894       0.61883371 </v>
    <v>       0.84230856       0.34338044       0.61394383 </v>
    <v>       0.60316639       0.31795857       0.62304257 </v>
    <v>       0.33333333       0.33333333       0.38179910 </v>
    <v>       0.01314650       0.72660413       0.56869978 </v>
    <v>       0.42099732       0.42259903       0.47179766 </v>
    <v>       0.27398044       0.21458129       0.56088823 </v>
    <v>       0.33333333       0.58333333       0.38179910 </v>
    <v>       0.17453748       0.66528563       0.47373697 </v>
    <v>       0.76344514       0.72134269       0.61147400 </v>
    <v>       0.27737713       0.75480377       0.63353831 </v>
    <v>       0.51584768       0.51930641       0.60656296 </v>
    <v>       0.17499937       0.90348392       0.47002230 </v>
    <v>       0.58333333       0.83333333       0.38179910 </v>
    <v>       0.33333333       0.83333333       0.38179910 </v>
    <v>       0.92333048       0.90915252       0.47159622 </v>
    <v>       0.83333333       0.08333333       0.38179910 </v>
    <v>       0.08333333       0.83333333       0.38179910 </v>
    <v>       0.08333333       0.58333333       0.38179910 </v>
    <v>       0.66533393       0.42142015       0.47645836 </v>
    <v>       0.92018663       0.41171990       0.47547149 </v>
    <v>       0.92065221       0.16004750       0.47536655 </v>
    <v>       0.73995261       0.50688824       0.56697474 </v>
    <v>       0.83333333       0.83333333       0.38179910 </v>
    <v>       0.67141072       0.91090791       0.47015533 </v>
    <v>       0.16899010       0.15748402       0.47475434 </v>
    <v>       0.33333333       0.08333333       0.38179910 </v>
   </varray>
  </structure>
  <varray name="forces" >
   <v>      -0.06971139      -0.31470747      -0.18151503 </v>
   <v>       0.01314950      -0.03675651       0.02812660 </v>
   <v>      -0.03877494       0.02243253       0.00029578 </v>
   <v>      -0.04239125       0.02222010       0.01238283 </v>
   <v>       0.15508116       0.42715759      -0.08952079 </v>
   <v>       0.40629382      -0.04242608      -0.15022671 </v>
   <v>       0.01361548       0.05223300      -0.00740849 </v>
   <v>       0.00327196      -0.00073121      -0.00472282 </v>
   <v>      -0.10735114      -0.21039865       0.04528947 </v>
   <v>       0.03484073      -0.00120477      -0.01699130 </v>
   <v>      -0.00064953       0.01435861       0.02119077 </v>
   <v>      -0.02318685      -0.16586504      -0.40314761 </v>
   <v>       0.00962954       0.02795319      -0.01330766 </v>
   <v>       0.12120495      -0.08367545       0.01073726 </v>
   <v>      -0.01095711       0.01290309       0.02026519 </v>
   <v>      -0.01089443      -0.03304891       0.02627021 </v>
   <v>      -0.29922702       0.48304122       0.06438341 </v>
   <v>      -0.01208841       0.03340107      -0.02905623 </v>
   <v>       0.00666317       0.00215328       0.00455513 </v>
   <v>      -0.00036352      -0.02157988       0.00362551 </v>
   <v>      -0.10683913       0.15271772      -0.20629337 </v>
   <v>       0.00728444       0.05294966      -0.02552167 </v>
   <v>       0.02262268      -0.01241997      -0.00865178 </v>
   <v>       0.02669080      -0.00191922       0.00233014 </v>
   <v>       0.02858812       0.01437534      -0.02530810 </v>
   <v>       0.00892280       0.00188382      -0.00986029 </v>
   <v>       0.00808992       0.00798695      -0.03326463 </v>
   <v>      -0.04689415       0.10846768      -0.00051004 </v>
   <v>      -0.09397908       0.04789782      -0.07107173 </v>
   <v>      -0.00606312      -0.01749783       0.01139530 </v>
   <v>       0.01214898       0.01911768       0.00022677 </v>
   <v>       0.00183874      -0.03417303       0.00405526 </v>
   <v>      -0.06434100       0.17299175       0.04823781 </v>
   <v>       0.02970596      -0.00048013      -0.02655362 </v>
   <v>      -0.01619416      -0.01363216       0.01025818 </v>
   <v>       0.02356082       0.00439084       0.00918238 </v>
   <v>      -0.16338928       0.21811113       0.31209922 </v>
   <v>      -0.01147743      -0.01863891      -0.00284003 </v>
   <v>      -0.01307390      -0.02896314      -0.00449243 </v>
   <v>      -0.08904342      -0.07416353       0.02048809 </v>
   <v>      -0.00459433       0.01899811       0.01738570 </v>
   <v>      -0.00127310       0.00279556      -0.02894313 </v>
   <v>      -0.03955415      -0.13984820       0.01036161 </v>
   <v>      -0.02473024      -0.19428552      -0.00822002 </v>
   <v>       0.00338393      -0.00282168      -0.01915941 </v>
   <v>       0.03717794      -0.29550786       0.18500105 </v>
   <v>      -0.08648759      -0.16615669       0.11869805 </v>
   <v>       0.23238122       0.12758634       0.27427529 </v>
   <v>      -0.00638925      -0.01376348       0.01139313 </v>
   <v>      -0.01886379       0.01362562       0.02662523 </v>
   <v>       0.00464291       0.01135597      -0.01418154 </v>
   <v>       0.02017967      -0.01094315      -0.02590724 </v>
   <v>       0.17130364      -0.09084356       0.07619370 </v>
   <v>      -0.00047316      -0.00716771       0.00101824 </v>
   <v>       0.01288843       0.01726176      -0.00276170 </v>
   <v>      -0.00590545      -0.05674767       0.03309007 </v>
  </varray>
  <energy>
   <i name="e_fr_energy">   -230.51646546 </i>
   <i name="e_wo_entrp">   -230.39572379 </i>
   <i name="e_0_energy">     -0.24148334 </i>
  </energy>
  <time name="totalsc">  377.24  382.30</time>
 </calculation>
 <calculation>
  <scstep>
   <time name="dav">   11.50   11.59</time>
   <time name="total">   11.92   12.02</time>
   <dipole>
    <v name="dipole">      0.00000000       0.00000000       0.54641013 </v>
    <i name="Tr[quadrupol]"> -11116.25537377 </i>
    <i name="Echarged">      0.00000000 </i>
    <i name="Edipol_quadrupol">      0.00000000 </i>
    <i name="Eion">      0.00000000 </i>
   </dipole>
   <energy>
    <i name="alphaZ">    865.89362918 </i>
    <i name="ewald"> 226768.10723431 </i>
    <i name="hartreedc">-272067.25113384 </i>
    <i name="XCdc">   -131.40237790 </i>
    <i name="pawpsdc">  51617.68091079 </i>
    <i name="pawaedc"> -49704.16566353 </i>
    <i name="eentropy">     -0.24151993 </i>
    <i name="bandstr">  -2697.02908339 </i>
    <i name="atom">  45117.89144060 </i>
    <i name="e_fr_energy">   -230.51656372 </i>
    <i name="e_wo_entrp">   -230.27504379 </i>
    <i name="e_0_energy">   -230.39580375 </i>
   </energy>
  </scstep>
  <scstep>
   <time name="diag">    1.96    1.96</time>
   <time name="diis">    5.27    5.28</time>
   <time name="orth">    0.48    0.48</time>
   <time name="total">    8.12    8.14</time>
   <dipole>
    <v name="dipole">      0.00000000       0.00000000       0.54439803 </v>
    <i name="Tr[quadrupol]"> -11116.26117373 </i>
    <i name="Echarged">      0.00000000 </i>
    <i name="Edipol_quadrupol">      0.00000000 </i>
    <i name="Eion">      0.00000000 </i>
   </dipole>
   <energy>
    <i name="e_fr_energy">   -230.51836558 </i>
    <i name="e_wo_entrp">   -230.27664050 </i>
    <i name="e_0_energy">   -230.39750304 </i>
   </energy>
  </scstep>
  <scstep>
   <time name="diag">    1.96    1.96</time>
   <time name="diis">    5.31    5.32</time>
   <time name="orth">    0.48    0.48</time>
   <time name="total">    8.18    8.18</time>
   <dipole>
    <v name="dipole">      0.00000000       0.00000000       0.55165631 </v>
    <i name="Tr[quadrupol]"> -11116.26080105 </i>
    <i name="Echarged">      0.00000000 </i>
    <i name="Edipol_quadrupol">      0.00000000 </i>
    <i name="Eion">      0.00000000 </i>
   </dipole>
   <energy>
    <i name="e_fr_energy">   -230.51874228 </i>
    <i name="e_wo_entrp">   -230.27822314 </i>
    <i name="e_0_energy">   -230.39848271 </i>
   </energy>
  </scstep>
  <scstep>
   <time name="diag">    1.97    1.98</time>
   <time name="diis">    5.32    5.32</time>
   <time name="orth">    0.48    0.48</time>
   <time name="total">    8.18    8.20</time>
   <dipole>
    <v name="dipole">      0.00000000       0.00000000       0.53945866 </v>
    <i name="Tr[quadrupol]"> -11116.25862990 </i>
    <i name="Echarged">      0.00000000 </i>
    <i name="Edipol_quadrupol">      0.00000000 </i>
    <i name="Eion">      0.00000000 </i>
   </dipole>
   <energy>
    <i name="e_fr_energy">   -230.51876134 </i>
    <i name="e_wo_entrp">   -230.27606316 </i>
    <i name="e_0_energy">   -230.39741225 </i>
   </energy>
  </scstep>
  <scstep>
   <time name="diag">    1.96    1.96</time>
   <time name="diis">    5.27    5.27</time>
   <time name="orth">    0.48    0.48</time>
   <time name="total">    8.13    8.15</time>
   <dipole>
    <v name="dipole">      0.00000000       0.00000000       0.54507159 </v>
    <i name="Tr[quadrupol]"> -11116.26763978 </i>
    <i name="Echarged">      0.00000000 </i>
    <i name="Edipol_quadrupol">      0.00000000 </i>
    <i name="Eion">      0.00000000 </i>
   </dipole>
   <energy>
    <i name="e_fr_energy">   -230.51818176 </i>
    <i name="e_wo_entrp">   -230.27678175 </i>
    <i name="e_0_energy">   -230.39748176 </i>
   </energy>
  </scstep>
  <scstep>
   <time name="diag">    1.96    1.96</time>
   <time name="diis">    5.15    5.24</time>
   <time name="orth">    0.48    0.48</time>
   <time name="total">    8.02    8.11</time>
   <dipole>
    <v name="dipole">      0.00000000       0.00000000       0.54456074 </v>
    <i name="Tr[quadrupol]"> -11116.26639896 </i>
    <i name="Echarged">      0.00000000 </i>
    <i name="Edipol_quadrupol">      0.00000000 </i>
    <i name="Eion">      0.00000000 </i>
   </dipole>
   <energy>
    <i name="e_fr_energy">   -230.51813380 </i>
    <i name="e_wo_entrp">   -230.27646530 </i>
    <i name="e_0_energy">   -230.39729955 </i>
   </energy>
  </scstep>
  <scstep>
   <time name="diag">    1.85    2.16</time>
   <time name="diis">    4.72    5.56</time>
   <time name="orth">    0.48    0.48</time>
   <time name="total">    7.47    8.63</time>
   <dipole>
    <v name="dipole">      0.00000000       0.00000000       0.54519943 </v>
    <i name="Tr[quadrupol]"> -11116.26739470 </i>
    <i name="Echarged">      0.00000000 </i>
    <i name="Edipol_quadrupol">      0.00000000 </i>
    <i name="Eion">      0.00000000 </i>
   </dipole>
   <energy>
    <i name="e_fr_energy">   -230.51810948 </i>
    <i name="e_wo_entrp">   -230.27659613 </i>
    <i name="e_0_energy">   -230.39735280 </i>
   </energy>
  </scstep>
  <scstep>
   <time name="diag">    1.98    1.98</time>
   <time name="diis">    5.20    5.20</time>
   <time name="orth">    0.48    0.48</time>
   <time name="total">    8.07    8.08</time>
   <dipole>
    <v name="dipole">      0.00000000       0.00000000       0.54504338 </v>
    <i name="Tr[quadrupol]"> -11116.26843941 </i>
    <i name="Echarged">      0.00000000 </i>
    <i name="Edipol_quadrupol">      0.00000000 </i>
    <i name="Eion">      0.00000000 </i>
   </dipole>
   <energy>
    <i name="e_fr_energy">   -230.51810312 </i>
    <i name="e_wo_entrp">   -230.27659138 </i>
    <i name="e_0_energy">   -230.39734725 </i>
   </energy>
  </scstep>
  <scstep>
   <time name="diag">    1.97    1.97</time>
   <time name="diis">    3.34    3.34</time>
   <time name="orth">    0.48    0.48</time>
   <time name="total">    5.86    5.86</time>
   <dipole>
    <v name="dipole">      0.00000000       0.00000000       0.54500838 </v>
    <i name="Tr[quadrupol]"> -11116.26866184 </i>
    <i name="Echarged">      0.00000000 </i>
    <i name="Edipol_quadrupol">      0.00000000 </i>
    <i name="Eion">      0.00000000 </i>
   </dipole>
   <energy>
    <i name="alphaZ">    865.88514457 </i>
    <i name="ewald"> 226768.10723431 </i>
    <i name="hartreedc">-272067.61262991 </i>
    <i name="XCdc">   -131.40107699 </i>
    <i name="pawpsdc">  51619.39753732 </i>
    <i name="pawaedc"> -49705.89537427 </i>
    <i name="eentropy">     -0.24150735 </i>
    <i name="bandstr">  -2696.64887059 </i>
    <i name="atom">  45117.89144060 </i>
    <i name="e_fr_energy">   -230.51810230 </i>
    <i name="e_wo_entrp">   -230.27659495 </i>
    <i name="e_0_energy">   -230.39734863 </i>
   </energy>
  </scstep>
  <structure>
   <crystal>
    <varray name="basis" >
     <v>      11.00258152       0.00000000       0.00000000 </v>
     <v>       5.50129076       9.52851510       0.00000000 </v>
     <v>       0.00000000       0.00000000      26.19178509 </v>
    </varray>
    <i name="volume">   2745.90128299 </i>
    <varray name="rec_basis" >
     <v>       0.09088776      -0.05247407       0.00000000 </v>
     <v>       0.00000000       0.10494815       0.00000000 </v>
     <v>       0.00000000       0.00000000       0.03817991 </v>
    </varray>
   </crystal>
   <varray name="positions" >
    <v>       0.08333333       0.08333333       0.38179910 </v>
    <v>       0.66961763       0.16713890       0.47491014 </v>
    <v>       0.66800121       0.66559344       0.48326313 </v>
    <v>       0.01307705       0.98179288       0.56023957 </v>
    <v>       0.83333333       0.58333333       0.38179910 </v>
    <v>       0.08333333       0.33333333       0.38179910 </v>
    <v>       0.02041120       0.22967685       0.56634171 </v>
    <v>       0.75443906       0.23824125       0.56328369 </v>
    <v>       0.83333333       0.33333333       0.38179910 </v>
    <v>       0.92055098       0.66530342       0.47662496 </v>
    <v>       0.01634466       0.47521264       0.56535830 </v>
    <v>       0.58333333       0.08333333       0.38179910 </v>
    <v>       0.76253174       0.97502399       0.56036844 </v>
    <v>       0.49413316       0.79960610       0.65526818 </v>
    <v>       0.42097894       0.90505646       0.47009312 </v>
    <v>       0.41711171       0.66245595       0.51027355 </v>
    <v>       0.58333333       0.58333333       0.38179910 </v>
    <v>       0.26981640       0.95991690       0.56124430 </v>
    <v>       0.47054202       0.24264231       0.59981126 </v>
    <v>       0.17439387       0.41291765       0.47403074 </v>
    <v>       0.58333333       0.33333333       0.38179910 </v>
    <v>       0.52534823       0.94171410       0.56260013 </v>
    <v>       0.42167628       0.16283280       0.47376138 </v>
    <v>       0.27523065       0.48374750       0.56376145 </v>
    <v>       0.96528426       0.63221519       0.62476628 </v>
    <v>       0.07487631       0.82941839       0.61850808 </v>
    <v>       0.32676653       0.55772638       0.63064117 </v>
    <v>       0.28723817       0.92656860       0.64469864 </v>
    <v>       0.68695065       0.70690403       0.67616606 </v>
    <v>       0.60630742       0.03703692       0.61884840 </v>
    <v>       0.84231198       0.34344819       0.61394413 </v>
    <v>       0.60323259       0.31783746       0.62304780 </v>
    <v>       0.33333333       0.33333333       0.38179910 </v>
    <v>       0.01323852       0.72660243       0.56866554 </v>
    <v>       0.42097178       0.42255071       0.47181088 </v>
    <v>       0.27404497       0.21459685       0.56090007 </v>
    <v>       0.33333333       0.58333333       0.38179910 </v>
    <v>       0.17453528       0.66521957       0.47373331 </v>
    <v>       0.76345634       0.72124004       0.61146821 </v>
    <v>       0.27723526       0.75454092       0.63356473 </v>
    <v>       0.51579991       0.51937374       0.60658537 </v>
    <v>       0.17499050       0.90349383       0.46998498 </v>
    <v>       0.58333333       0.83333333       0.38179910 </v>
    <v>       0.33333333       0.83333333       0.38179910 </v>
    <v>       0.92334586       0.90914252       0.47157152 </v>
    <v>       0.83333333       0.08333333       0.38179910 </v>
    <v>       0.08333333       0.83333333       0.38179910 </v>
    <v>       0.08333333       0.58333333       0.38179910 </v>
    <v>       0.66533871       0.42137137       0.47647305 </v>
    <v>       0.92010459       0.41176819       0.47550582 </v>
    <v>       0.92064633       0.16008774       0.47534826 </v>
    <v>       0.74003393       0.50684945       0.56694133 </v>
    <v>       0.83333333       0.83333333       0.38179910 </v>
    <v>       0.67142197       0.91088251       0.47015664 </v>
    <v>       0.16899907       0.15754520       0.47475078 </v>
    <v>       0.33333333       0.08333333       0.38179910 </v>
   </varray>
  </structure>
  <varray name="forces" >
   <v>      -0.06915213      -0.31371495      -0.18239935 </v>
   <v>       0.01017091      -0.02701757       0.01738349 </v>
   <v>      -0.02879597       0.01514964      -0.00057997 </v>
   <v>      -0.02375265       0.02858628       0.00569190 </v>
   <v>       0.15466042       0.42669973      -0.08778853 </v>
   <v>       0.40508624      -0.04167567      -0.14899322 </v>
   <v>       0.00993563       0.03534900      -0.00785552 </v>
   <v>       0.00468370       0.00524440       0.00119136 </v>
   <v>      -0.10701979      -0.20931156       0.04569918 </v>
   <v>       0.01749906      -0.00403218      -0.01586873 </v>
   <v>       0.00516262       0.01512242       0.01547594 </v>
   <v>      -0.02175932      -0.16566412      -0.40331755 </v>
   <v>       0.00276643       0.01882662      -0.00661053 </v>
   <v>      -0.14026974       0.06715655      -0.06432159 </v>
   <v>      -0.01070694       0.01134085       0.01338894 </v>
   <v>      -0.01249309      -0.02425274       0.01921521 </v>
   <v>      -0.29899942       0.48267220       0.06458063 </v>
   <v>      -0.01752266       0.02412325       0.00321741 </v>
   <v>       0.01080212      -0.00480136       0.00932432 </v>
   <v>      -0.00294405      -0.01843917       0.00537039 </v>
   <v>      -0.10713324       0.15158069      -0.20260350 </v>
   <v>       0.00624775       0.04665814      -0.01966165 </v>
   <v>       0.01857065      -0.00893245      -0.00570196 </v>
   <v>       0.01697061      -0.00672860      -0.01037649 </v>
   <v>       0.02402713       0.01519554      -0.01851245 </v>
   <v>      -0.00501816       0.00310470      -0.00782088 </v>
   <v>      -0.00985238      -0.02620695      -0.01465955 </v>
   <v>       0.00237326      -0.02539364      -0.01492470 </v>
   <v>       0.04155864      -0.03499751       0.00435940 </v>
   <v>      -0.00610113      -0.01230931       0.00688616 </v>
   <v>       0.01088717       0.01942270       0.00327346 </v>
   <v>       0.00249883      -0.02123086       0.00308026 </v>
   <v>      -0.06416265       0.17278900       0.04801782 </v>
   <v>       0.02546642       0.00275285      -0.02895670 </v>
   <v>      -0.01011415      -0.01476014       0.00533060 </v>
   <v>       0.01645116       0.00781079       0.00496603 </v>
   <v>      -0.16305333       0.21754196       0.31270879 </v>
   <v>      -0.00384878      -0.01307945      -0.00143260 </v>
   <v>       0.01010126      -0.02615694      -0.03096632 </v>
   <v>       0.00069310       0.03736345       0.03169708 </v>
   <v>       0.01540415       0.00400758       0.01409481 </v>
   <v>      -0.00478514      -0.00106836      -0.02040416 </v>
   <v>      -0.04104904      -0.13964166       0.01270820 </v>
   <v>      -0.02273170      -0.19439087      -0.00783899 </v>
   <v>       0.00534117      -0.00157427      -0.01761507 </v>
   <v>       0.03657976      -0.29492325       0.18438393 </v>
   <v>      -0.08669206      -0.16729791       0.11636345 </v>
   <v>       0.23280027       0.12673645       0.27322061 </v>
   <v>      -0.00831406      -0.01332146       0.00817363 </v>
   <v>      -0.01269611       0.01599554       0.01889531 </v>
   <v>       0.00717570       0.00918476      -0.01191622 </v>
   <v>       0.00923397      -0.00664749      -0.02278605 </v>
   <v>       0.17080444      -0.09084383       0.07510773 </v>
   <v>       0.00035297      -0.01210481      -0.00067355 </v>
   <v>       0.01043047       0.01725902      -0.00272170 </v>
   <v>      -0.00576831      -0.05715502       0.03350152 </v>
  </varray>
  <energy>
   <i name="e_fr_energy">   -230.51810230 </i>
   <i name="e_wo_entrp">   -230.39734863 </i>
   <i name="e_0_energy">     -0.24150735 </i>
  </energy>
  <time name="totalsc">   77.56   78.99</time>
 </calculation>
 <calculation>
  <scstep>
   <time name="dav">   11.27   11.30</time>
   <time name="total">   11.69   11.74</time>
   <dipole>
    <v name="dipole">      0.00000000       0.00000000       0.54514515 </v>
    <i name="Tr[quadrupol]"> -11116.20478283 </i>
    <i name="Echarged">      0.00000000 </i>
    <i name="Edipol_quadrupol">      0.00000000 </i>
    <i name="Eion">      0.00000000 </i>
   </dipole>
   <energy>
    <i name="alphaZ">    865.88591357 </i>
    <i name="ewald"> 226767.69114865 </i>
    <i name="hartreedc">-272067.20638555 </i>
    <i name="XCdc">   -131.40140523 </i>
    <i name="pawpsdc">  51619.39295294 </i>
    <i name="pawaedc"> -49705.89079841 </i>
    <i name="eentropy">     -0.24151059 </i>
    <i name="bandstr">  -2696.63945940 </i>
    <i name="atom">  45117.89144060 </i>
    <i name="e_fr_energy">   -230.51810341 </i>
    <i name="e_wo_entrp">   -230.27659282 </i>
    <i name="e_0_energy">   -230.39734812 </i>
   </energy>
  </scstep>
  <scstep>
   <time name="diag">    1.96    1.98</time>
   <time name="diis">    5.32    5.32</time>
   <time name="orth">    0.48    0.48</time>
   <time name="total">    8.17    8.20</time>
   <dipole>
    <v name="dipole">      0.00000000       0.00000000       0.54455606 </v>
    <i name="Tr[quadrupol]"> -11116.20447711 </i>
    <i name="Echarged">      0.00000000 </i>
[...]
       <r>   -19.0796     3.9101    15.9730 </r>
       <r>   -18.9871     0.2873    15.9996 </r>
       <r>   -18.8946     0.0046    16.0000 </r>
       <r>   -18.8020     0.0000    16.0000 </r>
       <r>   -18.7095     0.0000    16.0000 </r>
       <r>   -18.6170     0.0000    16.0000 </r>
       <r>   -18.5244     0.0000    16.0000 </r>
       <r>   -18.4319     0.0000    16.0000 </r>
       <r>   -18.3394     0.0000    16.0000 </r>
       <r>   -18.2468     0.0000    16.0000 </r>
       <r>   -18.1543     0.0000    16.0000 </r>
       <r>   -18.0618     0.0000    16.0000 </r>
       <r>   -17.9692     0.0000    16.0000 </r>
       <r>   -17.8767     0.0000    16.0000 </r>
       <r>   -17.7842     0.0000    16.0000 </r>
       <r>   -17.6916     0.0000    16.0000 </r>
       <r>   -17.5991     0.0000    16.0000 </r>
       <r>   -17.5066     0.0000    16.0000 </r>
       <r>   -17.4140     0.0000    16.0000 </r>
       <r>   -17.3215     0.0000    16.0000 </r>
       <r>   -17.2290     0.0000    16.0000 </r>
       <r>   -17.1364     0.0000    16.0000 </r>
       <r>   -17.0439     0.0000    16.0000 </r>
       <r>   -16.9514     0.0000    16.0000 </r>
       <r>   -16.8588     0.0000    16.0000 </r>
       <r>   -16.7663     0.0000    16.0000 </r>
       <r>   -16.6738     0.0000    16.0000 </r>
       <r>   -16.5812     0.0000    16.0000 </r>
       <r>   -16.4887     0.0000    16.0000 </r>
       <r>   -16.3962     0.0000    16.0000 </r>
       <r>   -16.3036     0.0000    16.0000 </r>
       <r>   -16.2111     0.0000    16.0000 </r>
       <r>   -16.1186     0.0000    16.0000 </r>
       <r>   -16.0260     0.0000    16.0000 </r>
       <r>   -15.9335     0.0000    16.0000 </r>
       <r>   -15.8410     0.0000    16.0000 </r>
       <r>   -15.7484     0.0000    16.0000 </r>
       <r>   -15.6559     0.0000    16.0000 </r>
       <r>   -15.5633     0.0000    16.0000 </r>
       <r>   -15.4708     0.0000    16.0000 </r>
       <r>   -15.3783     0.0000    16.0000 </r>
       <r>   -15.2857     0.0000    16.0000 </r>
       <r>   -15.1932     0.0000    16.0000 </r>
       <r>   -15.1007     0.0000    16.0000 </r>
       <r>   -15.0081     0.0000    16.0000 </r>
       <r>   -14.9156     0.0000    16.0000 </r>
       <r>   -14.8231     0.0000    16.0000 </r>
       <r>   -14.7305     0.0000    16.0000 </r>
       <r>   -14.6380     0.0000    16.0000 </r>
       <r>   -14.5455     0.0000    16.0000 </r>
       <r>   -14.4529     0.0000    16.0000 </r>
       <r>   -14.3604     0.0000    16.0000 </r>
       <r>   -14.2679     0.0000    16.0000 </r>
       <r>   -14.1753     0.0000    16.0000 </r>
       <r>   -14.0828     0.0000    16.0000 </r>
       <r>   -13.9903     0.0000    16.0000 </r>
       <r>   -13.8977     0.0000    16.0000 </r>
       <r>   -13.8052     0.0000    16.0000 </r>
       <r>   -13.7127     0.0000    16.0000 </r>
       <r>   -13.6201     0.0000    16.0000 </r>
       <r>   -13.5276     0.0000    16.0000 </r>
       <r>   -13.4351     0.0000    16.0000 </r>
       <r>   -13.3425     0.0000    16.0000 </r>
       <r>   -13.2500     0.0000    16.0000 </r>
       <r>   -13.1575     0.0000    16.0000 </r>
       <r>   -13.0649     0.0000    16.0000 </r>
       <r>   -12.9724     0.0000    16.0000 </r>
       <r>   -12.8799     0.0000    16.0000 </r>
       <r>   -12.7873     0.0000    16.0000 </r>
       <r>   -12.6948     0.0000    16.0000 </r>
       <r>   -12.6023     0.0000    16.0000 </r>
       <r>   -12.5097     0.0000    16.0000 </r>
       <r>   -12.4172     0.0000    16.0000 </r>
       <r>   -12.3247     0.0000    16.0000 </r>
       <r>   -12.2321     0.0000    16.0000 </r>
       <r>   -12.1396     0.0000    16.0000 </r>
       <r>   -12.0471     0.0000    16.0000 </r>
       <r>   -11.9545     0.0000    16.0000 </r>
       <r>   -11.8620     0.0000    16.0000 </r>
       <r>   -11.7695     0.0000    16.0000 </r>
       <r>   -11.6769     0.0000    16.0000 </r>
       <r>   -11.5844     0.0000    16.0000 </r>
       <r>   -11.4919     0.0000    16.0000 </r>
       <r>   -11.3993     0.0000    16.0000 </r>
       <r>   -11.3068     0.0000    16.0000 </r>
       <r>   -11.2143     0.0000    16.0000 </r>
       <r>   -11.1217     0.0000    16.0000 </r>
       <r>   -11.0292     0.0000    16.0000 </r>
       <r>   -10.9367     0.0000    16.0000 </r>
       <r>   -10.8441     0.0000    16.0000 </r>
       <r>   -10.7516     0.0000    16.0000 </r>
       <r>   -10.6591     0.0000    16.0000 </r>
       <r>   -10.5665     0.0000    16.0000 </r>
       <r>   -10.4740     0.0000    16.0000 </r>
       <r>   -10.3815     0.0000    16.0000 </r>
       <r>   -10.2889     0.0000    16.0000 </r>
       <r>   -10.1964     0.0000    16.0000 </r>
       <r>   -10.1039     0.0000    16.0000 </r>
       <r>   -10.0113     0.0000    16.0000 </r>
       <r>    -9.9188     0.0000    16.0000 </r>
       <r>    -9.8263     0.0000    16.0000 </r>
       <r>    -9.7337     0.0000    16.0000 </r>
       <r>    -9.6412     0.0000    16.0000 </r>
       <r>    -9.5487     0.0000    16.0000 </r>
       <r>    -9.4561     0.0000    16.0000 </r>
       <r>    -9.3636     0.0000    16.0000 </r>
       <r>    -9.2711     0.0000    16.0000 </r>
       <r>    -9.1785     0.0091    16.0009 </r>
       <r>    -9.0860     0.3528    16.0335 </r>
       <r>    -8.9935     2.8937    16.3013 </r>
       <r>    -8.9009     5.7535    16.8337 </r>
       <r>    -8.8084     5.5396    17.3463 </r>
       <r>    -8.7159     5.1992    17.8274 </r>
       <r>    -8.6233     2.0497    18.0170 </r>
       <r>    -8.5308     3.0165    18.2962 </r>
       <r>    -8.4383     8.6448    19.0961 </r>
       <r>    -8.3457    13.6485    20.3590 </r>
       <r>    -8.2532    13.8883    21.6442 </r>
       <r>    -8.1606    13.6529    22.9075 </r>
       <r>    -8.0681    13.6319    24.1689 </r>
       <r>    -7.9756    16.7561    25.7194 </r>
       <r>    -7.8830    20.6015    27.6258 </r>
       <r>    -7.7905    21.8619    29.6487 </r>
       <r>    -7.6980    26.7542    32.1244 </r>
       <r>    -7.6054    28.6147    34.7722 </r>
       <r>    -7.5129    32.8873    37.8154 </r>
       <r>    -7.4204    37.9780    41.3297 </r>
       <r>    -7.3278    37.8320    44.8304 </r>
       <r>    -7.2353    38.5611    48.3986 </r>
       <r>    -7.1428    50.5040    53.0719 </r>
       <r>    -7.0502    65.1203    59.0978 </r>
       <r>    -6.9577    74.2584    65.9692 </r>
       <r>    -6.8652    72.3198    72.6612 </r>
       <r>    -6.7726    70.6676    79.2003 </r>
       <r>    -6.6801    73.0042    85.9557 </r>
       <r>    -6.5876    68.3611    92.2814 </r>
       <r>    -6.4950    65.8029    98.3704 </r>
       <r>    -6.4025    70.1406   104.8608 </r>
       <r>    -6.3100    80.6516   112.3238 </r>
       <r>    -6.2174    84.4456   120.1378 </r>
       <r>    -6.1249    82.9589   127.8143 </r>
       <r>    -6.0324    80.8004   135.2911 </r>
       <r>    -5.9398    78.3881   142.5446 </r>
       <r>    -5.8473    80.4355   149.9876 </r>
       <r>    -5.7548    81.8889   157.5651 </r>
       <r>    -5.6622    84.4605   165.3806 </r>
       <r>    -5.5697    86.1790   173.3551 </r>
       <r>    -5.4772    86.7470   181.3821 </r>
       <r>    -5.3846    86.5355   189.3895 </r>
       <r>    -5.2921    86.3482   197.3797 </r>
       <r>    -5.1996    89.6645   205.6767 </r>
       <r>    -5.1070    94.2865   214.4013 </r>
       <r>    -5.0145    92.3862   222.9502 </r>
       <r>    -4.9220    91.6099   231.4272 </r>
       <r>    -4.8294    96.3488   240.3427 </r>
       <r>    -4.7369    96.2445   249.2486 </r>
       <r>    -4.6444    94.3399   257.9782 </r>
       <r>    -4.5518    96.3809   266.8967 </r>
       <r>    -4.4593    93.4297   275.5421 </r>
       <r>    -4.3668    93.9918   284.2395 </r>
       <r>    -4.2742    99.4861   293.4453 </r>
       <r>    -4.1817    99.5903   302.6608 </r>
       <r>    -4.0892    97.9582   311.7252 </r>
       <r>    -3.9966    96.4204   320.6474 </r>
       <r>    -3.9041    90.8550   329.0545 </r>
       <r>    -3.8116    87.9371   337.1917 </r>
       <r>    -3.7190    89.1956   345.4453 </r>
       <r>    -3.6265    93.3133   354.0799 </r>
       <r>    -3.5340    94.2720   362.8032 </r>
       <r>    -3.4414    88.7260   371.0134 </r>
       <r>    -3.3489    89.3566   379.2819 </r>
       <r>    -3.2564    90.6154   387.6669 </r>
       <r>    -3.1638    91.2175   396.1076 </r>
       <r>    -3.0713    97.0638   405.0892 </r>
       <r>    -2.9788    99.2063   414.2692 </r>
       <r>    -2.8862    94.0139   422.9686 </r>
       <r>    -2.7937    90.2608   431.3208 </r>
       <r>    -2.7012    90.1815   439.6656 </r>
       <r>    -2.6086    91.7841   448.1588 </r>
       <r>    -2.5161    94.3792   456.8920 </r>
       <r>    -2.4236    96.0180   465.7769 </r>
       <r>    -2.3310    96.0083   474.6609 </r>
       <r>    -2.2385    98.8129   483.8045 </r>
       <r>    -2.1460   103.0224   493.3375 </r>
       <r>    -2.0534   100.7115   502.6567 </r>
       <r>    -1.9609    93.2321   511.2839 </r>
       <r>    -1.8684    89.4684   519.5627 </r>
       <r>    -1.7758    86.4545   527.5627 </r>
       <r>    -1.6833    80.8967   535.0483 </r>
       <r>    -1.5908    72.9366   541.7974 </r>
       <r>    -1.4982    60.9824   547.4404 </r>
       <r>    -1.4057    51.5474   552.2102 </r>
       <r>    -1.3132    44.0908   556.2901 </r>
       <r>    -1.2206    35.6840   559.5921 </r>
       <r>    -1.1281    26.0319   562.0009 </r>
       <r>    -1.0356    19.8139   563.8344 </r>
       <r>    -0.9430    20.3178   565.7145 </r>
       <r>    -0.8505    24.0310   567.9381 </r>
       <r>    -0.7579    24.3625   570.1925 </r>
       <r>    -0.6654    24.3721   572.4477 </r>
       <r>    -0.5729    22.9311   574.5696 </r>
       <r>    -0.4803    22.6957   576.6698 </r>
       <r>    -0.3878    19.5563   578.4794 </r>
       <r>    -0.2953    17.9661   580.1419 </r>
       <r>    -0.2027    17.5994   581.7704 </r>
       <r>    -0.1102    15.5323   583.2077 </r>
       <r>    -0.0177    12.8936   584.4007 </r>
       <r>     0.0749    11.8303   585.4955 </r>
       <r>     0.1674    11.5639   586.5655 </r>
       <r>     0.2599    13.8377   587.8460 </r>
       <r>     0.3525    14.7649   589.2122 </r>
       <r>     0.4450    13.0354   590.4184 </r>
       <r>     0.5375    19.6641   592.2380 </r>
       <r>     0.6301    22.6563   594.3345 </r>
       <r>     0.7226    18.9580   596.0887 </r>
       <r>     0.8151    14.0701   597.3907 </r>
       <r>     0.9077    12.2260   598.5220 </r>
       <r>     1.0002    14.7822   599.8899 </r>
       <r>     1.0927    13.3938   601.1293 </r>
       <r>     1.1853    11.9895   602.2387 </r>
       <r>     1.2778    11.9630   603.3457 </r>
       <r>     1.3703    12.1256   604.4677 </r>
       <r>     1.4629    10.2749   605.4185 </r>
       <r>     1.5554    14.2863   606.7404 </r>
       <r>     1.6479    16.1017   608.2304 </r>
       <r>     1.7405    16.3319   609.7416 </r>
       <r>     1.8330    18.6743   611.4696 </r>
       <r>     1.9255    19.3714   613.2621 </r>
       <r>     2.0181    16.2054   614.7617 </r>
       <r>     2.1106    15.8771   616.2309 </r>
       <r>     2.2031    17.9545   617.8923 </r>
       <r>     2.2957    15.9002   619.3636 </r>
       <r>     2.3882    11.8657   620.4615 </r>
       <r>     2.4807    11.1835   621.4964 </r>
       <r>     2.5733    14.0297   622.7946 </r>
       <r>     2.6658    14.6258   624.1480 </r>
       <r>     2.7583    12.8853   625.3403 </r>
       <r>     2.8509    13.8468   626.6216 </r>
       <r>     2.9434    12.3455   627.7640 </r>
       <r>     3.0359    13.7278   629.0343 </r>
       <r>     3.1285    17.5786   630.6609 </r>
       <r>     3.2210    19.0308   632.4219 </r>
       <r>     3.3135    20.1861   634.2898 </r>
       <r>     3.4061    20.7873   636.2133 </r>
       <r>     3.4986    17.9807   637.8771 </r>
       <r>     3.5911    15.9859   639.3564 </r>
       <r>     3.6837    16.4712   640.8805 </r>
       <r>     3.7762    16.4474   642.4024 </r>
       <r>     3.8687    15.8174   643.8661 </r>
       <r>     3.9613    13.7413   645.1376 </r>
       <r>     4.0538    16.1109   646.6284 </r>
       <r>     4.1463    18.4436   648.3351 </r>
       <r>     4.2389    18.4295   650.0404 </r>
       <r>     4.3314    17.5988   651.6689 </r>
       <r>     4.4239    18.6805   653.3975 </r>
       <r>     4.5165    20.3384   655.2795 </r>
       <r>     4.6090    23.9460   657.4953 </r>
       <r>     4.7015    27.4123   660.0319 </r>
       <r>     4.7941    29.7486   662.7846 </r>
       <r>     4.8866    26.7760   665.2623 </r>
       <r>     4.9791    27.3461   667.7927 </r>
       <r>     5.0717    27.3269   670.3214 </r>
       <r>     5.1642    14.8148   671.6923 </r>
       <r>     5.2567     3.1295   671.9818 </r>
       <r>     5.3493     0.1934   671.9997 </r>
       <r>     5.4418     0.0028   672.0000 </r>
       <r>     5.5343     0.0000   672.0000 </r>
       <r>     5.6269     0.0000   672.0000 </r>
       <r>     5.7194     0.0000   672.0000 </r>
       <r>     5.8119     0.0000   672.0000 </r>
       <r>     5.9045     0.0000   672.0000 </r>
       <r>     5.9970     0.0000   672.0000 </r>
       <r>     6.0895     0.0000   672.0000 </r>
       <r>     6.1821     0.0000   672.0000 </r>
       <r>     6.2746     0.0000   672.0000 </r>
       <r>     6.3671     0.0000   672.0000 </r>
      </set>
     </set>
    </array>
   </total>
  </dos>
 </calculation>
 <structure name="finalpos" >
  <crystal>
   <varray name="basis" >
    <v>      11.00258152       0.00000000       0.00000000 </v>
    <v>       5.50129076       9.52851510       0.00000000 </v>
    <v>       0.00000000       0.00000000      26.19178509 </v>
   </varray>
   <i name="volume">   2745.90128299 </i>
   <varray name="rec_basis" >
    <v>       0.09088776      -0.05247407       0.00000000 </v>
    <v>       0.00000000       0.10494815       0.00000000 </v>
    <v>       0.00000000       0.00000000       0.03817991 </v>
   </varray>
  </crystal>
  <varray name="positions" >
   <v>       0.08333333       0.08333333       0.38179910 </v>
   <v>       0.66997566       0.16669047       0.47487228 </v>
   <v>       0.66611889       0.66632276       0.48268558 </v>
   <v>       0.00918240       0.98753797       0.56020587 </v>
   <v>       0.83333333       0.58333333       0.38179910 </v>
   <v>       0.08333333       0.33333333       0.38179910 </v>
   <v>       0.01737973       0.23506471       0.56634480 </v>
   <v>       0.75208571       0.24213300       0.56328345 </v>
   <v>       0.83333333       0.33333333       0.38179910 </v>
   <v>       0.92014221       0.66597304       0.47597931 </v>
   <v>       0.01642590       0.47875192       0.56570009 </v>
   <v>       0.58333333       0.08333333       0.38179910 </v>
   <v>       0.76113863       0.97753416       0.56051483 </v>
   <v>       0.49110060       0.80067960       0.65195989 </v>
   <v>       0.41978218       0.90533370       0.47020734 </v>
   <v>       0.41650968       0.66219176       0.51226002 </v>
   <v>       0.58333333       0.58333333       0.38179910 </v>
   <v>       0.26466881       0.96758098       0.56089164 </v>
   <v>       0.47014307       0.24612043       0.60017551 </v>
   <v>       0.17415138       0.41392518       0.47402887 </v>
   <v>       0.58333333       0.33333333       0.38179910 </v>
   <v>       0.51957419       0.95087841       0.56185437 </v>
   <v>       0.42144484       0.16308840       0.47361278 </v>
   <v>       0.27758328       0.48742583       0.56337245 </v>
   <v>       0.96254609       0.64041466       0.62304418 </v>
   <v>       0.07142858       0.83293213       0.61768732 </v>
   <v>       0.32576502       0.55940550       0.63150603 </v>
   <v>       0.28356716       0.92924256       0.64343850 </v>
   <v>       0.68618044       0.70445807       0.67040895 </v>
   <v>       0.60375139       0.03932311       0.61885858 </v>
   <v>       0.84285399       0.35024473       0.61486986 </v>
   <v>       0.60390638       0.31948987       0.62391725 </v>
   <v>       0.33333333       0.33333333       0.38179910 </v>
   <v>       0.01447708       0.72968571       0.56626808 </v>
   <v>       0.42119127       0.42205673       0.47165714 </v>
   <v>       0.27154434       0.22147288       0.56092486 </v>
   <v>       0.33333333       0.58333333       0.38179910 </v>
   <v>       0.17540801       0.66561961       0.47309482 </v>
   <v>       0.76157569       0.72687416       0.60644345 </v>
   <v>       0.27367160       0.75708053       0.63301709 </v>
   <v>       0.51674479       0.52233309       0.60964188 </v>
   <v>       0.17438035       0.90424837       0.47009216 </v>
   <v>       0.58333333       0.83333333       0.38179910 </v>
   <v>       0.33333333       0.83333333       0.38179910 </v>
   <v>       0.92347013       0.90974056       0.47145823 </v>
   <v>       0.83333333       0.08333333       0.38179910 </v>
   <v>       0.08333333       0.83333333       0.38179910 </v>
   <v>       0.08333333       0.58333333       0.38179910 </v>
   <v>       0.66439108       0.42183128       0.47627466 </v>
   <v>       0.91910634       0.41348693       0.47562769 </v>
   <v>       0.91996810       0.16183723       0.47518454 </v>
   <v>       0.73871417       0.50844150       0.56653579 </v>
   <v>       0.83333333       0.83333333       0.38179910 </v>
   <v>       0.67116490       0.91083895       0.47030099 </v>
   <v>       0.16834774       0.15918057       0.47474515 </v>
   <v>       0.33333333       0.08333333       0.38179910 </v>
  </varray>
  <varray name="selective"  type="logical" >
   <v type="logical" >  F  F  F </v>
   <v type="logical" >  T  T  T </v>
   <v type="logical" >  T  T  T </v>
   <v type="logical" >  T  T  T </v>
   <v type="logical" >  F  F  F </v>
   <v type="logical" >  F  F  F </v>
   <v type="logical" >  T  T  T </v>
   <v type="logical" >  T  T  T </v>
   <v type="logical" >  F  F  F </v>
   <v type="logical" >  T  T  T </v>
   <v type="logical" >  T  T  T </v>
   <v type="logical" >  F  F  F </v>
   <v type="logical" >  T  T  T </v>
   <v type="logical" >  T  T  T </v>
   <v type="logical" >  T  T  T </v>
   <v type="logical" >  T  T  T </v>
   <v type="logical" >  F  F  F </v>
   <v type="logical" >  T  T  T </v>
   <v type="logical" >  T  T  T </v>
   <v type="logical" >  T  T  T </v>
   <v type="logical" >  F  F  F </v>
   <v type="logical" >  T  T  T </v>
   <v type="logical" >  T  T  T </v>
   <v type="logical" >  T  T  T </v>
   <v type="logical" >  T  T  T </v>
   <v type="logical" >  T  T  T </v>
   <v type="logical" >  T  T  T </v>
   <v type="logical" >  T  T  T </v>
   <v type="logical" >  T  T  T </v>
   <v type="logical" >  T  T  T </v>
   <v type="logical" >  T  T  T </v>
   <v type="logical" >  T  T  T </v>
   <v type="logical" >  F  F  F </v>
   <v type="logical" >  T  T  T </v>
   <v type="logical" >  T  T  T </v>
   <v type="logical" >  T  T  T </v>
   <v type="logical" >  F  F  F </v>
   <v type="logical" >  T  T  T </v>
   <v type="logical" >  T  T  T </v>
   <v type="logical" >  T  T  T </v>
   <v type="logical" >  T  T  T </v>
   <v type="logical" >  T  T  T </v>
   <v type="logical" >  F  F  F </v>
   <v type="logical" >  F  F  F </v>
   <v type="logical" >  T  T  T </v>
   <v type="logical" >  F  F  F </v>
   <v type="logical" >  F  F  F </v>
   <v type="logical" >  F  F  F </v>
   <v type="logical" >  T  T  T </v>
   <v type="logical" >  T  T  T </v>
   <v type="logical" >  T  T  T </v>
   <v type="logical" >  T  T  T </v>
   <v type="logical" >  F  F  F </v>
   <v type="logical" >  T  T  T </v>
   <v type="logical" >  T  T  T </v>
   <v type="logical" >  F  F  F </v>
  </varray>
  <nose>
   <v>      -3.00000000       0.00000000       0.00010000       0.00010000 </v>
  </nose>
 </structure>
</modeling>
