  48  48   0   0
  0.5349325E+02  0.1100258E-08  0.1100258E-08  0.2449179E-08  0.3500000E-15
  1.000000000000000E-004
  CAR 
 unknown system                          
      6.37894308     -9.71632580  301     -1.09654187      1.00000000
     -9.716  0.0000E+00  0.0000E+00
     -9.663  0.0000E+00  0.0000E+00
     -9.609  0.0000E+00  0.0000E+00
     -9.555  0.0000E+00  0.0000E+00
     -9.502  0.0000E+00  0.0000E+00
     -9.448  0.0000E+00  0.0000E+00
     -9.394  0.0000E+00  0.0000E+00
     -9.341  0.0000E+00  0.0000E+00
     -9.287  0.9657E-17  0.5181E-18
     -9.233  0.3699E-14  0.1990E-15
     -9.180  0.8095E-12  0.4363E-13
     -9.126  0.1007E-09  0.5446E-11
     -9.073  0.7133E-08  0.3881E-09
     -9.019  0.2883E-06  0.1586E-07
     -8.965  0.6665E-05  0.3734E-06
     -8.912  0.8831E-04  0.5111E-05
     -8.858  0.6723E-03  0.4118E-04
     -8.804  0.2949E-02  0.1994E-03
     -8.751  0.7481E-02  0.6008E-03
     -8.697  0.1114E-01  0.1198E-02
     -8.643  0.1061E-01  0.1767E-02
     -8.590  0.9231E-02  0.2263E-02
     -8.536  0.1062E-01  0.2832E-02
     -8.482  0.1097E-01  0.3421E-02
     -8.429  0.7241E-02  0.3809E-02
     -8.375  0.2830E-02  0.3961E-02
     -8.321  0.7171E-03  0.4000E-02
     -8.268  0.5683E-03  0.4030E-02
     -8.214  0.1885E-02  0.4131E-02
     -8.160  0.4672E-02  0.4382E-02
     -8.107  0.8047E-02  0.4814E-02
     -8.053  0.1060E-01  0.5382E-02
     -7.999  0.1188E-01  0.6020E-02
     -7.946  0.1249E-01  0.6689E-02
     -7.892  0.1340E-01  0.7408E-02
     -7.839  0.1575E-01  0.8253E-02
     -7.785  0.1835E-01  0.9238E-02
     -7.731  0.1830E-01  0.1022E-01
     -7.678  0.1567E-01  0.1106E-01
     -7.624  0.1320E-01  0.1177E-01
     -7.570  0.1434E-01  0.1254E-01
     -7.517  0.1923E-01  0.1357E-01
     -7.463  0.2137E-01  0.1472E-01
     -7.409  0.1714E-01  0.1564E-01
     -7.356  0.1239E-01  0.1630E-01
     -7.302  0.1231E-01  0.1696E-01
     -7.248  0.1620E-01  0.1783E-01
     -7.195  0.2338E-01  0.1908E-01
     -7.141  0.3368E-01  0.2089E-01
     -7.087  0.4477E-01  0.2329E-01
     -7.034  0.5382E-01  0.2618E-01
     -6.980  0.6050E-01  0.2943E-01
     -6.926  0.6605E-01  0.3297E-01
     -6.873  0.7055E-01  0.3676E-01
     -6.819  0.7421E-01  0.4074E-01
     -6.766  0.7690E-01  0.4486E-01
     -6.712  0.7783E-01  0.4904E-01
     -6.658  0.7784E-01  0.5321E-01
     -6.605  0.7830E-01  0.5742E-01
     -6.551  0.8134E-01  0.6178E-01
     -6.497  0.9046E-01  0.6663E-01
     -6.444  0.1045E+00  0.7224E-01
     -6.390  0.1171E+00  0.7852E-01
     -6.336  0.1270E+00  0.8534E-01
     -6.283  0.1364E+00  0.9265E-01
     -6.229  0.1435E+00  0.1004E+00
     -6.175  0.1467E+00  0.1082E+00
     -6.122  0.1502E+00  0.1163E+00
     -6.068  0.1568E+00  0.1247E+00
     -6.014  0.1637E+00  0.1335E+00
     -5.961  0.1663E+00  0.1424E+00
     -5.907  0.1620E+00  0.1511E+00
     -5.853  0.1546E+00  0.1594E+00
     -5.800  0.1505E+00  0.1675E+00
     -5.746  0.1491E+00  0.1755E+00
     -5.693  0.1468E+00  0.1833E+00
     -5.639  0.1426E+00  0.1910E+00
     -5.585  0.1379E+00  0.1984E+00
     -5.532  0.1358E+00  0.2057E+00
     -5.478  0.1378E+00  0.2131E+00
     -5.424  0.1420E+00  0.2207E+00
     -5.371  0.1479E+00  0.2286E+00
     -5.317  0.1541E+00  0.2369E+00
     -5.263  0.1591E+00  0.2454E+00
     -5.210  0.1648E+00  0.2543E+00
     -5.156  0.1720E+00  0.2635E+00
     -5.102  0.1782E+00  0.2731E+00
     -5.049  0.1804E+00  0.2827E+00
     -4.995  0.1789E+00  0.2923E+00
     -4.941  0.1765E+00  0.3018E+00
     -4.888  0.1749E+00  0.3112E+00
     -4.834  0.1714E+00  0.3204E+00
     -4.780  0.1631E+00  0.3291E+00
     -4.727  0.1571E+00  0.3376E+00
     -4.673  0.1600E+00  0.3461E+00
     -4.619  0.1658E+00  0.3550E+00
     -4.566  0.1682E+00  0.3641E+00
     -4.512  0.1698E+00  0.3732E+00
     -4.459  0.1749E+00  0.3826E+00
     -4.405  0.1817E+00  0.3923E+00
     -4.351  0.1860E+00  0.4023E+00
     -4.298  0.1859E+00  0.4123E+00
     -4.244  0.1826E+00  0.4221E+00
     -4.190  0.1792E+00  0.4317E+00
     -4.137  0.1780E+00  0.4412E+00
     -4.083  0.1793E+00  0.4508E+00
     -4.029  0.1816E+00  0.4606E+00
     -3.976  0.1838E+00  0.4704E+00
     -3.922  0.1846E+00  0.4804E+00
     -3.868  0.1844E+00  0.4902E+00
     -3.815  0.1865E+00  0.5003E+00
     -3.761  0.1928E+00  0.5106E+00
     -3.707  0.1993E+00  0.5213E+00
     -3.654  0.2031E+00  0.5322E+00
     -3.600  0.2047E+00  0.5432E+00
     -3.546  0.2056E+00  0.5542E+00
     -3.493  0.2075E+00  0.5653E+00
     -3.439  0.2100E+00  0.5766E+00
     -3.386  0.2111E+00  0.5879E+00
     -3.332  0.2097E+00  0.5992E+00
     -3.278  0.2064E+00  0.6102E+00
     -3.225  0.2022E+00  0.6211E+00
     -3.171  0.1972E+00  0.6317E+00
     -3.117  0.1908E+00  0.6419E+00
     -3.064  0.1852E+00  0.6518E+00
     -3.010  0.1829E+00  0.6617E+00
     -2.956  0.1817E+00  0.6714E+00
     -2.903  0.1804E+00  0.6811E+00
     -2.849  0.1805E+00  0.6908E+00
     -2.795  0.1832E+00  0.7006E+00
     -2.742  0.1858E+00  0.7106E+00
     -2.688  0.1840E+00  0.7204E+00
     -2.634  0.1806E+00  0.7301E+00
     -2.581  0.1798E+00  0.7398E+00
     -2.527  0.1784E+00  0.7493E+00
     -2.473  0.1734E+00  0.7586E+00
     -2.420  0.1686E+00  0.7677E+00
     -2.366  0.1685E+00  0.7767E+00
     -2.313  0.1714E+00  0.7859E+00
     -2.259  0.1748E+00  0.7953E+00
     -2.205  0.1797E+00  0.8049E+00
     -2.152  0.1855E+00  0.8149E+00
     -2.098  0.1880E+00  0.8250E+00
     -2.044  0.1875E+00  0.8350E+00
     -1.991  0.1903E+00  0.8452E+00
     -1.937  0.1976E+00  0.8558E+00
     -1.883  0.2044E+00  0.8668E+00
     -1.830  0.2081E+00  0.8780E+00
     -1.776  0.2058E+00  0.8890E+00
     -1.722  0.1965E+00  0.8996E+00
     -1.669  0.1876E+00  0.9096E+00
     -1.615  0.1842E+00  0.9195E+00
     -1.561  0.1846E+00  0.9294E+00
     -1.508  0.1878E+00  0.9395E+00
     -1.454  0.1909E+00  0.9497E+00
     -1.400  0.1892E+00  0.9599E+00
     -1.347  0.1832E+00  0.9697E+00
     -1.293  0.1772E+00  0.9792E+00
     -1.239  0.1715E+00  0.9884E+00
     -1.186  0.1585E+00  0.9969E+00
     -1.132  0.1335E+00  0.1004E+01
     -1.079  0.1052E+00  0.1010E+01
     -1.025  0.7992E-01  0.1014E+01
     -0.971  0.5567E-01  0.1017E+01
     -0.918  0.3401E-01  0.1019E+01
     -0.864  0.2016E-01  0.1020E+01
     -0.810  0.1555E-01  0.1021E+01
     -0.757  0.1707E-01  0.1022E+01
     -0.703  0.2049E-01  0.1023E+01
     -0.649  0.2431E-01  0.1024E+01
     -0.596  0.2993E-01  0.1026E+01
     -0.542  0.3705E-01  0.1028E+01
     -0.488  0.4090E-01  0.1030E+01
     -0.435  0.3905E-01  0.1032E+01
     -0.381  0.3469E-01  0.1034E+01
     -0.327  0.3082E-01  0.1035E+01
     -0.274  0.3174E-01  0.1037E+01
     -0.220  0.3913E-01  0.1039E+01
     -0.166  0.4387E-01  0.1042E+01
     -0.113  0.3911E-01  0.1044E+01
     -0.059  0.2968E-01  0.1045E+01
     -0.006  0.2347E-01  0.1047E+01
      0.048  0.2436E-01  0.1048E+01
      0.102  0.3031E-01  0.1050E+01
      0.155  0.3592E-01  0.1051E+01
      0.209  0.3739E-01  0.1053E+01
      0.263  0.3693E-01  0.1055E+01
      0.316  0.3855E-01  0.1057E+01
      0.370  0.4027E-01  0.1060E+01
      0.424  0.3774E-01  0.1062E+01
      0.477  0.3294E-01  0.1063E+01
      0.531  0.3185E-01  0.1065E+01
      0.585  0.3606E-01  0.1067E+01
      0.638  0.4207E-01  0.1069E+01
      0.692  0.4539E-01  0.1072E+01
      0.746  0.4357E-01  0.1074E+01
      0.799  0.3601E-01  0.1076E+01
      0.853  0.2533E-01  0.1077E+01
      0.907  0.1886E-01  0.1078E+01
      0.960  0.2106E-01  0.1080E+01
      1.014  0.2706E-01  0.1081E+01
      1.068  0.2846E-01  0.1083E+01
      1.121  0.2375E-01  0.1084E+01
      1.175  0.1815E-01  0.1085E+01
      1.228  0.1454E-01  0.1086E+01
      1.282  0.1273E-01  0.1086E+01
      1.336  0.1267E-01  0.1087E+01
      1.389  0.1368E-01  0.1088E+01
      1.443  0.1738E-01  0.1089E+01
      1.497  0.2589E-01  0.1090E+01
      1.550  0.3412E-01  0.1092E+01
      1.604  0.3538E-01  0.1094E+01
      1.658  0.3234E-01  0.1095E+01
      1.711  0.3277E-01  0.1097E+01
      1.765  0.3736E-01  0.1099E+01
      1.819  0.3820E-01  0.1101E+01
      1.872  0.3037E-01  0.1103E+01
      1.926  0.1979E-01  0.1104E+01
      1.980  0.1476E-01  0.1105E+01
      2.033  0.1529E-01  0.1106E+01
      2.087  0.1888E-01  0.1107E+01
      2.141  0.2620E-01  0.1108E+01
      2.194  0.3536E-01  0.1110E+01
      2.248  0.4272E-01  0.1112E+01
      2.301  0.4528E-01  0.1115E+01
      2.355  0.4214E-01  0.1117E+01
      2.409  0.3845E-01  0.1119E+01
      2.462  0.3881E-01  0.1121E+01
      2.516  0.4152E-01  0.1123E+01
      2.570  0.4524E-01  0.1126E+01
      2.623  0.5009E-01  0.1128E+01
      2.677  0.5221E-01  0.1131E+01
      2.731  0.4768E-01  0.1134E+01
      2.784  0.3711E-01  0.1136E+01
      2.838  0.2465E-01  0.1137E+01
      2.892  0.1559E-01  0.1138E+01
      2.945  0.1290E-01  0.1139E+01
      2.999  0.1420E-01  0.1139E+01
      3.053  0.1607E-01  0.1140E+01
      3.106  0.2004E-01  0.1141E+01
      3.160  0.2552E-01  0.1143E+01
      3.214  0.2594E-01  0.1144E+01
      3.267  0.1950E-01  0.1145E+01
      3.321  0.1269E-01  0.1146E+01
      3.374  0.1084E-01  0.1146E+01
      3.428  0.1382E-01  0.1147E+01
      3.482  0.1916E-01  0.1148E+01
      3.535  0.2506E-01  0.1149E+01
      3.589  0.3175E-01  0.1151E+01
      3.643  0.3857E-01  0.1153E+01
      3.696  0.4186E-01  0.1155E+01
      3.750  0.3920E-01  0.1158E+01
      3.804  0.3208E-01  0.1159E+01
      3.857  0.2542E-01  0.1161E+01
      3.911  0.2304E-01  0.1162E+01
      3.965  0.2432E-01  0.1163E+01
      4.018  0.2698E-01  0.1165E+01
      4.072  0.2807E-01  0.1166E+01
      4.126  0.2687E-01  0.1168E+01
      4.179  0.2560E-01  0.1169E+01
      4.233  0.2400E-01  0.1170E+01
      4.287  0.1974E-01  0.1171E+01
      4.340  0.1563E-01  0.1172E+01
      4.394  0.1782E-01  0.1173E+01
      4.448  0.2559E-01  0.1174E+01
      4.501  0.3371E-01  0.1176E+01
      4.555  0.4239E-01  0.1179E+01
      4.608  0.5293E-01  0.1181E+01
      4.662  0.5935E-01  0.1185E+01
      4.716  0.5633E-01  0.1188E+01
      4.769  0.5001E-01  0.1190E+01
      4.823  0.4902E-01  0.1193E+01
      4.877  0.5229E-01  0.1196E+01
      4.930  0.5518E-01  0.1199E+01
      4.984  0.5866E-01  0.1202E+01
      5.038  0.6385E-01  0.1205E+01
      5.091  0.6519E-01  0.1209E+01
      5.145  0.5959E-01  0.1212E+01
      5.199  0.5475E-01  0.1215E+01
      5.252  0.5376E-01  0.1218E+01
      5.306  0.4808E-01  0.1220E+01
      5.360  0.3487E-01  0.1222E+01
      5.413  0.2045E-01  0.1223E+01
      5.467  0.9385E-02  0.1224E+01
      5.521  0.3034E-02  0.1224E+01
      5.574  0.6254E-03  0.1224E+01
      5.628  0.7761E-04  0.1224E+01
      5.681  0.5647E-05  0.1224E+01
      5.735  0.2379E-06  0.1224E+01
      5.789  0.5763E-08  0.1224E+01
      5.842  0.7997E-10  0.1224E+01
      5.896  0.6338E-12  0.1224E+01
      5.950  0.2863E-14  0.1224E+01
      6.003  0.6898E-17  0.1224E+01
      6.057  0.0000E+00  0.1224E+01
      6.111  0.0000E+00  0.1224E+01
      6.164  0.0000E+00  0.1224E+01
      6.218  0.0000E+00  0.1224E+01
      6.272  0.0000E+00  0.1224E+01
      6.325  0.0000E+00  0.1224E+01
      6.379  0.0000E+00  0.1224E+01
