       N       E                     dE             d eps       ncg     rms          rms(c)
DAV:   1     0.320155708835E+04    0.32016E+04   -0.18984E+05  3672   0.112E+03
DAV:   2     0.143655815644E+02   -0.31872E+04   -0.29281E+04  4368   0.263E+02
DAV:   3    -0.201161058932E+03   -0.21553E+03   -0.20029E+03  4164   0.651E+01
DAV:   4    -0.207031835913E+03   -0.58708E+01   -0.57991E+01  4272   0.108E+01
DAV:   5    -0.207209286379E+03   -0.17745E+00   -0.17687E+00  4440   0.193E+00    0.622E+01
RMM:   6    -0.204199236070E+03    0.30101E+01   -0.10034E+02  3678   0.155E+01    0.560E+01
RMM:   7    -0.213931201732E+03   -0.97320E+01   -0.60006E+01  3680   0.125E+01    0.498E+01
RMM:   8    -0.221447871479E+03   -0.75167E+01   -0.93898E+01  3672   0.142E+01    0.445E+01
RMM:   9    -0.214966790664E+03    0.64811E+01   -0.53987E+01  3679   0.113E+01    0.381E+01
RMM:  10    -0.201392458337E+03    0.13574E+02   -0.19910E+01  3679   0.750E+00    0.237E+01
RMM:  11    -0.195038861024E+03    0.63536E+01   -0.15614E+01  3680   0.631E+00    0.159E+01
RMM:  12    -0.191504255025E+03    0.35346E+01   -0.72539E+00  3680   0.420E+00    0.145E+01
RMM:  13    -0.189812624121E+03    0.16916E+01   -0.27682E+00  3681   0.263E+00    0.806E+00
RMM:  14    -0.189416898552E+03    0.39573E+00   -0.10305E+00  3679   0.149E+00    0.650E+00
RMM:  15    -0.189370450864E+03    0.46448E-01   -0.46039E-01  3679   0.103E+00    0.574E+00
RMM:  16    -0.189263402030E+03    0.10705E+00   -0.34787E-01  3679   0.934E-01    0.468E+00
RMM:  17    -0.189100988346E+03    0.16241E+00   -0.24308E-01  3681   0.764E-01    0.315E+00
RMM:  18    -0.189007609189E+03    0.93379E-01   -0.13486E-01  3679   0.548E-01    0.184E+00
RMM:  19    -0.188969965254E+03    0.37644E-01   -0.44438E-02  3678   0.319E-01    0.927E-01
RMM:  20    -0.188963120195E+03    0.68451E-02   -0.12164E-02  3681   0.162E-01    0.718E-01
RMM:  21    -0.188960974007E+03    0.21462E-02   -0.46084E-03  3681   0.106E-01    0.513E-01
RMM:  22    -0.188960236741E+03    0.73727E-03   -0.18343E-03  3683   0.671E-02    0.442E-01
RMM:  23    -0.188958015870E+03    0.22209E-02   -0.31720E-03  3679   0.818E-02    0.287E-01
RMM:  24    -0.188957436926E+03    0.57894E-03   -0.10630E-03  3679   0.500E-02    0.153E-01
RMM:  25    -0.188957280872E+03    0.15605E-03   -0.38110E-04  3681   0.292E-02    0.697E-02
RMM:  26    -0.188957513864E+03   -0.23299E-03   -0.21099E-04  3678   0.208E-02    0.774E-02
RMM:  27    -0.188957862453E+03   -0.34859E-03   -0.13193E-04  3678   0.169E-02    0.628E-02
RMM:  28    -0.188958162353E+03   -0.29990E-03   -0.59154E-05  3673   0.113E-02    0.429E-02
RMM:  29    -0.188958554626E+03   -0.39227E-03   -0.35823E-05  3672   0.859E-03    0.314E-02
RMM:  30    -0.188959079640E+03   -0.52501E-03   -0.31105E-05  3671   0.781E-03    0.189E-02
RMM:  31    -0.188959658837E+03   -0.57920E-03   -0.31000E-05  3658   0.752E-03    0.186E-02
RMM:  32    -0.188960379323E+03   -0.72049E-03   -0.56519E-05  3672   0.966E-03    0.798E-03
RMM:  33    -0.188960551211E+03   -0.17189E-03   -0.11863E-05  2909   0.414E-03    0.823E-03
RMM:  34    -0.188960673127E+03   -0.12192E-03   -0.49998E-06  2653   0.284E-03    0.336E-03
RMM:  35    -0.188960762757E+03   -0.89630E-04   -0.19583E-06  2336   0.193E-03    0.369E-03
RMM:  36    -0.188960814967E+03   -0.52209E-04   -0.10694E-06  2184   0.142E-03    0.170E-03
RMM:  37    -0.188960851733E+03   -0.36766E-04   -0.65106E-07  2148   0.108E-03    0.188E-03
RMM:  38    -0.188960869189E+03   -0.17457E-04   -0.34908E-07  1906   0.790E-04    0.128E-03
RMM:  39    -0.188960883338E+03   -0.14149E-04   -0.34816E-07  2027   0.828E-04    0.132E-03
RMM:  40    -0.188960886273E+03   -0.29350E-05   -0.12517E-07  1189   0.452E-04    0.837E-04
RMM:  41    -0.188960887508E+03   -0.12350E-05   -0.30432E-08   747   0.361E-04    0.492E-04
RMM:  42    -0.188960888446E+03   -0.93779E-06   -0.17487E-08   657   0.370E-04
   1 F= -.18896089E+03 E0= -.18882287E+03  d E =-.188961E+03
       N       E                     dE             d eps       ncg     rms          rms(c)
DAV:   1    -0.190031280847E+03   -0.10704E+01   -0.37000E+02  3672   0.295E+01    0.374E+00
RMM:   2    -0.190415737338E+03   -0.38446E+00   -0.38799E+00  3678   0.426E+00    0.242E+00
RMM:   3    -0.190589266200E+03   -0.17353E+00   -0.42879E-01  3704   0.113E+00    0.480E+00
RMM:   4    -0.190408207449E+03    0.18106E+00   -0.18291E-01  3687   0.718E-01    0.182E+00
RMM:   5    -0.190467168655E+03   -0.58961E-01   -0.10072E-01  3686   0.479E-01    0.287E+00
RMM:   6    -0.190404825476E+03    0.62343E-01   -0.67303E-02  3681   0.397E-01    0.153E+00
RMM:   7    -0.190380810968E+03    0.24015E-01   -0.25544E-02  3682   0.257E-01    0.451E-01
RMM:   8    -0.190378864221E+03    0.19467E-02   -0.63218E-03  3683   0.123E-01    0.314E-01
RMM:   9    -0.190377829012E+03    0.10352E-02   -0.26610E-03  3682   0.807E-02    0.169E-01
RMM:  10    -0.190377601323E+03    0.22769E-03   -0.89366E-04  3683   0.469E-02    0.948E-02
RMM:  11    -0.190377538945E+03    0.62377E-04   -0.20423E-04  3685   0.229E-02    0.580E-02
RMM:  12    -0.190377538156E+03    0.78964E-06   -0.58522E-05  3685   0.123E-02    0.523E-02
RMM:  13    -0.190377525812E+03    0.12344E-04   -0.31639E-05  3674   0.906E-03    0.336E-02
RMM:  14    -0.190377520568E+03    0.52441E-05   -0.18107E-05  3672   0.686E-03    0.193E-02
RMM:  15    -0.190377517386E+03    0.31814E-05   -0.60030E-06  2978   0.402E-03    0.620E-03
RMM:  16    -0.190377517994E+03   -0.60727E-06   -0.16598E-06  2080   0.220E-03
   2 F= -.19037752E+03 E0= -.19024059E+03  d E =-.141663E+01
       N       E                     dE             d eps       ncg     rms          rms(c)
DAV:   1    -0.188931129205E+03    0.14464E+01   -0.34678E+03  3672   0.926E+01    0.897E+00
RMM:   2    -0.192336798723E+03   -0.34057E+01   -0.34298E+01  3679   0.128E+01    0.603E+00
RMM:   3    -0.193217383906E+03   -0.88059E+00   -0.28224E+00  3708   0.289E+00    0.113E+01
RMM:   4    -0.192145614891E+03    0.10718E+01   -0.98434E-01  3684   0.168E+00    0.437E+00
RMM:   5    -0.192446728565E+03   -0.30111E+00   -0.51628E-01  3687   0.110E+00    0.671E+00
RMM:   6    -0.192274863887E+03    0.17186E+00   -0.57176E-01  3681   0.115E+00    0.474E+00
RMM:   7    -0.192011148094E+03    0.26372E+00   -0.27613E-01  3683   0.838E-01    0.136E+00
RMM:   8    -0.191999120089E+03    0.12028E-01   -0.73998E-02  3681   0.419E-01    0.123E+00
RMM:   9    -0.191981110579E+03    0.18010E-01   -0.26257E-02  3683   0.255E-01    0.454E-01
RMM:  10    -0.191980045145E+03    0.10654E-02   -0.67929E-03  3683   0.129E-01    0.301E-01
RMM:  11    -0.191979509053E+03    0.53609E-03   -0.24326E-03  3686   0.777E-02    0.205E-01
RMM:  12    -0.191979348110E+03    0.16094E-03   -0.79207E-04  3682   0.453E-02    0.149E-01
RMM:  13    -0.191979248772E+03    0.99338E-04   -0.36536E-04  3678   0.311E-02    0.999E-02
RMM:  14    -0.191979188869E+03    0.59903E-04   -0.16473E-04  3679   0.204E-02    0.543E-02
RMM:  15    -0.191979168446E+03    0.20422E-04   -0.46255E-05  3679   0.111E-02    0.222E-02
RMM:  16    -0.191979168791E+03   -0.34494E-06   -0.12926E-05  3635   0.570E-03    0.124E-02
RMM:  17    -0.191979171199E+03   -0.24082E-05   -0.32466E-06  2606   0.294E-03    0.711E-03
RMM:  18    -0.191979174776E+03   -0.35770E-05   -0.12395E-06  2075   0.196E-03    0.611E-03
RMM:  19    -0.191979178080E+03   -0.33033E-05   -0.57054E-07  2042   0.141E-03    0.238E-03
RMM:  20    -0.191979180735E+03   -0.26558E-05   -0.19470E-07  1836   0.746E-04    0.148E-03
RMM:  21    -0.191979182798E+03   -0.20624E-05   -0.77244E-08  1188   0.520E-04    0.792E-04
RMM:  22    -0.191979186192E+03   -0.33939E-05   -0.75094E-08  1218   0.467E-04    0.758E-04
RMM:  23    -0.191979188480E+03   -0.22882E-05   -0.81592E-08  1128   0.445E-04    0.721E-04
RMM:  24    -0.191979192009E+03   -0.35290E-05   -0.18665E-07  1543   0.534E-04    0.505E-04
RMM:  25    -0.191979193039E+03   -0.10300E-05   -0.53950E-08   856   0.375E-04    0.411E-04
RMM:  26    -0.191979194082E+03   -0.10429E-05   -0.93154E-08  1019   0.403E-04    0.348E-04
RMM:  27    -0.191979194448E+03   -0.36628E-06   -0.23114E-08   626   0.358E-04
   3 F= -.19197919E+03 E0= -.19184957E+03  d E =-.301831E+01
       N       E                     dE             d eps       ncg     rms          rms(c)
DAV:   1    -0.192143478198E+03   -0.16428E+00   -0.28979E+02  3672   0.263E+01    0.236E+00
RMM:   2    -0.192454235798E+03   -0.31076E+00   -0.32576E+00  3684   0.385E+00    0.154E+00
RMM:   3    -0.192508966048E+03   -0.54730E-01   -0.23631E-01  3714   0.845E-01    0.289E+00
RMM:   4    -0.192447521710E+03    0.61444E-01   -0.61962E-02  3686   0.427E-01    0.123E+00
RMM:   5    -0.192465914516E+03   -0.18393E-01   -0.34831E-02  3686   0.283E-01    0.177E+00
RMM:   6    -0.192447990613E+03    0.17924E-01   -0.41746E-02  3681   0.316E-01    0.111E+00
RMM:   7    -0.192434659800E+03    0.13331E-01   -0.16259E-02  3681   0.204E-01    0.361E-01
RMM:   8    -0.192433865303E+03    0.79450E-03   -0.43384E-03  3684   0.105E-01    0.295E-01
RMM:   9    -0.192432712468E+03    0.11528E-02   -0.17694E-03  3681   0.665E-02    0.113E-01
RMM:  10    -0.192432611272E+03    0.10120E-03   -0.40556E-04  3681   0.311E-02    0.718E-02
RMM:  11    -0.192432570042E+03    0.41230E-04   -0.12071E-04  3686   0.171E-02    0.404E-02
RMM:  12    -0.192432567692E+03    0.23504E-05   -0.54187E-05  3681   0.115E-02    0.353E-02
RMM:  13    -0.192432559721E+03    0.79710E-05   -0.23769E-05  3681   0.785E-03    0.172E-02
RMM:  14    -0.192432559554E+03    0.16650E-06   -0.57131E-06  2933   0.402E-03
   4 F= -.19243256E+03 E0= -.19230639E+03  d E =-.453365E+00
       N       E                     dE             d eps       ncg     rms          rms(c)
DAV:   1    -0.192408611861E+03    0.23948E-01   -0.82372E+01  3720   0.140E+01    0.116E+00
RMM:   2    -0.192498730612E+03   -0.90119E-01   -0.93907E-01  3684   0.207E+00    0.848E-01
RMM:   3    -0.192515146613E+03   -0.16416E-01   -0.69728E-02  3713   0.459E-01    0.158E+00
RMM:   4    -0.192497475566E+03    0.17671E-01   -0.16987E-02  3686   0.221E-01    0.736E-01
RMM:   5    -0.192496259694E+03    0.12159E-02   -0.72071E-03  3686   0.131E-01    0.651E-01
RMM:   6    -0.192495456447E+03    0.80325E-03   -0.11744E-02  3681   0.169E-01    0.555E-01
RMM:   7    -0.192492318155E+03    0.31383E-02   -0.48128E-03  3681   0.111E-01    0.200E-01
RMM:   8    -0.192492066363E+03    0.25179E-03   -0.11912E-03  3684   0.551E-02    0.154E-01
RMM:   9    -0.192491748170E+03    0.31819E-03   -0.48759E-04  3680   0.350E-02    0.616E-02
RMM:  10    -0.192491714659E+03    0.33511E-04   -0.12244E-04  3680   0.170E-02    0.402E-02
RMM:  11    -0.192491700863E+03    0.13796E-04   -0.38867E-05  3682   0.962E-03    0.219E-02
RMM:  12    -0.192491700054E+03    0.80904E-06   -0.17450E-05  3677   0.648E-03    0.175E-02
RMM:  13    -0.192491699355E+03    0.69878E-06   -0.74878E-06  3559   0.438E-03
   5 F= -.19249170E+03 E0= -.19236716E+03  d E =-.512505E+00
       N       E                     dE             d eps       ncg     rms          rms(c)
DAV:   1    -0.192503100078E+03   -0.11400E-01   -0.30886E+01  3696   0.858E+00    0.750E-01
RMM:   2    -0.192535962867E+03   -0.32863E-01   -0.34862E-01  3684   0.126E+00    0.469E-01
RMM:   3    -0.192540659633E+03   -0.46968E-02   -0.23412E-02  3714   0.268E-01    0.764E-01
RMM:   4    -0.192535396753E+03    0.52629E-02   -0.59515E-03  3683   0.130E-01    0.365E-01
RMM:   5    -0.192538040818E+03   -0.26441E-02   -0.37857E-03  3681   0.935E-02    0.624E-01
RMM:   6    -0.192534970347E+03    0.30705E-02   -0.40581E-03  3682   0.100E-01    0.292E-01
RMM:   7    -0.192534358780E+03    0.61157E-03   -0.14989E-03  3681   0.621E-02    0.144E-01
RMM:   8    -0.192534176533E+03    0.18225E-03   -0.37922E-04  3682   0.318E-02    0.719E-02
RMM:   9    -0.192534111911E+03    0.64622E-04   -0.15160E-04  3679   0.192E-02    0.394E-02
RMM:  10    -0.192534092466E+03    0.19445E-04   -0.51089E-05  3680   0.111E-02    0.193E-02
RMM:  11    -0.192534089766E+03    0.26992E-05   -0.10806E-05  3663   0.511E-03    0.110E-02
RMM:  12    -0.192534089492E+03    0.27395E-06   -0.41770E-06  2732   0.328E-03
   6 F= -.19253409E+03 E0= -.19241068E+03  d E =-.423901E-01
       N       E                     dE             d eps       ncg     rms          rms(c)
DAV:   1    -0.192532221341E+03    0.18684E-02   -0.62089E+00  3744   0.384E+00    0.325E-01
RMM:   2    -0.192538826518E+03   -0.66052E-02   -0.70236E-02  3684   0.566E-01    0.209E-01
RMM:   3    -0.192539662245E+03   -0.83573E-03   -0.47229E-03  3716   0.121E-01    0.339E-01
RMM:   4    -0.192538601775E+03    0.10605E-02   -0.11273E-03  3685   0.574E-02    0.136E-01
RMM:   5    -0.192539312685E+03   -0.71091E-03   -0.84936E-04  3681   0.448E-02    0.282E-01
RMM:   6    -0.192538686032E+03    0.62665E-03   -0.76366E-04  3684   0.424E-02    0.156E-01
RMM:   7    -0.192538495604E+03    0.19043E-03   -0.31438E-04  3681   0.282E-02    0.666E-02
RMM:   8    -0.192538460375E+03    0.35229E-04   -0.77522E-05  3680   0.144E-02    0.323E-02
RMM:   9    -0.192538448062E+03    0.12312E-04   -0.30501E-05  3676   0.862E-03    0.191E-02
RMM:  10    -0.192538443206E+03    0.48567E-05   -0.11427E-05  3672   0.524E-03    0.862E-03
RMM:  11    -0.192538442609E+03    0.59717E-06   -0.21727E-06  2151   0.243E-03
   7 F= -.19253844E+03 E0= -.19241551E+03  d E =-.467433E-01
       N       E                     dE             d eps       ncg     rms          rms(c)
DAV:   1    -0.192541410616E+03   -0.29674E-02   -0.62712E+00  3684   0.384E+00    0.246E-01
RMM:   2    -0.192548080047E+03   -0.66694E-02   -0.69679E-02  3681   0.567E-01    0.225E-01
RMM:   3    -0.192548212688E+03   -0.13264E-03   -0.43418E-03  3736   0.118E-01    0.205E-01
RMM:   4    -0.192548050718E+03    0.16197E-03   -0.82207E-04  3675   0.479E-02    0.191E-01
RMM:   5    -0.192548230165E+03   -0.17945E-03   -0.65110E-04  3685   0.382E-02    0.249E-01
RMM:   6    -0.192547740534E+03    0.48963E-03   -0.79435E-04  3681   0.439E-02    0.137E-01
RMM:   7    -0.192547687857E+03    0.52677E-04   -0.51934E-04  3682   0.363E-02    0.874E-02
RMM:   8    -0.192547632954E+03    0.54902E-04   -0.11768E-04  3681   0.175E-02    0.420E-02
RMM:   9    -0.192547614794E+03    0.18160E-04   -0.33570E-05  3678   0.920E-03    0.298E-02
RMM:  10    -0.192547599178E+03    0.15617E-04   -0.30130E-05  3681   0.826E-03    0.151E-02
RMM:  11    -0.192547596345E+03    0.28329E-05   -0.91431E-06  3663   0.456E-03    0.794E-03
RMM:  12    -0.192547595703E+03    0.64167E-06   -0.62334E-06  3622   0.366E-03
   8 F= -.19254760E+03 E0= -.19242458E+03  d E =-.915309E-02
       N       E                     dE             d eps       ncg     rms          rms(c)
DAV:   1    -0.192545916434E+03    0.16799E-02   -0.44330E+00  3696   0.323E+00    0.204E-01
RMM:   2    -0.192550624459E+03   -0.47080E-02   -0.49207E-02  3681   0.477E-01    0.187E-01
RMM:   3    -0.192550711438E+03   -0.86979E-04   -0.30499E-03  3735   0.992E-02    0.171E-01
RMM:   4    -0.192550594720E+03    0.11672E-03   -0.56079E-04  3675   0.397E-02    0.159E-01
RMM:   5    -0.192550720491E+03   -0.12577E-03   -0.44797E-04  3686   0.318E-02    0.207E-01
RMM:   6    -0.192550385852E+03    0.33464E-03   -0.56000E-04  3681   0.368E-02    0.117E-01
RMM:   7    -0.192550347446E+03    0.38406E-04   -0.37210E-04  3682   0.307E-02    0.732E-02
RMM:   8    -0.192550309817E+03    0.37629E-04   -0.83869E-05  3681   0.148E-02    0.353E-02
RMM:   9    -0.192550297205E+03    0.12612E-04   -0.23700E-05  3678   0.773E-03    0.257E-02
RMM:  10    -0.192550285830E+03    0.11375E-04   -0.21250E-05  3672   0.695E-03    0.129E-02
RMM:  11    -0.192550283767E+03    0.20634E-05   -0.66097E-06  3452   0.390E-03    0.700E-03
RMM:  12    -0.192550283309E+03    0.45715E-06   -0.42949E-06  2734   0.319E-03
   9 F= -.19255028E+03 E0= -.19242719E+03  d E =-.118407E-01
       N       E                     dE             d eps       ncg     rms          rms(c)
DAV:   1    -0.192549747786E+03    0.53598E-03   -0.83767E+00  3684   0.445E+00    0.258E-01
RMM:   2    -0.192559209095E+03   -0.94613E-02   -0.93678E-02  3681   0.660E-01    0.328E-01
RMM:   3    -0.192559020535E+03    0.18856E-03   -0.64522E-03  3749   0.143E-01    0.254E-01
RMM:   4    -0.192558698714E+03    0.32182E-03   -0.81249E-04  3675   0.476E-02    0.223E-01
RMM:   5    -0.192558504792E+03    0.19392E-03   -0.52499E-04  3688   0.358E-02    0.214E-01
RMM:   6    -0.192558321869E+03    0.18292E-03   -0.10063E-03  3681   0.491E-02    0.184E-01
RMM:   7    -0.192558134472E+03    0.18740E-03   -0.10729E-03  3683   0.512E-02    0.105E-01
RMM:   8    -0.192558079439E+03    0.55033E-04   -0.23710E-04  3681   0.246E-02    0.559E-02
RMM:   9    -0.192558051927E+03    0.27512E-04   -0.40111E-05  3682   0.102E-02    0.393E-02
RMM:  10    -0.192558025007E+03    0.26920E-04   -0.45500E-05  3681   0.102E-02    0.232E-02
RMM:  11    -0.192558017966E+03    0.70419E-05   -0.20124E-05  3672   0.672E-03    0.123E-02
RMM:  12    -0.192558016332E+03    0.16334E-05   -0.15155E-05  3678   0.571E-03    0.532E-03
RMM:  13    -0.192558016397E+03   -0.65178E-07   -0.15902E-06  2029   0.215E-03
  10 F= -.19255802E+03 E0= -.19243440E+03  d E =-.773309E-02
       N       E                     dE             d eps       ncg     rms          rms(c)
DAV:   1    -0.192553655624E+03    0.43607E-02   -0.71981E+00  3684   0.412E+00    0.238E-01
RMM:   2    -0.192561813473E+03   -0.81578E-02   -0.80500E-02  3681   0.611E-01    0.309E-01
RMM:   3    -0.192561629288E+03    0.18419E-03   -0.55678E-03  3747   0.132E-01    0.238E-01
RMM:   4    -0.192561342375E+03    0.28691E-03   -0.69438E-04  3675   0.440E-02    0.208E-01
RMM:   5    -0.192561148089E+03    0.19429E-03   -0.43679E-04  3688   0.329E-02    0.193E-01
RMM:   6    -0.192561014160E+03    0.13393E-03   -0.86556E-04  3681   0.455E-02    0.170E-01
RMM:   7    -0.192560852269E+03    0.16189E-03   -0.93154E-04  3683   0.477E-02    0.970E-02
RMM:   8    -0.192560806654E+03    0.45615E-04   -0.20635E-04  3681   0.230E-02    0.524E-02
RMM:   9    -0.192560782690E+03    0.23963E-04   -0.34781E-05  3682   0.953E-03    0.365E-02
RMM:  10    -0.192560759502E+03    0.23188E-04   -0.38923E-05  3681   0.939E-03    0.218E-02
RMM:  11    -0.192560753227E+03    0.62747E-05   -0.17522E-05  3672   0.626E-03    0.116E-02
RMM:  12    -0.192560751840E+03    0.13870E-05   -0.13038E-05  3678   0.529E-03    0.549E-03
RMM:  13    -0.192560751846E+03   -0.57407E-08   -0.14536E-06  2007   0.204E-03
  11 F= -.19256075E+03 E0= -.19243664E+03  d E =-.104685E-01
       N       E                     dE             d eps       ncg     rms          rms(c)
DAV:   1    -0.192558075284E+03    0.26766E-02   -0.70422E+00  3684   0.409E+00    0.221E-01
RMM:   2    -0.192566129238E+03   -0.80540E-02   -0.79573E-02  3680   0.605E-01    0.290E-01
RMM:   3    -0.192565942671E+03    0.18657E-03   -0.54484E-03  3730   0.129E-01    0.232E-01
RMM:   4    -0.192565569062E+03    0.37361E-03   -0.64468E-04  3678   0.430E-02    0.187E-01
RMM:   5    -0.192565336350E+03    0.23271E-03   -0.20166E-04  3692   0.230E-02    0.137E-01
RMM:   6    -0.192565292535E+03    0.43815E-04   -0.53138E-04  3681   0.357E-02    0.149E-01
RMM:   7    -0.192565154074E+03    0.13846E-03   -0.93239E-04  3682   0.472E-02    0.803E-02
RMM:   8    -0.192565139065E+03    0.15010E-04   -0.19928E-04  3680   0.223E-02    0.486E-02
RMM:   9    -0.192565120546E+03    0.18518E-04   -0.30328E-05  3677   0.897E-03    0.327E-02
RMM:  10    -0.192565104697E+03    0.15850E-04   -0.23867E-05  3676   0.747E-03    0.205E-02
RMM:  11    -0.192565099818E+03    0.48788E-05   -0.13204E-05  3672   0.547E-03    0.118E-02
RMM:  12    -0.192565098698E+03    0.11193E-05   -0.12477E-05  3673   0.523E-03    0.668E-03
RMM:  13    -0.192565098611E+03    0.87348E-07   -0.16852E-06  2028   0.217E-03
  12 F= -.19256510E+03 E0= -.19244055E+03  d E =-.434677E-02
       N       E                     dE             d eps       ncg     rms          rms(c)
DAV:   1    -0.192563671203E+03    0.14275E-02   -0.20959E+00  3732   0.223E+00    0.120E-01
RMM:   2    -0.192566055886E+03   -0.23847E-02   -0.23669E-02  3680   0.330E-01    0.159E-01
RMM:   3    -0.192565989035E+03    0.66851E-04   -0.16230E-03  3730   0.706E-02    0.126E-01
RMM:   4    -0.192565881514E+03    0.10752E-03   -0.18976E-04  3678   0.233E-02    0.102E-01
RMM:   5    -0.192565815550E+03    0.65963E-04   -0.58655E-05  3691   0.124E-02    0.743E-02
RMM:   6    -0.192565809377E+03    0.61734E-05   -0.15982E-04  3681   0.196E-02    0.814E-02
RMM:   7    -0.192565773152E+03    0.36225E-04   -0.27837E-04  3682   0.258E-02    0.441E-02
RMM:   8    -0.192565769856E+03    0.32962E-05   -0.59914E-05  3680   0.122E-02    0.267E-02
RMM:   9    -0.192565764387E+03    0.54686E-05   -0.89956E-06  3290   0.492E-03    0.179E-02
RMM:  10    -0.192565759670E+03    0.47173E-05   -0.71139E-06  3599   0.411E-03    0.112E-02
RMM:  11    -0.192565758238E+03    0.14314E-05   -0.37333E-06  2594   0.303E-03    0.665E-03
RMM:  12    -0.192565757941E+03    0.29769E-06   -0.39682E-06  2597   0.324E-03
  13 F= -.19256576E+03 E0= -.19244099E+03  d E =-.500609E-02
       N       E                     dE             d eps       ncg     rms          rms(c)
DAV:   1    -0.192561995805E+03    0.37624E-02   -0.62151E+00  3672   0.385E+00    0.201E-01
RMM:   2    -0.192569290416E+03   -0.72946E-02   -0.71125E-02  3680   0.569E-01    0.293E-01
RMM:   3    -0.192568848932E+03    0.44148E-03   -0.48885E-03  3723   0.122E-01    0.189E-01
RMM:   4    -0.192568527886E+03    0.32105E-03   -0.44729E-04  3678   0.376E-02    0.130E-01
RMM:   5    -0.192568483728E+03    0.44159E-04   -0.15720E-04  3685   0.205E-02    0.129E-01
RMM:   6    -0.192568614954E+03   -0.13123E-03   -0.47443E-04  3679   0.329E-02    0.195E-01
RMM:   7    -0.192568307302E+03    0.30765E-03   -0.81412E-04  3684   0.436E-02    0.685E-02
RMM:   8    -0.192568314544E+03   -0.72423E-05   -0.15695E-04  3678   0.197E-02    0.453E-02
RMM:   9    -0.192568298390E+03    0.16154E-04   -0.22649E-05  3676   0.778E-03    0.302E-02
RMM:  10    -0.192568287961E+03    0.10429E-04   -0.14293E-05  3672   0.583E-03    0.210E-02
RMM:  11    -0.192568281925E+03    0.60365E-05   -0.14684E-05  3672   0.579E-03    0.109E-02
RMM:  12    -0.192568281049E+03    0.87571E-06   -0.11277E-05  3672   0.495E-03    0.524E-03
RMM:  13    -0.192568281113E+03   -0.63475E-07   -0.16838E-06  2012   0.214E-03
  14 F= -.19256828E+03 E0= -.19244325E+03  d E =-.252317E-02
       N       E                     dE             d eps       ncg     rms          rms(c)
DAV:   1    -0.192567992074E+03    0.28898E-03   -0.44707E-01  3744   0.103E+00    0.537E-02
RMM:   2    -0.192568510799E+03   -0.51873E-03   -0.51055E-03  3680   0.152E-01    0.803E-02
RMM:   3    -0.192568471438E+03    0.39361E-04   -0.35138E-04  3723   0.326E-02    0.504E-02
RMM:   4    -0.192568451522E+03    0.19916E-04   -0.31486E-05  3679   0.996E-03    0.358E-02
RMM:   5    -0.192568450014E+03    0.15083E-05   -0.10558E-05  3643   0.531E-03    0.357E-02
RMM:   6    -0.192568458489E+03   -0.84753E-05   -0.31115E-05  3677   0.848E-03    0.493E-02
RMM:   7    -0.192568442987E+03    0.15503E-04   -0.64909E-05  3676   0.124E-02    0.182E-02
RMM:   8    -0.192568444220E+03   -0.12332E-05   -0.11911E-05  3646   0.543E-03    0.123E-02
RMM:   9    -0.192568443096E+03    0.11239E-05   -0.15305E-06  2060   0.213E-03    0.819E-03
RMM:  10    -0.192568442324E+03    0.77250E-06   -0.99796E-07  1948   0.175E-03
  15 F= -.19256844E+03 E0= -.19244334E+03  d E =-.268438E-02
       N       E                     dE             d eps       ncg     rms          rms(c)
DAV:   1    -0.192565550866E+03    0.28922E-02   -0.49427E+00  3672   0.342E+00    0.182E-01
RMM:   2    -0.192571746796E+03   -0.61959E-02   -0.58499E-02  3680   0.509E-01    0.307E-01
RMM:   3    -0.192571121600E+03    0.62520E-03   -0.42399E-03  3723   0.112E-01    0.157E-01
RMM:   4    -0.192570959481E+03    0.16212E-03   -0.36492E-04  3679   0.334E-02    0.133E-01
RMM:   5    -0.192570934505E+03    0.24976E-04   -0.15427E-04  3687   0.199E-02    0.139E-01
RMM:   6    -0.192570932823E+03    0.16820E-05   -0.31311E-04  3679   0.270E-02    0.159E-01
RMM:   7    -0.192570752414E+03    0.18041E-03   -0.90542E-04  3679   0.458E-02    0.595E-02
RMM:   8    -0.192570755373E+03   -0.29583E-05   -0.12693E-04  3677   0.175E-02    0.406E-02
RMM:   9    -0.192570744226E+03    0.11146E-04   -0.13315E-05  3663   0.606E-03    0.304E-02
RMM:  10    -0.192570734744E+03    0.94820E-05   -0.93939E-06  3535   0.477E-03    0.224E-02
RMM:  11    -0.192570725679E+03    0.90653E-05   -0.22998E-05  3674   0.712E-03    0.985E-03
RMM:  12    -0.192570724845E+03    0.83416E-06   -0.97461E-06  3613   0.458E-03
  16 F= -.19257072E+03 E0= -.19244538E+03  d E =-.228252E-02
       N       E                     dE             d eps       ncg     rms          rms(c)
DAV:   1    -0.192569757549E+03    0.96813E-03   -0.14379E+00  3672   0.184E+00    0.974E-02
RMM:   2    -0.192571549566E+03   -0.17920E-02   -0.16951E-02  3680   0.274E-01    0.168E-01
RMM:   3    -0.192571348809E+03    0.20076E-03   -0.12241E-03  3723   0.604E-02    0.844E-02
RMM:   4    -0.192571304968E+03    0.43841E-04   -0.10065E-04  3679   0.177E-02    0.705E-02
RMM:   5    -0.192571303462E+03    0.15059E-05   -0.45386E-05  3687   0.108E-02    0.760E-02
RMM:   6    -0.192571316388E+03   -0.12927E-04   -0.10065E-04  3679   0.152E-02    0.928E-02
RMM:   7    -0.192571258935E+03    0.57453E-04   -0.26912E-04  3679   0.250E-02    0.326E-02
RMM:   8    -0.192571261162E+03   -0.22271E-05   -0.37250E-05  3673   0.951E-03    0.224E-02
RMM:   9    -0.192571257786E+03    0.33767E-05   -0.38715E-06  2750   0.332E-03    0.168E-02
RMM:  10    -0.192571254857E+03    0.29285E-05   -0.28031E-06  2342   0.279E-03    0.125E-02
RMM:  11    -0.192571252138E+03    0.27190E-05   -0.73612E-06  3421   0.420E-03    0.558E-03
RMM:  12    -0.192571251868E+03    0.27003E-06   -0.28220E-06  2184   0.269E-03
  17 F= -.19257125E+03 E0= -.19244578E+03  d E =-.280954E-02
       N       E                     dE             d eps       ncg     rms          rms(c)
DAV:   1    -0.192567312375E+03    0.39398E-02   -0.55547E+00  3672   0.363E+00    0.189E-01
RMM:   2    -0.192574071648E+03   -0.67593E-02   -0.65113E-02  3680   0.539E-01    0.287E-01
RMM:   3    -0.192573619985E+03    0.45166E-03   -0.45966E-03  3723   0.117E-01    0.182E-01
RMM:   4    -0.192573449609E+03    0.17038E-03   -0.45231E-04  3676   0.361E-02    0.159E-01
RMM:   5    -0.192573299803E+03    0.14981E-03   -0.16566E-04  3690   0.209E-02    0.132E-01
RMM:   6    -0.192573297920E+03    0.18827E-05   -0.35916E-04  3681   0.293E-02    0.151E-01
RMM:   7    -0.192573129083E+03    0.16884E-03   -0.10071E-03  3678   0.484E-02    0.545E-02
RMM:   8    -0.192573142819E+03   -0.13735E-04   -0.12828E-04  3678   0.177E-02    0.438E-02
RMM:   9    -0.192573127531E+03    0.15287E-04   -0.14500E-05  3671   0.638E-03    0.307E-02
RMM:  10    -0.192573118069E+03    0.94621E-05   -0.10114E-05  3621   0.497E-03    0.231E-02
RMM:  11    -0.192573108926E+03    0.91430E-05   -0.27864E-05  3675   0.781E-03    0.101E-02
RMM:  12    -0.192573108261E+03    0.66501E-06   -0.72887E-06  3360   0.403E-03
  18 F= -.19257311E+03 E0= -.19244746E+03  d E =-.185639E-02
       N       E                     dE             d eps       ncg     rms          rms(c)
DAV:   1    -0.192573018637E+03    0.90289E-04   -0.15802E-01  3744   0.612E-01    0.318E-02
RMM:   2    -0.192573210232E+03   -0.19159E-03   -0.18485E-03  3679   0.910E-02    0.512E-02
RMM:   3    -0.192573190253E+03    0.19979E-04   -0.13135E-04  3726   0.198E-02    0.295E-02
RMM:   4    -0.192573186127E+03    0.41260E-05   -0.11414E-05  3643   0.583E-03    0.253E-02
RMM:   5    -0.192573184171E+03    0.19553E-05   -0.40763E-06  2692   0.334E-03    0.236E-02
RMM:   6    -0.192573185594E+03   -0.14224E-05   -0.10497E-05  3584   0.511E-03    0.263E-02
RMM:   7    -0.192573183218E+03    0.23754E-05   -0.32417E-05  3677   0.870E-03    0.974E-03
RMM:   8    -0.192573183607E+03   -0.38910E-06   -0.37245E-06  2645   0.311E-03
  19 F= -.19257318E+03 E0= -.19244750E+03  d E =-.193174E-02
       N       E                     dE             d eps       ncg     rms          rms(c)
DAV:   1    -0.192569405243E+03    0.37780E-02   -0.47843E+00  3672   0.336E+00    0.173E-01
RMM:   2    -0.192575071298E+03   -0.56661E-02   -0.56383E-02  3679   0.500E-01    0.226E-01
RMM:   3    -0.192574836963E+03    0.23433E-03   -0.38859E-03  3723   0.108E-01    0.155E-01
RMM:   4    -0.192574647730E+03    0.18923E-03   -0.34577E-04  3677   0.327E-02    0.117E-01
RMM:   5    -0.192574619237E+03    0.28493E-04   -0.10715E-04  3689   0.166E-02    0.118E-01
RMM:   6    -0.192574601634E+03    0.17603E-04   -0.30825E-04  3680   0.270E-02    0.136E-01
RMM:   7    -0.192574478134E+03    0.12350E-03   -0.68164E-04  3682   0.398E-02    0.490E-02
RMM:   8    -0.192574492924E+03   -0.14790E-04   -0.10536E-04  3680   0.160E-02    0.393E-02
RMM:   9    -0.192574479857E+03    0.13066E-04   -0.13319E-05  3668   0.608E-03    0.263E-02
RMM:  10    -0.192574473340E+03    0.65176E-05   -0.82306E-06  3427   0.449E-03    0.198E-02
RMM:  11    -0.192574468189E+03    0.51505E-05   -0.14198E-05  3672   0.563E-03    0.102E-02
RMM:  12    -0.192574467320E+03    0.86884E-06   -0.63419E-06  3141   0.378E-03
  20 F= -.19257447E+03 E0= -.19244871E+03  d E =-.128371E-02
       N       E                     dE             d eps       ncg     rms          rms(c)
DAV:   1    -0.192574117762E+03    0.35043E-03   -0.43758E-01  3672   0.102E+00    0.519E-02
RMM:   2    -0.192574633108E+03   -0.51535E-03   -0.51430E-03  3679   0.151E-01    0.720E-02
RMM:   3    -0.192574600122E+03    0.32986E-04   -0.35519E-04  3727   0.325E-02    0.470E-02
RMM:   4    -0.192574586632E+03    0.13489E-04   -0.30516E-05  3673   0.968E-03    0.375E-02
RMM:   5    -0.192574582960E+03    0.36719E-05   -0.90706E-06  3457   0.489E-03    0.356E-02
RMM:   6    -0.192574585717E+03   -0.27563E-05   -0.28689E-05  3672   0.828E-03    0.419E-02
RMM:   7    -0.192574578010E+03    0.77065E-05   -0.71993E-05  3674   0.129E-02    0.149E-02
RMM:   8    -0.192574579588E+03   -0.15783E-05   -0.10246E-05  3510   0.501E-03    0.120E-02
RMM:   9    -0.192574578340E+03    0.12481E-05   -0.11984E-06  1994   0.193E-03    0.836E-03
RMM:  10    -0.192574577721E+03    0.61921E-06   -0.78782E-07  1936   0.157E-03
  21 F= -.19257458E+03 E0= -.19244880E+03  d E =-.139411E-02
       N       E                     dE             d eps       ncg     rms          rms(c)
DAV:   1    -0.192571410937E+03    0.31674E-02   -0.35530E+00  3672   0.291E+00    0.150E-01
RMM:   2    -0.192575556450E+03   -0.41455E-02   -0.41189E-02  3681   0.431E-01    0.198E-01
RMM:   3    -0.192575379231E+03    0.17722E-03   -0.27964E-03  3729   0.921E-02    0.133E-01
RMM:   4    -0.192575226478E+03    0.15275E-03   -0.25320E-04  3676   0.284E-02    0.986E-02
RMM:   5    -0.192575201070E+03    0.25408E-04   -0.10263E-04  3687   0.169E-02    0.987E-02
RMM:   6    -0.192575316551E+03   -0.11548E-03   -0.48350E-04  3681   0.333E-02    0.143E-01
RMM:   7    -0.192575124860E+03    0.19169E-03   -0.29977E-04  3682   0.258E-02    0.524E-02
RMM:   8    -0.192575124610E+03    0.24965E-06   -0.61176E-05  3681   0.123E-02    0.334E-02
RMM:   9    -0.192575115366E+03    0.92441E-05   -0.94844E-06  3579   0.507E-03    0.225E-02
RMM:  10    -0.192575110149E+03    0.52173E-05   -0.70131E-06  3310   0.415E-03    0.168E-02
RMM:  11    -0.192575105645E+03    0.45037E-05   -0.13813E-05  3673   0.558E-03    0.769E-03
RMM:  12    -0.192575105128E+03    0.51779E-06   -0.34770E-06  2549   0.290E-03
  22 F= -.19257511E+03 E0= -.19244935E+03  d E =-.527406E-03
       N       E                     dE             d eps       ncg     rms          rms(c)
DAV:   1    -0.192574973223E+03    0.13242E-03   -0.16184E-01  3696   0.621E-01    0.323E-02
RMM:   2    -0.192575160031E+03   -0.18681E-03   -0.18757E-03  3681   0.918E-02    0.429E-02
RMM:   3    -0.192575150615E+03    0.94163E-05   -0.12886E-04  3722   0.197E-02    0.293E-02
RMM:   4    -0.192575144346E+03    0.62690E-05   -0.12126E-05  3652   0.618E-03    0.219E-02
RMM:   5    -0.192575144119E+03    0.22685E-06   -0.44014E-06  2754   0.353E-03
  23 F= -.19257514E+03 E0= -.19244934E+03  d E =-.566398E-03
