 vasp.5.4.1 24Jun15 (build Mar 14 2019 10:18:33) complex                        
  
 executed on INTEL-19.0.2+OPENMPI date 2022.07.11  20:35:41
 running on   36 total cores
 distrk:  each k-point on   36 cores,    1 groups
 distr:  one band on NCORES_PER_BAND=   6 cores,    6 groups


--------------------------------------------------------------------------------------------------------


 INCAR:
 POTCAR:    PAW_PBE Au 04Oct2007                  
 POTCAR:    PAW_PBE Pd 04Jan2005                  
 POTCAR:    PAW_PBE Au 04Oct2007                  
  local pseudopotential read in
  partial core-charges read in
  partial kinetic energy density read in
  atomic valenz-charges read in
  non local Contribution for L=           2  read in
    real space projection operators read in
  non local Contribution for L=           2  read in
    real space projection operators read in
  non local Contribution for L=           0  read in
    real space projection operators read in
  non local Contribution for L=           0  read in
    real space projection operators read in
  non local Contribution for L=           1  read in
    real space projection operators read in
  non local Contribution for L=           1  read in
    real space projection operators read in
    PAW grid and wavefunctions read in
 
   number of l-projection  operators is LMAX  =           6
   number of lm-projection operators is LMMAX =          18
 
 POTCAR:    PAW_PBE Pd 04Jan2005                  
  local pseudopotential read in
  partial core-charges read in
  partial kinetic energy density read in
  atomic valenz-charges read in
  non local Contribution for L=           2  read in
    real space projection operators read in
  non local Contribution for L=           2  read in
    real space projection operators read in
  non local Contribution for L=           0  read in
    real space projection operators read in
  non local Contribution for L=           0  read in
    real space projection operators read in
  non local Contribution for L=           1  read in
    real space projection operators read in
  non local Contribution for L=           1  read in
    real space projection operators read in
    PAW grid and wavefunctions read in
 
   number of l-projection  operators is LMAX  =           6
   number of lm-projection operators is LMMAX =          18
 
 Optimization of the real space projectors (new method)

 maximal supplied QI-value         = 15.12
 optimisation between [QCUT,QGAM] = [ 10.13, 20.41] = [ 28.73,116.64] Ry 
 Optimized for a Real-space Cutoff    1.51 Angstroem

   l    n(q)    QCUT    max X(q) W(low)/X(q) W(high)/X(q)  e(spline) 
   2      8    10.129    60.898    0.46E-03    0.46E-03    0.14E-06
   2      8    10.129    58.894    0.47E-03    0.47E-03    0.14E-06
   0      9    10.129   109.617    0.16E-03    0.11E-03    0.54E-07
   0      9    10.129    75.026    0.15E-03    0.11E-03    0.52E-07
   1      9    10.129    16.344    0.96E-04    0.15E-03    0.14E-06
   1      9    10.129    10.160    0.81E-04    0.12E-03    0.11E-06
 Optimization of the real space projectors (new method)

 maximal supplied QI-value         = 14.36
 optimisation between [QCUT,QGAM] = [ 10.20, 20.39] = [ 29.12,116.47] Ry 
 Optimized for a Real-space Cutoff    1.51 Angstroem

   l    n(q)    QCUT    max X(q) W(low)/X(q) W(high)/X(q)  e(spline) 
   2      8    10.197    59.108    0.26E-03    0.14E-03    0.96E-07
   2      8    10.197    58.101    0.27E-03    0.14E-03    0.98E-07
   0      9    10.197   102.235    0.54E-04    0.60E-05    0.72E-07
   0      9    10.197    58.388    0.52E-04    0.60E-05    0.68E-07
   1      9    10.197    22.191    0.18E-03    0.25E-03    0.79E-07
   1      9    10.197    15.590    0.15E-03    0.21E-03    0.69E-07
  PAW_PBE Au 04Oct2007                  :
 energy of atom  1       EATOM= -926.0867
 kinetic energy error for atom=    0.0062 (will be added to EATOM!!)
  PAW_PBE Pd 04Jan2005                  :
 energy of atom  2       EATOM= -809.7530
 kinetic energy error for atom=    0.0091 (will be added to EATOM!!)
 
 
 POSCAR: Au Pd                                   
  positions in cartesian coordinates
  No initial velocities read in
 exchange correlation table for  LEXCH =        8
   RHO(1)=    0.500       N(1)  =     2000
   RHO(2)=  100.500       N(2)  =     4000

 VTST: version 3.2, (02/03/18)

 CHAIN: initializing optimizer
 
 OPT: Using VASP Conjugate-Gradient optimizer
 CHAIN: Read ICHAIN            0
 
 POSCAR: Au Pd                                   
  positions in cartesian coordinates
  No initial velocities read in
 


--------------------------------------------------------------------------------------------------------


 ion  position               nearest neighbor table
   1  0.083  0.083  0.408-  18 2.75  11 2.75  24 2.75  26 2.75  33 2.75  28 2.75  19 2.75  43 2.75
                            23 2.75
   2  0.833  0.583  0.408-  22 2.75  26 2.75  32 2.75  33 2.75  36 2.75  21 2.75   7 2.75  25 2.75
                            30 2.75
   3  0.667  0.417  0.500-  10 2.75  29 2.75   6 2.75  23 2.75   5 2.75  30 2.75  48 2.75  25 2.75
                             9 2.75   7 2.75  33 2.75  31 2.75
   4  0.750  0.000  0.592-   5 2.75  44 2.75  17 2.75  29 2.75   8 2.75  46 2.75  27 2.75  39 2.75
                            42 2.75
   5  0.667  0.167  0.500-  41 2.75   4 2.75   8 2.75   9 2.75   3 2.75  42 2.75  44 2.75  40 2.75
                            23 2.75  10 2.75  28 2.75  29 2.75
   6  0.500  0.500  0.592-  48 2.75   3 2.75  16 2.75  29 2.75  34 2.75   8 2.75  45 2.75  31 2.75
                             9 2.75
   7  0.583  0.583  0.408-  30 2.75  11 2.75  10 2.75  33 2.75  36 2.75  13 2.75   2 2.75   3 2.75
                            48 2.75
   8  0.500  0.250  0.592-   9 2.75   5 2.75   6 2.75   4 2.75  39 2.75  45 2.75  14 2.75  29 2.75
                            40 2.75
   9  0.417  0.417  0.500-  15 2.75   8 2.75  45 2.75   5 2.75  40 2.75  12 2.75  48 2.75  35 2.75
                             3 2.75  13 2.75  10 2.75   6 2.75
  10  0.583  0.333  0.408-   3 2.75   7 2.75  13 2.75  28 2.75  41 2.75  33 2.75  15 2.75   5 2.75
                             9 2.75
  11  0.333  0.833  0.408-  47 2.75   7 2.75  13 2.75  19 2.75   1 2.75  36 2.75  24 2.75  48 2.75
                            43 2.75
  12  0.167  0.667  0.500-  21 2.75  45 2.75  46 2.75  43 2.75  44 2.75   9 2.75  35 2.75  22 2.75
                            48 2.75  24 2.75  16 2.75  13 2.75
  13  0.333  0.583  0.408-  48 2.75  11 2.75  15 2.75  24 2.75  10 2.75   7 2.75  21 2.75   9 2.75
                            12 2.75
  14  0.250  0.250  0.592-  35 2.75  40 2.75  38 2.75  39 2.75  20 2.75  45 2.75   8 2.75  37 2.75
                            18 2.75
  15  0.333  0.333  0.408-   9 2.75  13 2.75  19 2.75  21 2.75  41 2.75  26 2.75  10 2.75  40 2.75
                            35 2.75
  16  0.250  0.750  0.592-  43 2.75  48 2.75  27 2.75   6 2.75  45 2.75  20 2.75  46 2.75  34 2.75
                            12 2.75
  17  0.750  0.750  0.592-  42 2.75  22 2.75  31 2.75  38 2.75  39 2.75   4 2.75  34 2.75  46 2.75
                            30 2.75
  18  0.167  0.167  0.500-   1 2.75  20 2.75  37 2.75  35 2.75  25 2.75  43 2.75  47 2.75  23 2.75
                            40 2.75  26 2.75  19 2.75  14 2.75
  19  0.333  0.083  0.408-  40 2.75  15 2.75  26 2.75  36 2.75  11 2.75   1 2.75  41 2.75  47 2.75
                            18 2.75
  20  0.250  0.000  0.592-  18 2.75  47 2.75  14 2.75  34 2.75  37 2.75  16 2.75  39 2.75  27 2.75
                            43 2.75
  21  0.083  0.583  0.408-  12 2.75  15 2.75  24 2.75  26 2.75  32 2.75   2 2.75  13 2.75  35 2.75
                            22 2.75
  22  0.917  0.667  0.500-   2 2.75  38 2.75  17 2.75  35 2.75  25 2.75  42 2.75  44 2.75  12 2.75
                            30 2.75  32 2.75  21 2.75  46 2.75
  23  0.917  0.167  0.500-  28 2.75  27 2.75  29 2.75  25 2.75   3 2.75  43 2.75  44 2.75   5 2.75
                            18 2.75  33 2.75   1 2.75  37 2.75
  24  0.083  0.833  0.408-  43 2.75  13 2.75  21 2.75  28 2.75   1 2.75  32 2.75  11 2.75  12 2.75
                            44 2.75
  25  0.917  0.417  0.500-  33 2.75  37 2.75  31 2.75  30 2.75  18 2.75  22 2.75  23 2.75  35 2.75
                             3 2.75   2 2.75  26 2.75  38 2.75
  26  0.083  0.333  0.408-  35 2.75   2 2.75  19 2.75  21 2.75   1 2.75  33 2.75  15 2.75  18 2.75
                            25 2.75
  27  0.000  0.000  0.592-  23 2.75  43 2.75  29 2.75  37 2.75  16 2.75  46 2.75  20 2.75   4 2.75
                            44 2.75
  28  0.833  0.083  0.408-  23 2.75  10 2.75  24 2.75  32 2.75  33 2.75   1 2.75  41 2.75  44 2.75
                             5 2.75
  29  0.750  0.250  0.592-   3 2.75  23 2.75   6 2.75   4 2.75  27 2.75  31 2.75   8 2.75  37 2.75
                             5 2.75
  30  0.667  0.667  0.500-   7 2.75  31 2.75  34 2.75   3 2.75  25 2.75  42 2.75  47 2.75  22 2.75
                            48 2.75  36 2.75   2 2.75  17 2.75
  31  0.750  0.500  0.592-  30 2.75  25 2.75  29 2.75  17 2.75  34 2.75  37 2.75   6 2.75  38 2.75
                             3 2.75
  32  0.833  0.833  0.408-  44 2.75  21 2.75  28 2.75  41 2.75   2 2.75  24 2.75  36 2.75  22 2.75
                            42 2.75
  33  0.833  0.333  0.408-  25 2.75   2 2.75   7 2.75   1 2.75  28 2.75  26 2.75  10 2.75  23 2.75
                             3 2.75
  34  0.500  0.750  0.592-  47 2.75  30 2.75   6 2.75  31 2.75  39 2.75  20 2.75  17 2.75  16 2.75
                            48 2.75
  35  0.167  0.417  0.500-  26 2.75  14 2.75  38 2.75  22 2.75  12 2.75  18 2.75  40 2.75  25 2.75
                             9 2.75  21 2.75  15 2.75  45 2.75
  36  0.583  0.833  0.408-  42 2.75   7 2.75  19 2.75  41 2.75   2 2.75  11 2.75  32 2.75  30 2.75
                            47 2.75
  37  0.000  0.250  0.592-  25 2.75  18 2.75  20 2.75  27 2.75  31 2.75  38 2.75  14 2.75  29 2.75
                            23 2.75
  38  0.000  0.500  0.592-  22 2.75  35 2.75  14 2.75  17 2.75  37 2.75  46 2.75  45 2.75  31 2.75
                            25 2.75
  39  0.500  0.000  0.592-  40 2.75  42 2.75  17 2.75  34 2.75   8 2.75  14 2.75  20 2.75   4 2.75
                            47 2.75
  40  0.417  0.167  0.500-  19 2.75  39 2.75  14 2.75  35 2.75   9 2.75  42 2.75  47 2.75  18 2.75
                             5 2.75  15 2.75   8 2.75  41 2.75
  41  0.583  0.083  0.408-   5 2.75  10 2.75  15 2.75  32 2.75  36 2.75  19 2.75  28 2.75  42 2.75
                            40 2.75
  42  0.667  0.917  0.500-  36 2.75  17 2.75  39 2.75  30 2.75   5 2.75  22 2.75  40 2.75  44 2.75
                            47 2.75  41 2.75   4 2.75  32 2.75
  43  0.167  0.917  0.500-  24 2.75  16 2.75  27 2.75  23 2.75  12 2.75  18 2.75  48 2.75  47 2.75
                            44 2.75   1 2.75  11 2.75  20 2.75
  44  0.917  0.917  0.500-  32 2.75  46 2.75   4 2.75  22 2.75  23 2.75   5 2.75  12 2.75  43 2.75
                            42 2.75  28 2.75  27 2.75  24 2.75
  45  0.250  0.500  0.592-  12 2.75   9 2.75   8 2.75  14 2.75  16 2.75  46 2.75  38 2.75   6 2.75
                            35 2.75
  46  0.000  0.750  0.592-  44 2.75  12 2.75  27 2.75  38 2.75   4 2.75  45 2.75  16 2.75  17 2.75
                            22 2.75
  47  0.417  0.917  0.500-  11 2.75  34 2.75  20 2.75  30 2.75  18 2.75  40 2.75  48 2.75  43 2.75
                            42 2.75  19 2.75  36 2.75  39 2.75
  48  0.417  0.667  0.500-  13 2.75   6 2.75  16 2.75   3 2.75   9 2.75  43 2.75  47 2.75  12 2.75
                            30 2.75  11 2.75   7 2.75  34 2.75
 
  LATTYP: Found a hexagonal cell.
 ALAT       =    11.0025815153
 C/A-ratio  =     2.2260035120
  
  Lattice vectors:
  
 A1 = (   5.5012907576,  -9.5285150994,   0.0000000000)
 A2 = ( -11.0025815153,   0.0000000000,   0.0000000000)
 A3 = (   0.0000000000,   0.0000000000, -24.4917850943)


Analysis of symmetry for initial positions (statically):
=====================================================================
 Subroutine PRICEL returns:
 Original cell was already a primitive cell.
 

 Routine SETGRP: Setting up the symmetry group for a 
 hexagonal supercell.


 Subroutine GETGRP returns: Found  1 space group operations
 (whereof  1 operations were pure point group operations)
 out of a pool of 24 trial point group operations.


The static configuration has the point symmetry C_1 .


Analysis of symmetry for dynamics (positions and initial velocities):
=====================================================================
 Subroutine PRICEL returns:
 Original cell was already a primitive cell.
 

 Routine SETGRP: Setting up the symmetry group for a 
 hexagonal supercell.


 Subroutine GETGRP returns: Found  1 space group operations
 (whereof  1 operations were pure point group operations)
 out of a pool of 24 trial point group operations.


The dynamic configuration has the point symmetry C_1 .
 
 
 KPOINTS: Automatic mesh                          

Automatic generation of k-mesh.
Space group operators:
 irot       det(A)        alpha          n_x          n_y          n_z        tau_x        tau_y        tau_z
    1     1.000000     0.000000     1.000000     0.000000     0.000000     0.000000     0.000000     0.000000
 
 Subroutine IBZKPT returns following result:
 ===========================================
 
 Found      6 irreducible k-points:
 
 Following reciprocal coordinates:
            Coordinates               Weight
  0.250000  0.250000  0.000000     16.000000
  0.000000  0.250000  0.000000     16.000000
 -0.250000  0.000000  0.000000     16.000000
 -0.250000  0.250000  0.000000     16.000000
  0.500000 -0.250000  0.000000     16.000000
 -0.250000  0.500000  0.000000     16.000000
 
 Following cartesian coordinates:
            Coordinates               Weight
  0.022722  0.013119  0.000000     16.000000
  0.000000  0.026237  0.000000     16.000000
 -0.022722  0.013119  0.000000     16.000000
 -0.022722  0.039356  0.000000     16.000000
  0.045444 -0.052474  0.000000     16.000000
 -0.022722  0.065593  0.000000     16.000000
 


--------------------------------------------------------------------------------------------------------




 Dimension of arrays:
   k-points           NKPTS =      6   k-points in BZ     NKDIM =      6   number of bands    NBANDS=    306
   number of dos      NEDOS =    301   number of ions     NIONS =     48
   non local maximal  LDIM  =      6   non local SUM 2l+1 LMDIM =     18
   total plane-waves  NPLWV = 349920
   max r-space proj   IRMAX =   2009   max aug-charges    IRDMAX=   8532
   dimension x,y,z NGX =    54 NGY =   54 NGZ =  120
   dimension x,y,z NGXF=   108 NGYF=  108 NGZF=  240
   support grid    NGXF=   108 NGYF=  108 NGZF=  240
   ions per type =              24  24
 NGX,Y,Z   is equivalent  to a cutoff of   8.16,  8.16,  8.15 a.u.
 NGXF,Y,Z  is equivalent  to a cutoff of  16.32, 16.32, 16.29 a.u.


 I would recommend the setting:
   dimension x,y,z NGX =    54 NGY =   54 NGZ =  120
 SYSTEM =  unknown system                          
 POSCAR =  Au Pd                                   

 Startparameter for this run:
   NWRITE =      1    write-flag & timer
   PREC   = normal    normal or accurate (medium, high low for compatibility)
   ISTART =      0    job   : 0-new  1-cont  2-samecut
   ICHARG =      2    charge: 1-file 2-atom 10-const
   ISPIN  =      1    spin polarized calculation?
   LNONCOLLINEAR =      F non collinear calculations
   LSORBIT =      F    spin-orbit coupling
   INIWAV =      1    electr: 0-lowe 1-rand  2-diag
   LASPH  =      F    aspherical Exc in radial PAW
   METAGGA=      F    non-selfconsistent MetaGGA calc.

 Electronic Relaxation 1
   ENCUT  =  400.0 eV  29.40 Ry    5.42 a.u.  17.94 17.94 39.94*2*pi/ulx,y,z
   ENINI  =  400.0     initial cutoff
   ENAUG  =  416.2 eV  augmentation charge cutoff
   NELM   =    500;   NELMIN=  2; NELMDL= -5     # of ELM steps 
   EDIFF  = 0.1E-05   stopping-criterion for ELM
   LREAL  =      T    real-space projection
   NLSPLINE    = F    spline interpolate recip. space projectors
   LCOMPAT=      F    compatible to vasp.4.4
   GGA_COMPAT  = T    GGA compatible to vasp.4.4-vasp.4.6
   LMAXPAW     = -100 max onsite density
   LMAXMIX     =    2 max onsite mixed and CHGCAR
   VOSKOWN=      1    Vosko Wilk Nusair interpolation
   ROPT   =   -0.00050  -0.00050
 Ionic relaxation
   EDIFFG = -.2E-01   stopping-criterion for IOM
   NSW    =    500    number of steps for IOM
   NBLOCK =      1;   KBLOCK =    500    inner block; outer block 
   IBRION =      2    ionic relax: 0-MD 1-quasi-New 2-CG
   NFREE  =      2    steps in history (QN), initial steepest desc. (CG)
   ISIF   =      0    stress and relaxation
   IWAVPR =     11    prediction:  0-non 1-charg 2-wave 3-comb
   ISYM   =      2    0-nonsym 1-usesym 2-fastsym
   LCORR  =      T    Harris-Foulkes like correction to forces

   POTIM  = 0.3500    time-step for ionic-motion
   TEIN   =    0.0    initial temperature
   TEBEG  =    0.0;   TEEND  =   0.0 temperature during run
   SMASS  =  -3.00    Nose mass-parameter (am)
   estimated Nose-frequenzy (Omega)   =  0.10E-29 period in steps =****** mass=  -0.277E-26a.u.
   SCALEE = 1.0000    scale energy and forces
   NPACO  =    256;   APACO  = 16.0  distance and # of slots for P.C.
   PSTRESS=    0.0 pullay stress

  Mass of Ions in am
   POMASS = 196.97106.42
  Ionic Valenz
   ZVAL   =  11.00 10.00
  Atomic Wigner-Seitz radii
   RWIGS  =  -1.00 -1.00
  virtual crystal weights 
   VCA    =   1.00  1.00
   NELECT =     504.0000    total number of electrons
   NUPDOWN=      -1.0000    fix difference up-down

 DOS related values:
   EMIN   =  10.00;   EMAX   =-10.00  energy-range for DOS
   EFERMI =   0.00
   ISMEAR =     0;   SIGMA  =   0.10  broadening in eV -4-tet -1-fermi 0-gaus

 Electronic relaxation 2 (details)
   IALGO  =     68    algorithm
   LDIAG  =      T    sub-space diagonalisation (order eigenvalues)
   LSUBROT=      F    optimize rotation matrix (better conditioning)
   TURBO    =      0    0=normal 1=particle mesh
   IRESTART =      0    0=no restart 2=restart with 2 vectors
   NREBOOT  =      0    no. of reboots
   NMIN     =      0    reboot dimension
   EREF     =   0.00    reference energy to select bands
   IMIX   =      4    mixing-type and parameters
     AMIX     =   0.40;   BMIX     =  1.00
     AMIX_MAG =   1.60;   BMIX_MAG =  1.00
     AMIN     =   0.10
     WC   =   100.;   INIMIX=   1;  MIXPRE=   1;  MAXMIX= -45

 Intra band minimization:
   WEIMIN = 0.0010     energy-eigenvalue tresh-hold
   EBREAK =  0.82E-09  absolut break condition
   DEPER  =   0.30     relativ break condition  

   TIME   =   0.40     timestep for ELM

  volume/ion in A,a.u.               =      53.49       360.99
  Fermi-wavevector in a.u.,A,eV,Ry     =   0.951418  1.797920 12.315955  0.905197
  Thomas-Fermi vector in A             =   2.079887
 
 Write flags
   LWAVE  =      F    write WAVECAR
   LCHARG =      F    write CHGCAR
   LVTOT  =      F    write LOCPOT, total local potential
   LVHAR  =      F    write LOCPOT, Hartree potential only
   LELF   =      F    write electronic localiz. function (ELF)
   LORBIT =      0    0 simple, 1 ext, 2 COOP (PROOUT)


 Dipole corrections
   LMONO  =      F    monopole corrections only (constant potential shift)
   LDIPOL =      T    correct potential (dipole corrections)
   IDIPOL =      3    1-x, 2-y, 3-z, 4-all directions 
   EPSILON=  1.0000000 bulk dielectric constant

 Exchange correlation treatment:
   GGA     =    PE    GGA type
   LEXCH   =     8    internal setting for exchange type
   VOSKOWN=      1    Vosko Wilk Nusair interpolation
   LHFCALC =     F    Hartree Fock is set to
   LHFONE  =     F    Hartree Fock one center treatment
   AEXX    =    0.0000 exact exchange contribution

 Linear response parameters
   LEPSILON=     F    determine dielectric tensor
   LRPA    =     F    only Hartree local field effects (RPA)
   LNABLA  =     F    use nabla operator in PAW spheres
   LVEL    =     F    velocity operator in full k-point grid
   LINTERFAST=   F  fast interpolation
   KINTER  =     0    interpolate to denser k-point grid
   CSHIFT  =0.1000    complex shift for real part using Kramers Kronig
   OMEGAMAX=  -1.0    maximum frequency
   DEG_THRESHOLD= 0.2000000E-02 threshold for treating states as degnerate
   RTIME   =    0.100 relaxation time in fs

 Orbital magnetization related:
   ORBITALMAG=     F  switch on orbital magnetization
   LCHIMAG   =     F  perturbation theory with respect to B field
   DQ        =  0.001000  dq finite difference perturbation B field



--------------------------------------------------------------------------------------------------------


 conjugate gradient relaxation of ions
 charge density and potential will be updated during run
 non-spin polarized calculation
 RMM-DIIS sequential band-by-band and
  variant of blocked Davidson during initial phase
 perform sub-space diagonalisation
    before iterative eigenvector-optimisation
 modified Broyden-mixing scheme, WC =      100.0
 initial mixing is a Kerker type mixing with AMIX =  0.4000 and BMIX =      1.0000
 Hartree-type preconditioning will be used
 using additional bands           54
 real space projection scheme for non local part
 use partial core corrections
 calculate Harris-corrections to forces 
   (improved forces if not selfconsistent)
 use gradient corrections 
 use of overlap-Matrix (Vanderbilt PP)
 Gauss-broadening in eV      SIGMA  =   0.10


--------------------------------------------------------------------------------------------------------


  energy-cutoff  :      400.00
  volume of cell :     2567.68
      direct lattice vectors                 reciprocal lattice vectors
    11.002581515  0.000000000  0.000000000     0.090887761 -0.052474073  0.000000000
     5.501290758  9.528515099  0.000000000     0.000000000  0.104948147  0.000000000
     0.000000000  0.000000000 24.491785094     0.000000000  0.000000000  0.040830017

  length of vectors
    11.002581515 11.002581515 24.491785094     0.104948147  0.104948147  0.040830017


 
 k-points in units of 2pi/SCALE and weight: Automatic mesh                          
   0.02272194  0.01311852  0.00000000       0.167
   0.00000000  0.02623704  0.00000000       0.167
  -0.02272194  0.01311852  0.00000000       0.167
  -0.02272194  0.03935555  0.00000000       0.167
   0.04544388 -0.05247407  0.00000000       0.167
  -0.02272194  0.06559259  0.00000000       0.167
 
 k-points in reciprocal lattice and weights: Automatic mesh                          
   0.25000000  0.25000000  0.00000000       0.167
   0.00000000  0.25000000  0.00000000       0.167
  -0.25000000  0.00000000  0.00000000       0.167
  -0.25000000  0.25000000  0.00000000       0.167
   0.50000000 -0.25000000  0.00000000       0.167
  -0.25000000  0.50000000  0.00000000       0.167
 
 position of ions in fractional coordinates (direct lattice) 
   0.08333333  0.08333333  0.40830017
   0.83333333  0.58333333  0.40830017
   0.66666667  0.41666667  0.50000000
   0.75000000  0.00000000  0.59169983
   0.66666667  0.16666667  0.50000000
   0.50000000  0.50000000  0.59169983
   0.58333333  0.58333333  0.40830017
   0.50000000  0.25000000  0.59169983
   0.41666667  0.41666667  0.50000000
   0.58333333  0.33333333  0.40830017
   0.33333333  0.83333333  0.40830017
   0.16666667  0.66666667  0.50000000
   0.33333333  0.58333333  0.40830017
   0.25000000  0.25000000  0.59169983
   0.33333333  0.33333333  0.40830017
   0.25000000  0.75000000  0.59169983
   0.75000000  0.75000000  0.59169983
   0.16666667  0.16666667  0.50000000
   0.33333333  0.08333333  0.40830017
   0.25000000  0.00000000  0.59169983
   0.08333333  0.58333333  0.40830017
   0.91666667  0.66666667  0.50000000
   0.91666667  0.16666667  0.50000000
   0.08333333  0.83333333  0.40830017
   0.91666667  0.41666667  0.50000000
   0.08333333  0.33333333  0.40830017
   0.00000000  0.00000000  0.59169983
   0.83333333  0.08333333  0.40830017
   0.75000000  0.25000000  0.59169983
   0.66666667  0.66666667  0.50000000
   0.75000000  0.50000000  0.59169983
   0.83333333  0.83333333  0.40830017
   0.83333333  0.33333333  0.40830017
   0.50000000  0.75000000  0.59169983
   0.16666667  0.41666667  0.50000000
   0.58333333  0.83333333  0.40830017
   0.00000000  0.25000000  0.59169983
   0.00000000  0.50000000  0.59169983
   0.50000000  0.00000000  0.59169983
   0.41666667  0.16666667  0.50000000
   0.58333333  0.08333333  0.40830017
   0.66666667  0.91666667  0.50000000
   0.16666667  0.91666667  0.50000000
   0.91666667  0.91666667  0.50000000
   0.25000000  0.50000000  0.59169983
   0.00000000  0.75000000  0.59169983
   0.41666667  0.91666667  0.50000000
   0.41666667  0.66666667  0.50000000
 
 position of ions in cartesian coordinates  (Angst):
   1.37532269  0.79404292 10.00000000
  12.37790420  5.55830047 10.00000000
   9.62725883  3.97021462 12.24589255
   8.25193614  0.00000000 14.49178509
   8.25193614  1.58808585 12.24589255
   8.25193614  4.76425755 14.49178509
   9.62725883  5.55830047 10.00000000
   6.87661345  2.38212877 14.49178509
   6.87661345  3.97021462 12.24589255
   8.25193614  3.17617170 10.00000000
   8.25193614  7.94042925 10.00000000
   5.50129076  6.35234340 12.24589255
   6.87661345  5.55830047 10.00000000
   4.12596807  2.38212877 14.49178509
   5.50129076  3.17617170 10.00000000
   6.87661345  7.14638632 14.49178509
  12.37790420  7.14638632 14.49178509
   2.75064538  1.58808585 12.24589255
   4.12596807  0.79404292 10.00000000
   2.75064538  0.00000000 14.49178509
   4.12596807  5.55830047 10.00000000
  13.75322689  6.35234340 12.24589255
  11.00258152  1.58808585 12.24589255
   5.50129076  7.94042925 10.00000000
  12.37790420  3.97021462 12.24589255
   2.75064538  3.17617170 10.00000000
   0.00000000  0.00000000 14.49178509
   9.62725883  0.79404292 10.00000000
   9.62725883  2.38212877 14.49178509
  11.00258152  6.35234340 12.24589255
  11.00258152  4.76425755 14.49178509
  13.75322689  7.94042925 10.00000000
  11.00258152  3.17617170 10.00000000
   9.62725883  7.14638632 14.49178509
   4.12596807  3.97021462 12.24589255
  11.00258152  7.94042925 10.00000000
   1.37532269  2.38212877 14.49178509
   2.75064538  4.76425755 14.49178509
   5.50129076  0.00000000 14.49178509
   5.50129076  1.58808585 12.24589255
   6.87661345  0.79404292 10.00000000
  12.37790420  8.73447217 12.24589255
   6.87661345  8.73447217 12.24589255
  15.12854958  8.73447217 12.24589255
   5.50129076  4.76425755 14.49178509
   4.12596807  7.14638632 14.49178509
   9.62725883  8.73447217 12.24589255
   8.25193614  6.35234340 12.24589255
 


--------------------------------------------------------------------------------------------------------


 k-point  1 :   0.2500 0.2500 0.0000  plane waves:   46635
 k-point  2 :   0.0000 0.2500 0.0000  plane waves:   46635
 k-point  3 :  -0.2500 0.0000 0.0000  plane waves:   46635
 k-point  4 :  -0.2500 0.2500 0.0000  plane waves:   46644
 k-point  5 :   0.5000-0.2500 0.0000  plane waves:   46644
 k-point  6 :  -0.2500 0.5000 0.0000  plane waves:   46644

 maximum and minimum number of plane-waves per node :      7818     7732

 maximum number of plane-waves:     46644
 maximum index in each direction: 
   IXMAX=   18   IYMAX=   18   IZMAX=   39
   IXMIN=  -18   IYMIN=  -18   IZMIN=  -39

 WARNING: aliasing errors must be expected set NGX to  74 to avoid them
 WARNING: aliasing errors must be expected set NGY to  74 to avoid them
 WARNING: aliasing errors must be expected set NGZ to 158 to avoid them
 aliasing errors are usually negligible using standard VASP settings
 and one can safely disregard these warnings

 real space projection operators:
  total allocation   :      12803.06 KBytes
  max/ min on nodes  :       2145.66       2127.94


 parallel 3D FFT for wavefunctions:
    minimum data exchange during FFTs selected (reduces bandwidth)
 parallel 3D FFT for charge:
    minimum data exchange during FFTs selected (reduces bandwidth)


 total amount of memory used by VASP on root node    84353. kBytes
========================================================================

   base      :      30000. kBytes
   nonlr-proj:       4285. kBytes
   fftplans  :       4447. kBytes
   grid      :       6721. kBytes
   one-center:        124. kBytes
   wavefun   :      38776. kBytes
 
     INWAV:  cpu time    0.0000: real time    0.0000
 Broyden mixing: mesh for mixing (old mesh)
   NGX = 35   NGY = 35   NGZ = 79
  (NGX  =108   NGY  =108   NGZ  =240)
  gives a total of  96775 points

 initial charge density was supplied:
 charge density of overlapping atoms calculated
 number of electron     504.0000000 magnetization 
 keeping initial charge density in first step


--------------------------------------------------------------------------------------------------------


 Maximum index for non-local projection operator          355
 Maximum index for augmentation-charges          437 (set IRDMAX)


--------------------------------------------------------------------------------------------------------


 First call to EWALD:  gamma=   0.129
 Maximum number of real-space cells 4x 4x 2
 Maximum number of reciprocal cells 2x 2x 5

 FEWALD executed in parallel
    FEWALD:  cpu time    0.0029: real time    0.0029


----------------------------------------- Iteration    1(   1)  ---------------------------------------


    POTLOK:  cpu time    0.0554: real time    0.0556
    SETDIJ:  cpu time    0.0066: real time    0.0066
     EDDAV:  cpu time    9.1657: real time    9.2363
       DOS:  cpu time    0.0015: real time    0.0015
    --------------------------------------------
      LOOP:  cpu time    9.2334: real time    9.3068

 eigenvalue-minimisations  :  3672
 total energy-change (2. order) : 0.3201557E+04  (-0.1898395E+05)
 number of electron     504.0000000 magnetization 
 augmentation part      504.0000000 magnetization 

 DIPCOR: dipole corrections for dipol
 direction  3 min pos     1,
 dipolmoment           0.000000      0.000000      0.000002 electrons x Angstroem
 Tr[quadrupol]    -10295.816910

 energy correction for charged system         0.000000 eV
 dipol+quadrupol energy correction           -0.000000 eV
 added-field ion interaction          0.000001 eV  (added to PSCEN)


 Free energy of the ion-electron system (eV)
  ---------------------------------------------------
  alpha Z        PSCENC =       805.86936534
  Ewald energy   TEWEN  =    199931.92152212
  -Hartree energ DENC   =   -242345.31244232
  -exchange      EXHF   =         0.00000000
  -V(xc)+E(xc)   XCENC  =      -327.69100236
  PAW double counting   =     40340.05962942   -38292.62782345
  entropy T*S    EENTRO =        -0.13149862
  eigenvalues    EBANDS =      1429.68346590
  atomic energy  EATOM  =     41659.78587232
  Solvation  Ediel_sol  =         0.00000000
  ---------------------------------------------------
  free energy    TOTEN  =      3201.55708835 eV

  energy without entropy =     3201.68858697  energy(sigma->0) =     3201.62283766


--------------------------------------------------------------------------------------------------------




----------------------------------------- Iteration    1(   2)  ---------------------------------------


     EDDAV:  cpu time   10.8920: real time   10.8986
       DOS:  cpu time    0.0015: real time    0.0015
    --------------------------------------------
      LOOP:  cpu time   10.8949: real time   10.9032

 eigenvalue-minimisations  :  4368
 total energy-change (2. order) :-0.3187192E+04  (-0.2928127E+04)
 number of electron     504.0000000 magnetization 
 augmentation part      504.0000000 magnetization 

 DIPCOR: dipole corrections for dipol
 direction  3 min pos     1,
 dipolmoment           0.000000      0.000000      0.000002 electrons x Angstroem
 Tr[quadrupol]    -10295.816910

 energy correction for charged system         0.000000 eV
 dipol+quadrupol energy correction           -0.000000 eV
 added-field ion interaction          0.000001 eV  (added to PSCEN)


 Free energy of the ion-electron system (eV)
  ---------------------------------------------------
  alpha Z        PSCENC =       805.86936534
  Ewald energy   TEWEN  =    199931.92152212
  -Hartree energ DENC   =   -242345.31244232
  -exchange      EXHF   =         0.00000000
  -V(xc)+E(xc)   XCENC  =      -327.69100236
  PAW double counting   =     40340.05962942   -38292.62782345
  entropy T*S    EENTRO =        -0.13193122
  eigenvalues    EBANDS =     -1757.50760829
  atomic energy  EATOM  =     41659.78587232
  Solvation  Ediel_sol  =         0.00000000
  ---------------------------------------------------
  free energy    TOTEN  =        14.36558156 eV

  energy without entropy =       14.49751278  energy(sigma->0) =       14.43154717


--------------------------------------------------------------------------------------------------------




----------------------------------------- Iteration    1(   3)  ---------------------------------------


     EDDAV:  cpu time   10.6908: real time   10.6996
       DOS:  cpu time    0.0016: real time    0.0016
    --------------------------------------------
      LOOP:  cpu time   10.6934: real time   10.7047

 eigenvalue-minimisations  :  4164
 total energy-change (2. order) :-0.2155266E+03  (-0.2002916E+03)
 number of electron     504.0000000 magnetization 
 augmentation part      504.0000000 magnetization 

 DIPCOR: dipole corrections for dipol
 direction  3 min pos     1,
 dipolmoment           0.000000      0.000000      0.000002 electrons x Angstroem
 Tr[quadrupol]    -10295.816910

 energy correction for charged system         0.000000 eV
 dipol+quadrupol energy correction           -0.000000 eV
 added-field ion interaction          0.000001 eV  (added to PSCEN)


 Free energy of the ion-electron system (eV)
  ---------------------------------------------------
  alpha Z        PSCENC =       805.86936534
  Ewald energy   TEWEN  =    199931.92152212
  -Hartree energ DENC   =   -242345.31244232
  -exchange      EXHF   =         0.00000000
  -V(xc)+E(xc)   XCENC  =      -327.69100236
  PAW double counting   =     40340.05962942   -38292.62782345
  entropy T*S    EENTRO =        -0.18021053
  eigenvalues    EBANDS =     -1972.98596947
  atomic energy  EATOM  =     41659.78587232
  Solvation  Ediel_sol  =         0.00000000
  ---------------------------------------------------
  free energy    TOTEN  =      -201.16105893 eV

  energy without entropy =     -200.98084840  energy(sigma->0) =     -201.07095367


--------------------------------------------------------------------------------------------------------




----------------------------------------- Iteration    1(   4)  ---------------------------------------


     EDDAV:  cpu time   10.8449: real time   10.8527
       DOS:  cpu time    0.0015: real time    0.0015
    --------------------------------------------
      LOOP:  cpu time   10.8478: real time   10.8575

 eigenvalue-minimisations  :  4272
 total energy-change (2. order) :-0.5870777E+01  (-0.5799134E+01)
 number of electron     504.0000000 magnetization 
 augmentation part      504.0000000 magnetization 

 DIPCOR: dipole corrections for dipol
 direction  3 min pos     1,
 dipolmoment           0.000000      0.000000      0.000002 electrons x Angstroem
 Tr[quadrupol]    -10295.816910

 energy correction for charged system         0.000000 eV
 dipol+quadrupol energy correction           -0.000000 eV
 added-field ion interaction          0.000001 eV  (added to PSCEN)


 Free energy of the ion-electron system (eV)
  ---------------------------------------------------
  alpha Z        PSCENC =       805.86936534
  Ewald energy   TEWEN  =    199931.92152212
  -Hartree energ DENC   =   -242345.31244232
  -exchange      EXHF   =         0.00000000
  -V(xc)+E(xc)   XCENC  =      -327.69100236
  PAW double counting   =     40340.05962942   -38292.62782345
  entropy T*S    EENTRO =        -0.19347485
  eigenvalues    EBANDS =     -1978.84348213
  atomic energy  EATOM  =     41659.78587232
  Solvation  Ediel_sol  =         0.00000000
  ---------------------------------------------------
  free energy    TOTEN  =      -207.03183591 eV

  energy without entropy =     -206.83836106  energy(sigma->0) =     -206.93509849


--------------------------------------------------------------------------------------------------------




----------------------------------------- Iteration    1(   5)  ---------------------------------------


     EDDAV:  cpu time   11.8994: real time   12.0150
       DOS:  cpu time    0.0016: real time    0.0016
    CHARGE:  cpu time    0.4225: real time    0.4242
    MIXING:  cpu time    0.0033: real time    0.0035
    --------------------------------------------
      LOOP:  cpu time   12.3277: real time   12.4488

 eigenvalue-minimisations  :  4440
 total energy-change (2. order) :-0.1774505E+00  (-0.1768748E+00)
 number of electron     503.9998404 magnetization 
 augmentation part      191.2610769 magnetization 

 DIPCOR: dipole corrections for dipol
 direction  3 min pos     1,
 dipolmoment           0.000000      0.000000      0.000002 electrons x Angstroem
 Tr[quadrupol]    -10295.816910

 energy correction for charged system         0.000000 eV
 dipol+quadrupol energy correction           -0.000000 eV
 added-field ion interaction          0.000001 eV  (added to PSCEN)


 Broyden mixing:
  rms(total) = 0.62238E+01    rms(broyden)= 0.62237E+01
  rms(prec ) = 0.63586E+01
  weight for this iteration     100.00

 Free energy of the ion-electron system (eV)
  ---------------------------------------------------
  alpha Z        PSCENC =       805.86936534
  Ewald energy   TEWEN  =    199931.92152212
  -Hartree energ DENC   =   -242345.31244232
  -exchange      EXHF   =         0.00000000
  -V(xc)+E(xc)   XCENC  =      -327.69100236
  PAW double counting   =     40340.05962942   -38292.62782345
  entropy T*S    EENTRO =        -0.19324447
  eigenvalues    EBANDS =     -1979.02116298
  atomic energy  EATOM  =     41659.78587232
  Solvation  Ediel_sol  =         0.00000000
  ---------------------------------------------------
  free energy    TOTEN  =      -207.20928638 eV

  energy without entropy =     -207.01604191  energy(sigma->0) =     -207.11266414


--------------------------------------------------------------------------------------------------------




----------------------------------------- Iteration    1(   6)  ---------------------------------------


    POTLOK:  cpu time    0.0638: real time    0.0644
    SETDIJ:  cpu time    0.0073: real time    0.0074
    EDDIAG:  cpu time    1.6344: real time    1.6381
  RMM-DIIS:  cpu time    4.4071: real time    4.4095
    ORTHCH:  cpu time    0.4076: real time    0.4076
       DOS:  cpu time    0.0016: real time    0.0016
    CHARGE:  cpu time    0.3079: real time    0.3083
    MIXING:  cpu time    0.0022: real time    0.0023
    --------------------------------------------
      LOOP:  cpu time    6.8328: real time    6.8431

 eigenvalue-minimisations  :  3678
 total energy-change (2. order) : 0.3010050E+01  (-0.1003410E+02)
 number of electron     503.9998429 magnetization 
 augmentation part      191.0939445 magnetization 

 DIPCOR: dipole corrections for dipol
 direction  3 min pos     1,
 dipolmoment           0.000000      0.000000      1.013598 electrons x Angstroem
 Tr[quadrupol]    -10297.900030

 energy correction for charged system         0.000000 eV
 dipol+quadrupol energy correction           -0.036202 eV
 added-field ion interaction          0.481292 eV  (added to PSCEN)


 Broyden mixing:
  rms(total) = 0.55978E+01    rms(broyden)= 0.55976E+01
  rms(prec ) = 0.59164E+01
  weight for this iteration     100.00

 eigenvalues of (default mixing * dielectric matrix)
  average eigenvalue GAMMA=   0.6878
  0.6878

 Free energy of the ion-electron system (eV)
  ---------------------------------------------------
  alpha Z        PSCENC =       806.31445447
  Ewald energy   TEWEN  =    199931.92152212
  -Hartree energ DENC   =   -242117.40882004
  -exchange      EXHF   =         0.00000000
  -V(xc)+E(xc)   XCENC  =      -340.41725072
  PAW double counting   =     43906.41092110   -41918.42624632
  entropy T*S    EENTRO =        -0.26562111
  eigenvalues    EBANDS =     -2132.11406787
  atomic energy  EATOM  =     41659.78587232
  Solvation  Ediel_sol  =         0.00000000
  ---------------------------------------------------
  free energy    TOTEN  =      -204.19923607 eV

  energy without entropy =     -203.93361496  energy(sigma->0) =     -204.06642551


--------------------------------------------------------------------------------------------------------




----------------------------------------- Iteration    1(   7)  ---------------------------------------


    POTLOK:  cpu time    0.0501: real time    0.0511
    SETDIJ:  cpu time    0.0061: real time    0.0061
    EDDIAG:  cpu time    1.6377: real time    1.6413
  RMM-DIIS:  cpu time    4.4042: real time    4.4066
    ORTHCH:  cpu time    0.4060: real time    0.4063
       DOS:  cpu time    0.0016: real time    0.0016
    CHARGE:  cpu time    0.3056: real time    0.3057
    MIXING:  cpu time    0.0021: real time    0.0021
    --------------------------------------------
      LOOP:  cpu time    6.8143: real time    6.8244

 eigenvalue-minimisations  :  3680
 total energy-change (2. order) :-0.9731966E+01  (-0.6000572E+01)
 number of electron     503.9998370 magnetization 
 augmentation part      194.8404481 magnetization 

 DIPCOR: dipole corrections for dipol
 direction  3 min pos     1,
 dipolmoment           0.000000      0.000000     -1.277493 electrons x Angstroem
 Tr[quadrupol]    -10296.128694

 energy correction for charged system         0.000000 eV
 dipol+quadrupol energy correction           -0.057507 eV
 added-field ion interaction         -0.606599 eV  (added to PSCEN)


 Broyden mixing:
  rms(total) = 0.49779E+01    rms(broyden)= 0.49776E+01
  rms(prec ) = 0.58805E+01
  weight for this iteration     100.00

 eigenvalues of (default mixing * dielectric matrix)
  average eigenvalue GAMMA=   0.8081
  1.2910  0.3252

 Free energy of the ion-electron system (eV)
  ---------------------------------------------------
  alpha Z        PSCENC =       805.20525833
  Ewald energy   TEWEN  =    199931.92152212
  -Hartree energ DENC   =   -241956.62815558
  -exchange      EXHF   =         0.00000000
  -V(xc)+E(xc)   XCENC  =      -342.64309193
  PAW double counting   =     45189.62796171   -43226.17622449
  entropy T*S    EENTRO =        -0.23585402
  eigenvalues    EBANDS =     -2274.78849018
  atomic energy  EATOM  =     41659.78587232
  Solvation  Ediel_sol  =         0.00000000
  ---------------------------------------------------
  free energy    TOTEN  =      -213.93120173 eV

  energy without entropy =     -213.69534771  energy(sigma->0) =     -213.81327472


--------------------------------------------------------------------------------------------------------




----------------------------------------- Iteration    1(   8)  ---------------------------------------


    POTLOK:  cpu time    0.0495: real time    0.0495
    SETDIJ:  cpu time    0.0060: real time    0.0060
    EDDIAG:  cpu time    1.6283: real time    1.6290
  RMM-DIIS:  cpu time    4.3329: real time    4.3361
    ORTHCH:  cpu time    0.4043: real time    0.4137
       DOS:  cpu time    0.0016: real time    0.0016
    CHARGE:  cpu time    0.3109: real time    0.3111
    MIXING:  cpu time    0.0021: real time    0.0021
    --------------------------------------------
      LOOP:  cpu time    6.7365: real time    6.7515

 eigenvalue-minimisations  :  3672
 total energy-change (2. order) :-0.7516670E+01  (-0.9389786E+01)
 number of electron     503.9998356 magnetization 
 augmentation part      196.5202218 magnetization 

 DIPCOR: dipole corrections for dipol
 direction  3 min pos     1,
 dipolmoment           0.000000      0.000000      1.605609 electrons x Angstroem
 Tr[quadrupol]    -10297.090604

 energy correction for charged system         0.000000 eV
 dipol+quadrupol energy correction           -0.090841 eV
 added-field ion interaction          0.762400 eV  (added to PSCEN)


 Broyden mixing:
  rms(total) = 0.44537E+01    rms(broyden)= 0.44533E+01
  rms(prec ) = 0.52399E+01
  weight for this iteration     100.00

 eigenvalues of (default mixing * dielectric matrix)
  average eigenvalue GAMMA=   0.8688
  1.9552  0.4213  0.2298

 Free energy of the ion-electron system (eV)
  ---------------------------------------------------
  alpha Z        PSCENC =       806.54092312
  Ewald energy   TEWEN  =    199931.92152212
  -Hartree energ DENC   =   -241915.62724559
  -exchange      EXHF   =         0.00000000
  -V(xc)+E(xc)   XCENC  =      -344.71206878
  PAW double counting   =     46639.54721749   -44700.43914005
  entropy T*S    EENTRO =        -0.25946591
  eigenvalues    EBANDS =     -2298.20548620
  atomic energy  EATOM  =     41659.78587232
  Solvation  Ediel_sol  =         0.00000000
  ---------------------------------------------------
  free energy    TOTEN  =      -221.44787148 eV

  energy without entropy =     -221.18840557  energy(sigma->0) =     -221.31813852


--------------------------------------------------------------------------------------------------------




----------------------------------------- Iteration    1(   9)  ---------------------------------------


    POTLOK:  cpu time    0.0488: real time    0.0489
    SETDIJ:  cpu time    0.0060: real time    0.0060
    EDDIAG:  cpu time    1.6232: real time    1.6240
  RMM-DIIS:  cpu time    4.2944: real time    4.2979
    ORTHCH:  cpu time    0.4024: real time    0.4035
       DOS:  cpu time    0.0016: real time    0.0016
    CHARGE:  cpu time    0.3190: real time    0.3190
    MIXING:  cpu time    0.0026: real time    0.0026
    --------------------------------------------
      LOOP:  cpu time    6.6988: real time    6.7055

 eigenvalue-minimisations  :  3679
 total energy-change (2. order) : 0.6481081E+01  (-0.5398668E+01)
 number of electron     503.9998334 magnetization 
 augmentation part      198.4984165 magnetization 

 DIPCOR: dipole corrections for dipol
 direction  3 min pos     1,
 dipolmoment           0.000000      0.000000     -0.345130 electrons x Angstroem
 Tr[quadrupol]    -10298.363087

 energy correction for charged system         0.000000 eV
 dipol+quadrupol energy correction           -0.004197 eV
 added-field ion interaction         -0.163880 eV  (added to PSCEN)


 Broyden mixing:
  rms(total) = 0.38122E+01    rms(broyden)= 0.38119E+01
  rms(prec ) = 0.41820E+01
  weight for this iteration     100.00

 eigenvalues of (default mixing * dielectric matrix)
  average eigenvalue GAMMA=   0.7923
  2.1879  0.4082  0.2866  0.2866

 Free energy of the ion-electron system (eV)
  ---------------------------------------------------
  alpha Z        PSCENC =       805.70128691
  Ewald energy   TEWEN  =    199931.92152212
  -Hartree energ DENC   =   -241913.78638814
  -exchange      EXHF   =         0.00000000
  -V(xc)+E(xc)   XCENC  =      -346.56236212
  PAW double counting   =     48249.74054783   -46335.27370640
  entropy T*S    EENTRO =        -0.20998354
  eigenvalues    EBANDS =     -2266.28357963
  atomic energy  EATOM  =     41659.78587232
  Solvation  Ediel_sol  =         0.00000000
  ---------------------------------------------------
  free energy    TOTEN  =      -214.96679066 eV

  energy without entropy =     -214.75680712  energy(sigma->0) =     -214.86179889


--------------------------------------------------------------------------------------------------------




----------------------------------------- Iteration    1(  10)  ---------------------------------------


    POTLOK:  cpu time    0.0501: real time    0.0503
    SETDIJ:  cpu time    0.0063: real time    0.0063
    EDDIAG:  cpu time    1.6246: real time    1.6265
  RMM-DIIS:  cpu time    4.2426: real time    4.3222
    ORTHCH:  cpu time    0.3952: real time    0.3953
       DOS:  cpu time    0.0016: real time    0.0016
    CHARGE:  cpu time    0.3081: real time    0.3083
    MIXING:  cpu time    0.0026: real time    0.0026
    --------------------------------------------
      LOOP:  cpu time    6.6320: real time    6.7164

 eigenvalue-minimisations  :  3679
 total energy-change (2. order) : 0.1357433E+02  (-0.1990966E+01)
 number of electron     503.9998339 magnetization 
 augmentation part      198.9302457 magnetization 

 DIPCOR: dipole corrections for dipol
 direction  3 min pos     1,
 dipolmoment           0.000000      0.000000      0.563196 electrons x Angstroem
 Tr[quadrupol]    -10297.170868

 energy correction for charged system         0.000000 eV
 dipol+quadrupol energy correction           -0.011177 eV
 added-field ion interaction          0.267425 eV  (added to PSCEN)


 Broyden mixing:
  rms(total) = 0.23669E+01    rms(broyden)= 0.23667E+01
  rms(prec ) = 0.27733E+01
  weight for this iteration     100.00

 eigenvalues of (default mixing * dielectric matrix)
  average eigenvalue GAMMA=   0.7497
  2.2732  0.4434  0.4434  0.3659  0.2225

 Free energy of the ion-electron system (eV)
  ---------------------------------------------------
  alpha Z        PSCENC =       806.12561285
  Ewald energy   TEWEN  =    199931.92152212
  -Hartree energ DENC   =   -241881.13431310
  -exchange      EXHF   =         0.00000000
  -V(xc)+E(xc)   XCENC  =      -346.48986532
  PAW double counting   =     48916.99411821   -47009.81881647
  entropy T*S    EENTRO =        -0.18841218
  eigenvalues    EBANDS =     -2278.58817677
  atomic energy  EATOM  =     41659.78587232
  Solvation  Ediel_sol  =         0.00000000
  ---------------------------------------------------
  free energy    TOTEN  =      -201.39245834 eV

  energy without entropy =     -201.20404616  energy(sigma->0) =     -201.29825225


--------------------------------------------------------------------------------------------------------




----------------------------------------- Iteration    1(  11)  ---------------------------------------


    POTLOK:  cpu time    0.0494: real time    0.0494
    SETDIJ:  cpu time    0.0061: real time    0.0061
    EDDIAG:  cpu time    1.6240: real time    1.6246
  RMM-DIIS:  cpu time    4.3263: real time    4.3295
    ORTHCH:  cpu time    0.3950: real time    0.3952
       DOS:  cpu time    0.0015: real time    0.0015
    CHARGE:  cpu time    0.3015: real time    0.3016
    MIXING:  cpu time    0.0025: real time    0.0025
    --------------------------------------------
      LOOP:  cpu time    6.7071: real time    6.7141

 eigenvalue-minimisations  :  3680
 total energy-change (2. order) : 0.6353597E+01  (-0.1561378E+01)
 number of electron     503.9998340 magnetization 
 augmentation part      198.7635570 magnetization 

 DIPCOR: dipole corrections for dipol
 direction  3 min pos     1,
 dipolmoment           0.000000      0.000000      0.202322 electrons x Angstroem
 Tr[quadrupol]    -10298.322991

 energy correction for charged system         0.000000 eV
 dipol+quadrupol energy correction           -0.001442 eV
 added-field ion interaction          0.096070 eV  (added to PSCEN)


 Broyden mixing:
  rms(total) = 0.15948E+01    rms(broyden)= 0.15946E+01
  rms(prec ) = 0.18255E+01
  weight for this iteration     100.00

 eigenvalues of (default mixing * dielectric matrix)
  average eigenvalue GAMMA=   0.7084
  2.2145  0.5872  0.5872  0.3395  0.2304  0.2917

 Free energy of the ion-electron system (eV)
  ---------------------------------------------------
  alpha Z        PSCENC =       805.96399176
  Ewald energy   TEWEN  =    199931.92152212
  -Hartree energ DENC   =   -241940.44642900
  -exchange      EXHF   =         0.00000000
  -V(xc)+E(xc)   XCENC  =      -346.14015975
  PAW double counting   =     49141.02593512   -47233.59330819
  entropy T*S    EENTRO =        -0.22150531
  eigenvalues    EBANDS =     -2213.33478010
  atomic energy  EATOM  =     41659.78587232
  Solvation  Ediel_sol  =         0.00000000
  ---------------------------------------------------
  free energy    TOTEN  =      -195.03886102 eV

  energy without entropy =     -194.81735571  energy(sigma->0) =     -194.92810837


--------------------------------------------------------------------------------------------------------




----------------------------------------- Iteration    1(  12)  ---------------------------------------


    POTLOK:  cpu time    0.0495: real time    0.0495
    SETDIJ:  cpu time    0.0060: real time    0.0060
    EDDIAG:  cpu time    1.6105: real time    1.6120
  RMM-DIIS:  cpu time    4.3713: real time    4.3746
    ORTHCH:  cpu time    0.3952: real time    0.3955
       DOS:  cpu time    0.0016: real time    0.0016
    CHARGE:  cpu time    0.3057: real time    0.3059
    MIXING:  cpu time    0.0027: real time    0.0027
    --------------------------------------------
      LOOP:  cpu time    6.7432: real time    6.7499

 eigenvalue-minimisations  :  3680
 total energy-change (2. order) : 0.3534606E+01  (-0.7253907E+00)
 number of electron     503.9998353 magnetization 
 augmentation part      197.8189443 magnetization 

 DIPCOR: dipole corrections for dipol
 direction  3 min pos     1,
 dipolmoment           0.000000      0.000000      0.237203 electrons x Angstroem
 Tr[quadrupol]    -10298.187192

 energy correction for charged system         0.000000 eV
 dipol+quadrupol energy correction           -0.001983 eV
 added-field ion interaction          0.112632 eV  (added to PSCEN)


 Broyden mixing:
  rms(total) = 0.14496E+01    rms(broyden)= 0.14494E+01
  rms(prec ) = 0.16572E+01
  weight for this iteration     100.00

 eigenvalues of (default mixing * dielectric matrix)
  average eigenvalue GAMMA=   0.6551
  2.2513  0.5584  0.5584  0.3705  0.3160  0.3160  0.2150

 Free energy of the ion-electron system (eV)
  ---------------------------------------------------
  alpha Z        PSCENC =       805.98001404
  Ewald energy   TEWEN  =    199931.92152212
  -Hartree energ DENC   =   -241971.37549310
  -exchange      EXHF   =         0.00000000
  -V(xc)+E(xc)   XCENC  =      -345.14713275
  PAW double counting   =     49175.84976915   -47264.00985929
  entropy T*S    EENTRO =        -0.20864245
  eigenvalues    EBANDS =     -2184.30030505
  atomic energy  EATOM  =     41659.78587232
  Solvation  Ediel_sol  =         0.00000000
  ---------------------------------------------------
  free energy    TOTEN  =      -191.50425502 eV

  energy without entropy =     -191.29561257  energy(sigma->0) =     -191.39993380


--------------------------------------------------------------------------------------------------------




----------------------------------------- Iteration    1(  13)  ---------------------------------------


    POTLOK:  cpu time    0.0496: real time    0.0502
    SETDIJ:  cpu time    0.0061: real time    0.0061
    EDDIAG:  cpu time    1.6096: real time    1.6112
  RMM-DIIS:  cpu time    4.4166: real time    4.4204
    ORTHCH:  cpu time    0.3948: real time    0.3951
       DOS:  cpu time    0.0016: real time    0.0016
    CHARGE:  cpu time    0.3094: real time    0.3094
    MIXING:  cpu time    0.0028: real time    0.0028
    --------------------------------------------
      LOOP:  cpu time    6.7914: real time    6.7992

 eigenvalue-minimisations  :  3681
 total energy-change (2. order) : 0.1691631E+01  (-0.2768215E+00)
 number of electron     503.9998355 magnetization 
 augmentation part      197.6766463 magnetization 

 DIPCOR: dipole corrections for dipol
 direction  3 min pos     1,
 dipolmoment           0.000000      0.000000      0.172740 electrons x Angstroem
 Tr[quadrupol]    -10298.629401

 energy correction for charged system         0.000000 eV
 dipol+quadrupol energy correction           -0.001051 eV
 added-field ion interaction          0.082023 eV  (added to PSCEN)


 Broyden mixing:
  rms(total) = 0.80601E+00    rms(broyden)= 0.80576E+00
  rms(prec ) = 0.91182E+00
  weight for this iteration     100.00

 eigenvalues of (default mixing * dielectric matrix)
  average eigenvalue GAMMA=   0.6577
  2.2554  0.6653  0.6653  0.5955  0.3121  0.3121  0.2196  0.2363

 Free energy of the ion-electron system (eV)
  ---------------------------------------------------
  alpha Z        PSCENC =       805.95033597
  Ewald energy   TEWEN  =    199931.92152212
  -Hartree energ DENC   =   -241993.33455429
  -exchange      EXHF   =         0.00000000
  -V(xc)+E(xc)   XCENC  =      -344.92744586
  PAW double counting   =     49238.74801006   -47326.03248011
  entropy T*S    EENTRO =        -0.24380082
  eigenvalues    EBANDS =     -2161.68008350
  atomic energy  EATOM  =     41659.78587232
  Solvation  Ediel_sol  =         0.00000000
  ---------------------------------------------------
  free energy    TOTEN  =      -189.81262412 eV

  energy without entropy =     -189.56882330  energy(sigma->0) =     -189.69072371


--------------------------------------------------------------------------------------------------------




----------------------------------------- Iteration    1(  14)  ---------------------------------------


    POTLOK:  cpu time    0.0492: real time    0.0492
    SETDIJ:  cpu time    0.0060: real time    0.0060
    EDDIAG:  cpu time    1.6241: real time    1.6295
  RMM-DIIS:  cpu time    5.0606: real time    5.1025
    ORTHCH:  cpu time    0.3950: real time    0.3955
       DOS:  cpu time    0.0016: real time    0.0016
    CHARGE:  cpu time    0.3034: real time    0.3034
    MIXING:  cpu time    0.0029: real time    0.0029
    --------------------------------------------
      LOOP:  cpu time    7.4436: real time    7.4955

 eigenvalue-minimisations  :  3679
 total energy-change (2. order) : 0.3957256E+00  (-0.1030489E+00)
 number of electron     503.9998356 magnetization 
 augmentation part      197.6201711 magnetization 

 DIPCOR: dipole corrections for dipol
 direction  3 min pos     1,
 dipolmoment           0.000000      0.000000      0.113095 electrons x Angstroem
 Tr[quadrupol]    -10298.828317

 energy correction for charged system         0.000000 eV
 dipol+quadrupol energy correction           -0.000451 eV
 added-field ion interaction          0.053701 eV  (added to PSCEN)


 Broyden mixing:
  rms(total) = 0.65011E+00    rms(broyden)= 0.65001E+00
  rms(prec ) = 0.69865E+00
  weight for this iteration     100.00

 eigenvalues of (default mixing * dielectric matrix)
  average eigenvalue GAMMA=   0.6593
  2.2387  0.8332  0.8332  0.6378  0.3369  0.3369  0.2529  0.2529  0.2113

 Free energy of the ion-electron system (eV)
  ---------------------------------------------------
  alpha Z        PSCENC =       805.92261498
  Ewald energy   TEWEN  =    199931.92152212
  -Hartree energ DENC   =   -242006.64062171
  -exchange      EXHF   =         0.00000000
  -V(xc)+E(xc)   XCENC  =      -344.72901006
  PAW double counting   =     49262.00697224   -47347.96121226
  entropy T*S    EENTRO =        -0.25597217
  eigenvalues    EBANDS =     -2149.46706400
  atomic energy  EATOM  =     41659.78587232
  Solvation  Ediel_sol  =         0.00000000
  ---------------------------------------------------
  free energy    TOTEN  =      -189.41689855 eV

  energy without entropy =     -189.16092638  energy(sigma->0) =     -189.28891247


--------------------------------------------------------------------------------------------------------




----------------------------------------- Iteration    1(  15)  ---------------------------------------


    POTLOK:  cpu time    0.0491: real time    0.0492
    SETDIJ:  cpu time    0.0060: real time    0.0060
    EDDIAG:  cpu time    1.6198: real time    1.6210
  RMM-DIIS:  cpu time    4.3827: real time    4.3850
    ORTHCH:  cpu time    0.3932: real time    0.3936
       DOS:  cpu time    0.0016: real time    0.0016
    CHARGE:  cpu time    0.3025: real time    0.3025
    MIXING:  cpu time    0.0033: real time    0.0033
    --------------------------------------------
      LOOP:  cpu time    6.7590: real time    6.7675

 eigenvalue-minimisations  :  3679
 total energy-change (2. order) : 0.4644769E-01  (-0.4603883E-01)
 number of electron     503.9998357 magnetization 
 augmentation part      197.4757288 magnetization 

 DIPCOR: dipole corrections for dipol
 direction  3 min pos     1,
 dipolmoment           0.000000      0.000000      0.095160 electrons x Angstroem
 Tr[quadrupol]    -10299.000771

 energy correction for charged system         0.000000 eV
 dipol+quadrupol energy correction           -0.000319 eV
 added-field ion interaction          0.045185 eV  (added to PSCEN)


 Broyden mixing:
  rms(total) = 0.57418E+00    rms(broyden)= 0.57414E+00
  rms(prec ) = 0.63038E+00
  weight for this iteration     100.00

 eigenvalues of (default mixing * dielectric matrix)
  average eigenvalue GAMMA=   0.7028
  2.1958  1.1539  1.1539  0.6316  0.4406  0.4406  0.2810  0.2810  0.2249  0.2249

 Free energy of the ion-electron system (eV)
  ---------------------------------------------------
  alpha Z        PSCENC =       805.91423061
  Ewald energy   TEWEN  =    199931.92152212
  -Hartree energ DENC   =   -242018.57642947
  -exchange      EXHF   =         0.00000000
  -V(xc)+E(xc)   XCENC  =      -344.51748590
  PAW double counting   =     49265.96104749   -47350.35649634
  entropy T*S    EENTRO =        -0.25570398
  eigenvalues    EBANDS =     -2139.24700772
  atomic energy  EATOM  =     41659.78587232
  Solvation  Ediel_sol  =         0.00000000
  ---------------------------------------------------
  free energy    TOTEN  =      -189.37045086 eV

  energy without entropy =     -189.11474688  energy(sigma->0) =     -189.24259887


--------------------------------------------------------------------------------------------------------




----------------------------------------- Iteration    1(  16)  ---------------------------------------


    POTLOK:  cpu time    0.0493: real time    0.0493
    SETDIJ:  cpu time    0.0061: real time    0.0061
    EDDIAG:  cpu time    1.6123: real time    1.6130
  RMM-DIIS:  cpu time    4.2744: real time    4.3528
    ORTHCH:  cpu time    0.3948: real time    0.3953
       DOS:  cpu time    0.0016: real time    0.0015
    CHARGE:  cpu time    0.3052: real time    0.3053
    MIXING:  cpu time    0.0035: real time    0.0035
    --------------------------------------------
      LOOP:  cpu time    6.6480: real time    6.7307

 eigenvalue-minimisations  :  3679
 total energy-change (2. order) : 0.1070488E+00  (-0.3478735E-01)
 number of electron     503.9998358 magnetization 
 augmentation part      197.3192580 magnetization 

 DIPCOR: dipole corrections for dipol
 direction  3 min pos     1,
 dipolmoment           0.000000      0.000000      0.074191 electrons x Angstroem
 Tr[quadrupol]    -10299.438185

 energy correction for charged system         0.000000 eV
 dipol+quadrupol energy correction           -0.000194 eV
 added-field ion interaction          0.035228 eV  (added to PSCEN)


 Broyden mixing:
  rms(total) = 0.46757E+00    rms(broyden)= 0.46753E+00
  rms(prec ) = 0.52740E+00
  weight for this iteration     100.00

 eigenvalues of (default mixing * dielectric matrix)
  average eigenvalue GAMMA=   0.7075
  2.1604  1.3491  1.3491  0.6294  0.4873  0.4873  0.3117  0.3117  0.2191  0.2389
  0.2389

 Free energy of the ion-electron system (eV)
  ---------------------------------------------------
  alpha Z        PSCENC =       805.90439873
  Ewald energy   TEWEN  =    199931.92152212
  -Hartree energ DENC   =   -242041.94693224
  -exchange      EXHF   =         0.00000000
  -V(xc)+E(xc)   XCENC  =      -344.23385635
  PAW double counting   =     49266.11296758   -47348.17656748
  entropy T*S    EENTRO =        -0.26639454
  eigenvalues    EBANDS =     -2118.36441216
  atomic energy  EATOM  =     41659.78587232
  Solvation  Ediel_sol  =         0.00000000
  ---------------------------------------------------
  free energy    TOTEN  =      -189.26340203 eV

  energy without entropy =     -188.99700749  energy(sigma->0) =     -189.13020476


--------------------------------------------------------------------------------------------------------




----------------------------------------- Iteration    1(  17)  ---------------------------------------


    POTLOK:  cpu time    0.0501: real time    0.0502
    SETDIJ:  cpu time    0.0063: real time    0.0063
    EDDIAG:  cpu time    1.6126: real time    1.6149
  RMM-DIIS:  cpu time    4.2779: real time    4.2805
    ORTHCH:  cpu time    0.3845: real time    0.3847
       DOS:  cpu time    0.0016: real time    0.0016
    CHARGE:  cpu time    0.3084: real time    0.3087
    MIXING:  cpu time    0.0036: real time    0.0036
    --------------------------------------------
      LOOP:  cpu time    6.6458: real time    6.6538

 eigenvalue-minimisations  :  3681
 total energy-change (2. order) : 0.1624137E+00  (-0.2430847E-01)
 number of electron     503.9998360 magnetization 
 augmentation part      197.2252264 magnetization 

 DIPCOR: dipole corrections for dipol
 direction  3 min pos     1,
 dipolmoment           0.000000      0.000000      0.081482 electrons x Angstroem
 Tr[quadrupol]    -10299.682380

 energy correction for charged system         0.000000 eV
 dipol+quadrupol energy correction           -0.000234 eV
 added-field ion interaction          0.038690 eV  (added to PSCEN)


 Broyden mixing:
  rms(total) = 0.31464E+00    rms(broyden)= 0.31459E+00
  rms(prec ) = 0.36243E+00
  weight for this iteration     100.00

 eigenvalues of (default mixing * dielectric matrix)
  average eigenvalue GAMMA=   0.7402
  2.1883  1.5751  1.5751  0.6304  0.6304  0.5926  0.3560  0.3560  0.2694  0.2694
  0.2201  0.2201

 Free energy of the ion-electron system (eV)
  ---------------------------------------------------
  alpha Z        PSCENC =       805.90782080
  Ewald energy   TEWEN  =    199931.92152212
  -Hartree energ DENC   =   -242056.74092150
  -exchange      EXHF   =         0.00000000
  -V(xc)+E(xc)   XCENC  =      -344.01481745
  PAW double counting   =     49275.12770246   -47355.63247966
  entropy T*S    EENTRO =        -0.26892613
  eigenvalues    EBANDS =     -2105.18676129
  atomic energy  EATOM  =     41659.78587232
  Solvation  Ediel_sol  =         0.00000000
  ---------------------------------------------------
  free energy    TOTEN  =      -189.10098835 eV

  energy without entropy =     -188.83206222  energy(sigma->0) =     -188.96652528


--------------------------------------------------------------------------------------------------------




----------------------------------------- Iteration    1(  18)  ---------------------------------------


    POTLOK:  cpu time    0.0498: real time    0.0498
    SETDIJ:  cpu time    0.0061: real time    0.0061
    EDDIAG:  cpu time    1.5996: real time    1.6003
  RMM-DIIS:  cpu time    4.3754: real time    4.3775
    ORTHCH:  cpu time    0.3822: real time    0.3825
       DOS:  cpu time    0.0016: real time    0.0016
    CHARGE:  cpu time    0.3046: real time    0.3046
    MIXING:  cpu time    0.0038: real time    0.0038
    --------------------------------------------
      LOOP:  cpu time    6.7239: real time    6.7298

 eigenvalue-minimisations  :  3679
 total energy-change (2. order) : 0.9337916E-01  (-0.1348615E-01)
 number of electron     503.9998360 magnetization 
 augmentation part      197.1345924 magnetization 

 DIPCOR: dipole corrections for dipol
 direction  3 min pos     1,
 dipolmoment           0.000000      0.000000      0.092331 electrons x Angstroem
 Tr[quadrupol]    -10300.052704

 energy correction for charged system         0.000000 eV
 dipol+quadrupol energy correction           -0.000300 eV
 added-field ion interaction          0.043842 eV  (added to PSCEN)


 Broyden mixing:
  rms(total) = 0.18402E+00    rms(broyden)= 0.18397E+00
  rms(prec ) = 0.21673E+00
  weight for this iteration     100.00

 eigenvalues of (default mixing * dielectric matrix)
  average eigenvalue GAMMA=   0.7197
  2.2160  1.6048  1.6048  0.6705  0.6705  0.5662  0.3727  0.3727  0.2933  0.2933
  0.2441  0.2234  0.2234

 Free energy of the ion-electron system (eV)
  ---------------------------------------------------
  alpha Z        PSCENC =       805.91290605
  Ewald energy   TEWEN  =    199931.92152212
  -Hartree energ DENC   =   -242075.74474973
  -exchange      EXHF   =         0.00000000
  -V(xc)+E(xc)   XCENC  =      -343.77781063
  PAW double counting   =     49306.61660127   -47385.55179005
  entropy T*S    EENTRO =        -0.27248370
  eigenvalues    EBANDS =     -2087.89767682
  atomic energy  EATOM  =     41659.78587232
  Solvation  Ediel_sol  =         0.00000000
  ---------------------------------------------------
  free energy    TOTEN  =      -189.00760919 eV

  energy without entropy =     -188.73512549  energy(sigma->0) =     -188.87136734


--------------------------------------------------------------------------------------------------------




----------------------------------------- Iteration    1(  19)  ---------------------------------------


    POTLOK:  cpu time    0.0497: real time    0.0497
    SETDIJ:  cpu time    0.0061: real time    0.0061
    EDDIAG:  cpu time    1.6048: real time    1.6057
  RMM-DIIS:  cpu time    4.3787: real time    4.3826
    ORTHCH:  cpu time    0.3803: real time    0.3804
       DOS:  cpu time    0.0016: real time    0.0016
    CHARGE:  cpu time    0.3014: real time    0.3016
    MIXING:  cpu time    0.0037: real time    0.0037
    --------------------------------------------
      LOOP:  cpu time    6.7274: real time    6.7336

 eigenvalue-minimisations  :  3678
 total energy-change (2. order) : 0.3764393E-01  (-0.4443789E-02)
 number of electron     503.9998361 magnetization 
 augmentation part      197.1063102 magnetization 

 DIPCOR: dipole corrections for dipol
 direction  3 min pos     1,
 dipolmoment           0.000000      0.000000      0.081219 electrons x Angstroem
 Tr[quadrupol]    -10300.148719

 energy correction for charged system         0.000000 eV
 dipol+quadrupol energy correction           -0.000232 eV
 added-field ion interaction          0.038565 eV  (added to PSCEN)


 Broyden mixing:
  rms(total) = 0.92688E-01    rms(broyden)= 0.92655E-01
  rms(prec ) = 0.10897E+00
  weight for this iteration     100.00

 eigenvalues of (default mixing * dielectric matrix)
  average eigenvalue GAMMA=   0.7107
  2.2629  1.6189  1.6189  0.7334  0.7334  0.4596  0.4596  0.4626  0.3264  0.3264
  0.2544  0.2544  0.2192  0.2192

 Free energy of the ion-electron system (eV)
  ---------------------------------------------------
  alpha Z        PSCENC =       805.90769733
  Ewald energy   TEWEN  =    199931.92152212
  -Hartree energ DENC   =   -242080.34770307
  -exchange      EXHF   =         0.00000000
  -V(xc)+E(xc)   XCENC  =      -343.72188334
  PAW double counting   =     49314.73291096   -47393.36227620
  entropy T*S    EENTRO =        -0.27252562
  eigenvalues    EBANDS =     -2083.61357975
  atomic energy  EATOM  =     41659.78587232
  Solvation  Ediel_sol  =         0.00000000
  ---------------------------------------------------
  free energy    TOTEN  =      -188.96996525 eV

  energy without entropy =     -188.69743963  energy(sigma->0) =     -188.83370244


--------------------------------------------------------------------------------------------------------




----------------------------------------- Iteration    1(  20)  ---------------------------------------


    POTLOK:  cpu time    0.0495: real time    0.0495
    SETDIJ:  cpu time    0.0060: real time    0.0060
    EDDIAG:  cpu time    1.6025: real time    1.6032
  RMM-DIIS:  cpu time    4.2644: real time    4.2667
    ORTHCH:  cpu time    0.3810: real time    0.3812
       DOS:  cpu time    0.0016: real time    0.0016
    CHARGE:  cpu time    0.3042: real time    0.3043
    MIXING:  cpu time    0.0041: real time    0.0041
    --------------------------------------------
      LOOP:  cpu time    6.6141: real time    6.6188

 eigenvalue-minimisations  :  3681
 total energy-change (2. order) : 0.6845059E-02  (-0.1216448E-02)
 number of electron     503.9998361 magnetization 
 augmentation part      197.0854600 magnetization 

 DIPCOR: dipole corrections for dipol
 direction  3 min pos     1,
 dipolmoment           0.000000      0.000000      0.060470 electrons x Angstroem
 Tr[quadrupol]    -10300.252778

 energy correction for charged system         0.000000 eV
 dipol+quadrupol energy correction           -0.000129 eV
 added-field ion interaction          0.028713 eV  (added to PSCEN)


 Broyden mixing:
  rms(total) = 0.71791E-01    rms(broyden)= 0.71764E-01
  rms(prec ) = 0.79670E-01
  weight for this iteration     100.00

 eigenvalues of (default mixing * dielectric matrix)
  average eigenvalue GAMMA=   0.6993
  2.2570  1.6122  1.6122  0.7962  0.7962  0.5638  0.4913  0.4913  0.3352  0.3352
  0.2624  0.2624  0.2387  0.2178  0.2178

 Free energy of the ion-electron system (eV)
  ---------------------------------------------------
  alpha Z        PSCENC =       805.89794880
  Ewald energy   TEWEN  =    199931.92152212
  -Hartree energ DENC   =   -242084.96255584
  -exchange      EXHF   =         0.00000000
  -V(xc)+E(xc)   XCENC  =      -343.69134957
  PAW double counting   =     49321.66001773   -47400.13459691
  entropy T*S    EENTRO =        -0.27538106
  eigenvalues    EBANDS =     -2079.16459777
  atomic energy  EATOM  =     41659.78587232
  Solvation  Ediel_sol  =         0.00000000
  ---------------------------------------------------
  free energy    TOTEN  =      -188.96312019 eV

  energy without entropy =     -188.68773913  energy(sigma->0) =     -188.82542966


--------------------------------------------------------------------------------------------------------




----------------------------------------- Iteration    1(  21)  ---------------------------------------


    POTLOK:  cpu time    0.0498: real time    0.0505
    SETDIJ:  cpu time    0.0060: real time    0.0060
    EDDIAG:  cpu time    1.5935: real time    1.5952
  RMM-DIIS:  cpu time    4.3261: real time    4.3281
    ORTHCH:  cpu time    0.3815: real time    0.3816
       DOS:  cpu time    0.0016: real time    0.0016
    CHARGE:  cpu time    0.3073: real time    0.3073
    MIXING:  cpu time    0.0042: real time    0.0042
    --------------------------------------------
      LOOP:  cpu time    6.6707: real time    6.6785

 eigenvalue-minimisations  :  3681
 total energy-change (2. order) : 0.2146188E-02  (-0.4608354E-03)
 number of electron     503.9998361 magnetization 
 augmentation part      197.0745675 magnetization 

 DIPCOR: dipole corrections for dipol
 direction  3 min pos     1,
 dipolmoment           0.000000      0.000000      0.053004 electrons x Angstroem
 Tr[quadrupol]    -10300.309909

 energy correction for charged system         0.000000 eV
 dipol+quadrupol energy correction           -0.000099 eV
 added-field ion interaction          0.025168 eV  (added to PSCEN)


 Broyden mixing:
  rms(total) = 0.51257E-01    rms(broyden)= 0.51245E-01
  rms(prec ) = 0.57384E-01
  weight for this iteration     100.00

 eigenvalues of (default mixing * dielectric matrix)
  average eigenvalue GAMMA=   0.7152
  2.3072  1.6267  1.6267  0.9559  0.9559  0.6289  0.5709  0.5709  0.3593  0.3593
  0.2905  0.2905  0.2453  0.2248  0.2248  0.2055

 Free energy of the ion-electron system (eV)
  ---------------------------------------------------
  alpha Z        PSCENC =       805.89443368
  Ewald energy   TEWEN  =    199931.92152212
  -Hartree energ DENC   =   -242087.44159635
  -exchange      EXHF   =         0.00000000
  -V(xc)+E(xc)   XCENC  =      -343.67499651
  PAW double counting   =     49323.83356411   -47402.24608669
  entropy T*S    EENTRO =        -0.27634224
  eigenvalues    EBANDS =     -2076.75734445
  atomic energy  EATOM  =     41659.78587232
  Solvation  Ediel_sol  =         0.00000000
  ---------------------------------------------------
  free energy    TOTEN  =      -188.96097401 eV

  energy without entropy =     -188.68463177  energy(sigma->0) =     -188.82280289


--------------------------------------------------------------------------------------------------------




----------------------------------------- Iteration    1(  22)  ---------------------------------------


    POTLOK:  cpu time    0.0498: real time    0.0503
    SETDIJ:  cpu time    0.0061: real time    0.0061
    EDDIAG:  cpu time    1.5917: real time    1.5932
  RMM-DIIS:  cpu time    4.2640: real time    4.3415
    ORTHCH:  cpu time    0.3804: real time    0.3805
       DOS:  cpu time    0.0016: real time    0.0016
    CHARGE:  cpu time    0.3032: real time    0.3034
    MIXING:  cpu time    0.0042: real time    0.0042
    --------------------------------------------
      LOOP:  cpu time    6.6016: real time    6.6841

 eigenvalue-minimisations  :  3683
 total energy-change (2. order) : 0.7372662E-03  (-0.1834313E-03)
 number of electron     503.9998361 magnetization 
 augmentation part      197.0704870 magnetization 

 DIPCOR: dipole corrections for dipol
 direction  3 min pos     1,
 dipolmoment           0.000000      0.000000      0.051201 electrons x Angstroem
 Tr[quadrupol]    -10300.412376

 energy correction for charged system         0.000000 eV
 dipol+quadrupol energy correction           -0.000092 eV
 added-field ion interaction          0.024312 eV  (added to PSCEN)


 Broyden mixing:
  rms(total) = 0.44199E-01    rms(broyden)= 0.44196E-01
  rms(prec ) = 0.50356E-01
  weight for this iteration     100.00

 eigenvalues of (default mixing * dielectric matrix)
  average eigenvalue GAMMA=   0.7484
  2.3726  1.8358  1.8358  1.1645  0.8178  0.8178  0.6465  0.6465  0.3832  0.3832
  0.3226  0.3226  0.2623  0.2623  0.2223  0.2223  0.2043

 Free energy of the ion-electron system (eV)
  ---------------------------------------------------
  alpha Z        PSCENC =       805.89358409
  Ewald energy   TEWEN  =    199931.92152212
  -Hartree energ DENC   =   -242091.52582873
  -exchange      EXHF   =         0.00000000
  -V(xc)+E(xc)   XCENC  =      -343.66095976
  PAW double counting   =     49328.88885697   -47407.29289947
  entropy T*S    EENTRO =        -0.27475908
  eigenvalues    EBANDS =     -2072.69562520
  atomic energy  EATOM  =     41659.78587232
  Solvation  Ediel_sol  =         0.00000000
  ---------------------------------------------------
  free energy    TOTEN  =      -188.96023674 eV

  energy without entropy =     -188.68547767  energy(sigma->0) =     -188.82285720


--------------------------------------------------------------------------------------------------------




----------------------------------------- Iteration    1(  23)  ---------------------------------------


    POTLOK:  cpu time    0.0496: real time    0.0497
    SETDIJ:  cpu time    0.0060: real time    0.0060
    EDDIAG:  cpu time    1.8766: real time    1.8931
  RMM-DIIS:  cpu time    4.7321: real time    4.7431
    ORTHCH:  cpu time    0.3800: real time    0.3803
       DOS:  cpu time    0.0015: real time    0.0015
    CHARGE:  cpu time    0.3015: real time    0.3016
    MIXING:  cpu time    0.0044: real time    0.0044
    --------------------------------------------
      LOOP:  cpu time    7.3526: real time    7.3842

 eigenvalue-minimisations  :  3679
 total energy-change (2. order) : 0.2220870E-02  (-0.3172006E-03)
 number of electron     503.9998361 magnetization 
 augmentation part      197.0517198 magnetization 

 DIPCOR: dipole corrections for dipol
 direction  3 min pos     1,
 dipolmoment           0.000000      0.000000      0.048735 electrons x Angstroem
 Tr[quadrupol]    -10300.598087

 energy correction for charged system         0.000000 eV
 dipol+quadrupol energy correction           -0.000084 eV
[...]
    262      -0.2328      0.00000
    263      -0.1893      0.00000
    264       0.1393      0.00000
    265       0.2247      0.00000
    266       0.2926      0.00000
    267       0.3525      0.00000
    268       0.5109      0.00000
    269       0.6395      0.00000
    270       0.7865      0.00000
    271       1.1986      0.00000
    272       1.3245      0.00000
    273       1.5551      0.00000
    274       1.6121      0.00000
    275       1.7304      0.00000
    276       1.8432      0.00000
    277       2.1407      0.00000
    278       2.2273      0.00000
    279       2.2929      0.00000
    280       2.4296      0.00000
    281       2.4670      0.00000
    282       2.6077      0.00000
    283       2.6776      0.00000
    284       2.9861      0.00000
    285       3.1383      0.00000
    286       3.2115      0.00000
    287       3.5147      0.00000
    288       3.6192      0.00000
    289       3.7504      0.00000
    290       4.0058      0.00000
    291       4.0992      0.00000
    292       4.1783      0.00000
    293       4.4687      0.00000
    294       4.5360      0.00000
    295       4.6088      0.00000
    296       4.6329      0.00000
    297       4.6762      0.00000
    298       4.7831      0.00000
    299       4.8086      0.00000
    300       4.8898      0.00000
    301       4.9440      0.00000
    302       5.0145      0.00000
    303       5.0649      0.00000
    304       5.0986      0.00000
    305       5.2217      0.00000
    306       5.2404      0.00000


--------------------------------------------------------------------------------------------------------


 soft charge-density along one line, spin component           1
         0         1         2         3         4         5         6         7         8         9
 total charge-density along one line
 
 pseudopotential strength for first ion, spin component:           1
 -8.031   0.000   0.001  -0.004  -0.001  -8.178   0.000   0.001
  0.000  -7.952   0.001   0.000   0.001   0.000  -8.101   0.001
  0.001   0.001  -7.946  -0.000   0.000   0.001   0.001  -8.095
 -0.004   0.000  -0.000  -7.951   0.002  -0.004   0.000  -0.000
 -0.001   0.001   0.000   0.002  -8.029  -0.001   0.001   0.000
 -8.178   0.000   0.001  -0.004  -0.001  -8.309   0.000   0.001
  0.000  -8.101   0.001   0.000   0.001   0.000  -8.233   0.001
  0.001   0.001  -8.095  -0.000   0.000   0.001   0.001  -8.227
 -0.004   0.000  -0.000  -8.100   0.002  -0.004   0.000  -0.000
 -0.001   0.001   0.000   0.002  -8.176  -0.001   0.001   0.000
  0.000   0.001  -0.026  -0.001  -0.000  -0.000   0.001  -0.026
 -0.000   0.002  -0.037  -0.001  -0.000  -0.000   0.002  -0.037
  0.003  -0.004   0.003  -0.000   0.004   0.003  -0.003   0.003
 -0.000  -0.003  -0.006   0.004   0.000  -0.000  -0.003  -0.006
 -0.004  -0.000  -0.002  -0.004   0.004  -0.004  -0.000  -0.002
  0.004  -0.004   0.003  -0.000   0.005   0.004  -0.003   0.003
 -0.000  -0.004  -0.006   0.004   0.000  -0.000  -0.004  -0.006
 -0.005  -0.000  -0.003  -0.004   0.005  -0.005  -0.000  -0.003
 total augmentation occupancy for first ion, spin component:           1
  4.300  -0.021   0.028   0.059  -0.060  -2.500   0.013  -0.017  -0.092   0.044   0.005   0.002   0.016  -0.001   0.022   0.003
 -0.021   4.008   0.145   0.008   0.069   0.014  -1.748  -0.115   0.000  -0.073  -0.067   0.029  -0.163  -0.032   0.005   0.004
  0.028   0.145   4.341  -0.042   0.058  -0.018  -0.115  -2.227   0.034  -0.059   1.023  -0.111  -0.047  -0.207   0.019   0.005
  0.059   0.008  -0.042   4.138   0.030  -0.091   0.000   0.034  -1.857  -0.006   0.032  -0.003   0.004   0.014  -0.173  -0.000
 -0.060   0.069   0.058   0.030   4.293   0.044  -0.073  -0.059  -0.005  -2.464   0.011   0.010  -0.049  -0.007  -0.047   0.007
 -2.500   0.014  -0.018  -0.091   0.044   2.581  -0.008   0.009   0.115  -0.032  -0.006  -0.001  -0.018  -0.001  -0.014   0.000
  0.013  -1.748  -0.115   0.000  -0.073  -0.008   1.461   0.091  -0.007   0.075   0.060  -0.027   0.154   0.027  -0.006  -0.006
 -0.017  -0.115  -2.227   0.034  -0.059   0.009   0.091   2.059  -0.029   0.060  -0.957   0.134   0.036   0.210  -0.013  -0.003
 -0.092   0.000   0.034  -1.857  -0.005   0.115  -0.007  -0.029   1.552  -0.013  -0.032   0.004  -0.004  -0.016   0.163   0.000
  0.044  -0.073  -0.059  -0.006  -2.464  -0.032   0.075   0.060  -0.013   2.519  -0.017  -0.006   0.038   0.006   0.034  -0.003
  0.005  -0.067   1.023   0.032   0.011  -0.006   0.060  -0.957  -0.032  -0.017   2.389  -0.498  -0.012   0.118  -0.003   0.001
  0.002   0.029  -0.111  -0.003   0.010  -0.001  -0.027   0.134   0.004  -0.006  -0.498   0.149   0.020  -0.056  -0.011  -0.001
  0.016  -0.163  -0.047   0.004  -0.049  -0.018   0.154   0.036  -0.004   0.038  -0.012   0.020   0.189   0.002  -0.000  -0.006
 -0.001  -0.032  -0.207   0.014  -0.007  -0.001   0.027   0.210  -0.016   0.006   0.118  -0.056   0.002   0.085  -0.002  -0.000
  0.022   0.005   0.019  -0.173  -0.047  -0.014  -0.006  -0.013   0.163   0.034  -0.003  -0.011  -0.000  -0.002   0.184   0.000
  0.003   0.004   0.005  -0.000   0.007   0.000  -0.006  -0.003   0.000  -0.003   0.001  -0.001  -0.006  -0.000   0.000   0.000
 -0.000  -0.003   0.001   0.004   0.001   0.000  -0.000  -0.006  -0.000  -0.000  -0.008   0.003  -0.000  -0.003   0.000   0.000
 -0.005  -0.000  -0.003   0.005   0.006   0.002   0.000   0.001  -0.007  -0.002   0.000   0.000   0.000   0.000  -0.006  -0.000


------------------------ aborting loop because EDIFF is reached ----------------------------------------


    CHARGE:  cpu time    0.4279: real time    0.4297
    FORLOC:  cpu time    0.0261: real time    0.0262
    FORNL :  cpu time    1.8849: real time    1.8877
    FORCOR:  cpu time    0.0672: real time    0.0687
    FORHAR:  cpu time    0.0290: real time    0.0290
    MIXING:  cpu time    0.0025: real time    0.0025
    OFIELD:  cpu time    0.0000: real time    0.0000

 VOLUME and BASIS-vectors are now :
 -----------------------------------------------------------------------------
  energy-cutoff  :      400.00
  volume of cell :     2567.68
      direct lattice vectors                 reciprocal lattice vectors
    11.002581515  0.000000000  0.000000000     0.090887761 -0.052474073  0.000000000
     5.501290758  9.528515099  0.000000000     0.000000000  0.104948147  0.000000000
     0.000000000  0.000000000 24.491785094     0.000000000  0.000000000  0.040830017

  length of vectors
    11.002581515 11.002581515 24.491785094     0.104948147  0.104948147  0.040830017


 FORCES acting on ions
    electron-ion (+dipol)            ewald-force                    non-local-force                 convergence-correction
 -----------------------------------------------------------------------------------------------
   0.315E-01 -.287E+01 0.228E+04   -.797E+00 0.368E+01 -.228E+04   0.764E+00 -.800E+00 0.979E-02   -.551E-02 -.502E-02 -.154E-01
   0.391E+01 -.151E+02 0.226E+04   -.408E+01 0.148E+02 -.226E+04   0.173E+00 0.247E+00 -.324E+00   -.784E-02 0.315E-01 0.886E-02
   0.201E+02 -.532E+01 -.661E+01   -.192E+02 0.601E+01 0.721E+01   -.882E+00 -.716E+00 -.540E+00   -.135E-01 0.242E-01 -.539E-01
   -.118E+02 0.637E+01 -.231E+04   0.124E+02 -.652E+01 0.231E+04   -.545E+00 0.159E+00 0.225E+00   -.262E-01 0.751E-03 -.599E-01
   0.855E+01 -.905E+01 -.547E+02   -.904E+01 0.808E+01 0.541E+02   0.508E+00 0.992E+00 0.660E+00   -.238E-01 -.226E-01 -.836E-01
   -.813E+01 -.571E+01 -.229E+04   0.874E+01 0.595E+01 0.229E+04   -.592E+00 -.248E+00 -.106E-01   -.165E-01 -.132E-02 -.595E-02
   -.660E+01 -.995E+01 0.222E+04   0.702E+01 0.100E+02 -.222E+04   -.425E+00 -.128E+00 -.110E+00   0.110E-01 0.259E-01 0.125E-02
   0.348E+01 -.728E+01 -.230E+04   -.360E+01 0.708E+01 0.230E+04   0.140E+00 0.212E+00 -.576E-02   -.501E-02 -.180E-02 -.496E-01
   -.943E+01 0.744E+00 -.212E+02   0.854E+01 -.502E+00 0.218E+02   0.888E+00 -.247E+00 -.517E+00   0.158E-01 -.259E-02 -.415E-01
   -.938E+00 0.192E+02 0.229E+04   0.144E+01 -.200E+02 -.229E+04   -.507E+00 0.808E+00 0.309E+00   -.322E-02 -.158E-01 -.382E-01
   -.116E+02 -.527E+01 0.218E+04   0.121E+02 0.526E+01 -.218E+04   -.538E+00 0.133E-01 -.664E+00   0.221E-01 0.408E-03 -.721E-02
   -.821E+01 0.136E+01 0.536E+01   0.832E+01 -.115E+01 -.417E+01   -.125E+00 -.212E+00 -.115E+01   0.108E-01 0.120E-01 -.394E-01
   -.593E+01 -.927E+00 0.224E+04   0.605E+01 0.119E+01 -.224E+04   -.130E+00 -.279E+00 0.114E-01   0.146E-01 0.791E-02 -.119E-01
   0.162E+02 -.109E+02 -.225E+04   -.160E+02 0.116E+02 0.225E+04   -.186E+00 -.632E+00 0.220E+00   -.158E-02 -.928E-02 -.274E-01
   -.254E+01 0.186E+02 0.221E+04   0.193E+01 -.191E+02 -.221E+04   0.588E+00 0.472E+00 -.161E+00   0.202E-01 -.200E-01 -.153E-01
   0.508E+01 -.307E+01 -.225E+04   -.538E+01 0.316E+01 0.225E+04   0.294E+00 -.682E-01 0.191E+00   0.122E-01 -.111E-01 -.875E-02
   0.146E+01 0.193E+02 -.229E+04   -.204E+01 -.195E+02 0.229E+04   0.605E+00 0.166E+00 0.297E+00   -.119E-01 -.230E-02 -.575E-01
   -.619E+01 0.108E+02 -.737E+01   0.647E+01 -.103E+02 0.730E+01   -.299E+00 -.492E+00 0.103E+00   0.261E-01 -.141E-01 -.341E-01
   -.162E+02 0.944E+01 0.222E+04   0.168E+02 -.962E+01 -.222E+04   -.665E+00 0.206E+00 -.315E+00   0.395E-01 -.209E-01 -.249E-01
   0.834E+01 -.353E+01 -.225E+04   -.821E+01 0.326E+01 0.225E+04   -.136E+00 0.292E+00 0.466E+00   0.203E-02 -.115E-01 -.413E-01
   0.992E+01 -.627E+01 0.229E+04   -.103E+02 0.598E+01 -.229E+04   0.361E+00 0.275E+00 0.242E+00   -.361E-02 0.170E-01 -.768E-02
   -.148E+01 0.276E+01 -.357E+01   0.131E+01 -.271E+01 0.411E+01   0.194E+00 -.679E-01 -.501E+00   -.232E-01 0.537E-02 -.514E-01
   -.475E+01 0.541E+01 -.164E+01   0.482E+01 -.577E+01 0.234E+01   -.726E-01 0.372E+00 -.629E+00   -.489E-02 -.774E-02 -.716E-01
   0.104E+02 -.123E+02 0.222E+04   -.112E+02 0.128E+02 -.222E+04   0.782E+00 -.513E+00 -.140E+00   -.148E-02 0.132E-01 -.117E-01
   -.331E+01 -.270E+01 0.207E+02   0.350E+01 0.281E+01 -.203E+02   -.186E+00 -.132E+00 -.359E+00   0.405E-02 0.220E-01 -.193E-01
   0.368E+01 0.412E+01 0.197E+04   -.392E+01 -.387E+01 -.197E+04   0.236E+00 -.246E+00 -.166E+01   0.671E-02 -.560E-02 0.244E-01
   -.771E+01 -.401E+01 -.199E+04   0.741E+01 0.405E+01 0.198E+04   0.303E+00 -.260E-01 0.180E+01   0.455E-02 -.185E-01 -.376E-01
   0.153E+02 0.686E+01 0.196E+04   -.155E+02 -.713E+01 -.196E+04   0.200E+00 0.273E+00 -.141E+01   -.110E-01 -.613E-02 -.216E-01
   -.220E+02 -.563E+01 -.201E+04   0.224E+02 0.554E+01 0.201E+04   -.407E+00 0.899E-01 0.127E+01   -.223E-01 0.107E-02 -.401E-01
   0.954E+00 0.830E+00 -.148E+02   -.137E+01 -.431E+00 0.152E+02   0.425E+00 -.437E+00 -.381E+00   -.637E-02 0.302E-01 -.635E-01
   -.100E+02 0.637E+01 -.198E+04   0.103E+02 -.640E+01 0.198E+04   -.299E+00 0.132E-01 0.180E+01   -.721E-02 0.167E-01 -.335E-01
   0.137E+02 -.191E+02 0.194E+04   -.139E+02 0.198E+02 -.194E+04   0.223E+00 -.638E+00 -.183E+01   -.189E-01 0.230E-01 -.122E-01
   -.161E+01 0.589E+01 0.198E+04   0.196E+01 -.609E+01 -.198E+04   -.333E+00 0.194E+00 -.132E+01   -.343E-02 0.132E-02 -.518E-02
   -.323E+01 0.282E+01 -.197E+04   0.349E+01 -.277E+01 0.197E+04   -.260E+00 -.433E-01 0.189E+01   -.670E-02 -.246E-02 -.723E-01
   -.693E+01 0.238E+00 0.170E+02   0.662E+01 -.425E+00 -.165E+02   0.300E+00 0.190E+00 -.495E+00   -.850E-02 -.815E-02 -.212E-01
   -.124E+02 -.136E+02 0.192E+04   0.127E+02 0.137E+02 -.192E+04   -.351E+00 -.149E+00 -.187E+01   0.146E-01 0.202E-01 -.170E-01
   0.316E+01 -.835E+01 -.200E+04   -.362E+01 0.877E+01 0.200E+04   0.450E+00 -.418E+00 0.157E+01   0.146E-01 -.569E-02 -.139E-01
   0.153E+01 0.556E+01 -.197E+04   -.159E+01 -.578E+01 0.197E+04   0.660E-01 0.215E+00 0.180E+01   -.476E-02 0.210E-02 -.753E-02
   0.109E+02 0.565E+01 -.199E+04   -.110E+02 -.598E+01 0.199E+04   0.776E-01 0.334E+00 0.191E+01   -.321E-02 -.240E-02 -.821E-01
   0.264E+01 -.831E+01 -.399E+02   -.252E+01 0.772E+01 0.399E+02   -.130E+00 0.614E+00 0.820E-01   0.695E-02 -.269E-01 -.768E-01
   -.140E-01 0.179E+02 0.193E+04   0.261E+00 -.184E+02 -.193E+04   -.247E+00 0.520E+00 -.173E+01   -.495E-02 -.205E-01 -.339E-01
   -.332E+01 -.701E+00 -.844E+02   0.280E+01 0.921E+00 0.836E+02   0.544E+00 -.228E+00 0.903E+00   -.166E-01 0.131E-01 -.909E-01
   -.535E+01 0.430E+01 -.489E+01   0.522E+01 -.451E+01 0.544E+01   0.108E+00 0.220E+00 -.501E+00   0.219E-01 -.142E-01 -.418E-01
   -.125E+01 0.161E+01 -.347E+02   0.130E+01 -.168E+01 0.347E+02   -.319E-01 0.704E-01 0.577E-01   -.206E-01 0.371E-02 -.728E-01
   0.158E+02 -.773E+01 -.199E+04   -.164E+02 0.778E+01 0.198E+04   0.630E+00 -.403E-01 0.154E+01   0.108E-01 -.946E-02 -.712E-02
   -.268E+01 0.114E+02 -.200E+04   0.296E+01 -.113E+02 0.200E+04   -.264E+00 -.150E+00 0.157E+01   -.794E-02 -.890E-02 -.358E-01
   0.961E+01 -.510E+01 -.316E+02   -.902E+01 0.452E+01 0.321E+02   -.602E+00 0.602E+00 -.438E+00   0.145E-01 -.126E-01 -.777E-01
   0.867E+01 0.521E+01 -.142E+02   -.814E+01 -.456E+01 0.146E+02   -.553E+00 -.665E+00 -.399E+00   0.155E-01 0.178E-01 -.462E-01
 -----------------------------------------------------------------------------------------------
   -.468E-01 0.502E-01 0.215E+00   -.167E-12 -.473E-12 0.259E-11   0.964E-01 -.253E-01 0.146E+01   -.224E-02 0.176E-02 -.165E+01
 
 
 POSITION                                       TOTAL-FORCE (eV/Angst)
 -----------------------------------------------------------------------------------
      1.34477      0.81084      9.68550        -0.007941      0.005492     -0.001935
     12.36614      5.54542      9.71936        -0.001346     -0.000448     -0.006909
      9.64485      3.99582     12.24693        -0.005650      0.000024      0.006109
      8.28149     -0.00854     14.83593         0.001004      0.001375      0.001384
      8.23753      1.56252     12.29314        -0.000962     -0.002419      0.000260
      8.28448      4.77770     14.80268         0.001358     -0.001940     -0.010583
      9.63724      5.55357      9.74779        -0.000565     -0.001905     -0.004623
      6.88046      2.38318     14.84465         0.010954      0.007552      0.007043
      6.86293      3.96903     12.26751         0.015364     -0.008257     -0.004319
      8.26365      3.12927      9.65661        -0.011115      0.003067      0.004345
      8.25891      7.94314      9.80457        -0.000455      0.001810     -0.001108
      5.50550      6.36518     12.24498        -0.004064      0.009811      0.003766
      6.87077      5.55091      9.68254         0.002775     -0.006198      0.001553
      4.12321      2.41378     14.74246        -0.005800      0.007087      0.002973
      5.49072      3.14779      9.75205         0.001194     -0.009929     -0.005674
      6.87179      7.15594     14.73750         0.006982      0.003502      0.004304
     12.36591      7.13692     14.77547         0.011528     -0.002162      0.008349
      2.76560      1.60103     12.24091        -0.000476      0.008886      0.003594
      4.14319      0.77668      9.77997         0.010623      0.002821     -0.000335
      2.75999      0.00645     14.73143        -0.008185      0.006584      0.009660
      4.09603      5.54872      9.64204        -0.003327      0.000762     -0.000735
     13.73692      6.35795     12.24428         0.006910     -0.012552     -0.004169
     11.01408      1.57790     12.23978        -0.004261      0.001495     -0.000703
      5.45639      7.95313      9.74689        -0.002278      0.003259     -0.005643
     12.38508      3.99329     12.20513         0.003784     -0.000823      0.001821
      2.73669      3.16744      9.84085         0.004190     -0.005113      0.001512
      0.00399      0.01303     14.62212         0.009529     -0.001115      0.001875
      9.60405      0.77899      9.87987        -0.000537     -0.002792      0.004632
      9.64924      2.38641     14.65499        -0.002916      0.003380     -0.003431
     11.00148      6.36645     12.25358         0.000123     -0.008158      0.005549
     11.02625      4.76087     14.60515         0.004354     -0.000245      0.003688
     13.72369      7.95368      9.92076        -0.007592      0.005492     -0.007977
     10.99531      3.16328      9.83539         0.006643     -0.005619      0.006279
      9.63831      7.14804     14.61044        -0.006997      0.002850      0.002226
      4.12308      3.96807     12.21644        -0.016196     -0.005546     -0.007208
     11.02239      7.93822      9.95150        -0.005259      0.004863      0.002882
      1.36183      2.40955     14.61440         0.006945      0.001235     -0.000999
      2.75248      4.77154     14.58063         0.002288     -0.000688     -0.003690
      5.50394      0.00123     14.65689         0.000303     -0.001404     -0.000233
      5.49860      1.57288     12.28130        -0.003842      0.000003     -0.009039
      6.88616      0.76359      9.94368        -0.006315     -0.003531      0.000622
     12.36154      8.73044     12.33425         0.006101      0.005451     -0.007132
      6.88786      8.73284     12.24646        -0.004054     -0.005547      0.003363
     15.12499      8.73136     12.27636         0.000642      0.000325     -0.003190
      5.49534      4.77585     14.63315        -0.000059      0.006467     -0.001438
      4.13293      7.14518     14.64216         0.005662     -0.003999      0.000713
      9.63920      8.72618     12.27714        -0.005816      0.002108     -0.001109
      8.26819      6.37459     12.25523        -0.003244     -0.005310      0.003679
 -----------------------------------------------------------------------------------
    total drift:                                0.047311      0.026659      0.025544


--------------------------------------------------------------------------------------------------------



  FREE ENERGIE OF THE ION-ELECTRON SYSTEM (eV)
  ---------------------------------------------------
  free  energy   TOTEN  =      -192.57514412 eV

  energy  without entropy=     -192.32353903  energy(sigma->0) =     -192.44934157
 
 d Force = 0.5555838E-04[ 0.150E-04, 0.961E-04]  d Energy = 0.3899131E-04 0.166E-04
 d Force = 0.1536001E+01[ 0.154E+01, 0.153E+01]  d Ewald  = 0.1535999E+01 0.205E-05


--------------------------------------------------------------------------------------------------------


    POTLOK:  cpu time    0.0576: real time    0.0576


--------------------------------------------------------------------------------------------------------


 stress matrix after NEB project (eV)
      0.00000      0.00000      0.00000
      0.00000      0.00000      0.00000
      0.00000      0.00000      0.00000
  FORCES: max atom, RMS     0.018575    0.009310
  FORCE total and by dimension    0.064504    0.016196
  Stress total and by dimension    0.000000    0.000000


--------------------------------------------------------------------------------------------------------


  
 reached required accuracy - stopping structural energy minimisation
     LOOP+:  cpu time   38.2613: real time   38.4293
    4ORBIT:  cpu time    0.0000: real time    0.0000

 total amount of memory used by VASP on root node    84353. kBytes
========================================================================

   base      :      30000. kBytes
   nonlr-proj:       4285. kBytes
   fftplans  :       4447. kBytes
   grid      :       6721. kBytes
   one-center:        124. kBytes
   wavefun   :      38776. kBytes
 
  
  
 General timing and accounting informations for this job:
 ========================================================
  
                  Total CPU time used (sec):     2213.930
                            User time (sec):     2120.553
                          System time (sec):       93.376
                         Elapsed time (sec):     2232.461
  
                   Maximum memory used (kb):      907240.
                   Average memory used (kb):           0.
  
                          Minor page faults:       771299
                          Major page faults:            0
                 Voluntary context switches:        10764
