unknown system                          
           1
    11.002582    0.000000    0.000000
     5.501291    9.528515    0.000000
     0.000000    0.000000   24.491785
   Au   Pd
  24  24
Direct configuration=     1
   0.08333333  0.08333333  0.40830017
   0.83333333  0.58333333  0.40830017
   0.66666667  0.41666667  0.50000000
   0.75000000  0.00000000  0.59169983
   0.66666667  0.16666667  0.50000000
   0.50000000  0.50000000  0.59169983
   0.58333333  0.58333333  0.40830017
   0.50000000  0.25000000  0.59169983
   0.41666667  0.41666667  0.50000000
   0.58333333  0.33333333  0.40830017
   0.33333333  0.83333333  0.40830017
   0.16666667  0.66666667  0.50000000
   0.33333333  0.58333333  0.40830017
   0.25000000  0.25000000  0.59169983
   0.33333333  0.33333333  0.40830017
   0.25000000  0.75000000  0.59169983
   0.75000000  0.75000000  0.59169983
   0.16666667  0.16666667  0.50000000
   0.33333333  0.08333333  0.40830017
   0.25000000  0.00000000  0.59169983
   0.08333333  0.58333333  0.40830017
   0.91666667  0.66666667  0.50000000
   0.91666667  0.16666667  0.50000000
   0.08333333  0.83333333  0.40830017
   0.91666667  0.41666667  0.50000000
   0.08333333  0.33333333  0.40830017
   0.00000000  0.00000000  0.59169983
   0.83333333  0.08333333  0.40830017
   0.75000000  0.25000000  0.59169983
   0.66666667  0.66666667  0.50000000
   0.75000000  0.50000000  0.59169983
   0.83333333  0.83333333  0.40830017
   0.83333333  0.33333333  0.40830017
   0.50000000  0.75000000  0.59169983
   0.16666667  0.41666667  0.50000000
   0.58333333  0.83333333  0.40830017
   0.00000000  0.25000000  0.59169983
   0.00000000  0.50000000  0.59169983
   0.50000000  0.00000000  0.59169983
   0.41666667  0.16666667  0.50000000
   0.58333333  0.08333333  0.40830017
   0.66666667  0.91666667  0.50000000
   0.16666667  0.91666667  0.50000000
   0.91666667  0.91666667  0.50000000
   0.25000000  0.50000000  0.59169983
   0.00000000  0.75000000  0.59169983
   0.41666667  0.91666667  0.50000000
   0.41666667  0.66666667  0.50000000
Direct configuration=     2
   0.08197507  0.08422914  0.40615060
   0.83308582  0.58303239  0.40648933
   0.66838089  0.41775055  0.50043940
   0.75095568 -0.00046387  0.59362098
   0.66758554  0.16426915  0.49962133
   0.50053507  0.50064208  0.59389499
   0.58396934  0.58389956  0.40643214
   0.49965265  0.24967871  0.59393864
   0.41499940  0.41691559  0.50043246
   0.58485362  0.33173740  0.40576967
   0.33418690  0.83338330  0.40672875
   0.16604314  0.66728813  0.50087358
   0.33351554  0.58368405  0.40599119
   0.24953183  0.25096035  0.59352738
   0.33302577  0.33223485  0.40637140
   0.24958060  0.75033286  0.59350990
   0.74946663  0.74954972  0.59343290
   0.16620134  0.16795473  0.50009536
   0.33462784  0.08306752  0.40652316
   0.25044821 -0.00060346  0.59350805
   0.08271119  0.58286798  0.40605009
   0.91603567  0.66692893  0.50037415
   0.91691140  0.16620297  0.50039702
   0.08152010  0.83461189  0.40637432
   0.91672386  0.41696618  0.50030126
   0.08281802  0.33368712  0.40728419
  -0.00039353  0.00008706  0.59269275
   0.83312014  0.08278044  0.40713897
   0.75093607  0.24995900  0.59308670
   0.66572837  0.66746514  0.50023566
   0.75059097  0.49977629  0.59257517
   0.83215122  0.83467161  0.40737328
   0.83388227  0.33317434  0.40709588
   0.50038735  0.75009354  0.59246210
   0.16614944  0.41619682  0.50029590
   0.58382371  0.83371944  0.40762723
  -0.00114684  0.25087664  0.59283957
   0.00001606  0.49968794  0.59258592
   0.50007347 -0.00060021  0.59250199
   0.41752451  0.16521475  0.49989316
   0.58419988  0.08218789  0.40739661
   0.66554462  0.91687603  0.49949677
   0.16664028  0.91640839  0.50034965
   0.91656992  0.91673063  0.49997609
   0.24902387  0.50024441  0.59291529
   0.00028256  0.75001040  0.59281320
   0.41849983  0.91544866  0.50023035
   0.41705470  0.66818299  0.50028551
Direct configuration=     3
   0.07790029  0.08691656  0.39970191
   0.83234327  0.58212956  0.40105679
   0.67352355  0.42100219  0.50175758
   0.75382272 -0.00185548  0.59938442
   0.67034217  0.15707658  0.49848534
   0.50214028  0.50256834  0.60048048
   0.58587735  0.58559824  0.40082806
   0.49861062  0.24871484  0.60065507
   0.40999761  0.41766237  0.50172985
   0.58941450  0.32694959  0.39817817
   0.33674761  0.83353321  0.40201448
   0.16417256  0.66915253  0.50349432
   0.33406216  0.58473618  0.39906426
   0.24812733  0.25384138  0.59901003
   0.33210308  0.32893941  0.40058511
   0.24832241  0.75133143  0.59894011
   0.74786653  0.74819889  0.59863209
   0.16480535  0.17181893  0.50038144
   0.33851134  0.08227008  0.40119215
   0.25179283 -0.00241383  0.59893273
   0.08084476  0.58147190  0.39929984
   0.91414268  0.66771570  0.50149661
   0.91764561  0.16481188  0.50158808
   0.07608042  0.83844757  0.40059676
   0.91689545  0.41786474  0.50120506
   0.08127209  0.33474847  0.40423623
  -0.00157411  0.00034826  0.59567153
   0.83248056  0.08112175  0.40365538
   0.75374429  0.24983598  0.59724731
   0.66291348  0.66986055  0.50094262
   0.75236390  0.49910515  0.59520120
   0.82860486  0.83868645  0.40459262
   0.83552906  0.33269735  0.40348300
   0.50154941  0.75037415  0.59474889
   0.16459776  0.41478726  0.50118359
   0.58529483  0.83487777  0.40560843
  -0.00458737  0.25350656  0.59625881
   0.00006424  0.49875175  0.59524418
   0.50029390 -0.00240086  0.59490847
   0.42009806  0.16085899  0.49957265
   0.58679951  0.07875156  0.40468594
   0.66217847  0.91750412  0.49798706
   0.16656113  0.91563357  0.50139859
   0.91627967  0.91692253  0.49990435
   0.24609548  0.50097764  0.59656168
   0.00113023  0.75004160  0.59615332
   0.42399931  0.91179463  0.50092138
   0.41821880  0.67273196  0.50114203
Direct configuration=     4
   0.07931707  0.08651832  0.39849218
   0.83278841  0.58291535  0.39997258
   0.66969268  0.41973800  0.50115576
   0.75293240 -0.00178382  0.60073912
   0.66790842  0.16163859  0.49910809
   0.50200248  0.50160506  0.60180870
   0.58572875  0.58399426  0.39967515
   0.50009077  0.24868884  0.60195805
   0.41338252  0.41673648  0.50134917
   0.58823884  0.32835062  0.39708202
   0.33480144  0.83510619  0.40110542
   0.16490445  0.66885082  0.50236729
   0.33374385  0.58397243  0.39813920
   0.24804952  0.25232237  0.60045321
   0.33305488  0.33046146  0.39951837
   0.24902528  0.75080418  0.60070828
   0.74867772  0.74866280  0.60006631
   0.16675930  0.16846643  0.50030721
   0.33690367  0.08144202  0.40005676
   0.25093410 -0.00065685  0.60003817
   0.08096277  0.58287823  0.39811648
   0.91332975  0.66817686  0.50100517
   0.91804539  0.16464571  0.50112278
   0.07799002  0.83625893  0.39951810
   0.91707537  0.41914581  0.50068421
   0.08153035  0.33369863  0.40351664
  -0.00105201  0.00054317  0.59665307
   0.83232197  0.08219811  0.40267952
   0.75215683  0.24992814  0.59809120
   0.66520650  0.66956655  0.50055815
   0.75264873  0.49939710  0.59663811
   0.82956232  0.83664907  0.40388873
   0.83468610  0.33268141  0.40290719
   0.50125473  0.74996712  0.59598835
   0.16479612  0.41578695  0.50066463
   0.58595678  0.83405281  0.40470724
  -0.00341914  0.25264732  0.59735991
  -0.00058980  0.49958992  0.59628519
   0.50050781 -0.00163648  0.59565167
   0.41866533  0.16224748  0.49979215
   0.58631844  0.07993324  0.40335777
   0.66436730  0.91534376  0.49888260
   0.16742148  0.91660636  0.50094512
   0.91699150  0.91532992  0.49992537
   0.24682158  0.50116141  0.59792342
  -0.00010374  0.75013696  0.59749437
   0.42028940  0.91454581  0.50068947
   0.41732154  0.67068620  0.50085233
Direct configuration=     5
   0.08007321  0.08630578  0.39784655
   0.83302597  0.58333472  0.39939394
   0.66764817  0.41906331  0.50083456
   0.75245724 -0.00174558  0.60146213
   0.66660955  0.16407332  0.49944045
   0.50192894  0.50109096  0.60251756
   0.58564944  0.58313823  0.39905984
   0.50088072  0.24867496  0.60265344
   0.41518903  0.41624233  0.50114600
   0.58761140  0.32909835  0.39649701
   0.33376278  0.83594569  0.40062025
   0.16529505  0.66868979  0.50176581
   0.33357397  0.58356482  0.39764549
   0.24800798  0.25151167  0.60122343
   0.33356286  0.33127376  0.39894906
   0.24940040  0.75052280  0.60165194
   0.74911065  0.74891038  0.60083175
   0.16780211  0.16667721  0.50026759
   0.33604566  0.08100009  0.39945081
   0.25047581  0.00028084  0.60062814
   0.08102575  0.58362878  0.39748492
   0.91289589  0.66842297  0.50074289
   0.91825875  0.16455702  0.50087445
   0.07900917  0.83509086  0.39894243
   0.91717139  0.41982951  0.50040623
   0.08166818  0.33313833  0.40313259
  -0.00077336  0.00064719  0.59717692
   0.83223734  0.08277256  0.40215871
   0.75130960  0.24997732  0.59854159
   0.66643027  0.66940964  0.50035296
   0.75280075  0.49955292  0.59740499
   0.83007332  0.83556172  0.40351307
   0.83423621  0.33267291  0.40259989
   0.50109747  0.74974989  0.59664985
   0.16490199  0.41632048  0.50038767
   0.58631006  0.83361252  0.40422628
  -0.00279566  0.25218875  0.59794756
  -0.00093885  0.50003725  0.59684078
   0.50062197 -0.00122854  0.59604831
   0.41790070  0.16298850  0.49990930
   0.58606169  0.08056390  0.40264894
   0.66553547  0.91419078  0.49936054
   0.16788065  0.91712554  0.50070310
   0.91737141  0.91447995  0.49993659
   0.24720910  0.50125948  0.59865018
  -0.00076231  0.75018785  0.59821008
   0.41830944  0.91601410  0.50056571
   0.41684268  0.66959439  0.50069773
Direct configuration=     6
   0.07978462  0.08600446  0.39738030
   0.83338009  0.58287532  0.39888768
   0.66729116  0.41936326  0.50074915
   0.75226360 -0.00139674  0.60189006
   0.66663058  0.16387180  0.49967532
   0.50189084  0.50081790  0.60297265
   0.58494493  0.58329900  0.39879186
   0.50047539  0.24905722  0.60313690
   0.41505992  0.41646421  0.50108308
   0.58690118  0.32975908  0.39603457
   0.33382544  0.83463044  0.40040576
   0.16614800  0.66798083  0.50146245
   0.33368899  0.58355933  0.39739729
   0.24824022  0.25190767  0.60162345
   0.33354480  0.33132937  0.39872064
   0.24920674  0.75058720  0.60212051
   0.74904012  0.74915111  0.60149423
   0.16751333  0.16713823  0.50026445
   0.33587638  0.08207983  0.39906078
   0.25035841  0.00017276  0.60108837
   0.08144806  0.58332740  0.39704457
   0.91456195  0.66777331  0.50060465
   0.91799092  0.16513735  0.50066089
   0.07953088  0.83503825  0.39864957
   0.91664477  0.41907457  0.50020062
   0.08232941  0.33309488  0.40302249
  -0.00052428  0.00056357  0.59738199
   0.83267973  0.08253777  0.40210089
   0.75122966  0.24994885  0.59859444
   0.66564759  0.66840832  0.50027308
   0.75246157  0.49930559  0.59758760
   0.83044463  0.83547979  0.40327024
   0.83397413  0.33272901  0.40259401
   0.50093377  0.74970239  0.59680480
   0.16586691  0.41639091  0.50020218
   0.58567680  0.83344321  0.40403687
  -0.00282148  0.25202301  0.59806955
  -0.00060609  0.50016480  0.59714563
   0.50065698 -0.00097385  0.59625313
   0.41757768  0.16409640  0.49986562
   0.58573056  0.08091774  0.40258388
   0.66529748  0.91576365  0.49988385
   0.16804151  0.91649627  0.50056778
   0.91684105  0.91541152  0.49998967
   0.24775783  0.50092364  0.59880633
  -0.00030194  0.74986953  0.59850869
   0.41802100  0.91561853  0.50049241
   0.41684419  0.66908130  0.50056506
Direct configuration=     7
   0.07965520  0.08586934  0.39717123
   0.83353889  0.58266931  0.39866065
   0.66713106  0.41949777  0.50071084
   0.75217676 -0.00124031  0.60208196
   0.66664002  0.16378143  0.49978065
   0.50187376  0.50069544  0.60317673
   0.58462900  0.58337109  0.39867169
   0.50029362  0.24922864  0.60335370
   0.41500203  0.41656371  0.50105487
   0.58658269  0.33005537  0.39582719
   0.33385354  0.83404064  0.40030958
   0.16653050  0.66766291  0.50132642
   0.33374056  0.58355688  0.39728598
   0.24834436  0.25208525  0.60180283
   0.33353670  0.33135431  0.39861821
   0.24911990  0.75061608  0.60233063
   0.74900850  0.74925906  0.60179132
   0.16738383  0.16734497  0.50026305
   0.33580047  0.08256402  0.39888588
   0.25030576  0.00012430  0.60129475
   0.08163744  0.58319225  0.39684710
   0.91530907  0.66748197  0.50054266
   0.91787081  0.16539759  0.50056512
   0.07976484  0.83501465  0.39851823
   0.91640862  0.41873603  0.50010841
   0.08262593  0.33307540  0.40297311
  -0.00041258  0.00052607  0.59747395
   0.83287811  0.08243249  0.40207497
   0.75119381  0.24993608  0.59861814
   0.66529660  0.66795929  0.50023726
   0.75230948  0.49919468  0.59766949
   0.83061113  0.83544304  0.40316135
   0.83385660  0.33275416  0.40259137
   0.50086036  0.74968110  0.59687428
   0.16629961  0.41642250  0.50011900
   0.58539283  0.83336728  0.40395193
  -0.00283306  0.25194869  0.59812426
  -0.00045687  0.50022200  0.59728233
   0.50067268 -0.00085965  0.59634497
   0.41743282  0.16459322  0.49984604
   0.58558207  0.08107642  0.40255470
   0.66519075  0.91646898  0.50011852
   0.16811365  0.91621409  0.50050710
   0.91660322  0.91582927  0.50001347
   0.24800390  0.50077303  0.59887635
  -0.00009549  0.74972679  0.59864260
   0.41789165  0.91544115  0.50045955
   0.41684486  0.66885122  0.50050557
Direct configuration=     8
   0.07979198  0.08581177  0.39690436
   0.83343533  0.58245448  0.39842068
   0.66718318  0.41938488  0.50075340
   0.75243763 -0.00115683  0.60239219
   0.66678324  0.16377699  0.49984730
   0.50182050  0.50083607  0.60343029
   0.58483157  0.58344530  0.39850789
   0.49999283  0.24939012  0.60370381
   0.41510990  0.41651713  0.50109825
   0.58665494  0.32978941  0.39552013
   0.33396956  0.83421774  0.40022452
   0.16655201  0.66794928  0.50133954
   0.33361097  0.58330444  0.39703792
   0.24828267  0.25234037  0.60191958
   0.33353987  0.33145450  0.39846382
   0.24896127  0.75056949  0.60246852
   0.74897947  0.74901205  0.60200679
   0.16722826  0.16784169  0.50032372
   0.33582025  0.08239159  0.39874941
   0.25047411  0.00001406  0.60148493
   0.08180056  0.58299430  0.39647933
   0.91521309  0.66729868  0.50054281
   0.91785364  0.16539858  0.50051683
   0.07951547  0.83515065  0.39837778
   0.91630674  0.41874160  0.50008397
   0.08277291  0.33307408  0.40298693
  -0.00040872  0.00046984  0.59741323
   0.83264954  0.08234710  0.40217733
   0.75142003  0.24983931  0.59851171
   0.66529283  0.66816369  0.50024295
   0.75215684  0.49915134  0.59760040
   0.83048918  0.83559874  0.40319012
   0.83373453  0.33282608  0.40257904
   0.50077555  0.74971540  0.59677218
   0.16647635  0.41613609  0.50012230
   0.58508971  0.83355597  0.40413660
  -0.00291862  0.25203472  0.59804233
  -0.00034018  0.50020188  0.59724289
   0.50038275 -0.00074427  0.59640043
   0.41730322  0.16479693  0.49982783
   0.58581717  0.08090884  0.40277671
   0.66502981  0.91648620  0.50034830
   0.16782940  0.91595399  0.50052068
   0.91669095  0.91613358  0.50011664
   0.24817608  0.50080656  0.59880370
   0.00038326  0.74956594  0.59860893
   0.41826622  0.91513985  0.50040875
   0.41678216  0.66890977  0.50057225
Direct configuration=     9
   0.07990696  0.08576338  0.39667999
   0.83334825  0.58227387  0.39821892
   0.66722699  0.41928998  0.50078917
   0.75265695 -0.00108665  0.60265302
   0.66690365  0.16377326  0.49990333
   0.50177572  0.50095431  0.60364346
   0.58500188  0.58350769  0.39837018
   0.49973994  0.24952588  0.60399816
   0.41520060  0.41647798  0.50113472
   0.58671568  0.32956580  0.39526197
   0.33406710  0.83436663  0.40015301
   0.16657010  0.66819005  0.50135058
   0.33350203  0.58309221  0.39682938
   0.24823080  0.25255485  0.60201774
   0.33354255  0.33153874  0.39833403
   0.24882792  0.75053032  0.60258444
   0.74895506  0.74880438  0.60218795
   0.16709747  0.16825930  0.50037472
   0.33583687  0.08224662  0.39863468
   0.25061565 -0.00007862  0.60164482
   0.08193769  0.58282787  0.39617013
   0.91513239  0.66714458  0.50054293
   0.91783920  0.16539941  0.50047622
   0.07930582  0.83526499  0.39825970
   0.91622108  0.41874628  0.50006342
   0.08289648  0.33307296  0.40299854
  -0.00040548  0.00042257  0.59736217
   0.83245737  0.08227531  0.40226339
   0.75161021  0.24975795  0.59842224
   0.66528966  0.66833553  0.50024773
   0.75202852  0.49911490  0.59754231
   0.83038665  0.83572964  0.40321431
   0.83363190  0.33288655  0.40256867
   0.50070425  0.74974424  0.59668634
   0.16662493  0.41589531  0.50012507
   0.58483487  0.83371460  0.40429187
  -0.00299054  0.25210705  0.59797346
  -0.00024207  0.50018497  0.59720973
   0.50013901 -0.00064726  0.59644705
   0.41719427  0.16496820  0.49981252
   0.58601482  0.08076796  0.40296336
   0.66489451  0.91650068  0.50054148
   0.16759042  0.91573532  0.50053209
   0.91676470  0.91638943  0.50020338
   0.24832084  0.50083475  0.59874263
   0.00078575  0.74943071  0.59858062
   0.41858114  0.91488655  0.50036605
   0.41672945  0.66895900  0.50062832
Direct configuration=    10
   0.07990992  0.08587362  0.39639829
   0.83341198  0.58236655  0.39797312
   0.66703940  0.41943382  0.50077815
   0.75276567 -0.00124574  0.60306207
   0.66674362  0.16385563  0.50006349
   0.50182315  0.50104366  0.60396640
   0.58491375  0.58346539  0.39821907
   0.49984857  0.24949348  0.60441902
   0.41538093  0.41646961  0.50117420
   0.58692542  0.32933634  0.39486685
   0.33397724  0.83432124  0.40009146
   0.16629484  0.66815481  0.50129783
   0.33355753  0.58315693  0.39651749
   0.24800656  0.25263962  0.60214340
   0.33376494  0.33116257  0.39816946
   0.24890814  0.75055238  0.60274963
   0.74904913  0.74871335  0.60238276
   0.16723728  0.16789110  0.50047147
   0.33584741  0.08221785  0.39853431
   0.25063370 -0.00004367  0.60174755
   0.08159907  0.58296152  0.39571843
   0.91490517  0.66727682  0.50049869
   0.91824485  0.16530090  0.50034901
   0.07912478  0.83526003  0.39811415
   0.91606942  0.41906640  0.50000767
   0.08289518  0.33299437  0.40301242
  -0.00025588  0.00045917  0.59728008
   0.83233585  0.08233442  0.40240731
   0.75158639  0.24975990  0.59830083
   0.66555794  0.66845290  0.50025814
   0.75196947  0.49914981  0.59741208
   0.83025179  0.83548599  0.40341747
   0.83367664  0.33265839  0.40254346
   0.50055166  0.74978782  0.59653391
   0.16650418  0.41614717  0.50011796
   0.58503205  0.83381891  0.40458772
  -0.00288833  0.25212887  0.59782871
  -0.00024728  0.50022870  0.59707270
   0.49999433 -0.00050936  0.59651329
   0.41726634  0.16483562  0.49981795
   0.58601769  0.08059657  0.40333326
   0.66507604  0.91626286  0.50088620
   0.16753433  0.91612417  0.50054606
   0.91673306  0.91618081  0.50034297
   0.24847034  0.50091615  0.59859902
   0.00079430  0.74938401  0.59845415
   0.41838881  0.91510618  0.50035036
   0.41677267  0.66897238  0.50066996
Direct configuration=    11
   0.07991265  0.08597580  0.39613717
   0.83347105  0.58245246  0.39774527
   0.66686552  0.41956716  0.50076793
   0.75286646 -0.00139321  0.60344124
   0.66659529  0.16393198  0.50021194
   0.50186713  0.50112648  0.60426574
   0.58483207  0.58342618  0.39807899
   0.49994926  0.24946345  0.60480914
   0.41554809  0.41646185  0.50121081
   0.58711983  0.32912365  0.39450061
   0.33389394  0.83427916  0.40003442
   0.16603969  0.66812215  0.50124895
   0.33360898  0.58321693  0.39622839
   0.24779869  0.25271819  0.60225988
   0.33397108  0.33081388  0.39801692
   0.24898250  0.75057283  0.60290275
   0.74913632  0.74862897  0.60256333
   0.16736688  0.16754981  0.50056115
   0.33585718  0.08219119  0.39844128
   0.25065044 -0.00001128  0.60184277
   0.08128519  0.58308540  0.39529973
   0.91469456  0.66739940  0.50045768
   0.91862086  0.16520959  0.50023110
   0.07895697  0.83525543  0.39797923
   0.91592883  0.41936313  0.49995600
   0.08289397  0.33292151  0.40302528
  -0.00011722  0.00049309  0.59720398
   0.83222320  0.08238922  0.40254071
   0.75156431  0.24976172  0.59818829
   0.66580662  0.66856169  0.50026780
   0.75191473  0.49918217  0.59729137
   0.83012678  0.83526015  0.40360579
   0.83371811  0.33244690  0.40252010
   0.50041022  0.74982822  0.59639262
   0.16639225  0.41638063  0.50011137
   0.58521481  0.83391560  0.40486196
  -0.00279358  0.25214909  0.59769454
  -0.00025211  0.50026923  0.59694568
   0.49986022 -0.00038153  0.59657469
   0.41733315  0.16471272  0.49982298
   0.58602034  0.08043771  0.40367613
   0.66524431  0.91604242  0.50120574
   0.16748234  0.91648460  0.50055900
   0.91670372  0.91598742  0.50047235
   0.24860892  0.50099160  0.59846592
   0.00080221  0.74934073  0.59833691
   0.41821053  0.91530976  0.50033581
   0.41681273  0.66898478  0.50070856
Direct configuration=    12
   0.07984772  0.08584401  0.39591491
   0.83334824  0.58227344  0.39757554
   0.66688552  0.41968433  0.50062428
   0.75273903 -0.00147914  0.60381317
   0.66670159  0.16390211  0.50049043
   0.50202394  0.50099497  0.60455144
   0.58486922  0.58329772  0.39805209
   0.50019246  0.24933850  0.60510498
   0.41535820  0.41657600  0.50114717
   0.58705897  0.32916694  0.39418210
   0.33372967  0.83417948  0.40005376
   0.16624408  0.66804276  0.50100729
   0.33352195  0.58311770  0.39602975
   0.24788530  0.25277828  0.60232156
   0.33397490  0.33095535  0.39796899
   0.24909331  0.75065257  0.60297399
   0.74909050  0.74877600  0.60272894
   0.16768018  0.16755222  0.50053146
   0.33580301  0.08209929  0.39843098
   0.25060807  0.00006756  0.60188539
   0.08148269  0.58295834  0.39493984
   0.91483728  0.66742039  0.50035603
   0.91833244  0.16541469  0.50004954
   0.07888382  0.83524233  0.39793706
   0.91603428  0.41936547  0.49978217
   0.08280426  0.33293795  0.40307113
  -0.00006923  0.00057284  0.59715910
   0.83244046  0.08221125  0.40271553
   0.75143300  0.24975621  0.59808849
   0.66570630  0.66837211  0.50023016
   0.75199672  0.49927057  0.59716723
   0.83010324  0.83516647  0.40387269
   0.83368928  0.33250706  0.40250750
   0.50043491  0.74991880  0.59627989
   0.16636170  0.41641932  0.49996918
   0.58535903  0.83361762  0.40511867
  -0.00283818  0.25224079  0.59756301
  -0.00032455  0.50035671  0.59679702
   0.49998480 -0.00026897  0.59668338
   0.41722132  0.16475950  0.49995415
   0.58593883  0.08049516  0.40403301
   0.66537672  0.91620557  0.50165118
   0.16787949  0.91623001  0.50049973
   0.91649261  0.91601719  0.50056632
   0.24871628  0.50085914  0.59835798
   0.00055472  0.74942953  0.59825167
   0.41788037  0.91559565  0.50035481
   0.41663153  0.66910824  0.50065528
Direct configuration=    13
   0.07981230  0.08577212  0.39579366
   0.83328124  0.58217578  0.39748294
   0.66689643  0.41974826  0.50054592
   0.75266952 -0.00152602  0.60401607
   0.66675958  0.16388581  0.50064236
   0.50210949  0.50092322  0.60470730
   0.58488949  0.58322765  0.39803742
   0.50032514  0.24927034  0.60526637
   0.41525461  0.41663828  0.50111245
   0.58702577  0.32919056  0.39400835
   0.33364005  0.83412510  0.40006432
   0.16635559  0.66799945  0.50087546
   0.33347447  0.58306357  0.39592139
   0.24793255  0.25281106  0.60235522
   0.33397698  0.33103252  0.39794285
   0.24915377  0.75069607  0.60301286
   0.74906550  0.74885620  0.60281929
   0.16785109  0.16755353  0.50051526
   0.33577346  0.08204915  0.39842537
   0.25058496  0.00011057  0.60190864
   0.08159044  0.58288902  0.39474350
   0.91491515  0.66743183  0.50030057
   0.91817510  0.16552657  0.49995049
   0.07884390  0.83523519  0.39791406
   0.91609181  0.41936674  0.49968733
   0.08275532  0.33294691  0.40309613
  -0.00004306  0.00061635  0.59713462
   0.83255899  0.08211417  0.40281090
   0.75136137  0.24975320  0.59803405
   0.66565157  0.66826869  0.50020963
   0.75204145  0.49931880  0.59709951
   0.83009039  0.83511537  0.40401830
   0.83367356  0.33253988  0.40250062
   0.50044838  0.74996821  0.59621839
   0.16634504  0.41644043  0.49989161
   0.58543770  0.83345507  0.40525872
  -0.00286251  0.25229081  0.59749125
  -0.00036406  0.50040443  0.59671592
   0.50005276 -0.00020756  0.59674268
   0.41716031  0.16478501  0.50002570
   0.58589437  0.08052650  0.40422770
   0.66544896  0.91629458  0.50189419
   0.16809614  0.91609113  0.50046739
   0.91637743  0.91603343  0.50061759
   0.24877485  0.50078688  0.59829910
   0.00041970  0.74947797  0.59820516
   0.41770026  0.91575160  0.50036517
   0.41653268  0.66917558  0.50062621
Direct configuration=    14
   0.07977883  0.08569165  0.39564896
   0.83339969  0.58200387  0.39735618
   0.66662242  0.41979919  0.50038569
   0.75275406 -0.00140741  0.60440302
   0.66647973  0.16424911  0.50093019
   0.50223133  0.50082555  0.60487869
   0.58466115  0.58318218  0.39804959
   0.50032005  0.24939142  0.60547197
   0.41542672  0.41646273  0.50103956
   0.58700078  0.32908648  0.39385673
   0.33370908  0.83401977  0.40009570
   0.16647046  0.66813751  0.50065464
   0.33348676  0.58297471  0.39575988
   0.24812551  0.25285809  0.60235522
   0.33392083  0.33100925  0.39797866
   0.24910158  0.75059520  0.60293869
   0.74898226  0.74884202  0.60294523
   0.16755311  0.16782675  0.50041642
   0.33579095  0.08197001  0.39850272
   0.25054838  0.00032476  0.60189130
   0.08155695  0.58270322  0.39446531
   0.91511417  0.66720949  0.50016338
   0.91837085  0.16542435  0.49984416
   0.07884534  0.83508559  0.39792296
   0.91632179  0.41917527  0.49947269
   0.08279019  0.33289298  0.40306865
  -0.00023340  0.00072116  0.59703749
   0.83245458  0.08205663  0.40296203
   0.75142356  0.24977220  0.59799443
   0.66549811  0.66828883  0.50018216
   0.75211377  0.49940951  0.59695595
   0.83013058  0.83505245  0.40429862
   0.83361500  0.33253656  0.40239113
   0.50061682  0.75000404  0.59616335
   0.16639957  0.41640015  0.49967268
   0.58531376  0.83326226  0.40551936
  -0.00297490  0.25238832  0.59731596
  -0.00041834  0.50050449  0.59653669
   0.50001756 -0.00012545  0.59696180
   0.41725872  0.16505593  0.50022921
   0.58588537  0.08064181  0.40457839
   0.66533455  0.91634062  0.50228346
   0.16792964  0.91603314  0.50039644
   0.91660376  0.91615921  0.50073829
   0.24877287  0.50080939  0.59818835
   0.00055555  0.74950051  0.59812255
   0.41781933  0.91577829  0.50043077
   0.41652058  0.66907619  0.50054471
Direct configuration=    15
   0.07976986  0.08567007  0.39561016
   0.83343145  0.58195777  0.39732218
   0.66654894  0.41981284  0.50034273
   0.75277673 -0.00137561  0.60450678
   0.66640469  0.16434654  0.50100737
   0.50226400  0.50079936  0.60492465
   0.58459992  0.58316999  0.39805286
   0.50031868  0.24942389  0.60552710
   0.41547287  0.41641566  0.50102001
   0.58699407  0.32905857  0.39381607
   0.33372758  0.83399152  0.40010411
   0.16650127  0.66817454  0.50059542
   0.33349006  0.58295088  0.39571657
   0.24817725  0.25287069  0.60235522
   0.33390578  0.33100301  0.39798826
   0.24908759  0.75056816  0.60291881
   0.74895994  0.74883822  0.60297899
   0.16747321  0.16790002  0.50038991
   0.33579564  0.08194879  0.39852346
   0.25053857  0.00038220  0.60188665
   0.08154797  0.58265340  0.39439071
   0.91516754  0.66714987  0.50012659
   0.91842334  0.16539693  0.49981564
   0.07884573  0.83504548  0.39792534
   0.91638346  0.41912393  0.49941513
   0.08279953  0.33287852  0.40306129
  -0.00028444  0.00074927  0.59701144
   0.83242659  0.08204120  0.40300255
   0.75144023  0.24977729  0.59798381
   0.66545696  0.66829424  0.50017479
   0.75213317  0.49943384  0.59691745
   0.83014136  0.83503558  0.40437379
   0.83359929  0.33253567  0.40236177
   0.50066199  0.75001364  0.59614860
   0.16641419  0.41638935  0.49961398
   0.58528052  0.83321056  0.40558925
  -0.00300504  0.25241446  0.59726895
  -0.00043289  0.50053132  0.59648863
   0.50000813 -0.00010344  0.59702056
   0.41728511  0.16512858  0.50028378
   0.58588296  0.08067273  0.40467243
   0.66530387  0.91635296  0.50238785
   0.16788498  0.91601759  0.50037741
   0.91666445  0.91619294  0.50077066
   0.24877234  0.50081543  0.59815866
   0.00059198  0.74950655  0.59810040
   0.41785126  0.91578545  0.50044837
   0.41651734  0.66904954  0.50052286
Direct configuration=    16
   0.07977020  0.08558776  0.39552958
   0.83337164  0.58200566  0.39724016
   0.66657151  0.41971306  0.50026282
   0.75296896 -0.00132017  0.60483673
   0.66658264  0.16428346  0.50122232
   0.50228191  0.50093104  0.60493367
   0.58456231  0.58307705  0.39805447
   0.50019995  0.24967960  0.60567420
   0.41543266  0.41655089  0.50099190
   0.58702426  0.32879949  0.39380034
   0.33374134  0.83404132  0.40013259
   0.16651526  0.66805126  0.50046773
   0.33344899  0.58284518  0.39558809
   0.24808377  0.25303513  0.60227600
   0.33393035  0.33075222  0.39804293
   0.24912535  0.75051454  0.60272216
   0.74913909  0.74878858  0.60305484
   0.16744359  0.16781069  0.50029056
   0.33586416  0.08192684  0.39866543
   0.25044073  0.00043164  0.60178457
   0.08135268  0.58260798  0.39417791
   0.91511801  0.66708627  0.50005849
   0.91844995  0.16541066  0.49977622
   0.07886251  0.83488239  0.39793580
   0.91610187  0.41916337  0.49924023
   0.08293388  0.33263776  0.40286674
  -0.00032587  0.00079114  0.59695359
   0.83215594  0.08209374  0.40312908
   0.75159893  0.24995635  0.59800049
   0.66567146  0.66824962  0.50017447
   0.75213284  0.49941525  0.59672740
   0.83004564  0.83501983  0.40463574
   0.83353066  0.33243059  0.40218656
   0.50059248  0.74997697  0.59616501
   0.16660318  0.41649501  0.49943189
   0.58527301  0.83327323  0.40578293
  -0.00292373  0.25248274  0.59712348
  -0.00035099  0.50057338  0.59625994
   0.49993925 -0.00006176  0.59732010
   0.41716290  0.16522586  0.50050762
   0.58591719  0.08056851  0.40499660
   0.66539574  0.91629503  0.50265149
   0.16773058  0.91627748  0.50032868
   0.91663370  0.91636385  0.50088954
   0.24868896  0.50098048  0.59801346
   0.00075667  0.74947281  0.59799765
   0.41785871  0.91591204  0.50059640
   0.41659518  0.66891415  0.50050140
Direct configuration=    17
   0.07977039  0.08554337  0.39548612
   0.83333938  0.58203149  0.39719593
   0.66658369  0.41965925  0.50021972
   0.75307263 -0.00129026  0.60501467