unknown system                          
           1
    11.002582    0.000000    0.000000
     5.501291    9.528515    0.000000
     0.000000    0.000000   24.491785
   Au   Pd
  24  24
Direct configuration=     1
   0.25000000  0.75000000  0.59169983
   0.91666667  0.91666667  0.50000000
   0.00000000  0.50000000  0.59169983
   0.83333333  0.83333333  0.40830017
   0.91666667  0.41666667  0.50000000
   0.08333333  0.58333333  0.40830017
   0.00000000  0.25000000  0.59169983
   0.08333333  0.33333333  0.40830017
   0.00000000  0.00000000  0.59169983
   0.91666667  0.16666667  0.50000000
   0.66666667  0.66666667  0.50000000
   0.75000000  0.25000000  0.59169983
   0.41666667  0.66666667  0.50000000
   0.25000000  0.00000000  0.59169983
   0.58333333  0.58333333  0.40830017
   0.16666667  0.41666667  0.50000000
   0.25000000  0.25000000  0.59169983
   0.16666667  0.66666667  0.50000000
   0.33333333  0.83333333  0.40830017
   0.16666667  0.91666667  0.50000000
   0.41666667  0.91666667  0.50000000
   0.58333333  0.83333333  0.40830017
   0.50000000  0.50000000  0.59169983
   0.16666667  0.16666667  0.50000000
   0.58333333  0.08333333  0.40830017
   0.66666667  0.91666667  0.50000000
   0.25000000  0.50000000  0.59169983
   0.33333333  0.58333333  0.40830017
   0.91666667  0.66666667  0.50000000
   0.33333333  0.08333333  0.40830017
   0.00000000  0.75000000  0.59169983
   0.08333333  0.83333333  0.40830017
   0.41666667  0.16666667  0.50000000
   0.33333333  0.33333333  0.40830017
   0.50000000  0.00000000  0.59169983
   0.75000000  0.50000000  0.59169983
   0.41666667  0.41666667  0.50000000
   0.08333333  0.08333333  0.40830017
   0.66666667  0.41666667  0.50000000
   0.50000000  0.75000000  0.59169983
   0.83333333  0.08333333  0.40830017
   0.66666667  0.16666667  0.50000000
   0.75000000  0.00000000  0.59169983
   0.83333333  0.58333333  0.40830017
   0.83333333  0.33333333  0.40830017
   0.50000000  0.25000000  0.59169983
   0.58333333  0.33333333  0.40830017
   0.75000000  0.75000000  0.59169983
Direct configuration=     2
   0.25006560  0.74919263  0.59429477
   0.91460413  0.91678335  0.49997073
  -0.00108462  0.50210900  0.59388196
   0.83333333  0.83333333  0.40830017
   0.91400550  0.41845804  0.49957861
   0.08333333  0.58333333  0.40830017
  -0.00090408  0.25093872  0.59437918
   0.08333333  0.33333333  0.40830017
  -0.00090889 -0.00083251  0.59432728
   0.91451019  0.16764884  0.49875814
   0.66838429  0.66630544  0.50079660
   0.74860523  0.25029283  0.59360710
   0.41768074  0.66454726  0.50001579
   0.25173926 -0.00082255  0.59436567
   0.58333333  0.58333333  0.40830017
   0.16899944  0.41670197  0.49997628
   0.25221368  0.24960996  0.59392779
   0.16667269  0.66563728  0.49995488
   0.33333333  0.83333333  0.40830017
   0.16581575  0.91695384  0.49910366
   0.41819892  0.91802847  0.50036796
   0.58333333  0.83333333  0.40830017
   0.50037971  0.49934764  0.59354785
   0.16813040  0.16592385  0.49908808
   0.58333333  0.08333333  0.40830017
   0.66638304  0.91795670  0.50052901
   0.25039562  0.49974666  0.59285190
   0.33333333  0.58333333  0.40830017
   0.91549708  0.66768823  0.50035556
   0.33333333  0.08333333  0.40830017
  -0.00076249  0.74994868  0.59292507
   0.08333333  0.83333333  0.40830017
   0.41854186  0.16643473  0.49976600
   0.33333333  0.33333333  0.40830017
   0.50094687 -0.00017159  0.59260731
   0.74947035  0.50073447  0.59291049
   0.41783589  0.41509110  0.49972356
   0.08333333  0.08333333  0.40830017
   0.66637118  0.41563088  0.49965947
   0.50089118  0.75009981  0.59307371
   0.83333333  0.08333333  0.40830017
   0.66504564  0.16714689  0.49969778
   0.74924411 -0.00030300  0.59254464
   0.83333333  0.58333333  0.40830017
   0.83333333  0.33333333  0.40830017
   0.50016788  0.24933714  0.59225478
   0.58333333  0.33333333  0.40830017
   0.74957901  0.75069104  0.59259177
Direct configuration=     3
   0.25020799  0.74744004  0.59992775
   0.91012687  0.91703664  0.49990718
  -0.00343907  0.50668713  0.59861881
   0.83333333  0.83333333  0.40830017
   0.90822877  0.42234665  0.49866388
   0.08333333  0.58333333  0.40830017
  -0.00286660  0.25297645  0.60019537
   0.08333333  0.33333333  0.40830017
  -0.00288188 -0.00263968  0.60003082
   0.90982903  0.16978088  0.49606237
   0.67211284  0.66552132  0.50252582
   0.74557754  0.25092850  0.59774731
   0.41988203  0.65994657  0.50005007
   0.25551477 -0.00260810  0.60015254
   0.58333333  0.58333333  0.40830017
   0.17406332  0.41677861  0.49992480
   0.25701904  0.24876330  0.59876414
   0.16668577  0.66340274  0.49985693
   0.33333333  0.83333333  0.40830017
   0.16396862  0.91757723  0.49715792
   0.42152505  0.92098460  0.50116671
   0.58333333  0.83333333  0.40830017
   0.50120398  0.49793152  0.59755945
   0.17130782  0.16431139  0.49710854
   0.58333333  0.08333333  0.40830017
   0.66576737  0.92075703  0.50167735
   0.25125441  0.49919673  0.59535277
   0.33333333  0.58333333  0.40830017
   0.91295821  0.66990578  0.50112738
   0.33333333  0.08333333  0.40830017
  -0.00241768  0.74983729  0.59558476
   0.08333333  0.83333333  0.40830017
   0.42261245  0.16593126  0.49925803
   0.33333333  0.33333333  0.40830017
   0.50300230 -0.00054408  0.59457723
   0.74832062  0.50232883  0.59553852
   0.42037400  0.41167092  0.49912346
   0.08333333  0.08333333  0.40830017
   0.66572977  0.41338243  0.49892028
   0.50282572  0.75031648  0.59605606
   0.83333333  0.08333333  0.40830017
   0.66152680  0.16818935  0.49904173
   0.74760326 -0.00096073  0.59437852
   0.83333333  0.58333333  0.40830017
   0.83333333  0.33333333  0.40830017
   0.50053231  0.24789825  0.59345943
   0.58333333  0.33333333  0.40830017
   0.74866514  0.75219111  0.59452794
Direct configuration=     4
   0.25018016  0.74749767  0.60297333
   0.91016482  0.91804499  0.50155784
  -0.00326042  0.50652706  0.60124395
   0.83333333  0.83333333  0.40830017
   0.91076411  0.42037806  0.50052777
   0.08333333  0.58333333  0.40830017
  -0.00244454  0.25298333  0.60293080
   0.08333333  0.33333333  0.40830017
  -0.00311886 -0.00248862  0.60296389
   0.90962319  0.16954492  0.49793294
   0.66962811  0.66762102  0.50393960
   0.74594641  0.25001278  0.60008793
   0.41984571  0.66002464  0.50211702
   0.25524858 -0.00257286  0.60327695
   0.58333333  0.58333333  0.40830017
   0.17403996  0.41485649  0.50197536
   0.25682980  0.24874866  0.60141602
   0.16672050  0.66496948  0.50162790
   0.33333333  0.83333333  0.40830017
   0.16332898  0.91734994  0.49936102
   0.42192511  0.92006496  0.50297581
   0.58333333  0.83333333  0.40830017
   0.50096157  0.49815103  0.60014617
   0.17054985  0.16557887  0.49939153
   0.58333333  0.08333333  0.40830017
   0.66546511  0.92175350  0.50256042
   0.25152661  0.49901348  0.59703860
   0.33333333  0.58333333  0.40830017
   0.91371887  0.66937262  0.50246194
   0.33333333  0.08333333  0.40830017
  -0.00268133  0.75018206  0.59727365
   0.08333333  0.83333333  0.40830017
   0.42292935  0.16651433  0.49992157
   0.33333333  0.33333333  0.40830017
   0.50392304 -0.00073182  0.59641474
   0.74806770  0.50225118  0.59742749
   0.42216375  0.41093627  0.49990291
   0.08333333  0.08333333  0.40830017
   0.66447693  0.41243030  0.50006411
   0.50307281  0.75011736  0.59782790
   0.83333333  0.08333333  0.40830017
   0.66131677  0.16865630  0.49965976
   0.74709819 -0.00078104  0.59593787
   0.83333333  0.58333333  0.40830017
   0.83333333  0.33333333  0.40830017
   0.50113549  0.24731287  0.59448703
   0.58333333  0.33333333  0.40830017
   0.74786153  0.75337644  0.59648442
Direct configuration=     5
   0.25009667  0.74767057  0.61211007
   0.91027865  0.92107004  0.50650982
  -0.00272447  0.50604684  0.60911936
   0.83333333  0.83333333  0.40830017
   0.91837013  0.41447228  0.50611947
   0.08333333  0.58333333  0.40830017
  -0.00117836  0.25300399  0.61113709
   0.08333333  0.33333333  0.40830017
  -0.00382982 -0.00203542  0.61176308
   0.90900568  0.16883702  0.50354466
   0.66217394  0.67392013  0.50818093
   0.74705303  0.24726561  0.60710982
   0.41973675  0.66025886  0.50831786
   0.25445003 -0.00246716  0.61265018
   0.58333333  0.58333333  0.40830017
   0.17396987  0.40909014  0.50812701
   0.25626206  0.24870475  0.60937168
   0.16682471  0.66966970  0.50694084
   0.33333333  0.83333333  0.40830017
   0.16141004  0.91666806  0.50597034
   0.42312528  0.91730602  0.50840309
   0.58333333  0.83333333  0.40830017
   0.50023434  0.49880957  0.60790634
   0.16827597  0.16938131  0.50624050
   0.58333333  0.08333333  0.40830017
   0.66455834  0.92474291  0.50520963
   0.25234321  0.49846374  0.60209608
   0.33333333  0.58333333  0.40830017
   0.91600083  0.66777315  0.50646561
   0.33333333  0.08333333  0.40830017
  -0.00347228  0.75121636  0.60234035
   0.08333333  0.83333333  0.40830017
   0.42388007  0.16826355  0.50191220
   0.33333333  0.33333333  0.40830017
   0.50668526 -0.00129503  0.60192728
   0.74730893  0.50201824  0.60309437
   0.42753301  0.40873232  0.50224125
   0.08333333  0.08333333  0.40830017
   0.66071842  0.40957389  0.50349561
   0.50381410  0.74952001  0.60314341
   0.83333333  0.08333333  0.40830017
   0.66068667  0.17005713  0.50151387
   0.74558297 -0.00024197  0.60061592
   0.83333333  0.58333333  0.40830017
   0.83333333  0.33333333  0.40830017
   0.50294504  0.24555673  0.59756983
   0.58333333  0.33333333  0.40830017
   0.74545069  0.75693242  0.60235387
Direct configuration=     6
   0.24967093  0.74878437  0.61583716
   0.91098506  0.92043235  0.50844981
  -0.00303388  0.50562789  0.61209264
   0.83333333  0.83333333  0.40830017
   0.91349257  0.41795908  0.50881462
   0.08333333  0.58333333  0.40830017
  -0.00083190  0.25202752  0.61442870
   0.08333333  0.33333333  0.40830017
  -0.00275550 -0.00129496  0.61535099
   0.91167019  0.16895791  0.50643917
   0.66916344  0.66666480  0.50931373
   0.74847683  0.24765427  0.60976493
   0.41739653  0.66268057  0.51076970
   0.25355233 -0.00189406  0.61620068
   0.58333333  0.58333333  0.40830017
   0.17382560  0.41423676  0.51051928
   0.25592913  0.24772543  0.61268872
   0.16782687  0.66525443  0.50894095
   0.33333333  0.83333333  0.40830017
   0.16400788  0.91984197  0.50901394
   0.41427943  0.92268075  0.51033392
   0.58333333  0.83333333  0.40830017
   0.50057749  0.49808500  0.61103586
   0.17063450  0.16236663  0.50931003
   0.58333333  0.08333333  0.40830017
   0.66610921  0.92306361  0.50627035
   0.25235746  0.49855419  0.60404375
   0.33333333  0.58333333  0.40830017
   0.91675279  0.66602544  0.50841399
   0.33333333  0.08333333  0.40830017
  -0.00290444  0.75127360  0.60470147
   0.08333333  0.83333333  0.40830017
   0.42021185  0.16683713  0.50361557
   0.33333333  0.33333333  0.40830017
   0.50305349  0.00013214  0.60457717
   0.74850202  0.50069616  0.60485195
   0.41943748  0.41421785  0.50410995
   0.08333333  0.08333333  0.40830017
   0.66509165  0.41234419  0.50601979
   0.50179656  0.75000252  0.60645110
   0.83333333  0.08333333  0.40830017
   0.66546394  0.16690375  0.50315422
   0.74747589  0.00012672  0.60302383
   0.83333333  0.58333333  0.40830017
   0.83333333  0.33333333  0.40830017
   0.50195528  0.24695238  0.59919330
   0.58333333  0.33333333  0.40830017
   0.74740275  0.75452253  0.60475909
Direct configuration=     7
   0.24973480  0.74861728  0.61527804
   0.91087908  0.92052801  0.50815878
  -0.00298746  0.50569074  0.61164660
   0.83333333  0.83333333  0.40830017
   0.91422428  0.41743600  0.50841031
   0.08333333  0.58333333  0.40830017
  -0.00088388  0.25217401  0.61393490
   0.08333333  0.33333333  0.40830017
  -0.00291667 -0.00140604  0.61481274
   0.91127047  0.16893977  0.50600494
   0.66811491  0.66775322  0.50914379
   0.74826324  0.24759596  0.60936662
   0.41774760  0.66231727  0.51040189
   0.25368700 -0.00198004  0.61566805
   0.58333333  0.58333333  0.40830017
   0.17384724  0.41346469  0.51016040
   0.25597907  0.24787235  0.61219111
   0.16767653  0.66591679  0.50864090
   0.33333333  0.83333333  0.40830017
   0.16361816  0.91936584  0.50855735
   0.41560645  0.92187446  0.51004427
   0.58333333  0.83333333  0.40830017
   0.50052602  0.49819370  0.61056638
   0.17028068  0.16341895  0.50884955
   0.58333333  0.08333333  0.40830017
   0.66587656  0.92331553  0.50611122
   0.25235533  0.49854062  0.60375157
   0.33333333  0.58333333  0.40830017
   0.91663998  0.66628763  0.50812170
   0.33333333  0.08333333  0.40830017
  -0.00298962  0.75126501  0.60434727
   0.08333333  0.83333333  0.40830017
   0.42076214  0.16705112  0.50336004
   0.33333333  0.33333333  0.40830017
   0.50359831 -0.00008195  0.60417965
   0.74832304  0.50089449  0.60458829
   0.42065194  0.41339493  0.50382961
   0.08333333  0.08333333  0.40830017
   0.66443560  0.41192860  0.50564113
   0.50209923  0.74993014  0.60595490
   0.83333333  0.08333333  0.40830017
   0.66474727  0.16737681  0.50290814
   0.74719192  0.00007141  0.60266261
   0.83333333  0.58333333  0.40830017
   0.83333333  0.33333333  0.40830017
   0.50210376  0.24674301  0.59894976
   0.58333333  0.33333333  0.40830017
   0.74710991  0.75488405  0.60439827
Direct configuration=     8
   0.24946107  0.74875091  0.61595010
   0.91410199  0.91780753  0.50815973
  -0.00274972  0.50509381  0.61202962
   0.83333333  0.83333333  0.40830017
   0.91430114  0.41766295  0.50851541
   0.08333333  0.58333333  0.40830017
  -0.00084499  0.25185230  0.61462220
   0.08333333  0.33333333  0.40830017
  -0.00187406 -0.00148630  0.61552446
   0.91315504  0.16914048  0.50636934
   0.66866074  0.66714898  0.50909918
   0.74832567  0.24883921  0.60966560
   0.41757983  0.66381244  0.51065748
   0.25333084 -0.00179899  0.61654521
   0.58333333  0.58333333  0.40830017
   0.17177239  0.41428437  0.51003540
   0.25533555  0.24828026  0.61274342
   0.16681358  0.66634302  0.50848270
   0.33333333  0.83333333  0.40830017
   0.16416500  0.91790628  0.50889078
   0.41749950  0.91956400  0.51020982
   0.58333333  0.83333333  0.40830017
   0.50095133  0.49765233  0.61086241
   0.16786070  0.16641751  0.50903032
   0.58333333  0.08333333  0.40830017
   0.66522279  0.92060981  0.50663537
   0.25207866  0.49892028  0.60467918
   0.33333333  0.58333333  0.40830017
   0.91669468  0.66637660  0.50852555
   0.33333333  0.08333333  0.40830017
  -0.00207165  0.75105793  0.60497009
   0.08333333  0.83333333  0.40830017
   0.41921568  0.16662406  0.50416958
   0.33333333  0.33333333  0.40830017
   0.50209225 -0.00002360  0.60456326
   0.74881796  0.50040880  0.60505116
   0.41913924  0.41489735  0.50447271
   0.08333333  0.08333333  0.40830017
   0.66513401  0.41414115  0.50653135
   0.50151748  0.75015835  0.60667888
   0.83333333  0.08333333  0.40830017
   0.66452584  0.16833352  0.50363751
   0.74805911 -0.00007181  0.60335832
   0.83333333  0.58333333  0.40830017
   0.83333333  0.33333333  0.40830017
   0.50132260  0.24783833  0.59917950
   0.58333333  0.33333333  0.40830017
   0.74788016  0.75317359  0.60464297
Direct configuration=     9
   0.24944172  0.74876035  0.61599761
   0.91432980  0.91761523  0.50815980
  -0.00273292  0.50505162  0.61205669
   0.83333333  0.83333333  0.40830017
   0.91430658  0.41767899  0.50852284
   0.08333333  0.58333333  0.40830017
  -0.00084224  0.25182956  0.61467078
   0.08333333  0.33333333  0.40830017
  -0.00180036 -0.00149197  0.61557476
   0.91328825  0.16915466  0.50639510
   0.66869932  0.66710627  0.50909602
   0.74833008  0.24892709  0.60968673
   0.41756797  0.66391812  0.51067555
   0.25330566 -0.00178619  0.61660721
   0.58333333  0.58333333  0.40830017
   0.17162572  0.41434231  0.51002657
   0.25529006  0.24830909  0.61278246
   0.16675259  0.66637315  0.50847152
   0.33333333  0.83333333  0.40830017
   0.16420366  0.91780311  0.50891435
   0.41763331  0.91940068  0.51022152
   0.58333333  0.83333333  0.40830017
   0.50098139  0.49761406  0.61088333
   0.16768964  0.16662946  0.50904309
   0.58333333  0.08333333  0.40830017
   0.66517658  0.92041855  0.50667243
   0.25205910  0.49894712  0.60474475
   0.33333333  0.58333333  0.40830017
   0.91669855  0.66638289  0.50855410
   0.33333333  0.08333333  0.40830017
  -0.00200676  0.75104329  0.60501412
   0.08333333  0.83333333  0.40830017
   0.41910636  0.16659387  0.50422680
   0.33333333  0.33333333  0.40830017
   0.50198579 -0.00001947  0.60459037
   0.74885295  0.50037447  0.60508387
   0.41903232  0.41500355  0.50451817
   0.08333333  0.08333333  0.40830017
   0.66518338  0.41429755  0.50659428
   0.50147636  0.75017448  0.60673006
   0.83333333  0.08333333  0.40830017
   0.66451019  0.16840114  0.50368907
   0.74812040 -0.00008194  0.60340749
   0.83333333  0.58333333  0.40830017
   0.83333333  0.33333333  0.40830017
   0.50126739  0.24791575  0.59919574
   0.58333333  0.33333333  0.40830017
   0.74793461  0.75305269  0.60466026
Direct configuration=    10
   0.24979659  0.74833663  0.61622428
   0.91356392  0.91798625  0.50804506
  -0.00233268  0.50467432  0.61211440
   0.83333333  0.83333333  0.40830017
   0.91444212  0.41822742  0.50828940
   0.08333333  0.58333333  0.40830017
  -0.00075823  0.25172839  0.61505476
   0.08333333  0.33333333  0.40830017
  -0.00173487 -0.00131672  0.61580893
   0.91320733  0.16862290  0.50626043
   0.66858016  0.66709161  0.50906092
   0.74857197  0.24884052  0.60961831
   0.41764998  0.66394064  0.51064985
   0.25321804 -0.00167672  0.61695840
   0.58333333  0.58333333  0.40830017
   0.17082033  0.41480043  0.50981541
   0.25483836  0.24883329  0.61289726
   0.16720848  0.66589800  0.50826483
   0.33333333  0.83333333  0.40830017
   0.16496466  0.91767216  0.50884850
   0.41748870  0.91910616  0.51015933
   0.58333333  0.83333333  0.40830017
   0.50068304  0.49805068  0.61078184
   0.16794502  0.16657506  0.50886651
   0.58333333  0.08333333  0.40830017
   0.66577464  0.91996049  0.50708519
   0.25159633  0.49932204  0.60515608
   0.33333333  0.58333333  0.40830017
   0.91637862  0.66668860  0.50871187
   0.33333333  0.08333333  0.40830017
  -0.00164411  0.75083872  0.60534611
   0.08333333  0.83333333  0.40830017
   0.41884155  0.16658601  0.50463052
   0.33333333  0.33333333  0.40830017
   0.50202170 -0.00018591  0.60466109
   0.74891087  0.50061456  0.60537047
   0.41935952  0.41512959  0.50478001
   0.08333333  0.08333333  0.40830017
   0.66481121  0.41477700  0.50692134
   0.50152469  0.74992656  0.60698986
   0.83333333  0.08333333  0.40830017
   0.66437677  0.16855568  0.50411955
   0.74830822 -0.00024830  0.60343829
   0.83333333  0.58333333  0.40830017
   0.83333333  0.33333333  0.40830017
   0.50111245  0.24795090  0.59926089
   0.58333333  0.33333333  0.40830017
   0.74792061  0.75265791  0.60465704
Direct configuration=    11
   0.24991787  0.74819182  0.61630174
   0.91330218  0.91811305  0.50800585
  -0.00219590  0.50454537  0.61213412
   0.83333333  0.83333333  0.40830017
   0.91448844  0.41841484  0.50820962
   0.08333333  0.58333333  0.40830017
  -0.00072952  0.25169382  0.61518598
   0.08333333  0.33333333  0.40830017
  -0.00171249 -0.00125682  0.61588896
   0.91317968  0.16844117  0.50621441
   0.66853944  0.66708660  0.50904892
   0.74865464  0.24881093  0.60959492
   0.41767801  0.66394833  0.51064106
   0.25318809 -0.00163931  0.61707843
   0.58333333  0.58333333  0.40830017
   0.17054508  0.41495699  0.50974325
   0.25468399  0.24901245  0.61293649
   0.16736429  0.66573562  0.50819419
   0.33333333  0.83333333  0.40830017
   0.16522474  0.91762740  0.50882599
   0.41743927  0.91900551  0.51013808
   0.58333333  0.83333333  0.40830017
   0.50058107  0.49819990  0.61074716
   0.16803230  0.16655647  0.50880616
   0.58333333  0.08333333  0.40830017
   0.66597903  0.91980395  0.50722626
   0.25143818  0.49945018  0.60529666
   0.33333333  0.58333333  0.40830017
   0.91626927  0.66679308  0.50876579
   0.33333333  0.08333333  0.40830017
  -0.00152017  0.75076880  0.60545958
   0.08333333  0.83333333  0.40830017
   0.41875104  0.16658333  0.50476850
   0.33333333  0.33333333  0.40830017
   0.50203397 -0.00024279  0.60468526
   0.74893067  0.50069662  0.60546842
   0.41947135  0.41517267  0.50486950
   0.08333333  0.08333333  0.40830017
   0.66468401  0.41494086  0.50703312
   0.50154121  0.74984183  0.60707864
   0.83333333  0.08333333  0.40830017
   0.66433117  0.16860849  0.50426667
   0.74837241 -0.00030515  0.60344882
   0.83333333  0.58333333  0.40830017
   0.83333333  0.33333333  0.40830017
   0.50105950  0.24796292  0.59928315
   0.58333333  0.33333333  0.40830017
   0.74791582  0.75252299  0.60465594
Direct configuration=    12
   0.24989586  0.74828538  0.61646536
   0.91337851  0.91822678  0.50798182
  -0.00215459  0.50448686  0.61214153
   0.83333333  0.83333333  0.40830017
   0.91424776  0.41817819  0.50809454
   0.08333333  0.58333333  0.40830017
  -0.00080618  0.25181062  0.61544877
   0.08333333  0.33333333  0.40830017
  -0.00157177 -0.00147411  0.61600139
   0.91294959  0.16864427  0.50605924
   0.66827014  0.66722760  0.50908036
   0.74867278  0.24880328  0.60947678
   0.41768905  0.66384310  0.51059215
   0.25335267 -0.00168520  0.61733421
   0.58333333  0.58333333  0.40830017
   0.17087694  0.41510849  0.50965910
   0.25460457  0.24910606  0.61297470
   0.16737431  0.66586067  0.50814168
   0.33333333  0.83333333  0.40830017
   0.16500246  0.91762737  0.50879996
   0.41759999  0.91919958  0.51015128
   0.58333333  0.83333333  0.40830017
   0.50057444  0.49818133  0.61064086
   0.16818426  0.16622103  0.50867263
   0.58333333  0.08333333  0.40830017
   0.66580956  0.92012403  0.50745657
   0.25117294  0.49957804  0.60547061
   0.33333333  0.58333333  0.40830017
   0.91622093  0.66722908  0.50891048
   0.33333333  0.08333333  0.40830017
  -0.00139008  0.75077256  0.60557492
   0.08333333  0.83333333  0.40830017
   0.41886311  0.16667949  0.50499639
   0.33333333  0.33333333  0.40830017
   0.50205180 -0.00033993  0.60472629
   0.74915912  0.50077507  0.60565944
   0.41959228  0.41478906  0.50502112
   0.08333333  0.08333333  0.40830017
   0.66497838  0.41460187  0.50720037
   0.50158149  0.74985057  0.60721058
   0.83333333  0.08333333  0.40830017
   0.66386091  0.16877770  0.50451823
   0.74850198 -0.00054297  0.60348847
   0.83333333  0.58333333  0.40830017
   0.83333333  0.33333333  0.40830017
   0.50096606  0.24793393  0.59945990
   0.58333333  0.33333333  0.40830017
   0.74794548  0.75239805  0.60471750
Direct configuration=    13
   0.24988759  0.74832056  0.61652688
   0.91340721  0.91826954  0.50797279
  -0.00213906  0.50446486  0.61214431
   0.83333333  0.83333333  0.40830017
   0.91415726  0.41808920  0.50805126
   0.08333333  0.58333333  0.40830017
  -0.00083500  0.25185454  0.61554758
   0.08333333  0.33333333  0.40830017
  -0.00151886 -0.00155582  0.61604367
   0.91286308  0.16872063  0.50600089
   0.66816889  0.66728062  0.50909218
   0.74867960  0.24880040  0.60943236
   0.41769321  0.66380354  0.51057376
   0.25341455 -0.00170245  0.61743038
   0.58333333  0.58333333  0.40830017
   0.17100172  0.41516545  0.50962746
   0.25457470  0.24914126  0.61298906
   0.16737807  0.66590769  0.50812194
   0.33333333  0.83333333  0.40830017
   0.16491888  0.91762736  0.50879017
   0.41766042  0.91927255  0.51015624
   0.58333333  0.83333333  0.40830017
   0.50057195  0.49817435  0.61060089
   0.16824140  0.16609490  0.50862243
   0.58333333  0.08333333  0.40830017
   0.66574583  0.92024438  0.50754317
   0.25107322  0.49962612  0.60553601
   0.33333333  0.58333333  0.40830017
   0.91620276  0.66739302  0.50896489
   0.33333333  0.08333333  0.40830017
  -0.00134116  0.75077397  0.60561828
   0.08333333  0.83333333  0.40830017
   0.41890525  0.16671565  0.50508207
   0.33333333  0.33333333  0.40830017
   0.50205851 -0.00037646  0.60474172
   0.74924502  0.50080457  0.60573126
   0.41963775  0.41464483  0.50507814
   0.08333333  0.08333333  0.40830017
   0.66508907  0.41447441  0.50726325
   0.50159664  0.74985385  0.60726019
   0.83333333  0.08333333  0.40830017
   0.66368409  0.16884132  0.50461282
   0.74855070 -0.00063239  0.60350338
   0.83333333  0.58333333  0.40830017
   0.83333333  0.33333333  0.40830017
   0.50093092  0.24792303  0.59952636
   0.58333333  0.33333333  0.40830017
   0.74795663  0.75235108  0.60474065
Direct configuration=    14
   0.24992250  0.74839595  0.61662616
   0.91342897  0.91846615  0.50801339
  -0.00219919  0.50453602  0.61209034
   0.83333333  0.83333333  0.40830017
   0.91421913  0.41812287  0.50807472
   0.08333333  0.58333333  0.40830017
  -0.00080139  0.25178934  0.61569823
   0.08333333  0.33333333  0.40830017
  -0.00148994 -0.00154819  0.61609076
   0.91286671  0.16868681  0.50592147
   0.66827084  0.66724037  0.50917539
   0.74880896  0.24865845  0.60933153
   0.41768698  0.66374697  0.51055885
   0.25347395 -0.00163946  0.61759250
   0.58333333  0.58333333  0.40830017
   0.17104147  0.41504463  0.50965590
   0.25457536  0.24897275  0.61298154
   0.16737311  0.66606576  0.50819685
   0.33333333  0.83333333  0.40830017
   0.16474500  0.91769642  0.50882177
   0.41759704  0.91933411  0.51022399
   0.58333333  0.83333333  0.40830017
   0.50062303  0.49810712  0.61052146
   0.16813577  0.16620960  0.50859516
   0.58333333  0.08333333  0.40830017
   0.66564511  0.92050580  0.50756196
   0.25105357  0.49966369  0.60557310
   0.33333333  0.58333333  0.40830017
   0.91615211  0.66735064  0.50904594
   0.33333333  0.08333333  0.40830017
  -0.00141741  0.75080803  0.60563105
   0.08333333  0.83333333  0.40830017
   0.41887117  0.16679635  0.50512686
   0.33333333  0.33333333  0.40830017
   0.50202142 -0.00036451  0.60485626
   0.74931443  0.50085173  0.60582498
   0.41957839  0.41467556  0.50511578
   0.08333333  0.08333333  0.40830017
   0.66500523  0.41439855  0.50731954
   0.50157994  0.74984140  0.60726729
   0.83333333  0.08333333  0.40830017
   0.66373562  0.16870287  0.50469233
   0.74865866 -0.00070989  0.60358758
   0.83333333  0.58333333  0.40830017
   0.83333333  0.33333333  0.40830017
   0.50092986  0.24787425  0.59981843
   0.58333333  0.33333333  0.40830017
   0.74805735  0.75232516  0.60483469
Direct configuration=    15
   0.24994993  0.74845519  0.61670416
   0.91344607  0.91862062  0.50804529
  -0.00224644  0.50459192  0.61204793
   0.83333333  0.83333333  0.40830017
   0.91426775  0.41814931  0.50809315
   0.08333333  0.58333333  0.40830017
  -0.00077498  0.25173811  0.61581659
   0.08333333  0.33333333  0.40830017
  -0.00146722 -0.00154221  0.61612776
   0.91286956  0.16866024  0.50585907
   0.66835093  0.66720875  0.50924077
   0.74891060  0.24854692  0.60925230
   0.41768209  0.66370252  0.51054713
   0.25352062 -0.00158997  0.61771987
   0.58333333  0.58333333  0.40830017
   0.17107270  0.41494970  0.50967824
   0.25457588  0.24884035  0.61297563
   0.16736920  0.66618994  0.50825570
   0.33333333  0.83333333  0.40830017
   0.16460840  0.91775068  0.50884660
   0.41754724  0.91938249  0.51027722
   0.58333333  0.83333333  0.40830017
   0.50066316  0.49805430  0.61045904
   0.16805278  0.16629972  0.50857374
   0.58333333  0.08333333  0.40830017
   0.66556598  0.92071118  0.50757672
   0.25103814  0.49969321  0.60560224
   0.33333333  0.58333333  0.40830017
   0.91611232  0.66731734  0.50910963
   0.33333333  0.08333333  0.40830017
  -0.00147732  0.75083479  0.60564107
   0.08333333  0.83333333  0.40830017
   0.41884438  0.16685975  0.50516205
   0.33333333  0.33333333  0.40830017
   0.50199229 -0.00035513  0.60494624
   0.74936897  0.50088878  0.60589862
   0.41953176  0.41469972  0.50514536
   0.08333333  0.08333333  0.40830017
   0.66493936  0.41433895  0.50736376
   0.50156682  0.74983161  0.60727287
   0.83333333  0.08333333  0.40830017
   0.66377610  0.16859410  0.50475481
   0.74874348 -0.00077079  0.60365374
   0.83333333  0.58333333  0.40830017
   0.83333333  0.33333333  0.40830017
   0.50092903  0.24783593  0.60004789
   0.58333333  0.33333333  0.40830017
   0.74813648  0.75230480  0.60490857
Direct configuration=    16
   0.25000050  0.74849696  0.61679754
   0.91333416  0.91852153  0.50810215
  -0.00215056  0.50447126  0.61200428
   0.83333333  0.83333333  0.40830017
   0.91424735  0.41816238  0.50817606
   0.08333333  0.58333333  0.40830017
  -0.00074096  0.25168630  0.61596700
   0.08333333  0.33333333  0.40830017
  -0.00134813 -0.00154114  0.61618771
   0.91286965  0.16887711  0.50580729
   0.66836259  0.66724965  0.50933004
   0.74905434  0.24847814  0.60915374
   0.41768675  0.66383992  0.51052947
   0.25352479 -0.00164758  0.61789773
   0.58333333  0.58333333  0.40830017
   0.17099348  0.41507380  0.50973658
   0.25448906  0.24887110  0.61294832
   0.16725288  0.66615578  0.50836693
   0.33333333  0.83333333  0.40830017
   0.16476311  0.91787079  0.50890879
   0.41740936  0.91939772  0.51036850
   0.58333333  0.83333333  0.40830017
   0.50073273  0.49797786  0.61038925
   0.16794475  0.16632522  0.50858640
   0.58333333  0.08333333  0.40830017
   0.66558473  0.92069736  0.50758386
   0.25108590  0.49966598  0.60560978
   0.33333333  0.58333333  0.40830017
   0.91614485  0.66737015  0.50913479
   0.33333333  0.08333333  0.40830017
  -0.00145159  0.75087748  0.60564966
   0.08333333  0.83333333  0.40830017
   0.41880577  0.16690464  0.50520330
   0.33333333  0.33333333  0.40830017
   0.50208666 -0.00039060  0.60509033
   0.74940553  0.50081821  0.60597012
   0.41943969  0.41470102  0.50518617
   0.08333333  0.08333333  0.40830017
   0.66489910  0.41436434  0.50737489
   0.50156772  0.74982600  0.60725517
   0.83333333  0.08333333  0.40830017
   0.66375104  0.16858765  0.50481541
   0.74875683 -0.00081721  0.60377862
   0.83333333  0.58333333  0.40830017
   0.83333333  0.33333333  0.40830017
   0.50094238  0.24777167  0.60035023
   0.58333333  0.33333333  0.40830017
   0.74805753  0.75245255  0.60501696
Direct configuration=    17
   0.25001206  0.74850652  0.61681890
   0.91330856  0.91849887  0.50811516
  -0.00212864  0.50444367  0.61199430
   0.83333333  0.83333333  0.40830017