  48  48   0   0
  0.5349325E+02  0.1100258E-08  0.1100258E-08  0.2449179E-08  0.3500000E-15
  1.000000000000000E-004
  CAR 
 unknown system                          
      6.38234131     -9.77819608  301     -1.09919741      1.00000000
     -9.778  0.0000E+00  0.0000E+00
     -9.724  0.0000E+00  0.0000E+00
     -9.670  0.0000E+00  0.0000E+00
     -9.617  0.0000E+00  0.0000E+00
     -9.563  0.0000E+00  0.0000E+00
     -9.509  0.0000E+00  0.0000E+00
     -9.455  0.0000E+00  0.0000E+00
     -9.401  0.0000E+00  0.0000E+00
     -9.347  0.8244E-17  0.4441E-18
     -9.293  0.3123E-14  0.1687E-15
     -9.240  0.6995E-12  0.3785E-13
     -9.186  0.8892E-10  0.4828E-11
     -9.132  0.6427E-08  0.3511E-09
     -9.078  0.2647E-06  0.1461E-07
     -9.024  0.6225E-05  0.3499E-06
     -8.970  0.8379E-04  0.4864E-05
     -8.916  0.6472E-03  0.3972E-04
     -8.862  0.2875E-02  0.1946E-03
     -8.809  0.7363E-02  0.5912E-03
     -8.755  0.1096E-01  0.1182E-02
     -8.701  0.1001E-01  0.1721E-02
     -8.647  0.7688E-02  0.2135E-02
     -8.593  0.8846E-02  0.2612E-02
     -8.539  0.1090E-01  0.3199E-02
     -8.485  0.8938E-02  0.3680E-02
     -8.431  0.4406E-02  0.3917E-02
     -8.378  0.1303E-02  0.3988E-02
     -8.324  0.3794E-03  0.4008E-02
     -8.270  0.9439E-03  0.4059E-02
     -8.216  0.3313E-02  0.4237E-02
     -8.162  0.7565E-02  0.4645E-02
     -8.108  0.1182E-01  0.5282E-02
     -8.054  0.1492E-01  0.6085E-02
     -8.001  0.1844E-01  0.7079E-02
     -7.947  0.2133E-01  0.8228E-02
     -7.893  0.1967E-01  0.9287E-02
     -7.839  0.1510E-01  0.1010E-01
     -7.785  0.1229E-01  0.1076E-01
     -7.731  0.1063E-01  0.1134E-01
     -7.677  0.8041E-02  0.1177E-01
     -7.623  0.6507E-02  0.1212E-01
     -7.570  0.8867E-02  0.1260E-01
     -7.516  0.1425E-01  0.1336E-01
     -7.462  0.1964E-01  0.1442E-01
     -7.408  0.2349E-01  0.1569E-01
     -7.354  0.2505E-01  0.1704E-01
     -7.300  0.2478E-01  0.1837E-01
     -7.246  0.2389E-01  0.1966E-01
     -7.193  0.2301E-01  0.2090E-01
     -7.139  0.2427E-01  0.2221E-01
     -7.085  0.3046E-01  0.2385E-01
     -7.031  0.4078E-01  0.2604E-01
     -6.977  0.5214E-01  0.2885E-01
     -6.923  0.6200E-01  0.3219E-01
     -6.869  0.6821E-01  0.3587E-01
     -6.815  0.7227E-01  0.3976E-01
     -6.762  0.7819E-01  0.4397E-01
     -6.708  0.8663E-01  0.4864E-01
     -6.654  0.9463E-01  0.5374E-01
     -6.600  0.9939E-01  0.5909E-01
     -6.546  0.1004E+00  0.6450E-01
     -6.492  0.9789E-01  0.6977E-01
     -6.438  0.9646E-01  0.7497E-01
     -6.384  0.1032E+00  0.8053E-01
     -6.331  0.1185E+00  0.8691E-01
     -6.277  0.1346E+00  0.9416E-01
     -6.223  0.1449E+00  0.1020E+00
     -6.169  0.1504E+00  0.1101E+00
     -6.115  0.1557E+00  0.1185E+00
     -6.061  0.1644E+00  0.1273E+00
     -6.007  0.1746E+00  0.1367E+00
     -5.954  0.1784E+00  0.1463E+00
     -5.900  0.1730E+00  0.1556E+00
     -5.846  0.1651E+00  0.1645E+00
     -5.792  0.1588E+00  0.1731E+00
     -5.738  0.1528E+00  0.1813E+00
     -5.684  0.1466E+00  0.1892E+00
     -5.630  0.1400E+00  0.1968E+00
     -5.576  0.1334E+00  0.2039E+00
     -5.523  0.1292E+00  0.2109E+00
     -5.469  0.1281E+00  0.2178E+00
     -5.415  0.1280E+00  0.2247E+00
     -5.361  0.1288E+00  0.2316E+00
     -5.307  0.1325E+00  0.2388E+00
     -5.253  0.1389E+00  0.2463E+00
     -5.199  0.1464E+00  0.2541E+00
     -5.146  0.1544E+00  0.2625E+00
     -5.092  0.1607E+00  0.2711E+00
     -5.038  0.1648E+00  0.2800E+00
     -4.984  0.1714E+00  0.2892E+00
     -4.930  0.1829E+00  0.2991E+00
     -4.876  0.1915E+00  0.3094E+00
     -4.822  0.1886E+00  0.3196E+00
     -4.768  0.1797E+00  0.3292E+00
     -4.715  0.1754E+00  0.3387E+00
     -4.661  0.1745E+00  0.3481E+00
     -4.607  0.1711E+00  0.3573E+00
     -4.553  0.1679E+00  0.3663E+00
     -4.499  0.1697E+00  0.3755E+00
     -4.445  0.1749E+00  0.3849E+00
     -4.391  0.1793E+00  0.3946E+00
     -4.337  0.1815E+00  0.4043E+00
     -4.284  0.1808E+00  0.4141E+00
     -4.230  0.1782E+00  0.4237E+00
     -4.176  0.1769E+00  0.4332E+00
     -4.122  0.1785E+00  0.4428E+00
     -4.068  0.1807E+00  0.4526E+00
     -4.014  0.1803E+00  0.4623E+00
     -3.960  0.1782E+00  0.4719E+00
     -3.907  0.1805E+00  0.4816E+00
     -3.853  0.1875E+00  0.4917E+00
     -3.799  0.1911E+00  0.5020E+00
     -3.745  0.1885E+00  0.5121E+00
     -3.691  0.1849E+00  0.5221E+00
     -3.637  0.1830E+00  0.5320E+00
     -3.583  0.1838E+00  0.5419E+00
     -3.529  0.1882E+00  0.5520E+00
     -3.476  0.1946E+00  0.5625E+00
     -3.422  0.1994E+00  0.5732E+00
     -3.368  0.2015E+00  0.5841E+00
     -3.314  0.2032E+00  0.5950E+00
     -3.260  0.2041E+00  0.6060E+00
     -3.206  0.2018E+00  0.6169E+00
     -3.152  0.1956E+00  0.6274E+00
     -3.099  0.1865E+00  0.6375E+00
     -3.045  0.1777E+00  0.6470E+00
     -2.991  0.1732E+00  0.6564E+00
     -2.937  0.1759E+00  0.6659E+00
     -2.883  0.1834E+00  0.6757E+00
     -2.829  0.1884E+00  0.6859E+00
     -2.775  0.1892E+00  0.6961E+00
     -2.721  0.1898E+00  0.7063E+00
     -2.668  0.1919E+00  0.7166E+00
     -2.614  0.1950E+00  0.7271E+00
     -2.560  0.1964E+00  0.7377E+00
     -2.506  0.1929E+00  0.7481E+00
     -2.452  0.1862E+00  0.7581E+00
     -2.398  0.1810E+00  0.7679E+00
     -2.344  0.1793E+00  0.7776E+00
     -2.290  0.1800E+00  0.7872E+00
     -2.237  0.1808E+00  0.7970E+00
     -2.183  0.1831E+00  0.8068E+00
     -2.129  0.1888E+00  0.8170E+00
     -2.075  0.1959E+00  0.8276E+00
     -2.021  0.2027E+00  0.8385E+00
     -1.967  0.2060E+00  0.8496E+00
     -1.913  0.2021E+00  0.8605E+00
     -1.860  0.1971E+00  0.8711E+00
     -1.806  0.1986E+00  0.8818E+00
     -1.752  0.2018E+00  0.8927E+00
     -1.698  0.2000E+00  0.9034E+00
     -1.644  0.1975E+00  0.9141E+00
     -1.590  0.1991E+00  0.9248E+00
     -1.536  0.2004E+00  0.9356E+00
     -1.482  0.1982E+00  0.9463E+00
     -1.429  0.1926E+00  0.9566E+00
     -1.375  0.1859E+00  0.9667E+00
     -1.321  0.1810E+00  0.9764E+00
     -1.267  0.1746E+00  0.9858E+00
     -1.213  0.1592E+00  0.9944E+00
     -1.159  0.1342E+00  0.1002E+01
     -1.105  0.1077E+00  0.1007E+01
     -1.052  0.8464E-01  0.1012E+01
     -0.998  0.6167E-01  0.1015E+01
     -0.944  0.3886E-01  0.1017E+01
     -0.890  0.2426E-01  0.1019E+01
     -0.836  0.1991E-01  0.1020E+01
     -0.782  0.2031E-01  0.1021E+01
     -0.728  0.2148E-01  0.1022E+01
     -0.674  0.2133E-01  0.1023E+01
     -0.621  0.2117E-01  0.1024E+01
     -0.567  0.2536E-01  0.1026E+01
     -0.513  0.3362E-01  0.1027E+01
     -0.459  0.4003E-01  0.1030E+01
     -0.405  0.4118E-01  0.1032E+01
     -0.351  0.4058E-01  0.1034E+01
     -0.297  0.4279E-01  0.1036E+01
     -0.243  0.4659E-01  0.1039E+01
     -0.190  0.4680E-01  0.1041E+01
     -0.136  0.4094E-01  0.1044E+01
     -0.082  0.3179E-01  0.1045E+01
     -0.028  0.2356E-01  0.1047E+01
      0.026  0.1876E-01  0.1048E+01
      0.080  0.1962E-01  0.1049E+01
      0.134  0.2564E-01  0.1050E+01
      0.187  0.3077E-01  0.1052E+01
      0.241  0.3209E-01  0.1053E+01
      0.295  0.3266E-01  0.1055E+01
      0.349  0.3383E-01  0.1057E+01
      0.403  0.3538E-01  0.1059E+01
      0.457  0.3796E-01  0.1061E+01
      0.511  0.4095E-01  0.1063E+01
      0.565  0.4324E-01  0.1065E+01
      0.618  0.4536E-01  0.1068E+01
      0.672  0.4842E-01  0.1071E+01
      0.726  0.4979E-01  0.1073E+01
      0.780  0.4569E-01  0.1076E+01
      0.834  0.3708E-01  0.1078E+01
      0.888  0.2758E-01  0.1079E+01
      0.942  0.2138E-01  0.1080E+01
      0.995  0.2073E-01  0.1081E+01
      1.049  0.2115E-01  0.1083E+01
      1.103  0.1821E-01  0.1084E+01
      1.157  0.1469E-01  0.1084E+01
      1.211  0.1356E-01  0.1085E+01
      1.265  0.1341E-01  0.1086E+01
      1.319  0.1434E-01  0.1087E+01
      1.373  0.1773E-01  0.1088E+01
      1.426  0.2265E-01  0.1089E+01
      1.480  0.2811E-01  0.1090E+01
      1.534  0.3172E-01  0.1092E+01
      1.588  0.3136E-01  0.1094E+01
      1.642  0.2905E-01  0.1095E+01
      1.696  0.2695E-01  0.1097E+01
      1.750  0.2669E-01  0.1098E+01
      1.804  0.3074E-01  0.1100E+01
      1.857  0.3468E-01  0.1102E+01
      1.911  0.3105E-01  0.1103E+01
      1.965  0.2298E-01  0.1105E+01
      2.019  0.1682E-01  0.1105E+01
      2.073  0.1447E-01  0.1106E+01
      2.127  0.1849E-01  0.1107E+01
      2.181  0.2910E-01  0.1109E+01
      2.234  0.4148E-01  0.1111E+01
      2.288  0.5024E-01  0.1114E+01
      2.342  0.5422E-01  0.1117E+01
      2.396  0.5583E-01  0.1120E+01
      2.450  0.5449E-01  0.1123E+01
      2.504  0.4915E-01  0.1125E+01
      2.558  0.4370E-01  0.1128E+01
      2.612  0.4128E-01  0.1130E+01
      2.665  0.3970E-01  0.1132E+01
      2.719  0.3619E-01  0.1134E+01
      2.773  0.3118E-01  0.1136E+01
      2.827  0.2440E-01  0.1137E+01
      2.881  0.1626E-01  0.1138E+01
      2.935  0.1171E-01  0.1138E+01
      2.989  0.1181E-01  0.1139E+01
      3.042  0.1160E-01  0.1140E+01
      3.096  0.1079E-01  0.1140E+01
      3.150  0.1287E-01  0.1141E+01
      3.204  0.1698E-01  0.1142E+01
      3.258  0.2102E-01  0.1143E+01
      3.312  0.2333E-01  0.1144E+01
      3.366  0.2289E-01  0.1145E+01
      3.420  0.2325E-01  0.1147E+01
      3.473  0.2625E-01  0.1148E+01
      3.527  0.2998E-01  0.1150E+01
      3.581  0.3413E-01  0.1152E+01
      3.635  0.3655E-01  0.1154E+01
      3.689  0.3471E-01  0.1155E+01
      3.743  0.3232E-01  0.1157E+01
      3.797  0.3148E-01  0.1159E+01
      3.851  0.2804E-01  0.1160E+01
      3.904  0.2226E-01  0.1162E+01
      3.958  0.2177E-01  0.1163E+01
      4.012  0.2910E-01  0.1164E+01
      4.066  0.3349E-01  0.1166E+01
      4.120  0.2846E-01  0.1168E+01
      4.174  0.2382E-01  0.1169E+01
      4.228  0.2378E-01  0.1170E+01
      4.281  0.2031E-01  0.1171E+01
      4.335  0.1456E-01  0.1172E+01
      4.389  0.1620E-01  0.1173E+01
      4.443  0.2517E-01  0.1174E+01
      4.497  0.3259E-01  0.1176E+01
      4.551  0.3647E-01  0.1178E+01
      4.605  0.4292E-01  0.1180E+01
      4.659  0.5020E-01  0.1183E+01
      4.712  0.5158E-01  0.1186E+01
      4.766  0.5145E-01  0.1189E+01
      4.820  0.5534E-01  0.1192E+01
      4.874  0.5861E-01  0.1195E+01
      4.928  0.5865E-01  0.1198E+01
      4.982  0.6040E-01  0.1201E+01
      5.036  0.6559E-01  0.1205E+01
      5.089  0.6863E-01  0.1208E+01
      5.143  0.6485E-01  0.1212E+01
      5.197  0.5754E-01  0.1215E+01
      5.251  0.5180E-01  0.1218E+01
      5.305  0.4554E-01  0.1220E+01
      5.359  0.3484E-01  0.1222E+01
      5.413  0.2140E-01  0.1223E+01
      5.467  0.9852E-02  0.1224E+01
      5.520  0.3128E-02  0.1224E+01
      5.574  0.6354E-03  0.1224E+01
      5.628  0.7863E-04  0.1224E+01
      5.682  0.5759E-05  0.1224E+01
      5.736  0.2456E-06  0.1224E+01
      5.790  0.6038E-08  0.1224E+01
      5.844  0.8497E-10  0.1224E+01
      5.898  0.6813E-12  0.1224E+01
      5.951  0.3101E-14  0.1224E+01
      6.005  0.8244E-17  0.1224E+01
      6.059  0.0000E+00  0.1224E+01
      6.113  0.0000E+00  0.1224E+01
      6.167  0.0000E+00  0.1224E+01
      6.221  0.0000E+00  0.1224E+01
      6.275  0.0000E+00  0.1224E+01
      6.328  0.0000E+00  0.1224E+01
      6.382  0.0000E+00  0.1224E+01
