 vasp.5.4.1 24Jun15 (build Mar 14 2019 10:18:33) complex                        
  
 executed on INTEL-19.0.2+OPENMPI date 2022.07.11  15:36:34
 running on   36 total cores
 distrk:  each k-point on   36 cores,    1 groups
 distr:  one band on NCORES_PER_BAND=   6 cores,    6 groups


--------------------------------------------------------------------------------------------------------


 INCAR:
 POTCAR:    PAW_PBE Au 04Oct2007                  
 POTCAR:    PAW_PBE Pd 04Jan2005                  
 POTCAR:    PAW_PBE Au 04Oct2007                  
  local pseudopotential read in
  partial core-charges read in
  partial kinetic energy density read in
  atomic valenz-charges read in
  non local Contribution for L=           2  read in
    real space projection operators read in
  non local Contribution for L=           2  read in
    real space projection operators read in
  non local Contribution for L=           0  read in
    real space projection operators read in
  non local Contribution for L=           0  read in
    real space projection operators read in
  non local Contribution for L=           1  read in
    real space projection operators read in
  non local Contribution for L=           1  read in
    real space projection operators read in
    PAW grid and wavefunctions read in
 
   number of l-projection  operators is LMAX  =           6
   number of lm-projection operators is LMMAX =          18
 
 POTCAR:    PAW_PBE Pd 04Jan2005                  
  local pseudopotential read in
  partial core-charges read in
  partial kinetic energy density read in
  atomic valenz-charges read in
  non local Contribution for L=           2  read in
    real space projection operators read in
  non local Contribution for L=           2  read in
    real space projection operators read in
  non local Contribution for L=           0  read in
    real space projection operators read in
  non local Contribution for L=           0  read in
    real space projection operators read in
  non local Contribution for L=           1  read in
    real space projection operators read in
  non local Contribution for L=           1  read in
    real space projection operators read in
    PAW grid and wavefunctions read in
 
   number of l-projection  operators is LMAX  =           6
   number of lm-projection operators is LMMAX =          18
 
 Optimization of the real space projectors (new method)

 maximal supplied QI-value         = 15.12
 optimisation between [QCUT,QGAM] = [ 10.13, 20.41] = [ 28.73,116.64] Ry 
 Optimized for a Real-space Cutoff    1.51 Angstroem

   l    n(q)    QCUT    max X(q) W(low)/X(q) W(high)/X(q)  e(spline) 
   2      8    10.129    60.898    0.46E-03    0.46E-03    0.14E-06
   2      8    10.129    58.894    0.47E-03    0.47E-03    0.14E-06
   0      9    10.129   109.617    0.16E-03    0.11E-03    0.54E-07
   0      9    10.129    75.026    0.15E-03    0.11E-03    0.52E-07
   1      9    10.129    16.344    0.96E-04    0.15E-03    0.14E-06
   1      9    10.129    10.160    0.81E-04    0.12E-03    0.11E-06
 Optimization of the real space projectors (new method)

 maximal supplied QI-value         = 14.36
 optimisation between [QCUT,QGAM] = [ 10.20, 20.39] = [ 29.12,116.47] Ry 
 Optimized for a Real-space Cutoff    1.51 Angstroem

   l    n(q)    QCUT    max X(q) W(low)/X(q) W(high)/X(q)  e(spline) 
   2      8    10.197    59.108    0.26E-03    0.14E-03    0.96E-07
   2      8    10.197    58.101    0.27E-03    0.14E-03    0.98E-07
   0      9    10.197   102.235    0.54E-04    0.60E-05    0.72E-07
   0      9    10.197    58.388    0.52E-04    0.60E-05    0.68E-07
   1      9    10.197    22.191    0.18E-03    0.25E-03    0.79E-07
   1      9    10.197    15.590    0.15E-03    0.21E-03    0.69E-07
  PAW_PBE Au 04Oct2007                  :
 energy of atom  1       EATOM= -926.0867
 kinetic energy error for atom=    0.0062 (will be added to EATOM!!)
  PAW_PBE Pd 04Jan2005                  :
 energy of atom  2       EATOM= -809.7530
 kinetic energy error for atom=    0.0091 (will be added to EATOM!!)
 
 
 POSCAR: Au Pd                                   
  positions in cartesian coordinates
  No initial velocities read in
 exchange correlation table for  LEXCH =        8
   RHO(1)=    0.500       N(1)  =     2000
   RHO(2)=  100.500       N(2)  =     4000

 VTST: version 3.2, (02/03/18)

 CHAIN: initializing optimizer
 
 OPT: Using VASP Conjugate-Gradient optimizer
 CHAIN: Read ICHAIN            0
 
 POSCAR: Au Pd                                   
  positions in cartesian coordinates
  No initial velocities read in
 


--------------------------------------------------------------------------------------------------------


 ion  position               nearest neighbor table
   1  0.750  0.750  0.592-   5 2.75  44 2.75   7 2.75  21 2.75  22 2.75   2 2.75  42 2.75  29 2.75
                            32 2.75
   2  0.500  0.000  0.592-   3 2.75   5 2.75   1 2.75  10 2.75  29 2.75  34 2.75   7 2.75  12 2.75
                            30 2.75
   3  0.417  0.167  0.500-  41 2.75   2 2.75  10 2.75  30 2.75  35 2.75  40 2.75   5 2.75  13 2.75
                            25 2.75  14 2.75  34 2.75  37 2.75
   4  0.833  0.083  0.408-  16 2.75  23 2.75  26 2.75  27 2.75  36 2.75  33 2.75  37 2.75  43 2.75
                            25 2.75
   5  0.667  0.917  0.500-  31 2.75   1 2.75   2 2.75  25 2.75   3 2.75  32 2.75  44 2.75  43 2.75
                            30 2.75  37 2.75   7 2.75  27 2.75
   6  0.167  0.917  0.500-  23 2.75  48 2.75  46 2.75   8 2.75  24 2.75  13 2.75  16 2.75  30 2.75
                            43 2.75  33 2.75  38 2.75  12 2.75
   7  0.750  0.000  0.592-  25 2.75  43 2.75   1 2.75  34 2.75  42 2.75  15 2.75   2 2.75  46 2.75
                             5 2.75
   8  0.167  0.667  0.500-  20 2.75  39 2.75  42 2.75   6 2.75  40 2.75  35 2.75  43 2.75  24 2.75
                            44 2.75  23 2.75   9 2.75  48 2.75
   9  0.333  0.583  0.408-  24 2.75  23 2.75  14 2.75  36 2.75  38 2.75  11 2.75  20 2.75  35 2.75
                             8 2.75
  10  0.250  0.250  0.592-  40 2.75   3 2.75  12 2.75  22 2.75  39 2.75   2 2.75  34 2.75  45 2.75
                            13 2.75
  11  0.583  0.583  0.408-  32 2.75  31 2.75  26 2.75  36 2.75  38 2.75   9 2.75  28 2.75  19 2.75
                            24 2.75
  12  0.250  0.000  0.592-  13 2.75  30 2.75  29 2.75  10 2.75  45 2.75  48 2.75  46 2.75   2 2.75
                             6 2.75
  13  0.167  0.167  0.500-  33 2.75  12 2.75  45 2.75  30 2.75   6 2.75  40 2.75  18 2.75  16 2.75
                             3 2.75  17 2.75  41 2.75  10 2.75
  14  0.333  0.333  0.408-  35 2.75  20 2.75   9 2.75  37 2.75  41 2.75  17 2.75  36 2.75   3 2.75
                            40 2.75
  15  0.750  0.250  0.592-  19 2.75  16 2.75   7 2.75  21 2.75  46 2.75  47 2.75  34 2.75  45 2.75
                            25 2.75
  16  0.917  0.167  0.500-   4 2.75  46 2.75  15 2.75  18 2.75  19 2.75  43 2.75   6 2.75  13 2.75
                            25 2.75  26 2.75  45 2.75  33 2.75
  17  0.083  0.333  0.408-  40 2.75  28 2.75  33 2.75  20 2.75  41 2.75  14 2.75  26 2.75  13 2.75
                            18 2.75
  18  0.917  0.417  0.500-  26 2.75  45 2.75  21 2.75  16 2.75  32 2.75  44 2.75  13 2.75  19 2.75
                            40 2.75  28 2.75  17 2.75  22 2.75
  19  0.667  0.417  0.500-  36 2.75  15 2.75  47 2.75  25 2.75  32 2.75  16 2.75  24 2.75  18 2.75
                            35 2.75  11 2.75  21 2.75  26 2.75
  20  0.083  0.583  0.408-   8 2.75  14 2.75  17 2.75  23 2.75  27 2.75   9 2.75  28 2.75  40 2.75
                            44 2.75
  21  0.750  0.500  0.592-  32 2.75  18 2.75   1 2.75  29 2.75  15 2.75  45 2.75  22 2.75  47 2.75
                            19 2.75
  22  0.000  0.500  0.592-  44 2.75  40 2.75   1 2.75  42 2.75  10 2.75  45 2.75  21 2.75  39 2.75
                            18 2.75
  23  0.083  0.833  0.408-   6 2.75   4 2.75   9 2.75  20 2.75  33 2.75  27 2.75  38 2.75   8 2.75
                            43 2.75
  24  0.417  0.667  0.500-   9 2.75  47 2.75  48 2.75  30 2.75  35 2.75   6 2.75  19 2.75  32 2.75
                             8 2.75  38 2.75  11 2.75  29 2.75
  25  0.667  0.167  0.500-  37 2.75   7 2.75  34 2.75   5 2.75  35 2.75  19 2.75  43 2.75  16 2.75
                             3 2.75  36 2.75  15 2.75   4 2.75
  26  0.833  0.333  0.408-  18 2.75  11 2.75   4 2.75  28 2.75  33 2.75  17 2.75  36 2.75  16 2.75
                            19 2.75
  27  0.833  0.833  0.408-  43 2.75  20 2.75  28 2.75  37 2.75   4 2.75  23 2.75  31 2.75  44 2.75
                             5 2.75
  28  0.833  0.583  0.408-  44 2.75  26 2.75  27 2.75  31 2.75  17 2.75  11 2.75  20 2.75  18 2.75
                            32 2.75
  29  0.500  0.750  0.592-  30 2.75  32 2.75  21 2.75   2 2.75  12 2.75  47 2.75   1 2.75  48 2.75
                            24 2.75
  30  0.417  0.917  0.500-  38 2.75  29 2.75  12 2.75  24 2.75   3 2.75  32 2.75  13 2.75   5 2.75
                             6 2.75  41 2.75  31 2.75   2 2.75
  31  0.583  0.833  0.408-   5 2.75  11 2.75  28 2.75  37 2.75  41 2.75  38 2.75  27 2.75  32 2.75
                            30 2.75
  32  0.667  0.667  0.500-  11 2.75  21 2.75  29 2.75  19 2.75   5 2.75  18 2.75  30 2.75  24 2.75
                            44 2.75  31 2.75   1 2.75  28 2.75
  33  0.083  0.083  0.408-  13 2.75  17 2.75  23 2.75  26 2.75  38 2.75   4 2.75  41 2.75   6 2.75
                            16 2.75
  34  0.500  0.250  0.592-  35 2.75  25 2.75   2 2.75   7 2.75  39 2.75  47 2.75  10 2.75  15 2.75
                             3 2.75
  35  0.417  0.417  0.500-  14 2.75  34 2.75  39 2.75  24 2.75  25 2.75   8 2.75   3 2.75  19 2.75
                            40 2.75   9 2.75  36 2.75  47 2.75
  36  0.583  0.333  0.408-  19 2.75   9 2.75  11 2.75   4 2.75  37 2.75  26 2.75  14 2.75  25 2.75
                            35 2.75
  37  0.583  0.083  0.408-  25 2.75  14 2.75  27 2.75  31 2.75  36 2.75   4 2.75  41 2.75   5 2.75
                             3 2.75
  38  0.333  0.833  0.408-  30 2.75  11 2.75   9 2.75  33 2.75  41 2.75  23 2.75  31 2.75  24 2.75
                             6 2.75
  39  0.250  0.500  0.592-   8 2.75  35 2.75  34 2.75  10 2.75  42 2.75  48 2.75  47 2.75  22 2.75
                            40 2.75
  40  0.167  0.417  0.500-  17 2.75  10 2.75  22 2.75  13 2.75   8 2.75   3 2.75  44 2.75  35 2.75
                            18 2.75  20 2.75  39 2.75  14 2.75
  41  0.333  0.083  0.408-   3 2.75  14 2.75  17 2.75  31 2.75  38 2.75  37 2.75  33 2.75  30 2.75
                            13 2.75
  42  0.000  0.750  0.592-  43 2.75   8 2.75  22 2.75  39 2.75   7 2.75  46 2.75   1 2.75  48 2.75
                            44 2.75
  43  0.917  0.917  0.500-  27 2.75  42 2.75   7 2.75  25 2.75   8 2.75  16 2.75  44 2.75   6 2.75
                             5 2.75   4 2.75  23 2.75  46 2.75
  44  0.917  0.667  0.500-  28 2.75  22 2.75   1 2.75   5 2.75  18 2.75  40 2.75  43 2.75   8 2.75
                            32 2.75  27 2.75  42 2.75  20 2.75
  45  0.000  0.250  0.592-  18 2.75  13 2.75  12 2.75  21 2.75  22 2.75  46 2.75  10 2.75  15 2.75
                            16 2.75
  46  0.000  0.000  0.592-  16 2.75   6 2.75  15 2.75  42 2.75  45 2.75  48 2.75  12 2.75   7 2.75
                            43 2.75
  47  0.500  0.500  0.592-  24 2.75  19 2.75  15 2.75  29 2.75  34 2.75  48 2.75  39 2.75  21 2.75
                            35 2.75
  48  0.250  0.750  0.592-   6 2.75  24 2.75  12 2.75  39 2.75  46 2.75  47 2.75  29 2.75  42 2.75
                             8 2.75
 
  LATTYP: Found a hexagonal cell.
 ALAT       =    11.0025815153
 C/A-ratio  =     2.2260035120
  
  Lattice vectors:
  
 A1 = (   5.5012907576,  -9.5285150994,   0.0000000000)
 A2 = ( -11.0025815153,   0.0000000000,   0.0000000000)
 A3 = (   0.0000000000,   0.0000000000, -24.4917850943)


Analysis of symmetry for initial positions (statically):
=====================================================================
 Subroutine PRICEL returns:
 Original cell was already a primitive cell.
 

 Routine SETGRP: Setting up the symmetry group for a 
 hexagonal supercell.


 Subroutine GETGRP returns: Found  1 space group operations
 (whereof  1 operations were pure point group operations)
 out of a pool of 24 trial point group operations.


The static configuration has the point symmetry C_1 .


Analysis of symmetry for dynamics (positions and initial velocities):
=====================================================================
 Subroutine PRICEL returns:
 Original cell was already a primitive cell.
 

 Routine SETGRP: Setting up the symmetry group for a 
 hexagonal supercell.


 Subroutine GETGRP returns: Found  1 space group operations
 (whereof  1 operations were pure point group operations)
 out of a pool of 24 trial point group operations.


The dynamic configuration has the point symmetry C_1 .
 
 
 KPOINTS: Automatic mesh                          

Automatic generation of k-mesh.
Space group operators:
 irot       det(A)        alpha          n_x          n_y          n_z        tau_x        tau_y        tau_z
    1     1.000000     0.000000     1.000000     0.000000     0.000000     0.000000     0.000000     0.000000
 
 Subroutine IBZKPT returns following result:
 ===========================================
 
 Found      6 irreducible k-points:
 
 Following reciprocal coordinates:
            Coordinates               Weight
  0.250000  0.250000  0.000000     16.000000
  0.000000  0.250000  0.000000     16.000000
 -0.250000  0.000000  0.000000     16.000000
 -0.250000  0.250000  0.000000     16.000000
  0.500000 -0.250000  0.000000     16.000000
 -0.250000  0.500000  0.000000     16.000000
 
 Following cartesian coordinates:
            Coordinates               Weight
  0.022722  0.013119  0.000000     16.000000
  0.000000  0.026237  0.000000     16.000000
 -0.022722  0.013119  0.000000     16.000000
 -0.022722  0.039356  0.000000     16.000000
  0.045444 -0.052474  0.000000     16.000000
 -0.022722  0.065593  0.000000     16.000000
 


--------------------------------------------------------------------------------------------------------




 Dimension of arrays:
   k-points           NKPTS =      6   k-points in BZ     NKDIM =      6   number of bands    NBANDS=    306
   number of dos      NEDOS =    301   number of ions     NIONS =     48
   non local maximal  LDIM  =      6   non local SUM 2l+1 LMDIM =     18
   total plane-waves  NPLWV = 349920
   max r-space proj   IRMAX =   2009   max aug-charges    IRDMAX=   8532
   dimension x,y,z NGX =    54 NGY =   54 NGZ =  120
   dimension x,y,z NGXF=   108 NGYF=  108 NGZF=  240
   support grid    NGXF=   108 NGYF=  108 NGZF=  240
   ions per type =              24  24
 NGX,Y,Z   is equivalent  to a cutoff of   8.16,  8.16,  8.15 a.u.
 NGXF,Y,Z  is equivalent  to a cutoff of  16.32, 16.32, 16.29 a.u.


 I would recommend the setting:
   dimension x,y,z NGX =    54 NGY =   54 NGZ =  120
 SYSTEM =  unknown system                          
 POSCAR =  Au Pd                                   

 Startparameter for this run:
   NWRITE =      1    write-flag & timer
   PREC   = normal    normal or accurate (medium, high low for compatibility)
   ISTART =      0    job   : 0-new  1-cont  2-samecut
   ICHARG =      2    charge: 1-file 2-atom 10-const
   ISPIN  =      1    spin polarized calculation?
   LNONCOLLINEAR =      F non collinear calculations
   LSORBIT =      F    spin-orbit coupling
   INIWAV =      1    electr: 0-lowe 1-rand  2-diag
   LASPH  =      F    aspherical Exc in radial PAW
   METAGGA=      F    non-selfconsistent MetaGGA calc.

 Electronic Relaxation 1
   ENCUT  =  400.0 eV  29.40 Ry    5.42 a.u.  17.94 17.94 39.94*2*pi/ulx,y,z
   ENINI  =  400.0     initial cutoff
   ENAUG  =  416.2 eV  augmentation charge cutoff
   NELM   =    500;   NELMIN=  2; NELMDL= -5     # of ELM steps 
   EDIFF  = 0.1E-05   stopping-criterion for ELM
   LREAL  =      T    real-space projection
   NLSPLINE    = F    spline interpolate recip. space projectors
   LCOMPAT=      F    compatible to vasp.4.4
   GGA_COMPAT  = T    GGA compatible to vasp.4.4-vasp.4.6
   LMAXPAW     = -100 max onsite density
   LMAXMIX     =    2 max onsite mixed and CHGCAR
   VOSKOWN=      1    Vosko Wilk Nusair interpolation
   ROPT   =   -0.00050  -0.00050
 Ionic relaxation
   EDIFFG = -.2E-01   stopping-criterion for IOM
   NSW    =    500    number of steps for IOM
   NBLOCK =      1;   KBLOCK =    500    inner block; outer block 
   IBRION =      2    ionic relax: 0-MD 1-quasi-New 2-CG
   NFREE  =      2    steps in history (QN), initial steepest desc. (CG)
   ISIF   =      0    stress and relaxation
   IWAVPR =     11    prediction:  0-non 1-charg 2-wave 3-comb
   ISYM   =      2    0-nonsym 1-usesym 2-fastsym
   LCORR  =      T    Harris-Foulkes like correction to forces

   POTIM  = 0.3500    time-step for ionic-motion
   TEIN   =    0.0    initial temperature
   TEBEG  =    0.0;   TEEND  =   0.0 temperature during run
   SMASS  =  -3.00    Nose mass-parameter (am)
   estimated Nose-frequenzy (Omega)   =  0.10E-29 period in steps =****** mass=  -0.277E-26a.u.
   SCALEE = 1.0000    scale energy and forces
   NPACO  =    256;   APACO  = 16.0  distance and # of slots for P.C.
   PSTRESS=    0.0 pullay stress

  Mass of Ions in am
   POMASS = 196.97106.42
  Ionic Valenz
   ZVAL   =  11.00 10.00
  Atomic Wigner-Seitz radii
   RWIGS  =  -1.00 -1.00
  virtual crystal weights 
   VCA    =   1.00  1.00
   NELECT =     504.0000    total number of electrons
   NUPDOWN=      -1.0000    fix difference up-down

 DOS related values:
   EMIN   =  10.00;   EMAX   =-10.00  energy-range for DOS
   EFERMI =   0.00
   ISMEAR =     0;   SIGMA  =   0.10  broadening in eV -4-tet -1-fermi 0-gaus

 Electronic relaxation 2 (details)
   IALGO  =     68    algorithm
   LDIAG  =      T    sub-space diagonalisation (order eigenvalues)
   LSUBROT=      F    optimize rotation matrix (better conditioning)
   TURBO    =      0    0=normal 1=particle mesh
   IRESTART =      0    0=no restart 2=restart with 2 vectors
   NREBOOT  =      0    no. of reboots
   NMIN     =      0    reboot dimension
   EREF     =   0.00    reference energy to select bands
   IMIX   =      4    mixing-type and parameters
     AMIX     =   0.40;   BMIX     =  1.00
     AMIX_MAG =   1.60;   BMIX_MAG =  1.00
     AMIN     =   0.10
     WC   =   100.;   INIMIX=   1;  MIXPRE=   1;  MAXMIX= -45

 Intra band minimization:
   WEIMIN = 0.0010     energy-eigenvalue tresh-hold
   EBREAK =  0.82E-09  absolut break condition
   DEPER  =   0.30     relativ break condition  

   TIME   =   0.40     timestep for ELM

  volume/ion in A,a.u.               =      53.49       360.99
  Fermi-wavevector in a.u.,A,eV,Ry     =   0.951418  1.797920 12.315955  0.905197
  Thomas-Fermi vector in A             =   2.079887
 
 Write flags
   LWAVE  =      F    write WAVECAR
   LCHARG =      F    write CHGCAR
   LVTOT  =      F    write LOCPOT, total local potential
   LVHAR  =      F    write LOCPOT, Hartree potential only
   LELF   =      F    write electronic localiz. function (ELF)
   LORBIT =      0    0 simple, 1 ext, 2 COOP (PROOUT)


 Dipole corrections
   LMONO  =      F    monopole corrections only (constant potential shift)
   LDIPOL =      T    correct potential (dipole corrections)
   IDIPOL =      3    1-x, 2-y, 3-z, 4-all directions 
   EPSILON=  1.0000000 bulk dielectric constant

 Exchange correlation treatment:
   GGA     =    PE    GGA type
   LEXCH   =     8    internal setting for exchange type
   VOSKOWN=      1    Vosko Wilk Nusair interpolation
   LHFCALC =     F    Hartree Fock is set to
   LHFONE  =     F    Hartree Fock one center treatment
   AEXX    =    0.0000 exact exchange contribution

 Linear response parameters
   LEPSILON=     F    determine dielectric tensor
   LRPA    =     F    only Hartree local field effects (RPA)
   LNABLA  =     F    use nabla operator in PAW spheres
   LVEL    =     F    velocity operator in full k-point grid
   LINTERFAST=   F  fast interpolation
   KINTER  =     0    interpolate to denser k-point grid
   CSHIFT  =0.1000    complex shift for real part using Kramers Kronig
   OMEGAMAX=  -1.0    maximum frequency
   DEG_THRESHOLD= 0.2000000E-02 threshold for treating states as degnerate
   RTIME   =    0.100 relaxation time in fs

 Orbital magnetization related:
   ORBITALMAG=     F  switch on orbital magnetization
   LCHIMAG   =     F  perturbation theory with respect to B field
   DQ        =  0.001000  dq finite difference perturbation B field



--------------------------------------------------------------------------------------------------------


 conjugate gradient relaxation of ions
 charge density and potential will be updated during run
 non-spin polarized calculation
 RMM-DIIS sequential band-by-band and
  variant of blocked Davidson during initial phase
 perform sub-space diagonalisation
    before iterative eigenvector-optimisation
 modified Broyden-mixing scheme, WC =      100.0
 initial mixing is a Kerker type mixing with AMIX =  0.4000 and BMIX =      1.0000
 Hartree-type preconditioning will be used
 using additional bands           54
 real space projection scheme for non local part
 use partial core corrections
 calculate Harris-corrections to forces 
   (improved forces if not selfconsistent)
 use gradient corrections 
 use of overlap-Matrix (Vanderbilt PP)
 Gauss-broadening in eV      SIGMA  =   0.10


--------------------------------------------------------------------------------------------------------


  energy-cutoff  :      400.00
  volume of cell :     2567.68
      direct lattice vectors                 reciprocal lattice vectors
    11.002581515  0.000000000  0.000000000     0.090887761 -0.052474073  0.000000000
     5.501290758  9.528515099  0.000000000     0.000000000  0.104948147  0.000000000
     0.000000000  0.000000000 24.491785094     0.000000000  0.000000000  0.040830017

  length of vectors
    11.002581515 11.002581515 24.491785094     0.104948147  0.104948147  0.040830017


 
 k-points in units of 2pi/SCALE and weight: Automatic mesh                          
   0.02272194  0.01311852  0.00000000       0.167
   0.00000000  0.02623704  0.00000000       0.167
  -0.02272194  0.01311852  0.00000000       0.167
  -0.02272194  0.03935555  0.00000000       0.167
   0.04544388 -0.05247407  0.00000000       0.167
  -0.02272194  0.06559259  0.00000000       0.167
 
 k-points in reciprocal lattice and weights: Automatic mesh                          
   0.25000000  0.25000000  0.00000000       0.167
   0.00000000  0.25000000  0.00000000       0.167
  -0.25000000  0.00000000  0.00000000       0.167
  -0.25000000  0.25000000  0.00000000       0.167
   0.50000000 -0.25000000  0.00000000       0.167
  -0.25000000  0.50000000  0.00000000       0.167
 
 position of ions in fractional coordinates (direct lattice) 
   0.75000000  0.75000000  0.59169983
   0.50000000  0.00000000  0.59169983
   0.41666667  0.16666667  0.50000000
   0.83333333  0.08333333  0.40830017
   0.66666667  0.91666667  0.50000000
   0.16666667  0.91666667  0.50000000
   0.75000000  0.00000000  0.59169983
   0.16666667  0.66666667  0.50000000
   0.33333333  0.58333333  0.40830017
   0.25000000  0.25000000  0.59169983
   0.58333333  0.58333333  0.40830017
   0.25000000  0.00000000  0.59169983
   0.16666667  0.16666667  0.50000000
   0.33333333  0.33333333  0.40830017
   0.75000000  0.25000000  0.59169983
   0.91666667  0.16666667  0.50000000
   0.08333333  0.33333333  0.40830017
   0.91666667  0.41666667  0.50000000
   0.66666667  0.41666667  0.50000000
   0.08333333  0.58333333  0.40830017
   0.75000000  0.50000000  0.59169983
   0.00000000  0.50000000  0.59169983
   0.08333333  0.83333333  0.40830017
   0.41666667  0.66666667  0.50000000
   0.66666667  0.16666667  0.50000000
   0.83333333  0.33333333  0.40830017
   0.83333333  0.83333333  0.40830017
   0.83333333  0.58333333  0.40830017
   0.50000000  0.75000000  0.59169983
   0.41666667  0.91666667  0.50000000
   0.58333333  0.83333333  0.40830017
   0.66666667  0.66666667  0.50000000
   0.08333333  0.08333333  0.40830017
   0.50000000  0.25000000  0.59169983
   0.41666667  0.41666667  0.50000000
   0.58333333  0.33333333  0.40830017
   0.58333333  0.08333333  0.40830017
   0.33333333  0.83333333  0.40830017
   0.25000000  0.50000000  0.59169983
   0.16666667  0.41666667  0.50000000
   0.33333333  0.08333333  0.40830017
   0.00000000  0.75000000  0.59169983
   0.91666667  0.91666667  0.50000000
   0.91666667  0.66666667  0.50000000
   0.00000000  0.25000000  0.59169983
   0.00000000  0.00000000  0.59169983
   0.50000000  0.50000000  0.59169983
   0.25000000  0.75000000  0.59169983
 
 position of ions in cartesian coordinates  (Angst):
  12.37790420  7.14638632 14.49178509
   5.50129076  0.00000000 14.49178509
   5.50129076  1.58808585 12.24589255
   9.62725883  0.79404292 10.00000000
  12.37790420  8.73447217 12.24589255
   6.87661345  8.73447217 12.24589255
   8.25193614  0.00000000 14.49178509
   5.50129076  6.35234340 12.24589255
   6.87661345  5.55830047 10.00000000
   4.12596807  2.38212877 14.49178509
   9.62725883  5.55830047 10.00000000
   2.75064538  0.00000000 14.49178509
   2.75064538  1.58808585 12.24589255
   5.50129076  3.17617170 10.00000000
   9.62725883  2.38212877 14.49178509
  11.00258152  1.58808585 12.24589255
   2.75064538  3.17617170 10.00000000
  12.37790420  3.97021462 12.24589255
   9.62725883  3.97021462 12.24589255
   4.12596807  5.55830047 10.00000000
  11.00258152  4.76425755 14.49178509
   2.75064538  4.76425755 14.49178509
   5.50129076  7.94042925 10.00000000
   8.25193614  6.35234340 12.24589255
   8.25193614  1.58808585 12.24589255
  11.00258152  3.17617170 10.00000000
  13.75322689  7.94042925 10.00000000
  12.37790420  5.55830047 10.00000000
   9.62725883  7.14638632 14.49178509
   9.62725883  8.73447217 12.24589255
  11.00258152  7.94042925 10.00000000
  11.00258152  6.35234340 12.24589255
   1.37532269  0.79404292 10.00000000
   6.87661345  2.38212877 14.49178509
   6.87661345  3.97021462 12.24589255
   8.25193614  3.17617170 10.00000000
   6.87661345  0.79404292 10.00000000
   8.25193614  7.94042925 10.00000000
   5.50129076  4.76425755 14.49178509
   4.12596807  3.97021462 12.24589255
   4.12596807  0.79404292 10.00000000
   4.12596807  7.14638632 14.49178509
  15.12854958  8.73447217 12.24589255
  13.75322689  6.35234340 12.24589255
   1.37532269  2.38212877 14.49178509
   0.00000000  0.00000000 14.49178509
   8.25193614  4.76425755 14.49178509
   6.87661345  7.14638632 14.49178509
 


--------------------------------------------------------------------------------------------------------


 k-point  1 :   0.2500 0.2500 0.0000  plane waves:   46635
 k-point  2 :   0.0000 0.2500 0.0000  plane waves:   46635
 k-point  3 :  -0.2500 0.0000 0.0000  plane waves:   46635
 k-point  4 :  -0.2500 0.2500 0.0000  plane waves:   46644
 k-point  5 :   0.5000-0.2500 0.0000  plane waves:   46644
 k-point  6 :  -0.2500 0.5000 0.0000  plane waves:   46644

 maximum and minimum number of plane-waves per node :      7818     7732

 maximum number of plane-waves:     46644
 maximum index in each direction: 
   IXMAX=   18   IYMAX=   18   IZMAX=   39
   IXMIN=  -18   IYMIN=  -18   IZMIN=  -39

 WARNING: aliasing errors must be expected set NGX to  74 to avoid them
 WARNING: aliasing errors must be expected set NGY to  74 to avoid them
 WARNING: aliasing errors must be expected set NGZ to 158 to avoid them
 aliasing errors are usually negligible using standard VASP settings
 and one can safely disregard these warnings

 real space projection operators:
  total allocation   :      12803.06 KBytes
  max/ min on nodes  :       2145.66       2127.94


 parallel 3D FFT for wavefunctions:
    minimum data exchange during FFTs selected (reduces bandwidth)
 parallel 3D FFT for charge:
    minimum data exchange during FFTs selected (reduces bandwidth)


 total amount of memory used by VASP on root node    84353. kBytes
========================================================================

   base      :      30000. kBytes
   nonlr-proj:       4285. kBytes
   fftplans  :       4447. kBytes
   grid      :       6721. kBytes
   one-center:        124. kBytes
   wavefun   :      38776. kBytes
 
     INWAV:  cpu time    0.0000: real time    0.0001
 Broyden mixing: mesh for mixing (old mesh)
   NGX = 35   NGY = 35   NGZ = 79
  (NGX  =108   NGY  =108   NGZ  =240)
  gives a total of  96775 points

 initial charge density was supplied:
 charge density of overlapping atoms calculated
 number of electron     504.0000000 magnetization 
 keeping initial charge density in first step


--------------------------------------------------------------------------------------------------------


 Maximum index for non-local projection operator          355
 Maximum index for augmentation-charges          437 (set IRDMAX)


--------------------------------------------------------------------------------------------------------


 First call to EWALD:  gamma=   0.129
 Maximum number of real-space cells 4x 4x 2
 Maximum number of reciprocal cells 2x 2x 5

 FEWALD executed in parallel
    FEWALD:  cpu time    0.0024: real time    0.0026


----------------------------------------- Iteration    1(   1)  ---------------------------------------


    POTLOK:  cpu time    0.0549: real time    0.0558
    SETDIJ:  cpu time    0.0067: real time    0.0067
     EDDAV:  cpu time    9.6151: real time   10.0240
       DOS:  cpu time    0.0014: real time    0.0014
    --------------------------------------------
      LOOP:  cpu time    9.6822: real time   10.0951

 eigenvalue-minimisations  :  3672
 total energy-change (2. order) : 0.3201466E+04  (-0.1898056E+05)
 number of electron     504.0000000 magnetization 
 augmentation part      504.0000000 magnetization 

 DIPCOR: dipole corrections for dipol
 direction  3 min pos     1,
 dipolmoment           0.000000      0.000000     -0.000001 electrons x Angstroem
 Tr[quadrupol]    -10248.739257

 energy correction for charged system         0.000000 eV
 dipol+quadrupol energy correction           -0.000000 eV
 added-field ion interaction          0.000000 eV  (added to PSCEN)


 Free energy of the ion-electron system (eV)
  ---------------------------------------------------
  alpha Z        PSCENC =       805.86936440
  Ewald energy   TEWEN  =    200396.59828285
  -Hartree energ DENC   =   -242811.75858512
  -exchange      EXHF   =         0.00000000
  -V(xc)+E(xc)   XCENC  =      -327.56245866
  PAW double counting   =     40340.05962942   -38292.62782345
  entropy T*S    EENTRO =        -0.13884572
  eigenvalues    EBANDS =      1431.24081962
  atomic energy  EATOM  =     41659.78587232
  Solvation  Ediel_sol  =         0.00000000
  ---------------------------------------------------
  free energy    TOTEN  =      3201.46625566 eV

  energy without entropy =     3201.60510138  energy(sigma->0) =     3201.53567852


--------------------------------------------------------------------------------------------------------




----------------------------------------- Iteration    1(   2)  ---------------------------------------


     EDDAV:  cpu time   10.9156: real time   10.9858
       DOS:  cpu time    0.0016: real time    0.0016
    --------------------------------------------
      LOOP:  cpu time   10.9182: real time   10.9904

 eigenvalue-minimisations  :  4368
 total energy-change (2. order) :-0.3185719E+04  (-0.2926912E+04)
 number of electron     504.0000000 magnetization 
 augmentation part      504.0000000 magnetization 

 DIPCOR: dipole corrections for dipol
 direction  3 min pos     1,
 dipolmoment           0.000000      0.000000     -0.000001 electrons x Angstroem
 Tr[quadrupol]    -10248.739257

 energy correction for charged system         0.000000 eV
 dipol+quadrupol energy correction           -0.000000 eV
 added-field ion interaction          0.000000 eV  (added to PSCEN)


 Free energy of the ion-electron system (eV)
  ---------------------------------------------------
  alpha Z        PSCENC =       805.86936440
  Ewald energy   TEWEN  =    200396.59828285
  -Hartree energ DENC   =   -242811.75858512
  -exchange      EXHF   =         0.00000000
  -V(xc)+E(xc)   XCENC  =      -327.56245866
  PAW double counting   =     40340.05962942   -38292.62782345
  entropy T*S    EENTRO =        -0.13020339
  eigenvalues    EBANDS =     -1754.48645495
  atomic energy  EATOM  =     41659.78587232
  Solvation  Ediel_sol  =         0.00000000
  ---------------------------------------------------
  free energy    TOTEN  =        15.74762341 eV

  energy without entropy =       15.87782681  energy(sigma->0) =       15.81272511


--------------------------------------------------------------------------------------------------------




----------------------------------------- Iteration    1(   3)  ---------------------------------------


     EDDAV:  cpu time   10.6157: real time   10.6243
       DOS:  cpu time    0.0016: real time    0.0016
    --------------------------------------------
      LOOP:  cpu time   10.6179: real time   10.6290

 eigenvalue-minimisations  :  4152
 total energy-change (2. order) :-0.2156629E+03  (-0.2003907E+03)
 number of electron     504.0000000 magnetization 
 augmentation part      504.0000000 magnetization 

 DIPCOR: dipole corrections for dipol
 direction  3 min pos     1,
 dipolmoment           0.000000      0.000000     -0.000001 electrons x Angstroem
 Tr[quadrupol]    -10248.739257

 energy correction for charged system         0.000000 eV
 dipol+quadrupol energy correction           -0.000000 eV
 added-field ion interaction          0.000000 eV  (added to PSCEN)


 Free energy of the ion-electron system (eV)
  ---------------------------------------------------
  alpha Z        PSCENC =       805.86936440
  Ewald energy   TEWEN  =    200396.59828285
  -Hartree energ DENC   =   -242811.75858512
  -exchange      EXHF   =         0.00000000
  -V(xc)+E(xc)   XCENC  =      -327.56245866
  PAW double counting   =     40340.05962942   -38292.62782345
  entropy T*S    EENTRO =        -0.20236996
  eigenvalues    EBANDS =     -1970.07716849
  atomic energy  EATOM  =     41659.78587232
  Solvation  Ediel_sol  =         0.00000000
  ---------------------------------------------------
  free energy    TOTEN  =      -199.91525669 eV

  energy without entropy =     -199.71288673  energy(sigma->0) =     -199.81407171


--------------------------------------------------------------------------------------------------------




----------------------------------------- Iteration    1(   4)  ---------------------------------------


     EDDAV:  cpu time   10.9020: real time   10.9080
       DOS:  cpu time    0.0016: real time    0.0016
    --------------------------------------------
      LOOP:  cpu time   10.9042: real time   10.9131

 eigenvalue-minimisations  :  4284
 total energy-change (2. order) :-0.5909882E+01  (-0.5830940E+01)
 number of electron     504.0000000 magnetization 
 augmentation part      504.0000000 magnetization 

 DIPCOR: dipole corrections for dipol
 direction  3 min pos     1,
 dipolmoment           0.000000      0.000000     -0.000001 electrons x Angstroem
 Tr[quadrupol]    -10248.739257

 energy correction for charged system         0.000000 eV
 dipol+quadrupol energy correction           -0.000000 eV
 added-field ion interaction          0.000000 eV  (added to PSCEN)


 Free energy of the ion-electron system (eV)
  ---------------------------------------------------
  alpha Z        PSCENC =       805.86936440
  Ewald energy   TEWEN  =    200396.59828285
  -Hartree energ DENC   =   -242811.75858512
  -exchange      EXHF   =         0.00000000
  -V(xc)+E(xc)   XCENC  =      -327.56245866
  PAW double counting   =     40340.05962942   -38292.62782345
  entropy T*S    EENTRO =        -0.21793864
  eigenvalues    EBANDS =     -1975.97148202
  atomic energy  EATOM  =     41659.78587232
  Solvation  Ediel_sol  =         0.00000000
  ---------------------------------------------------
  free energy    TOTEN  =      -205.82513890 eV

  energy without entropy =     -205.60720026  energy(sigma->0) =     -205.71616958


--------------------------------------------------------------------------------------------------------




----------------------------------------- Iteration    1(   5)  ---------------------------------------


     EDDAV:  cpu time   11.2110: real time   11.2205
       DOS:  cpu time    0.0016: real time    0.0016
    CHARGE:  cpu time    0.3071: real time    0.3079
    MIXING:  cpu time    0.0023: real time    0.0024
    --------------------------------------------
      LOOP:  cpu time   11.5227: real time   11.5346

 eigenvalue-minimisations  :  4452
 total energy-change (2. order) :-0.1882536E+00  (-0.1877065E+00)
 number of electron     503.9998406 magnetization 
 augmentation part      191.3359719 magnetization 

 DIPCOR: dipole corrections for dipol
 direction  3 min pos     1,
 dipolmoment           0.000000      0.000000     -0.000001 electrons x Angstroem
 Tr[quadrupol]    -10248.739257

 energy correction for charged system         0.000000 eV
 dipol+quadrupol energy correction           -0.000000 eV
 added-field ion interaction          0.000000 eV  (added to PSCEN)


 Broyden mixing:
  rms(total) = 0.62511E+01    rms(broyden)= 0.62510E+01
  rms(prec ) = 0.63656E+01
  weight for this iteration     100.00

 Free energy of the ion-electron system (eV)
  ---------------------------------------------------
  alpha Z        PSCENC =       805.86936440
  Ewald energy   TEWEN  =    200396.59828285
  -Hartree energ DENC   =   -242811.75858512
  -exchange      EXHF   =         0.00000000
  -V(xc)+E(xc)   XCENC  =      -327.56245866
  PAW double counting   =     40340.05962942   -38292.62782345
  entropy T*S    EENTRO =        -0.21765859
  eigenvalues    EBANDS =     -1976.16001563
  atomic energy  EATOM  =     41659.78587232
  Solvation  Ediel_sol  =         0.00000000
  ---------------------------------------------------
  free energy    TOTEN  =      -206.01339247 eV

  energy without entropy =     -205.79573388  energy(sigma->0) =     -205.90456317


--------------------------------------------------------------------------------------------------------




----------------------------------------- Iteration    1(   6)  ---------------------------------------


    POTLOK:  cpu time    0.0513: real time    0.0515
    SETDIJ:  cpu time    0.0068: real time    0.0069
    EDDIAG:  cpu time    1.6574: real time    1.6579
  RMM-DIIS:  cpu time    4.2887: real time    4.3712
    ORTHCH:  cpu time    0.4091: real time    0.4090
       DOS:  cpu time    0.0015: real time    0.0015
    CHARGE:  cpu time    0.3167: real time    0.3169
    MIXING:  cpu time    0.0020: real time    0.0021
    --------------------------------------------
      LOOP:  cpu time    6.7343: real time    6.8237

 eigenvalue-minimisations  :  3678
 total energy-change (2. order) : 0.8063144E+01  (-0.9195241E+01)
 number of electron     503.9998420 magnetization 
 augmentation part      192.3261020 magnetization 

 DIPCOR: dipole corrections for dipol
 direction  3 min pos     1,
 dipolmoment           0.000000      0.000000     -0.340497 electrons x Angstroem
 Tr[quadrupol]    -10249.456331

 energy correction for charged system         0.000000 eV
 dipol+quadrupol energy correction           -0.004085 eV
 added-field ion interaction          0.053893 eV  (added to PSCEN)


 Broyden mixing:
  rms(total) = 0.52874E+01    rms(broyden)= 0.52873E+01
  rms(prec ) = 0.54388E+01
  weight for this iteration     100.00

 eigenvalues of (default mixing * dielectric matrix)
  average eigenvalue GAMMA=   0.8321
  0.8321

 Free energy of the ion-electron system (eV)
  ---------------------------------------------------
  alpha Z        PSCENC =       805.91917234
  Ewald energy   TEWEN  =    200396.59828285
  -Hartree energ DENC   =   -242539.72239113
  -exchange      EXHF   =         0.00000000
  -V(xc)+E(xc)   XCENC  =      -339.98972592
  PAW double counting   =     43930.73473443   -41942.45328807
  entropy T*S    EENTRO =        -0.26541756
  eigenvalues    EBANDS =     -2168.55748783
  atomic energy  EATOM  =     41659.78587232
  Solvation  Ediel_sol  =         0.00000000
  ---------------------------------------------------
  free energy    TOTEN  =      -197.95024857 eV

  energy without entropy =     -197.68483101  energy(sigma->0) =     -197.81753979


--------------------------------------------------------------------------------------------------------




----------------------------------------- Iteration    1(   7)  ---------------------------------------


    POTLOK:  cpu time    0.0499: real time    0.0499
    SETDIJ:  cpu time    0.0060: real time    0.0060
    EDDIAG:  cpu time    1.6741: real time    1.6756
  RMM-DIIS:  cpu time    4.8766: real time    4.8940
    ORTHCH:  cpu time    0.4912: real time    0.4914
       DOS:  cpu time    0.0016: real time    0.0016
    CHARGE:  cpu time    0.4292: real time    0.4293
    MIXING:  cpu time    0.0039: real time    0.0039
    --------------------------------------------
      LOOP:  cpu time    7.5333: real time    7.5541

 eigenvalue-minimisations  :  3683
 total energy-change (2. order) :-0.5046245E+01  (-0.5055279E+01)
 number of electron     503.9998365 magnetization 
 augmentation part      196.6894346 magnetization 

 DIPCOR: dipole corrections for dipol
 direction  3 min pos     1,
 dipolmoment           0.000000      0.000000      0.917218 electrons x Angstroem
 Tr[quadrupol]    -10249.206198

 energy correction for charged system         0.000000 eV
 dipol+quadrupol energy correction           -0.029645 eV
 added-field ion interaction         -0.145176 eV  (added to PSCEN)


 Broyden mixing:
  rms(total) = 0.38237E+01    rms(broyden)= 0.38235E+01
  rms(prec ) = 0.43174E+01
  weight for this iteration     100.00

 eigenvalues of (default mixing * dielectric matrix)
  average eigenvalue GAMMA=   1.0500
  1.6680  0.4321

 Free energy of the ion-electron system (eV)
  ---------------------------------------------------
  alpha Z        PSCENC =       805.69454364
  Ewald energy   TEWEN  =    200396.59828285
  -Hartree energ DENC   =   -242422.23029660
  -exchange      EXHF   =         0.00000000
  -V(xc)+E(xc)   XCENC  =      -342.56770965
  PAW double counting   =     45600.16327782   -43639.91800958
  entropy T*S    EENTRO =        -0.19488771
  eigenvalues    EBANDS =     -2260.32756619
  atomic energy  EATOM  =     41659.78587232
  Solvation  Ediel_sol  =         0.00000000
  ---------------------------------------------------
  free energy    TOTEN  =      -202.99649309 eV

  energy without entropy =     -202.80160538  energy(sigma->0) =     -202.89904924


--------------------------------------------------------------------------------------------------------




----------------------------------------- Iteration    1(   8)  ---------------------------------------


    POTLOK:  cpu time    0.0667: real time    0.0668
    SETDIJ:  cpu time    0.0061: real time    0.0061
    EDDIAG:  cpu time    1.6548: real time    1.6571
  RMM-DIIS:  cpu time    4.3997: real time    4.4015
    ORTHCH:  cpu time    0.4086: real time    0.4094
       DOS:  cpu time    0.0018: real time    0.0018
    CHARGE:  cpu time    0.3125: real time    0.3127
    MIXING:  cpu time    0.0023: real time    0.0023
    --------------------------------------------
      LOOP:  cpu time    6.8533: real time    6.8601

 eigenvalue-minimisations  :  3672
 total energy-change (2. order) :-0.2433194E+02  (-0.8562827E+01)
 number of electron     503.9998370 magnetization 
 augmentation part      195.0757861 magnetization 

 DIPCOR: dipole corrections for dipol
 direction  3 min pos     1,
 dipolmoment           0.000000      0.000000     -2.098981 electrons x Angstroem
 Tr[quadrupol]    -10250.879100

 energy correction for charged system         0.000000 eV
 dipol+quadrupol energy correction           -0.155246 eV
 added-field ion interaction          0.332224 eV  (added to PSCEN)


 Broyden mixing:
  rms(total) = 0.46068E+01    rms(broyden)= 0.46065E+01
  rms(prec ) = 0.57014E+01
  weight for this iteration     100.00

 eigenvalues of (default mixing * dielectric matrix)
  average eigenvalue GAMMA=   0.9521
  2.1080  0.4867  0.2615

 Free energy of the ion-electron system (eV)
  ---------------------------------------------------
  alpha Z        PSCENC =       806.04634200
  Ewald energy   TEWEN  =    200396.59828285
  -Hartree energ DENC   =   -242419.94206161
  -exchange      EXHF   =         0.00000000
  -V(xc)+E(xc)   XCENC  =      -344.53269093
  PAW double counting   =     47611.68726058   -45678.82374035
  entropy T*S    EENTRO =        -0.31723995
  eigenvalues    EBANDS =     -2257.83045417
  atomic energy  EATOM  =     41659.78587232
  Solvation  Ediel_sol  =         0.00000000
  ---------------------------------------------------
  free energy    TOTEN  =      -227.32842926 eV

  energy without entropy =     -227.01118931  energy(sigma->0) =     -227.16980929


--------------------------------------------------------------------------------------------------------




----------------------------------------- Iteration    1(   9)  ---------------------------------------


    POTLOK:  cpu time    0.0499: real time    0.0508
    SETDIJ:  cpu time    0.0061: real time    0.0061
    EDDIAG:  cpu time    1.6614: real time    1.6638
  RMM-DIIS:  cpu time    4.2604: real time    4.2619
    ORTHCH:  cpu time    0.4080: real time    0.4084
       DOS:  cpu time    0.0018: real time    0.0018
    CHARGE:  cpu time    0.3079: real time    0.3079
    MIXING:  cpu time    0.0025: real time    0.0025
    --------------------------------------------
      LOOP:  cpu time    6.6988: real time    6.7053

 eigenvalue-minimisations  :  3678
 total energy-change (2. order) : 0.1960977E+02  (-0.4144021E+01)
 number of electron     503.9998345 magnetization 
 augmentation part      198.1674065 magnetization 

 DIPCOR: dipole corrections for dipol
 direction  3 min pos     1,
 dipolmoment           0.000000      0.000000      0.454961 electrons x Angstroem
 Tr[quadrupol]    -10251.600066

 energy correction for charged system         0.000000 eV
 dipol+quadrupol energy correction           -0.007294 eV
 added-field ion interaction         -0.072010 eV  (added to PSCEN)


 Broyden mixing:
  rms(total) = 0.32862E+01    rms(broyden)= 0.32858E+01
  rms(prec ) = 0.36486E+01
  weight for this iteration     100.00

 eigenvalues of (default mixing * dielectric matrix)
  average eigenvalue GAMMA=   0.8215
  2.2167  0.4675  0.3009  0.3009

 Free energy of the ion-electron system (eV)
  ---------------------------------------------------
  alpha Z        PSCENC =       805.79006007
  Ewald energy   TEWEN  =    200396.59828285
  -Hartree energ DENC   =   -242407.89056674
  -exchange      EXHF   =         0.00000000
  -V(xc)+E(xc)   XCENC  =      -345.96503270
  PAW double counting   =     48722.25487733   -46807.02786753
  entropy T*S    EENTRO =        -0.20470580
  eigenvalues    EBANDS =     -2231.05958194
  atomic energy  EATOM  =     41659.78587232
  Solvation  Ediel_sol  =         0.00000000
  ---------------------------------------------------
  free energy    TOTEN  =      -207.71866215 eV

  energy without entropy =     -207.51395635  energy(sigma->0) =     -207.61630925


--------------------------------------------------------------------------------------------------------




----------------------------------------- Iteration    1(  10)  ---------------------------------------


    POTLOK:  cpu time    0.0504: real time    0.0514
    SETDIJ:  cpu time    0.0063: real time    0.0070
    EDDIAG:  cpu time    1.6620: real time    1.6635
  RMM-DIIS:  cpu time    4.3283: real time    4.3328
    ORTHCH:  cpu time    0.3996: real time    0.3997
       DOS:  cpu time    0.0018: real time    0.0018
    CHARGE:  cpu time    0.3122: real time    0.3124
    MIXING:  cpu time    0.0026: real time    0.0026
    --------------------------------------------
      LOOP:  cpu time    6.7646: real time    6.7740

 eigenvalue-minimisations  :  3681
 total energy-change (2. order) : 0.1306031E+02  (-0.1657086E+01)
 number of electron     503.9998342 magnetization 
 augmentation part      199.1154155 magnetization 

 DIPCOR: dipole corrections for dipol
 direction  3 min pos     1,
 dipolmoment           0.000000      0.000000     -0.264441 electrons x Angstroem
 Tr[quadrupol]    -10250.222824

 energy correction for charged system         0.000000 eV
 dipol+quadrupol energy correction           -0.002464 eV
 added-field ion interaction          0.041855 eV  (added to PSCEN)


 Broyden mixing:
  rms(total) = 0.18129E+01    rms(broyden)= 0.18126E+01
  rms(prec ) = 0.20614E+01
  weight for this iteration     100.00

 eigenvalues of (default mixing * dielectric matrix)
  average eigenvalue GAMMA=   0.7806
  2.2951  0.4656  0.4656  0.4503  0.2263

 Free energy of the ion-electron system (eV)
  ---------------------------------------------------
  alpha Z        PSCENC =       805.90875548
  Ewald energy   TEWEN  =    200396.59828285
  -Hartree energ DENC   =   -242373.93634091
  -exchange      EXHF   =         0.00000000
  -V(xc)+E(xc)   XCENC  =      -345.63120016
  PAW double counting   =     49089.86830970   -47178.05521493
  entropy T*S    EENTRO =        -0.17323607
  eigenvalues    EBANDS =     -2249.02358090
  atomic energy  EATOM  =     41659.78587232
  Solvation  Ediel_sol  =         0.00000000
  ---------------------------------------------------
  free energy    TOTEN  =      -194.65835262 eV

  energy without entropy =     -194.48511655  energy(sigma->0) =     -194.57173459


--------------------------------------------------------------------------------------------------------




----------------------------------------- Iteration    1(  11)  ---------------------------------------


    POTLOK:  cpu time    0.0504: real time    0.0506
    SETDIJ:  cpu time    0.0061: real time    0.0061
    EDDIAG:  cpu time    1.6579: real time    1.6594
  RMM-DIIS:  cpu time    4.4256: real time    4.4285
    ORTHCH:  cpu time    0.3971: real time    0.3972
       DOS:  cpu time    0.0016: real time    0.0016
    CHARGE:  cpu time    0.3005: real time    0.3005
    MIXING:  cpu time    0.0026: real time    0.0026
    --------------------------------------------
      LOOP:  cpu time    6.8426: real time    6.8504

 eigenvalue-minimisations  :  3681
 total energy-change (2. order) : 0.3101586E+01  (-0.1156848E+01)
 number of electron     503.9998349 magnetization 
 augmentation part      198.0871503 magnetization 

 DIPCOR: dipole corrections for dipol
 direction  3 min pos     1,
 dipolmoment           0.000000      0.000000     -0.085770 electrons x Angstroem
 Tr[quadrupol]    -10251.424725

 energy correction for charged system         0.000000 eV
 dipol+quadrupol energy correction           -0.000259 eV
 added-field ion interaction          0.013576 eV  (added to PSCEN)


 Broyden mixing:
  rms(total) = 0.11602E+01    rms(broyden)= 0.11599E+01
  rms(prec ) = 0.13303E+01
  weight for this iteration     100.00

 eigenvalues of (default mixing * dielectric matrix)
  average eigenvalue GAMMA=   0.7356
  2.2437  0.5946  0.5946  0.3760  0.3760  0.2284

 Free energy of the ion-electron system (eV)
  ---------------------------------------------------
  alpha Z        PSCENC =       805.88268058
  Ewald energy   TEWEN  =    200396.59828285
  -Hartree energ DENC   =   -242444.42022123
  -exchange      EXHF   =         0.00000000
  -V(xc)+E(xc)   XCENC  =      -345.01966641
  PAW double counting   =     49297.77135476   -47384.13582771
  entropy T*S    EENTRO =        -0.22402393
  eigenvalues    EBANDS =     -2177.79521793
  atomic energy  EATOM  =     41659.78587232
  Solvation  Ediel_sol  =         0.00000000
  ---------------------------------------------------
  free energy    TOTEN  =      -191.55676672 eV

  energy without entropy =     -191.33274279  energy(sigma->0) =     -191.44475475


--------------------------------------------------------------------------------------------------------




----------------------------------------- Iteration    1(  12)  ---------------------------------------


    POTLOK:  cpu time    0.0507: real time    0.0507
    SETDIJ:  cpu time    0.0057: real time    0.0069
    EDDIAG:  cpu time    1.6372: real time    1.6389
  RMM-DIIS:  cpu time    4.2329: real time    4.3123
    ORTHCH:  cpu time    0.3976: real time    0.3976
       DOS:  cpu time    0.0016: real time    0.0016
    CHARGE:  cpu time    0.3110: real time    0.3113
    MIXING:  cpu time    0.0027: real time    0.0027
    --------------------------------------------
      LOOP:  cpu time    6.6403: real time    6.7244

 eigenvalue-minimisations  :  3681
 total energy-change (2. order) : 0.2710711E+01  (-0.4351693E+00)
 number of electron     503.9998363 magnetization 
 augmentation part      197.3818612 magnetization 

 DIPCOR: dipole corrections for dipol
 direction  3 min pos     1,
 dipolmoment           0.000000      0.000000     -0.070939 electrons x Angstroem
 Tr[quadrupol]    -10251.492302

 energy correction for charged system         0.000000 eV
 dipol+quadrupol energy correction           -0.000177 eV
 added-field ion interaction          0.011228 eV  (added to PSCEN)


 Broyden mixing:
  rms(total) = 0.74428E+00    rms(broyden)= 0.74413E+00
  rms(prec ) = 0.79865E+00
  weight for this iteration     100.00

 eigenvalues of (default mixing * dielectric matrix)
  average eigenvalue GAMMA=   0.7086
  2.2785  0.6663  0.5480  0.5480  0.3488  0.3488  0.2220

 Free energy of the ion-electron system (eV)
  ---------------------------------------------------
  alpha Z        PSCENC =       805.88041511
  Ewald energy   TEWEN  =    200396.59828285
  -Hartree energ DENC   =   -242476.67179420
  -exchange      EXHF   =         0.00000000
  -V(xc)+E(xc)   XCENC  =      -344.14584007
  PAW double counting   =     49319.70638891   -47402.34112971
  entropy T*S    EENTRO =        -0.23692493
  eigenvalues    EBANDS =     -2147.42132609
  atomic energy  EATOM  =     41659.78587232
  Solvation  Ediel_sol  =         0.00000000
  ---------------------------------------------------
  free energy    TOTEN  =      -188.84605582 eV

  energy without entropy =     -188.60913089  energy(sigma->0) =     -188.72759335


--------------------------------------------------------------------------------------------------------




----------------------------------------- Iteration    1(  13)  ---------------------------------------


    POTLOK:  cpu time    0.0501: real time    0.0505
    SETDIJ:  cpu time    0.0060: real time    0.0060
    EDDIAG:  cpu time    1.6314: real time    1.6336
  RMM-DIIS:  cpu time    4.4121: real time    4.4141
    ORTHCH:  cpu time    0.3978: real time    0.3978
       DOS:  cpu time    0.0017: real time    0.0017
    CHARGE:  cpu time    0.3052: real time    0.3053
    MIXING:  cpu time    0.0028: real time    0.0028
    --------------------------------------------
      LOOP:  cpu time    6.8080: real time    6.8143

 eigenvalue-minimisations  :  3682
 total energy-change (2. order) : 0.6398321E-01  (-0.1343681E+00)
 number of electron     503.9998360 magnetization 
 augmentation part      197.3532916 magnetization 

 DIPCOR: dipole corrections for dipol
 direction  3 min pos     1,
 dipolmoment           0.000000      0.000000     -0.034336 electrons x Angstroem
 Tr[quadrupol]    -10251.691747

 energy correction for charged system         0.000000 eV
 dipol+quadrupol energy correction           -0.000042 eV
 added-field ion interaction          0.005435 eV  (added to PSCEN)


 Broyden mixing:
  rms(total) = 0.70983E+00    rms(broyden)= 0.70971E+00
  rms(prec ) = 0.78732E+00
  weight for this iteration     100.00

 eigenvalues of (default mixing * dielectric matrix)
  average eigenvalue GAMMA=   0.7050
  2.3177  0.7245  0.7245  0.7149  0.3417  0.3417  0.2574  0.2179

 Free energy of the ion-electron system (eV)
  ---------------------------------------------------
  alpha Z        PSCENC =       805.87475737
  Ewald energy   TEWEN  =    200396.59828285
  -Hartree energ DENC   =   -242483.50994276
  -exchange      EXHF   =         0.00000000
  -V(xc)+E(xc)   XCENC  =      -344.07443577
  PAW double counting   =     49361.53170562   -47444.03974071
  entropy T*S    EENTRO =        -0.23761399
  eigenvalues    EBANDS =     -2140.71095752
  atomic energy  EATOM  =     41659.78587232
  Solvation  Ediel_sol  =         0.00000000
  ---------------------------------------------------
  free energy    TOTEN  =      -188.78207261 eV

  energy without entropy =     -188.54445862  energy(sigma->0) =     -188.66326561


--------------------------------------------------------------------------------------------------------




----------------------------------------- Iteration    1(  14)  ---------------------------------------


    POTLOK:  cpu time    0.0498: real time    0.0499
    SETDIJ:  cpu time    0.0061: real time    0.0061
    EDDIAG:  cpu time    1.6297: real time    1.6440
  RMM-DIIS:  cpu time    4.4020: real time    4.4074
    ORTHCH:  cpu time    0.3974: real time    0.3977
       DOS:  cpu time    0.0017: real time    0.0017
    CHARGE:  cpu time    0.3114: real time    0.3115
    MIXING:  cpu time    0.0031: real time    0.0031
    --------------------------------------------
      LOOP:  cpu time    6.8021: real time    6.8237

 eigenvalue-minimisations  :  3680
 total energy-change (2. order) :-0.6620080E-01  (-0.6436074E-01)
 number of electron     503.9998358 magnetization 
 augmentation part      197.5157712 magnetization 

 DIPCOR: dipole corrections for dipol
 direction  3 min pos     1,
 dipolmoment           0.000000      0.000000     -0.035618 electrons x Angstroem
 Tr[quadrupol]    -10251.888940

 energy correction for charged system         0.000000 eV
 dipol+quadrupol energy correction           -0.000045 eV
 added-field ion interaction          0.005638 eV  (added to PSCEN)


 Broyden mixing:
  rms(total) = 0.68761E+00    rms(broyden)= 0.68750E+00
  rms(prec ) = 0.76463E+00
  weight for this iteration     100.00

 eigenvalues of (default mixing * dielectric matrix)
  average eigenvalue GAMMA=   0.6903
  2.3134  0.8571  0.8571  0.6976  0.3769  0.3769  0.2893  0.2417  0.2025

 Free energy of the ion-electron system (eV)
  ---------------------------------------------------
  alpha Z        PSCENC =       805.87495717
  Ewald energy   TEWEN  =    200396.59828285
  -Hartree energ DENC   =   -242488.25886102
  -exchange      EXHF   =         0.00000000
  -V(xc)+E(xc)   XCENC  =      -344.08125786
  PAW double counting   =     49395.51426056   -47478.15592993
  entropy T*S    EENTRO =        -0.24577399
  eigenvalues    EBANDS =     -2135.87982351
  atomic energy  EATOM  =     41659.78587232
  Solvation  Ediel_sol  =         0.00000000
  ---------------------------------------------------
  free energy    TOTEN  =      -188.84827340 eV

  energy without entropy =     -188.60249942  energy(sigma->0) =     -188.72538641


--------------------------------------------------------------------------------------------------------




----------------------------------------- Iteration    1(  15)  ---------------------------------------


    POTLOK:  cpu time    0.0500: real time    0.0500
    SETDIJ:  cpu time    0.0061: real time    0.0061
    EDDIAG:  cpu time    1.6544: real time    1.6563
  RMM-DIIS:  cpu time    4.3118: real time    4.3139
    ORTHCH:  cpu time    0.3983: real time    0.3984
       DOS:  cpu time    0.0018: real time    0.0018
    CHARGE:  cpu time    0.3000: real time    0.3001
    MIXING:  cpu time    0.0033: real time    0.0033
    --------------------------------------------
      LOOP:  cpu time    6.7267: real time    6.7374

 eigenvalue-minimisations  :  3678
 total energy-change (2. order) : 0.1644819E+00  (-0.3356250E-01)
 number of electron     503.9998359 magnetization 
 augmentation part      197.5314637 magnetization 

 DIPCOR: dipole corrections for dipol
 direction  3 min pos     1,
 dipolmoment           0.000000      0.000000      0.001720 electrons x Angstroem
 Tr[quadrupol]    -10252.048382

 energy correction for charged system         0.000000 eV
 dipol+quadrupol energy correction           -0.000000 eV
 added-field ion interaction         -0.000272 eV  (added to PSCEN)


 Broyden mixing:
  rms(total) = 0.44354E+00    rms(broyden)= 0.44346E+00
  rms(prec ) = 0.49153E+00
  weight for this iteration     100.00

 eigenvalues of (default mixing * dielectric matrix)
  average eigenvalue GAMMA=   0.7297
  2.2517  1.2384  1.2384  0.5792  0.4705  0.4705  0.3223  0.2865  0.2429  0.1969

 Free energy of the ion-electron system (eV)
  ---------------------------------------------------
  alpha Z        PSCENC =       805.86909189
  Ewald energy   TEWEN  =    200396.59828285
  -Hartree energ DENC   =   -242495.57754181
  -exchange      EXHF   =         0.00000000
  -V(xc)+E(xc)   XCENC  =      -344.02093757
  PAW double counting   =     49395.00439732   -47477.13920901
  entropy T*S    EENTRO =        -0.24952023
  eigenvalues    EBANDS =     -2128.95422729
  atomic energy  EATOM  =     41659.78587232
  Solvation  Ediel_sol  =         0.00000000
  ---------------------------------------------------
  free energy    TOTEN  =      -188.68379153 eV

  energy without entropy =     -188.43427129  energy(sigma->0) =     -188.55903141


--------------------------------------------------------------------------------------------------------




----------------------------------------- Iteration    1(  16)  ---------------------------------------


    POTLOK:  cpu time    0.0497: real time    0.0499
    SETDIJ:  cpu time    0.0061: real time    0.0061
    EDDIAG:  cpu time    1.6378: real time    1.6393
  RMM-DIIS:  cpu time    4.9186: real time    4.9417
    ORTHCH:  cpu time    0.3946: real time    0.3946
       DOS:  cpu time    0.0017: real time    0.0017
    CHARGE:  cpu time    0.3091: real time    0.3093
    MIXING:  cpu time    0.0035: real time    0.0035
    --------------------------------------------
      LOOP:  cpu time    7.3219: real time    7.3483

 eigenvalue-minimisations  :  3679
 total energy-change (2. order) : 0.1123882E+00  (-0.2757090E-01)
 number of electron     503.9998359 magnetization 
 augmentation part      197.4468737 magnetization 

 DIPCOR: dipole corrections for dipol
 direction  3 min pos     1,
 dipolmoment           0.000000      0.000000     -0.002133 electrons x Angstroem
 Tr[quadrupol]    -10252.387503

 energy correction for charged system         0.000000 eV
 dipol+quadrupol energy correction           -0.000000 eV
 added-field ion interaction          0.000338 eV  (added to PSCEN)


 Broyden mixing:
  rms(total) = 0.38050E+00    rms(broyden)= 0.38045E+00
  rms(prec ) = 0.42776E+00
  weight for this iteration     100.00

 eigenvalues of (default mixing * dielectric matrix)
  average eigenvalue GAMMA=   0.7438
  2.1604  1.5550  1.5550  0.5525  0.5525  0.4423  0.3494  0.3494  0.2406  0.2335
  0.1909

 Free energy of the ion-electron system (eV)
  ---------------------------------------------------
  alpha Z        PSCENC =       805.86970176
  Ewald energy   TEWEN  =    200396.59828285
  -Hartree energ DENC   =   -242514.20630860
  -exchange      EXHF   =         0.00000000
  -V(xc)+E(xc)   XCENC  =      -343.77658609
  PAW double counting   =     49381.39326846   -47461.74386813
  entropy T*S    EENTRO =        -0.25618007
  eigenvalues    EBANDS =     -2112.23558588
  atomic energy  EATOM  =     41659.78587232
  Solvation  Ediel_sol  =         0.00000000
  ---------------------------------------------------
  free energy    TOTEN  =      -188.57140338 eV

  energy without entropy =     -188.31522331  energy(sigma->0) =     -188.44331335


--------------------------------------------------------------------------------------------------------




----------------------------------------- Iteration    1(  17)  ---------------------------------------


    POTLOK:  cpu time    0.0507: real time    0.0509
    SETDIJ:  cpu time    0.0061: real time    0.0061
    EDDIAG:  cpu time    1.6294: real time    1.6305
  RMM-DIIS:  cpu time    4.3429: real time    4.3449
    ORTHCH:  cpu time    0.3873: real time    0.3883
       DOS:  cpu time    0.0016: real time    0.0016
    CHARGE:  cpu time    0.3048: real time    0.3048
    MIXING:  cpu time    0.0036: real time    0.0036
    --------------------------------------------
      LOOP:  cpu time    6.7272: real time    6.7345

 eigenvalue-minimisations  :  3682
 total energy-change (2. order) : 0.1207746E+00  (-0.1500958E-01)
 number of electron     503.9998362 magnetization 
 augmentation part      197.3128331 magnetization 

 DIPCOR: dipole corrections for dipol
 direction  3 min pos     1,
 dipolmoment           0.000000      0.000000     -0.010309 electrons x Angstroem
 Tr[quadrupol]    -10252.733038

 energy correction for charged system         0.000000 eV
 dipol+quadrupol energy correction           -0.000004 eV
 added-field ion interaction          0.001632 eV  (added to PSCEN)


 Broyden mixing:
  rms(total) = 0.20832E+00    rms(broyden)= 0.20827E+00
  rms(prec ) = 0.23703E+00
  weight for this iteration     100.00

 eigenvalues of (default mixing * dielectric matrix)
  average eigenvalue GAMMA=   0.7552
  2.1068  2.1068  1.4653  0.5983  0.5983  0.4256  0.4012  0.4012  0.2682  0.2682
  0.2302  0.1926

 Free energy of the ion-electron system (eV)
  ---------------------------------------------------
  alpha Z        PSCENC =       805.87099224
  Ewald energy   TEWEN  =    200396.59828285
  -Hartree energ DENC   =   -242532.29222476
  -exchange      EXHF   =         0.00000000
  -V(xc)+E(xc)   XCENC  =      -343.56203082
  PAW double counting   =     49381.70822650   -47460.61059037
  entropy T*S    EENTRO =        -0.25281563
  eigenvalues    EBANDS =     -2095.69634107
  atomic energy  EATOM  =     41659.78587232
  Solvation  Ediel_sol  =         0.00000000
  ---------------------------------------------------
  free energy    TOTEN  =      -188.45062875 eV

  energy without entropy =     -188.19781312  energy(sigma->0) =     -188.32422093


--------------------------------------------------------------------------------------------------------




----------------------------------------- Iteration    1(  18)  ---------------------------------------


    POTLOK:  cpu time    0.0506: real time    0.0508
    SETDIJ:  cpu time    0.0061: real time    0.0061
    EDDIAG:  cpu time    1.6327: real time    1.6342
  RMM-DIIS:  cpu time    4.2086: real time    4.2974
    ORTHCH:  cpu time    0.3812: real time    0.3812
       DOS:  cpu time    0.0017: real time    0.0017
    CHARGE:  cpu time    0.3104: real time    0.3112
    MIXING:  cpu time    0.0038: real time    0.0038
    --------------------------------------------
      LOOP:  cpu time    6.5959: real time    6.6905

 eigenvalue-minimisations  :  3679
 total energy-change (2. order) : 0.4677184E-01  (-0.7435616E-02)
 number of electron     503.9998363 magnetization 
 augmentation part      197.1956967 magnetization 

 DIPCOR: dipole corrections for dipol
 direction  3 min pos     1,
 dipolmoment           0.000000      0.000000     -0.023610 electrons x Angstroem
 Tr[quadrupol]    -10252.987437

 energy correction for charged system         0.000000 eV
 dipol+quadrupol energy correction           -0.000020 eV
 added-field ion interaction          0.003737 eV  (added to PSCEN)


 Broyden mixing:
  rms(total) = 0.14521E+00    rms(broyden)= 0.14518E+00
  rms(prec ) = 0.16596E+00
  weight for this iteration     100.00

 eigenvalues of (default mixing * dielectric matrix)
  average eigenvalue GAMMA=   0.7338
  2.1973  2.1973  1.3440  0.6159  0.6159  0.4222  0.4222  0.3904  0.3904  0.2939
  0.2388  0.2215  0.1898

 Free energy of the ion-electron system (eV)
  ---------------------------------------------------
  alpha Z        PSCENC =       805.87308157
  Ewald energy   TEWEN  =    200396.59828285
  -Hartree energ DENC   =   -242545.44041077
  -exchange      EXHF   =         0.00000000
  -V(xc)+E(xc)   XCENC  =      -343.40248483
  PAW double counting   =     49393.26922337   -47471.28339182
  entropy T*S    EENTRO =        -0.25437872
  eigenvalues    EBANDS =     -2083.54965087
  atomic energy  EATOM  =     41659.78587232
  Solvation  Ediel_sol  =         0.00000000
  ---------------------------------------------------
  free energy    TOTEN  =      -188.40385691 eV

  energy without entropy =     -188.14947819  energy(sigma->0) =     -188.27666755


--------------------------------------------------------------------------------------------------------




----------------------------------------- Iteration    1(  19)  ---------------------------------------


    POTLOK:  cpu time    0.0508: real time    0.0509
    SETDIJ:  cpu time    0.0061: real time    0.0061
    EDDIAG:  cpu time    1.6388: real time    1.6408
  RMM-DIIS:  cpu time    4.3905: real time    4.3923
    ORTHCH:  cpu time    0.3798: real time    0.3806
       DOS:  cpu time    0.0016: real time    0.0016
    CHARGE:  cpu time    0.2998: real time    0.3000
    MIXING:  cpu time    0.0038: real time    0.0038
    --------------------------------------------
      LOOP:  cpu time    6.7719: real time    6.7801

 eigenvalue-minimisations  :  3680
 total energy-change (2. order) : 0.1513472E-01  (-0.2285618E-02)
 number of electron     503.9998364 magnetization 
 augmentation part      197.1559717 magnetization 

 DIPCOR: dipole corrections for dipol
 direction  3 min pos     1,
 dipolmoment           0.000000      0.000000     -0.023359 electrons x Angstroem
 Tr[quadrupol]    -10253.094133

 energy correction for charged system         0.000000 eV
 dipol+quadrupol energy correction           -0.000019 eV
 added-field ion interaction          0.003697 eV  (added to PSCEN)


 Broyden mixing:
  rms(total) = 0.90447E-01    rms(broyden)= 0.90431E-01
  rms(prec ) = 0.10337E+00
  weight for this iteration     100.00

 eigenvalues of (default mixing * dielectric matrix)
  average eigenvalue GAMMA=   0.7189
  2.1244  1.6946  1.6946  0.7012  0.7012  0.5436  0.4953  0.4953  0.3524  0.3524
  0.2484  0.2484  0.2225  0.1908

 Free energy of the ion-electron system (eV)
  ---------------------------------------------------
  alpha Z        PSCENC =       805.87304229
  Ewald energy   TEWEN  =    200396.59828285
  -Hartree energ DENC   =   -242550.36711197
  -exchange      EXHF   =         0.00000000
  -V(xc)+E(xc)   XCENC  =      -343.34845689
  PAW double counting   =     49400.27141019   -47478.06380143
  entropy T*S    EENTRO =        -0.25543124
  eigenvalues    EBANDS =     -2078.88252830
  atomic energy  EATOM  =     41659.78587232
  Solvation  Ediel_sol  =         0.00000000
  ---------------------------------------------------
  free energy    TOTEN  =      -188.38872219 eV

  energy without entropy =     -188.13329095  energy(sigma->0) =     -188.26100657


--------------------------------------------------------------------------------------------------------




----------------------------------------- Iteration    1(  20)  ---------------------------------------


    POTLOK:  cpu time    0.0500: real time    0.0500
    SETDIJ:  cpu time    0.0060: real time    0.0060
    EDDIAG:  cpu time    1.6166: real time    1.6187
  RMM-DIIS:  cpu time    4.3955: real time    4.3975
    ORTHCH:  cpu time    0.3799: real time    0.3800
       DOS:  cpu time    0.0016: real time    0.0016
    CHARGE:  cpu time    0.3087: real time    0.3089
    MIXING:  cpu time    0.0041: real time    0.0041
    --------------------------------------------
      LOOP:  cpu time    6.7630: real time    6.7688

 eigenvalue-minimisations  :  3681
 total energy-change (2. order) : 0.5864839E-02  (-0.6306530E-03)
 number of electron     503.9998364 magnetization 
 augmentation part      197.1474242 magnetization 

 DIPCOR: dipole corrections for dipol
 direction  3 min pos     1,
 dipolmoment           0.000000      0.000000     -0.011216 electrons x Angstroem
 Tr[quadrupol]    -10253.154626

 energy correction for charged system         0.000000 eV
 dipol+quadrupol energy correction           -0.000004 eV
 added-field ion interaction          0.001775 eV  (added to PSCEN)


 Broyden mixing:
  rms(total) = 0.54715E-01    rms(broyden)= 0.54697E-01
  rms(prec ) = 0.59577E-01
  weight for this iteration     100.00

 eigenvalues of (default mixing * dielectric matrix)
  average eigenvalue GAMMA=   0.7156
  2.2433  1.6275  1.6275  0.8259  0.8259  0.5604  0.5604  0.5257  0.3705  0.3705
  0.3008  0.2435  0.2435  0.1909  0.2172

 Free energy of the ion-electron system (eV)
  ---------------------------------------------------
  alpha Z        PSCENC =       805.87113510
  Ewald energy   TEWEN  =    200396.59828285
  -Hartree energ DENC   =   -242552.63010486
  -exchange      EXHF   =         0.00000000
  -V(xc)+E(xc)   XCENC  =      -343.33955069
  PAW double counting   =     49404.94160389   -47482.80082996
  entropy T*S    EENTRO =        -0.25654423
  eigenvalues    EBANDS =     -2076.55272176
  atomic energy  EATOM  =     41659.78587232
  Solvation  Ediel_sol  =         0.00000000
  ---------------------------------------------------
  free energy    TOTEN  =      -188.38285735 eV

  energy without entropy =     -188.12631312  energy(sigma->0) =     -188.25458523


--------------------------------------------------------------------------------------------------------




----------------------------------------- Iteration    1(  21)  ---------------------------------------


    POTLOK:  cpu time    0.0502: real time    0.0502
    SETDIJ:  cpu time    0.0060: real time    0.0060
    EDDIAG:  cpu time    1.6228: real time    1.6236
  RMM-DIIS:  cpu time    4.2897: real time    4.2920
    ORTHCH:  cpu time    0.3822: real time    0.3824
       DOS:  cpu time    0.0016: real time    0.0016
    CHARGE:  cpu time    0.3042: real time    0.3041
    MIXING:  cpu time    0.0041: real time    0.0041
    --------------------------------------------
      LOOP:  cpu time    6.6617: real time    6.6665

 eigenvalue-minimisations  :  3680
 total energy-change (2. order) : 0.1613308E-03  (-0.3937596E-03)
 number of electron     503.9998364 magnetization 
 augmentation part      197.1547084 magnetization 

 DIPCOR: dipole corrections for dipol
 direction  3 min pos     1,
 dipolmoment           0.000000      0.000000     -0.013101 electrons x Angstroem
 Tr[quadrupol]    -10253.223377

 energy correction for charged system         0.000000 eV
 dipol+quadrupol energy correction           -0.000006 eV
 added-field ion interaction          0.002074 eV  (added to PSCEN)


 Broyden mixing:
  rms(total) = 0.45130E-01    rms(broyden)= 0.45123E-01
  rms(prec ) = 0.51346E-01
  weight for this iteration     100.00

 eigenvalues of (default mixing * dielectric matrix)
  average eigenvalue GAMMA=   0.7416
  2.2929  1.7497  1.7497  1.0378  1.0378  0.6210  0.6210  0.4640  0.4097  0.4097
  0.2951  0.2951  0.2383  0.2383  0.1907  0.2157

 Free energy of the ion-electron system (eV)
  ---------------------------------------------------
  alpha Z        PSCENC =       805.87143184
  Ewald energy   TEWEN  =    200396.59828285
  -Hartree energ DENC   =   -242554.99156000
  -exchange      EXHF   =         0.00000000
  -V(xc)+E(xc)   XCENC  =      -343.33623571
  PAW double counting   =     49408.69041931   -47486.61270588
  entropy T*S    EENTRO =        -0.25660063
  eigenvalues    EBANDS =     -2074.13160011
  atomic energy  EATOM  =     41659.78587232
  Solvation  Ediel_sol  =         0.00000000
  ---------------------------------------------------
  free energy    TOTEN  =      -188.38269602 eV

  energy without entropy =     -188.12609538  energy(sigma->0) =     -188.25439570


--------------------------------------------------------------------------------------------------------




----------------------------------------- Iteration    1(  22)  ---------------------------------------


    POTLOK:  cpu time    0.0503: real time    0.0503
    SETDIJ:  cpu time    0.0061: real time    0.0061
    EDDIAG:  cpu time    1.6091: real time    1.6107
  RMM-DIIS:  cpu time    4.3380: real time    4.3398
    ORTHCH:  cpu time    0.3804: real time    0.3804
       DOS:  cpu time    0.0016: real time    0.0017
    CHARGE:  cpu time    0.3102: real time    0.3105
    MIXING:  cpu time    0.0049: real time    0.0049
    --------------------------------------------
      LOOP:  cpu time    6.7013: real time    6.7068

 eigenvalue-minimisations  :  3683
 total energy-change (2. order) : 0.2165643E-02  (-0.1686246E-03)
 number of electron     503.9998364 magnetization 
 augmentation part      197.1376865 magnetization 

 DIPCOR: dipole corrections for dipol
 direction  3 min pos     1,
 dipolmoment           0.000000      0.000000     -0.015547 electrons x Angstroem
 Tr[quadrupol]    -10253.366317

 energy correction for charged system         0.000000 eV
 dipol+quadrupol energy correction           -0.000009 eV
 added-field ion interaction          0.002461 eV  (added to PSCEN)


 Broyden mixing:
  rms(total) = 0.28216E-01    rms(broyden)= 0.28212E-01
  rms(prec ) = 0.31850E-01
  weight for this iteration     100.00

 eigenvalues of (default mixing * dielectric matrix)
  average eigenvalue GAMMA=   0.7633
  2.3277  2.0229  2.0229  1.0589  1.0589  0.6267  0.6267  0.5167  0.4369  0.4369
  0.3420  0.3420  0.2784  0.1908  0.2365  0.2365  0.2155

 Free energy of the ion-electron system (eV)
  ---------------------------------------------------
  alpha Z        PSCENC =       805.87181659
  Ewald energy   TEWEN  =    200396.59828285
  -Hartree energ DENC   =   -242560.83267366
  -exchange      EXHF   =         0.00000000
  -V(xc)+E(xc)   XCENC  =      -343.30021292
  PAW double counting   =     49413.39805841   -47491.21077234
  entropy T*S    EENTRO =        -0.25692555
  eigenvalues    EBANDS =     -2068.43397607
  atomic energy  EATOM  =     41659.78587232
  Solvation  Ediel_sol  =         0.00000000
  ---------------------------------------------------
  free energy    TOTEN  =      -188.38053037 eV

  energy without entropy =     -188.12360482  energy(sigma->0) =     -188.25206760


--------------------------------------------------------------------------------------------------------




----------------------------------------- Iteration    1(  23)  ---------------------------------------


    POTLOK:  cpu time    0.0502: real time    0.0502
    SETDIJ:  cpu time    0.0060: real time    0.0060
    EDDIAG:  cpu time    1.6284: real time    1.6409
  RMM-DIIS:  cpu time    4.3801: real time    4.3821
    ORTHCH:  cpu time    0.3796: real time    0.3799
       DOS:  cpu time    0.0016: real time    0.0016
    CHARGE:  cpu time    0.3001: real time    0.3001
    MIXING:  cpu time    0.0046: real time    0.0046
    --------------------------------------------
      LOOP:  cpu time    6.7514: real time    6.7673

 eigenvalue-minimisations  :  3681
 total energy-change (2. order) : 0.7329671E-03  (-0.1565176E-03)
 number of electron     503.9998364 magnetization 
 augmentation part      197.1222964 magnetization 

 DIPCOR: dipole corrections for dipol
 direction  3 min pos     1,
 dipolmoment           0.000000      0.000000     -0.015747 electrons x Angstroem
 Tr[quadrupol]    -10253.503215

 energy correction for charged system         0.000000 eV
 dipol+quadrupol energy correction           -0.000009 eV
[...]
    275       1.7010      0.00000
    276       1.8362      0.00000
    277       2.1547      0.00000
    278       2.2126      0.00000
    279       2.2717      0.00000
    280       2.3690      0.00000
    281       2.4267      0.00000
    282       2.5138      0.00000
    283       2.6798      0.00000
    284       2.9823      0.00000
    285       3.1663      0.00000
    286       3.2844      0.00000
    287       3.4897      0.00000
    288       3.6325      0.00000
    289       3.7577      0.00000
    290       4.0116      0.00000
    291       4.0652      0.00000
    292       4.1911      0.00000
    293       4.4632      0.00000
    294       4.5120      0.00000
    295       4.6303      0.00000
    296       4.6439      0.00000
    297       4.7965      0.00000
    298       4.8235      0.00000
    299       4.8800      0.00000
    300       4.9228      0.00000
    301       4.9682      0.00000
    302       5.0075      0.00000
    303       5.0675      0.00000
    304       5.0913      0.00000
    305       5.1749      0.00000
    306       5.2672      0.00000


--------------------------------------------------------------------------------------------------------


 soft charge-density along one line, spin component           1
         0         1         2         3         4         5         6         7         8         9
 total charge-density along one line
 
 pseudopotential strength for first ion, spin component:           1
 -8.039   0.003   0.001   0.000  -0.000  -8.186   0.003   0.001
  0.003  -7.964   0.002  -0.001  -0.004   0.003  -8.112   0.002
  0.001   0.002  -7.950   0.000  -0.009   0.001   0.002  -8.099
  0.000  -0.001   0.000  -7.950   0.002   0.000  -0.001   0.000
 -0.000  -0.004  -0.009   0.002  -8.036  -0.000  -0.003  -0.009
 -8.186   0.003   0.001   0.000  -0.000  -8.317   0.003   0.001
  0.003  -8.112   0.002  -0.001  -0.003   0.003  -8.244   0.002
  0.001   0.002  -8.099   0.000  -0.009   0.001   0.002  -8.231
  0.000  -0.001   0.000  -8.099   0.002   0.000  -0.001   0.000
 -0.000  -0.003  -0.009   0.002  -8.183  -0.000  -0.003  -0.009
  0.000  -0.001  -0.027  -0.001  -0.004   0.000  -0.001  -0.027
  0.000  -0.001  -0.039  -0.001  -0.006   0.000  -0.001  -0.038
  0.000   0.005  -0.001  -0.000  -0.001   0.000   0.004  -0.000
 -0.000   0.001   0.007   0.000   0.000  -0.000   0.001   0.007
  0.001  -0.000  -0.000   0.005   0.000   0.001  -0.000  -0.000
  0.000   0.005  -0.001  -0.000  -0.002   0.000   0.004  -0.001
 -0.000   0.002   0.008   0.000   0.000  -0.000   0.002   0.008
  0.001  -0.000  -0.000   0.005   0.000   0.001  -0.000  -0.000
 total augmentation occupancy for first ion, spin component:           1
  4.612  -0.008   0.012   0.061  -0.009  -2.808   0.029  -0.011  -0.082   0.003  -0.004   0.001  -0.001   0.005   0.033   0.000
 -0.008   4.072  -0.059  -0.007   0.026   0.029  -1.819   0.064   0.004  -0.053   0.036  -0.031   0.125  -0.012   0.005  -0.003
  0.012  -0.059   4.458  -0.000   0.196  -0.011   0.064  -2.331  -0.009  -0.221   1.089  -0.164  -0.009   0.220   0.003   0.000
  0.061  -0.007  -0.000   4.036   0.009  -0.081   0.004  -0.010  -1.752  -0.006   0.040  -0.012   0.005   0.001   0.157  -0.000
 -0.009   0.026   0.196   0.009   4.192   0.003  -0.053  -0.221  -0.007  -2.352   0.275  -0.122   0.024   0.000   0.001  -0.002
 -2.808   0.029  -0.011  -0.081   0.003   2.880  -0.045   0.010   0.096   0.001   0.001   0.000   0.001  -0.005  -0.032  -0.000
  0.029  -1.819   0.064   0.004  -0.053  -0.045   1.538  -0.066  -0.002   0.073  -0.027   0.024  -0.116   0.010  -0.005   0.005
 -0.011   0.064  -2.331  -0.010  -0.221   0.010  -0.066   2.151   0.017   0.240  -1.008   0.179   0.009  -0.225  -0.003  -0.001
 -0.082   0.004  -0.009  -1.752  -0.007   0.096  -0.002   0.017   1.444   0.004  -0.036   0.011  -0.004  -0.002  -0.150   0.000
  0.003  -0.053  -0.221  -0.006  -2.352   0.001   0.073   0.240   0.004   2.399  -0.249   0.115  -0.021  -0.005  -0.001   0.001
 -0.004   0.036   1.089   0.040   0.275   0.001  -0.027  -1.008  -0.036  -0.249   2.426  -0.523  -0.001  -0.110  -0.002   0.000
  0.001  -0.031  -0.164  -0.012  -0.122   0.000   0.024   0.179   0.011   0.115  -0.523   0.153  -0.002   0.049   0.000   0.000
 -0.001   0.125  -0.009   0.005   0.024   0.001  -0.116   0.009  -0.004  -0.021  -0.001  -0.002   0.201   0.000  -0.000  -0.007
  0.005  -0.012   0.220   0.001   0.000  -0.005   0.010  -0.225  -0.002  -0.005  -0.110   0.049   0.000   0.088  -0.002   0.000
  0.033   0.005   0.003   0.157   0.001  -0.032  -0.005  -0.003  -0.150  -0.001  -0.002   0.000  -0.000  -0.002   0.183  -0.000
  0.000  -0.003   0.000  -0.000  -0.002  -0.000   0.005  -0.001   0.000   0.001   0.000   0.000  -0.007   0.000  -0.000   0.000
 -0.000   0.002   0.002   0.000   0.001   0.000  -0.001   0.005  -0.000  -0.000   0.008  -0.002   0.000  -0.003   0.000  -0.000
  0.000  -0.000  -0.000  -0.002   0.000   0.001   0.000  -0.000   0.005   0.000   0.000  -0.000  -0.000   0.000  -0.005   0.000


------------------------ aborting loop because EDIFF is reached ----------------------------------------


    CHARGE:  cpu time    0.2996: real time    0.2997
    FORLOC:  cpu time    0.0187: real time    0.0187
    FORNL :  cpu time    1.5991: real time    1.5999
    FORCOR:  cpu time    0.0675: real time    0.0675
    FORHAR:  cpu time    0.0291: real time    0.0291
    MIXING:  cpu time    0.0034: real time    0.0034
    OFIELD:  cpu time    0.0000: real time    0.0000

 VOLUME and BASIS-vectors are now :
 -----------------------------------------------------------------------------
  energy-cutoff  :      400.00
  volume of cell :     2567.68
      direct lattice vectors                 reciprocal lattice vectors
    11.002581515  0.000000000  0.000000000     0.090887761 -0.052474073  0.000000000
     5.501290758  9.528515099  0.000000000     0.000000000  0.104948147  0.000000000
     0.000000000  0.000000000 24.491785094     0.000000000  0.000000000  0.040830017

  length of vectors
    11.002581515 11.002581515 24.491785094     0.104948147  0.104948147  0.040830017


 FORCES acting on ions
    electron-ion (+dipol)            ewald-force                    non-local-force                 convergence-correction
 -----------------------------------------------------------------------------------------------
   -.985E+01 0.476E+01 -.227E+04   0.978E+01 -.492E+01 0.227E+04   0.647E-01 0.155E+00 0.181E+00   0.127E-02 -.192E-03 -.571E-02
   -.430E+01 -.638E+01 -.231E+04   0.404E+01 0.611E+01 0.231E+04   0.258E+00 0.267E+00 0.886E-01   0.105E-02 0.593E-03 0.653E-03
   0.778E+01 -.105E+01 -.119E+02   -.731E+01 0.143E+01 0.115E+02   -.470E+00 -.389E+00 0.418E+00   -.700E-03 0.235E-02 -.632E-02
   0.900E+01 -.427E+01 0.226E+04   -.951E+01 0.460E+01 -.226E+04   0.510E+00 -.330E+00 -.414E+00   -.673E-03 0.446E-03 -.334E-02
   0.268E+01 -.492E+00 -.411E+02   -.250E+01 -.664E-01 0.395E+02   -.181E+00 0.557E+00 0.166E+01   -.874E-03 -.188E-02 -.588E-02
   0.899E+00 0.720E+00 0.131E+02   -.856E+00 -.729E+00 -.132E+02   -.483E-01 0.131E-01 0.108E+00   0.745E-03 0.139E-02 -.328E-02
   -.151E+02 -.649E+00 -.224E+04   0.157E+02 0.788E+00 0.224E+04   -.661E+00 -.140E+00 0.233E+00   -.409E-03 -.794E-03 -.650E-02
   -.522E+00 0.175E+01 0.686E+02   -.324E+00 -.226E+01 -.669E+02   0.847E+00 0.509E+00 -.167E+01   -.212E-02 -.422E-02 -.416E-02
   -.101E+02 -.589E+00 0.231E+04   0.106E+02 0.372E+00 -.231E+04   -.572E+00 0.219E+00 -.101E+00   0.713E-04 -.227E-02 -.948E-03
   -.865E+01 -.191E+02 -.227E+04   0.895E+01 0.198E+02 0.226E+04   -.318E+00 -.725E+00 0.366E-01   0.245E-03 0.238E-02 -.489E-02
   -.224E+02 -.775E+01 0.230E+04   0.231E+02 0.800E+01 -.230E+04   -.654E+00 -.252E+00 0.266E-01   0.123E-02 0.191E-03 -.398E-02
   0.195E+02 0.111E+02 -.231E+04   -.200E+02 -.118E+02 0.231E+04   0.529E+00 0.644E+00 -.272E-01   -.403E-03 -.232E-03 -.890E-03
   -.896E+01 -.423E+01 -.220E+02   0.942E+01 0.407E+01 0.215E+02   -.456E+00 0.173E+00 0.512E+00   0.750E-03 0.391E-03 -.647E-02
   0.197E+01 0.249E+02 0.228E+04   -.122E+01 -.254E+02 -.228E+04   -.751E+00 0.502E+00 -.365E+00   0.797E-04 0.611E-03 0.161E-02
   0.730E+01 -.189E+01 -.228E+04   -.749E+01 0.179E+01 0.228E+04   0.203E+00 0.902E-01 -.390E-01   -.201E-03 0.738E-03 0.431E-03
   0.887E+01 0.606E-01 -.175E+01   -.926E+01 -.539E+00 0.183E+01   0.389E+00 0.478E+00 -.706E-01   0.916E-03 -.191E-02 -.600E-02
   0.111E+02 0.992E+01 0.228E+04   -.115E+02 -.102E+02 -.228E+04   0.467E+00 0.297E+00 0.291E-01   -.278E-03 0.158E-02 -.191E-02
   -.499E+01 -.348E+01 -.843E+01   0.530E+01 0.435E+01 0.797E+01   -.315E+00 -.877E+00 0.471E+00   0.244E-02 0.333E-02 -.717E-02
   -.453E+01 -.416E+01 0.803E+01   0.367E+01 0.403E+01 -.866E+01   0.857E+00 0.137E+00 0.622E+00   -.621E-03 0.125E-02 -.414E-02
   0.214E+02 -.339E+01 0.226E+04   -.224E+02 0.386E+01 -.226E+04   0.103E+01 -.471E+00 -.336E+00   -.137E-02 -.234E-02 0.668E-02
   0.104E+02 0.221E+01 -.228E+04   -.112E+02 -.192E+01 0.228E+04   0.731E+00 -.285E+00 -.193E-01   0.116E-02 -.233E-03 -.260E-02
   -.200E+02 -.362E+01 -.223E+04   0.206E+02 0.373E+01 0.223E+04   -.687E+00 -.111E+00 0.232E+00   0.313E-02 0.445E-03 -.385E-02
   0.145E+01 -.158E+02 0.231E+04   -.131E+01 0.162E+02 -.231E+04   -.135E+00 -.418E+00 0.634E-01   -.108E-02 -.855E-05 -.470E-03
   -.220E+00 0.616E+01 0.499E+02   0.800E+00 -.590E+01 -.488E+02   -.578E+00 -.261E+00 -.109E+01   0.174E-02 -.244E-02 -.546E-02
   -.554E+01 0.224E+01 -.677E+01   0.512E+01 -.199E+01 0.635E+01   0.420E+00 -.251E+00 0.421E+00   -.934E-03 0.550E-03 -.563E-02
   -.284E+01 -.107E+01 0.200E+04   0.277E+01 0.108E+01 -.200E+04   0.679E-01 -.158E-01 -.135E+01   0.454E-04 0.118E-02 -.247E-02
   0.214E+02 -.299E+01 0.198E+04   -.217E+02 0.288E+01 -.198E+04   0.303E+00 0.106E+00 -.179E+01   -.163E-02 -.135E-02 -.114E-02
   0.893E+01 -.135E+02 0.196E+04   -.901E+01 0.139E+02 -.196E+04   0.761E-01 -.421E+00 -.185E+01   -.254E-03 0.695E-03 -.111E-02
   0.183E+02 0.127E+02 -.198E+04   -.183E+02 -.127E+02 0.197E+04   0.603E-01 0.294E-01 0.165E+01   0.695E-03 0.513E-03 -.488E-02
   -.172E+01 -.580E+01 -.610E+02   0.192E+01 0.527E+01 0.601E+02   -.203E+00 0.535E+00 0.894E+00   0.871E-03 -.799E-04 -.652E-02
   -.135E+01 -.683E+01 0.196E+04   0.129E+01 0.691E+01 -.196E+04   0.663E-01 -.830E-01 -.170E+01   0.639E-03 -.128E-02 -.188E-02
   -.103E+01 0.372E+01 -.276E+02   0.118E+01 -.317E+01 0.272E+02   -.164E+00 -.555E+00 0.385E+00   0.175E-02 0.173E-03 -.604E-02
   -.824E+01 -.400E+01 0.200E+04   0.865E+01 0.387E+01 -.200E+04   -.407E+00 0.138E+00 -.116E+01   0.240E-03 0.695E-03 -.269E-02
   -.463E+01 -.224E+02 -.195E+04   0.456E+01 0.229E+02 0.195E+04   0.651E-01 -.517E+00 0.160E+01   -.876E-03 0.980E-03 -.380E-02
   0.582E+01 -.350E+01 0.682E+02   -.577E+01 0.309E+01 -.674E+02   -.514E-01 0.419E+00 -.837E+00   -.237E-02 0.453E-03 -.378E-02
   -.760E+01 0.139E+02 0.199E+04   0.741E+01 -.142E+02 -.199E+04   0.188E+00 0.298E+00 -.160E+01   -.103E-02 0.458E-03 0.361E-03
   0.664E+01 0.143E+02 0.199E+04   -.656E+01 -.144E+02 -.198E+04   -.806E-01 0.911E-01 -.145E+01   -.570E-03 -.340E-03 -.198E-02
   -.221E+02 -.183E+02 0.199E+04   0.224E+02 0.188E+02 -.199E+04   -.318E+00 -.541E+00 -.154E+01   0.114E-02 -.299E-03 -.130E-02
   -.143E+02 -.107E+02 -.194E+04   0.148E+02 0.106E+02 0.194E+04   -.426E+00 0.126E+00 0.174E+01   -.158E-02 0.591E-04 -.382E-02
   0.230E+01 0.362E+01 0.455E+02   -.188E+01 -.315E+01 -.450E+02   -.418E+00 -.473E+00 -.533E+00   0.316E-03 0.149E-02 -.376E-02
   -.688E+01 0.180E+02 0.197E+04   0.678E+01 -.186E+02 -.197E+04   0.112E+00 0.645E+00 -.176E+01   0.775E-03 -.549E-04 -.251E-02
   -.205E+02 0.361E+01 -.196E+04   0.208E+02 -.356E+01 0.195E+04   -.215E+00 -.524E-01 0.177E+01   -.304E-03 -.113E-02 -.330E-02
   -.156E+01 -.171E+01 0.323E+02   0.116E+01 0.143E+01 -.318E+02   0.405E+00 0.277E+00 -.481E+00   -.470E-03 -.117E-02 -.461E-02
   0.933E+00 0.356E+01 -.103E+02   -.910E+00 -.336E+01 0.987E+01   -.221E-01 -.205E+00 0.438E+00   -.203E-04 -.150E-02 -.432E-02
   0.508E+01 0.326E+01 -.199E+04   -.508E+01 -.353E+01 0.198E+04   -.124E-02 0.268E+00 0.116E+01   0.875E-03 0.561E-03 -.309E-02
   0.982E+00 0.159E+02 -.198E+04   -.963E+00 -.161E+02 0.198E+04   -.156E-01 0.279E+00 0.164E+01   -.994E-04 -.620E-03 -.207E-02
   0.238E+02 -.551E+01 -.197E+04   -.242E+02 0.559E+01 0.197E+04   0.430E+00 -.868E-01 0.164E+01   -.105E-02 -.911E-05 -.234E-02
   0.113E+02 0.169E+02 -.199E+04   -.115E+02 -.170E+02 0.199E+04   0.126E+00 0.518E-01 0.138E+01   -.161E-02 -.561E-03 -.256E-02
 -----------------------------------------------------------------------------------------------
   -.461E-01 0.135E+00 0.907E+00   0.497E-13 -.494E-12 0.136E-11   0.531E-01 -.153E+00 -.801E+00   0.677E-03 -.141E-02 -.150E+00
 
 
 POSITION                                       TOTAL-FORCE (eV/Angst)
 -----------------------------------------------------------------------------------
     12.37975      7.13446     14.80623        -0.001560     -0.009571      0.003060
      5.48957     -0.00696     14.87781         0.001658      0.002220     -0.011277
      5.51867      1.59877     12.25565        -0.001686     -0.001002     -0.003197
      9.61066      0.81546      9.74029        -0.003121     -0.000015      0.003343
     12.38643      8.71458     12.28182         0.000433     -0.002989     -0.000707
      6.87769      8.72747     12.23579        -0.005164      0.005399      0.001790
      8.27277     -0.00415     14.74897         0.002340     -0.001514      0.014023
      5.48037      6.33809     12.18926        -0.001824     -0.002461      0.000522
      6.90338      5.56729      9.61867         0.003039      0.000886      0.006012
      4.13608      2.39586     14.79449        -0.009433      0.002374      0.008763
      9.66541      5.58041      9.67723         0.002394     -0.000626      0.003670
      2.72045     -0.02833     14.84895        -0.002881      0.002542     -0.007219
      2.76631      1.58535     12.26840         0.001244      0.005120      0.006504
      5.51971      3.15012      9.68193         0.000182      0.004172     -0.004023
      9.61484      2.37950     14.80512         0.006520     -0.001996     -0.004610
     10.98342      1.57698     12.24964         0.002607     -0.001275      0.004286
      2.73348      3.16812      9.69806         0.005394      0.000167      0.001701
     12.38797      3.99708     12.25442         0.002618     -0.001733      0.006954
      9.60690      3.96543     12.23351        -0.003173      0.011349     -0.005698
      4.09710      5.57836      9.70393         0.000048     -0.002634     -0.018892
     10.97416      4.76301     14.81436        -0.002320      0.000362     -0.001976
      2.77610      4.76661     14.74068         0.001125     -0.000214     -0.000761
      5.50329      7.97045      9.64204         0.003693      0.001283     -0.004295
      8.27034      6.35429     12.20672         0.002997     -0.009260      0.007668
      8.25163      1.58123     12.25248        -0.000622      0.002478      0.000278
     11.00422      3.18573      9.84938         0.003538     -0.002387     -0.000172
     13.72764      7.95011      9.87824         0.001051      0.001208     -0.003738
     12.37417      5.58180      9.89476         0.003305      0.003490     -0.002450
      9.59749      7.12940     14.64134         0.002354     -0.005008      0.005417
      9.64335      8.72836     12.31919        -0.002020      0.003591      0.003064
     11.00631      7.96009      9.93173         0.006016      0.003061     -0.003379
     11.00699      6.35638     12.28500        -0.005789     -0.002373      0.003507
      1.38894      0.79907      9.84289         0.004012      0.003764      0.004087
      6.87523      2.40347     14.59742        -0.001645     -0.005159      0.003296
      6.86898      3.96173     12.16931        -0.003182      0.003346     -0.006446
      8.25880      3.17577      9.83893        -0.002409     -0.000326     -0.008981
      6.87472      0.78240      9.88570        -0.001515      0.005080     -0.002096
      8.27747      7.97044      9.84950        -0.003161      0.001075     -0.002756
      5.51785      4.75933     14.54743         0.004815     -0.001151      0.001429
      4.13105      3.97423     12.19796        -0.001604      0.001223     -0.003625
      4.12459      0.77333      9.89860         0.005941      0.001280      0.006478
      4.15540      7.14195     14.58127        -0.007260     -0.002618      0.005125
     15.11310      8.72989     12.21604         0.001544     -0.000119      0.006183
     13.75507      6.35044     12.26051         0.000973     -0.004449      0.000238
      1.37115      2.36997     14.66223        -0.002156     -0.001978     -0.003031
     -0.00215     -0.01668     14.63265         0.003148     -0.001273     -0.004281
      8.22360      4.76566     14.59409        -0.007316      0.000078     -0.006960
      6.86474      7.12495     14.60222        -0.003149     -0.003419      0.003172
 -----------------------------------------------------------------------------------
    total drift:                                0.007727     -0.019585     -0.043538


--------------------------------------------------------------------------------------------------------



  FREE ENERGIE OF THE ION-ELECTRON SYSTEM (eV)
  ---------------------------------------------------
  free  energy   TOTEN  =      -192.17059684 eV

  energy  without entropy=     -191.93781114  energy(sigma->0) =     -192.05420399
 
 d Force = 0.5383384E-03[ 0.257E-03, 0.819E-03]  d Energy = 0.5510414E-03-0.127E-04
 d Force = 0.8317845E+01[ 0.833E+01, 0.830E+01]  d Ewald  = 0.8317846E+01-0.875E-06


--------------------------------------------------------------------------------------------------------


    POTLOK:  cpu time    0.0576: real time    0.0577


--------------------------------------------------------------------------------------------------------


 stress matrix after NEB project (eV)
      0.00000      0.00000      0.00000
      0.00000      0.00000      0.00000
      0.00000      0.00000      0.00000
  FORCES: max atom, RMS     0.019075    0.007755
  FORCE total and by dimension    0.053726    0.018892
  Stress total and by dimension    0.000000    0.000000
 Conjugate gradient step on ions:
 trial-energy change:   -0.000551  1 .order   -0.000538   -0.000819   -0.000257
  (g-gl).g = 0.279E-03      g.g   = 0.326E-03  gl.gl    = 0.625E-03
 g(Force)  = 0.326E-03   g(Stress)= 0.000E+00 ortho     = 0.563E-04
 gamma     =   0.44662
 trial     =   2.33586
 opt step  =   3.23544  (harmonic =   3.40435) maximal distance =0.00356121
 next E    =  -192.170647   (d E  =  -0.00060)


--------------------------------------------------------------------------------------------------------


  
 reached required accuracy - stopping structural energy minimisation
     LOOP+:  cpu time   73.8683: real time   74.2833
    4ORBIT:  cpu time    0.0000: real time    0.0000

 total amount of memory used by VASP on root node    84353. kBytes
========================================================================

   base      :      30000. kBytes
   nonlr-proj:       4285. kBytes
   fftplans  :       4447. kBytes
   grid      :       6721. kBytes
   one-center:        124. kBytes
   wavefun   :      38776. kBytes
 
  
  
 General timing and accounting informations for this job:
 ========================================================
  
                  Total CPU time used (sec):     2413.429
                            User time (sec):     2316.995
                          System time (sec):       96.434
                         Elapsed time (sec):     2443.278
  
                   Maximum memory used (kb):      978472.
                   Average memory used (kb):           0.
  
                          Minor page faults:      1018877
                          Major page faults:            0
                 Voluntary context switches:        12449
