unknown system                          
           1
    11.002582    0.000000    0.000000
     5.501291    9.528515    0.000000
     0.000000    0.000000   24.491785
   Au   Pd
  24  24
Direct configuration=     1
   0.75000000  0.75000000  0.59169983
   0.50000000  0.00000000  0.59169983
   0.41666667  0.16666667  0.50000000
   0.83333333  0.08333333  0.40830017
   0.66666667  0.91666667  0.50000000
   0.16666667  0.91666667  0.50000000
   0.75000000  0.00000000  0.59169983
   0.16666667  0.66666667  0.50000000
   0.33333333  0.58333333  0.40830017
   0.25000000  0.25000000  0.59169983
   0.58333333  0.58333333  0.40830017
   0.25000000  0.00000000  0.59169983
   0.16666667  0.16666667  0.50000000
   0.33333333  0.33333333  0.40830017
   0.75000000  0.25000000  0.59169983
   0.91666667  0.16666667  0.50000000
   0.08333333  0.33333333  0.40830017
   0.91666667  0.41666667  0.50000000
   0.66666667  0.41666667  0.50000000
   0.08333333  0.58333333  0.40830017
   0.75000000  0.50000000  0.59169983
   0.00000000  0.50000000  0.59169983
   0.08333333  0.83333333  0.40830017
   0.41666667  0.66666667  0.50000000
   0.66666667  0.16666667  0.50000000
   0.83333333  0.33333333  0.40830017
   0.83333333  0.83333333  0.40830017
   0.83333333  0.58333333  0.40830017
   0.50000000  0.75000000  0.59169983
   0.41666667  0.91666667  0.50000000
   0.58333333  0.83333333  0.40830017
   0.66666667  0.66666667  0.50000000
   0.08333333  0.08333333  0.40830017
   0.50000000  0.25000000  0.59169983
   0.41666667  0.41666667  0.50000000
   0.58333333  0.33333333  0.40830017
   0.58333333  0.08333333  0.40830017
   0.33333333  0.83333333  0.40830017
   0.25000000  0.50000000  0.59169983
   0.16666667  0.41666667  0.50000000
   0.33333333  0.08333333  0.40830017
   0.00000000  0.75000000  0.59169983
   0.91666667  0.91666667  0.50000000
   0.91666667  0.66666667  0.50000000
   0.00000000  0.25000000  0.59169983
   0.00000000  0.00000000  0.59169983
   0.50000000  0.50000000  0.59169983
   0.25000000  0.75000000  0.59169983
Direct configuration=     2
   0.75033553  0.74945065  0.59362636
   0.49970194 -0.00032287  0.59396490
   0.41755163  0.16723944  0.49953905
   0.83230368  0.08386234  0.40645703
   0.66755058  0.91567650  0.49884262
   0.16677948  0.91664747  0.50008252
   0.75113309  0.00022153  0.59357360
   0.16576236  0.66586264  0.50121024
   0.33439905  0.58279436  0.40601439
   0.24975981  0.25136442  0.59392013
   0.58425290  0.58371337  0.40615725
   0.24985843 -0.00106043  0.59392756
   0.16713868  0.16615942  0.49956917
   0.33471031  0.33226748  0.40640751
   0.74968517  0.24960273  0.59386151
   0.91683522  0.16578052  0.49995143
   0.08282160  0.33299843  0.40614379
   0.91631012  0.41808861  0.49956588
   0.66537242  0.41635135  0.49966520
   0.08150313  0.58387128  0.40638100
   0.74893881  0.50061063  0.59391644
   0.00094520  0.50033087  0.59357472
   0.08270595  0.83438288  0.40604301
   0.41724770  0.66738861  0.50074471
   0.66568625  0.16715226  0.49974067
   0.83324352  0.33341918  0.40689635
   0.83251860  0.83327245  0.40739062
   0.83276012  0.58413711  0.40733274
   0.49957936  0.74965788  0.59268788
   0.41763287  0.91542180  0.49945707
   0.58331139  0.83371809  0.40743801
   0.66630802  0.66782749  0.49968639
   0.08398682  0.08322530  0.40687875
   0.49946113  0.25131471  0.59271874
   0.41724927  0.41568353  0.50054384
   0.58357238  0.33266134  0.40724335
   0.58353731  0.08296399  0.40723866
   0.33356371  0.83446576  0.40701998
   0.25060181  0.50004082  0.59258510
   0.16687135  0.41762615  0.50029808
   0.33389337  0.08207372  0.40713061
   0.00083773  0.74993515  0.59260455
   0.91613825  0.91621046  0.50026083
   0.91649016  0.66717704  0.49977232
   0.00009613  0.24949766  0.59320369
   0.00012200 -0.00062184  0.59294183
   0.49896505  0.50033083  0.59283083
   0.24997061  0.74952687  0.59295910
Direct configuration=     3
   0.75134212  0.74780260  0.59940594
   0.49880775 -0.00129147  0.60076013
   0.42020654  0.16895775  0.49815622
   0.82921470  0.08544937  0.40092761
   0.67020231  0.91270601  0.49537047
   0.16711793  0.91658987  0.50033007
   0.75453235  0.00088612  0.59919491
   0.16304945  0.66345055  0.50484096
   0.33759621  0.58117742  0.39915705
   0.24903926  0.25545769  0.60058102
   0.58701161  0.58485348  0.39972850
   0.24943372 -0.00424171  0.60061074
   0.16855470  0.16463770  0.49827667
   0.33884124  0.32906992  0.40072954
   0.74874070  0.24841092  0.60034654
   0.91734087  0.16312210  0.49980571
   0.08128641  0.33199371  0.39967465
   0.91524049  0.42235444  0.49826351
   0.66148967  0.41540540  0.49866078
   0.07601251  0.58548511  0.40062348
   0.74575523  0.50244254  0.60056628
   0.00378081  0.50132349  0.59919937
   0.08082378  0.83753153  0.39927155
   0.41899079  0.66955445  0.50297884
   0.66274501  0.16860904  0.49896269
   0.83297408  0.33367672  0.40268490
   0.83007440  0.83308981  0.40466198
   0.83104050  0.58654844  0.40443044
   0.49831745  0.74863152  0.59565204
   0.42053147  0.91168720  0.49782828
   0.58324555  0.83487235  0.40485152
   0.66523209  0.67130996  0.49874556
   0.08594729  0.08290118  0.40261450
   0.49784453  0.25525883  0.59577546
   0.41899708  0.41273412  0.50217537
   0.58428950  0.33064536  0.40407290
   0.58414924  0.08185596  0.40405411
   0.33425483  0.83786305  0.40317943
   0.25240724  0.50016327  0.59524090
   0.16748540  0.42050460  0.50119230
   0.33557347  0.07829487  0.40362191
   0.00335093  0.74974061  0.59531870
   0.91455301  0.91484184  0.50104333
   0.91596062  0.66870816  0.49908930
   0.00038451  0.24799064  0.59771528
   0.00048799 -0.00248735  0.59666782
   0.49586021  0.50132333  0.59622382
   0.24988244  0.74810746  0.59673692
Direct configuration=     4
   0.75111761  0.74913537  0.60060236
   0.49924131 -0.00065414  0.60185860
   0.41833865  0.16722160  0.49883891
   0.83002987  0.08501838  0.39955933
   0.66877026  0.91483280  0.49704207
   0.16715274  0.91481063  0.50010538
   0.75263045 -0.00011265  0.60037284
   0.16512704  0.66473379  0.50311579
   0.33633421  0.58263983  0.39820530
   0.24990004  0.25321433  0.60189029
   0.58611113  0.58510811  0.39812573
   0.24921383 -0.00315468  0.60215334
   0.16945537  0.16617584  0.49887975
   0.33684851  0.33020859  0.39913166
   0.74880989  0.25004047  0.60178972
   0.91571573  0.16471798  0.49987148
   0.08225675  0.33187156  0.39800451
   0.91489517  0.42142687  0.49885495
   0.66367701  0.41596263  0.49883874
   0.07827742  0.58521545  0.39931124
   0.74642900  0.50083445  0.60173895
   0.00240081  0.50147465  0.60053889
   0.08168414  0.83617541  0.39801412
   0.41767087  0.66788312  0.50194202
   0.66555442  0.16640769  0.49941738
   0.83294162  0.33339810  0.40181639
   0.83111702  0.83342649  0.40296572
   0.83071322  0.58639513  0.40321403
   0.49857149  0.74913818  0.59686753
   0.41980789  0.91463027  0.49863811
   0.58275889  0.83481545  0.40297935
   0.66653754  0.66878470  0.49928702
   0.08525131  0.08300020  0.40148158
   0.49842444  0.25346919  0.59681243
   0.41691810  0.41559498  0.50138065
   0.58422323  0.33154671  0.40292738
   0.58407578  0.08155804  0.40239017
   0.33421676  0.83621535  0.40218454
   0.25306364  0.49986169  0.59707477
   0.16748995  0.41809964  0.50058130
   0.33555066  0.07937443  0.40251592
   0.00199576  0.75045787  0.59696972
   0.91461326  0.91573841  0.50070103
   0.91609143  0.66775712  0.49954218
   0.00021944  0.24857299  0.59816051
   0.00134411 -0.00245877  0.59765513
   0.49661718  0.50111652  0.59747889
   0.24981510  0.74831927  0.59817228
Direct configuration=     5
   0.75101330  0.74975462  0.60115826
   0.49944276 -0.00035802  0.60236899
   0.41747076  0.16641493  0.49915612
   0.83040863  0.08481812  0.39892358
   0.66810488  0.91582098  0.49781875
   0.16716891  0.91398393  0.50000098
   0.75174676 -0.00057671  0.60092015
   0.16609236  0.66533002  0.50231422
   0.33574784  0.58331931  0.39776309
   0.25029998  0.25217198  0.60249862
   0.58569273  0.58522642  0.39738102
   0.24911165 -0.00264960  0.60287008
   0.16987385  0.16689051  0.49915995
   0.33592262  0.33073766  0.39838923
   0.74884203  0.25079761  0.60246027
   0.91496063  0.16545948  0.49990205
   0.08270760  0.33181480  0.39722850
   0.91473473  0.42099589  0.49912975
   0.66469332  0.41622153  0.49892143
   0.07932977  0.58509015  0.39870153
   0.74674206  0.50008728  0.60228381
   0.00175962  0.50154488  0.60116128
   0.08208389  0.83554531  0.39742988
   0.41705759  0.66710656  0.50146028
   0.66685978  0.16538487  0.49962864
   0.83292653  0.33326864  0.40141286
   0.83160146  0.83358292  0.40217759
   0.83056115  0.58632389  0.40264884
   0.49868952  0.74937360  0.59743229
   0.41947169  0.91599772  0.49901438
   0.58253277  0.83478901  0.40210948
   0.66714409  0.66761138  0.49953861
   0.08492793  0.08304620  0.40095519
   0.49869388  0.25263766  0.59729424
   0.41595213  0.41692423  0.50101140
   0.58419243  0.33196550  0.40239513
   0.58404165  0.08141962  0.40161704
   0.33419907  0.83544978  0.40172228
   0.25336862  0.49972157  0.59792685
   0.16749206  0.41698221  0.50029741
   0.33554005  0.07987603  0.40200204
   0.00136610  0.75079114  0.59773684
   0.91464126  0.91615499  0.50054199
   0.91615220  0.66731523  0.49975261
   0.00014274  0.24884357  0.59836738
   0.00174189 -0.00244548  0.59811386
   0.49696889  0.50102043  0.59806204
   0.24978382  0.74841769  0.59883920
Direct configuration=     6
   0.75058378  0.74945512  0.60149698
   0.49936959 -0.00029790  0.60274844
   0.41807283  0.16737298  0.49938662
   0.83098517  0.08456793  0.39854117
   0.66821805  0.91530539  0.49825448
   0.16679503  0.91576517  0.49988516
   0.75138907  0.00020117  0.60124676
   0.16528994  0.66491144  0.50172792
   0.33536576  0.58349752  0.39747538
   0.25006302  0.25183317  0.60287270
   0.58520801  0.58503080  0.39690636
   0.24914782 -0.00219540  0.60324612
   0.16816434  0.16652083  0.49940326
   0.33564336  0.33120469  0.39802201
   0.74900539  0.25014144  0.60286688
   0.91608565  0.16539412  0.49992217
   0.08248933  0.33204660  0.39676187
   0.91577042  0.41977717  0.49936474
   0.66459860  0.41648106  0.49905466
   0.08010914  0.58480189  0.39845855
   0.74719991  0.50038760  0.60261706
   0.00169489  0.50107940  0.60142066
   0.08232059  0.83526693  0.39704230
   0.41797554  0.66700444  0.50096412
   0.66632668  0.16590207  0.49983447
   0.83324540  0.33328526  0.40133402
   0.83159508  0.83367723  0.40190373
   0.83120457  0.58593858  0.40241272
   0.49879644  0.74943317  0.59752949
   0.41901743  0.91546519  0.49950789
   0.58273286  0.83489613  0.40185200
   0.66644194  0.66779149  0.49979552
   0.08470602  0.08305250  0.40100598
   0.49917457  0.25201529  0.59727050
   0.41620403  0.41607835  0.50046733
   0.58372029  0.33244008  0.40229064
   0.58375799  0.08168828  0.40132564
   0.33405696  0.83515773  0.40168349
   0.25263736  0.49982796  0.59820402
   0.16707830  0.41740647  0.50013204
   0.33514720  0.08028351  0.40174493
   0.00184049  0.75042168  0.59793350
   0.91513827  0.91595275  0.50032505
   0.91685879  0.66703304  0.49993575
   0.00033227  0.24908315  0.59815853
   0.00116010 -0.00179284  0.59819487
   0.49742448  0.50091494  0.59828812
   0.24985723  0.74849443  0.59918337
Direct configuration=     7
   0.75052129  0.74941154  0.60154626
   0.49935894 -0.00028915  0.60280364
   0.41816043  0.16751238  0.49942016
   0.83106905  0.08453153  0.39848553
   0.66823452  0.91523037  0.49831788
   0.16674064  0.91602434  0.49986831
   0.75133703  0.00031435  0.60129428
   0.16517319  0.66485053  0.50164261
   0.33531016  0.58352345  0.39743352
   0.25002854  0.25178388  0.60292713
   0.58513749  0.58500234  0.39683730
   0.24915308 -0.00212932  0.60330083
   0.16791561  0.16646704  0.49943866
   0.33560273  0.33127264  0.39796858
   0.74902916  0.25004597  0.60292604
   0.91624933  0.16538462  0.49992510
   0.08245758  0.33208032  0.39669397
   0.91592111  0.41959985  0.49939892
   0.66458482  0.41651882  0.49907404
   0.08022253  0.58475995  0.39842320
   0.74726653  0.50043130  0.60266555
   0.00168548  0.50101167  0.60145840
   0.08235503  0.83522642  0.39698591
   0.41810909  0.66698958  0.50089194
   0.66624911  0.16597732  0.49986441
   0.83329180  0.33328768  0.40132255
   0.83159416  0.83369095  0.40186389
   0.83129818  0.58588252  0.40237837
   0.49881200  0.74944184  0.59754364
   0.41895134  0.91538771  0.49957970
   0.58276197  0.83491172  0.40181454
   0.66633978  0.66781769  0.49983290
   0.08467373  0.08305342  0.40101337
   0.49924451  0.25192474  0.59726705
   0.41624068  0.41595527  0.50038816
   0.58365159  0.33250913  0.40227544
   0.58371672  0.08172737  0.40128324
   0.33403629  0.83511524  0.40167785
   0.25253097  0.49984344  0.59824435
   0.16701810  0.41746819  0.50010798
   0.33509004  0.08034280  0.40170752
   0.00190951  0.75036792  0.59796211
   0.91521059  0.91592333  0.50029349
   0.91696159  0.66699198  0.49996240
   0.00035985  0.24911801  0.59812815
   0.00107546 -0.00169788  0.59820666
   0.49749077  0.50089959  0.59832102
   0.24986791  0.74850560  0.59923345
Direct configuration=     8
   0.75049033  0.74931070  0.60175047
   0.49927821 -0.00034492  0.60306976
   0.41792101  0.16780372  0.49942433
   0.83104151  0.08465945  0.39834832
   0.66843735  0.91465683  0.49840303
   0.16703481  0.91586565  0.49991108
   0.75161095  0.00028829  0.60145193
   0.16522848  0.66490878  0.50150807
   0.33523267  0.58351649  0.39720382
   0.24992684  0.25189637  0.60311150
   0.58523134  0.58486399  0.39653654
   0.24913076 -0.00211494  0.60356365
   0.16823376  0.16630142  0.49947052
   0.33570781  0.33117263  0.39777721
   0.74919694  0.24986575  0.60315852
   0.91582062  0.16543265  0.49990485
   0.08228441  0.33217332  0.39643797
   0.91602413  0.41975712  0.49943371
   0.66466418  0.41627854  0.49920041
   0.08019811  0.58468000  0.39827387
   0.74748293  0.50043195  0.60287167
   0.00182161  0.50078871  0.60157718
   0.08237076  0.83528013  0.39670033
   0.41778931  0.66720475  0.50070253
   0.66636122  0.16627397  0.49989595
   0.83328661  0.33345169  0.40142510
   0.83140378  0.83368968  0.40191406
   0.83162942  0.58569024  0.40246487
   0.49863052  0.74937893  0.59751695
   0.41867492  0.91549424  0.49984649
   0.58292971  0.83495706  0.40194312
   0.66645107  0.66788199  0.49987975
   0.08468119  0.08307012  0.40107936
   0.49911319  0.25209394  0.59715690
   0.41640251  0.41576751  0.50011442
   0.58363287  0.33250414  0.40230902
   0.58358424  0.08193301  0.40132850
   0.33399300  0.83530532  0.40176175
   0.25220572  0.49988022  0.59811148
   0.16699622  0.41734151  0.50005914
   0.33476731  0.08053669  0.40182865
   0.00223420  0.75018055  0.59788307
   0.91537499  0.91594425  0.50012741
   0.91687788  0.66683793  0.50005424
   0.00028968  0.24919914  0.59803028
   0.00078392 -0.00143176  0.59814177
   0.49760841  0.50082668  0.59823141
   0.24992858  0.74851559  0.59910503
Direct configuration=     9
   0.75044513  0.74916352  0.60204852
   0.49916038 -0.00042633  0.60345816
   0.41757157  0.16822895  0.49943041
   0.83100131  0.08484616  0.39814806
   0.66873338  0.91381971  0.49852731
   0.16746418  0.91563405  0.49997350
   0.75201075  0.00025026  0.60168203
   0.16530918  0.66499380  0.50131169
   0.33511957  0.58350633  0.39686855
   0.24977841  0.25206055  0.60338060
   0.58536833  0.58466207  0.39609757
   0.24909819 -0.00209396  0.60394724
   0.16869811  0.16605969  0.49951701
   0.33586119  0.33102666  0.39749790
   0.74944182  0.24960272  0.60349784
   0.91519488  0.16550276  0.49987530
   0.08203166  0.33230905  0.39606431
   0.91617451  0.41998666  0.49948449
   0.66478001  0.41592783  0.49938485
   0.08016247  0.58456332  0.39805593
   0.74779879  0.50043290  0.60317252
   0.00202029  0.50046328  0.60175054
   0.08239371  0.83535851  0.39628352
   0.41732257  0.66751878  0.50042609
   0.66652484  0.16670694  0.49994198
   0.83327904  0.33369108  0.40157476
   0.83112592  0.83368783  0.40198729
   0.83211289  0.58540959  0.40259113
   0.49836564  0.74928711  0.59747800
   0.41827149  0.91564974  0.50023590
   0.58317452  0.83502323  0.40213078
   0.66661349  0.66797584  0.49994814
   0.08469207  0.08309449  0.40117567
   0.49892151  0.25234089  0.59699613
   0.41663871  0.41549346  0.49971488
   0.58360554  0.33249686  0.40235804
   0.58339088  0.08223315  0.40139455
   0.33392981  0.83558275  0.40188422
   0.25173101  0.49993390  0.59791756
   0.16696430  0.41715661  0.49998785
   0.33429626  0.08081967  0.40200544
   0.00270810  0.74990706  0.59776771
   0.91561494  0.91597479  0.49988500
   0.91675569  0.66661308  0.50018828
   0.00018728  0.24931755  0.59788745
   0.00035842 -0.00104334  0.59804705
   0.49778012  0.50072026  0.59810063
   0.25001712  0.74853016  0.59891759
Direct configuration=    10
   0.75050897  0.74919019  0.60224175
   0.49919036 -0.00042903  0.60369025
   0.41772557  0.16804768  0.49943846
   0.83094000  0.08492462  0.39804231
   0.66867371  0.91395990  0.49863325
   0.16735542  0.91567114  0.50002837
   0.75211742  0.00003256  0.60177113
   0.16535475  0.66495339  0.50117770
   0.33509225  0.58354432  0.39663091
   0.24981441  0.25203178  0.60353797
   0.58548134  0.58466366  0.39587129
   0.24893993 -0.00202879  0.60419597
   0.16872530  0.16609430  0.49955007
   0.33583917  0.33095661  0.39731561
   0.74944038  0.24970422  0.60372510
   0.91520573  0.16545435  0.49984769
   0.08201077  0.33228916  0.39586220
   0.91619007  0.41995824  0.49950700
   0.66471829  0.41617718  0.49950773
   0.08010849  0.58459430  0.39793458
   0.74783564  0.50038319  0.60335359
   0.00203667  0.50046058  0.60185252
   0.08233592  0.83541639  0.39603340
   0.41742144  0.66731965  0.50026499
   0.66654626  0.16650631  0.49996537
   0.83321654  0.33378664  0.40166777
   0.83105600  0.83372513  0.40205990
   0.83217865  0.58534618  0.40268899
   0.49828528  0.74914226  0.59744124
   0.41830771  0.91579512  0.50045782
   0.58316442  0.83503796  0.40230102
   0.66657070  0.66777688  0.49997678
   0.08463276  0.08315289  0.40125706
   0.49880971  0.25245856  0.59686996
   0.41659349  0.41562581  0.49950584
   0.58367358  0.33250549  0.40237521
   0.58337871  0.08227852  0.40152259
   0.33401894  0.83568624  0.40194938
   0.25167791  0.49994986  0.59771527
   0.16697737  0.41714082  0.49992824
   0.33416037  0.08091986  0.40215236
   0.00282091  0.74985421  0.59764359
   0.91563239  0.91593021  0.49974711
   0.91684674  0.66654144  0.50028246
   0.00018279  0.24928003  0.59780042
   0.00037581 -0.00098615  0.59796090
   0.49779506  0.50066852  0.59795329
   0.25003592  0.74850761  0.59876358
Direct configuration=    11
   0.75067534  0.74925970  0.60274534
   0.49926848 -0.00043607  0.60429508
   0.41812692  0.16757530  0.49945943
   0.83078023  0.08512908  0.39776672
   0.66851821  0.91432523  0.49890937
   0.16707198  0.91576780  0.50017139
   0.75239539 -0.00053476  0.60200335
   0.16547353  0.66484810  0.50082851
   0.33502105  0.58364331  0.39601159
   0.24990822  0.25195681  0.60394808
   0.58577584  0.58466780  0.39528156
   0.24852748 -0.00185892  0.60484417
   0.16879614  0.16618449  0.49963622
   0.33578179  0.33077406  0.39684054
   0.74943664  0.24996873  0.60431734
   0.91523400  0.16532819  0.49977572
   0.08195635  0.33223734  0.39533549
   0.91623062  0.41988415  0.49956566
   0.66455743  0.41682701  0.49982795
   0.07996780  0.58467506  0.39761834
   0.74793167  0.50025362  0.60382545
   0.00207934  0.50045354  0.60211829
   0.08218530  0.83556721  0.39538156
   0.41767909  0.66680069  0.49984515
   0.66660207  0.16598346  0.50002630
   0.83305367  0.33403568  0.40191015
   0.83087378  0.83382234  0.40224913
   0.83235003  0.58518093  0.40294404
   0.49807584  0.74876476  0.59734541
   0.41840208  0.91617399  0.50103616
   0.58313809  0.83507635  0.40274468
   0.66645918  0.66725837  0.50005143
   0.08447818  0.08330509  0.40146918
   0.49851836  0.25276521  0.59654115
   0.41647563  0.41597071  0.49896108
   0.58385090  0.33252798  0.40241998
   0.58334699  0.08239675  0.40185629
   0.33425123  0.83595592  0.40211921
   0.25153953  0.49999145  0.59718810
   0.16701143  0.41709965  0.49977288
   0.33380625  0.08118097  0.40253525
   0.00311490  0.74971647  0.59732012
   0.91567785  0.91581401  0.49938775
   0.91708403  0.66635474  0.50052788
   0.00017111  0.24918224  0.59757364
   0.00042113 -0.00083710  0.59773637
   0.49783400  0.50053368  0.59756931
   0.25008491  0.74844884  0.59836222
Direct configuration=    12
   0.75075261  0.74929198  0.60297922
   0.49930477 -0.00043934  0.60457599
   0.41831332  0.16735591  0.49946917
   0.83070602  0.08522404  0.39763873
   0.66844599  0.91449491  0.49903760
   0.16694034  0.91581270  0.50023781
   0.75252450 -0.00079825  0.60211119
   0.16552870  0.66479919  0.50066633
   0.33498799  0.58368928  0.39572396
   0.24995180  0.25192199  0.60413855
   0.58591262  0.58466972  0.39500767
   0.24833592 -0.00178003  0.60514522
   0.16882904  0.16622637  0.49967623
   0.33575514  0.33068928  0.39661990
   0.74943490  0.25009158  0.60459239
   0.91524713  0.16526960  0.49974230
   0.08193107  0.33221327  0.39509087
   0.91624946  0.41984974  0.49959290
   0.66448272  0.41712881  0.49997667
   0.07990245  0.58471256  0.39747147
   0.74797627  0.50019345  0.60404460
   0.00209916  0.50045027  0.60224172
   0.08211535  0.83563726  0.39507882
   0.41779876  0.66655966  0.49965017
   0.66662799  0.16574063  0.50005461
   0.83297802  0.33415135  0.40202272
   0.83078914  0.83386749  0.40233701
   0.83242963  0.58510418  0.40306250
   0.49797857  0.74858944  0.59730091
   0.41844592  0.91634995  0.50130477
   0.58312586  0.83509418  0.40295073
   0.66640739  0.66701756  0.50008610
   0.08440639  0.08337578  0.40156769
   0.49838305  0.25290763  0.59638844
   0.41642089  0.41613090  0.49870807
   0.58393325  0.33253843  0.40244077
   0.58333226  0.08245166  0.40201127
   0.33435911  0.83608117  0.40219808
   0.25147526  0.50001077  0.59694325
   0.16702725  0.41708053  0.49970073
   0.33364178  0.08130224  0.40271308
   0.00325143  0.74965250  0.59716988
   0.91569896  0.91576005  0.49922086
   0.91719423  0.66626803  0.50064187
   0.00016569  0.24913682  0.59746831
   0.00044218 -0.00076787  0.59763209
   0.49785209  0.50047105  0.59739097
   0.25010767  0.74842155  0.59817581
Direct configuration=    13
   0.75073353  0.74919890  0.60321582
   0.49933116 -0.00046429  0.60497232
   0.41822161  0.16751604  0.49956381
   0.83066615  0.08523628  0.39752768
   0.66860805  0.91441264  0.49933087
   0.16699268  0.91578422  0.50021565
   0.75239420 -0.00061658  0.60212946
   0.16548043  0.66481321  0.50028825
   0.33504117  0.58384050  0.39533089
   0.25006944  0.25171653  0.60427392
   0.58585658  0.58490359  0.39478431
   0.24842151 -0.00187494  0.60547499
   0.16854655  0.16651167  0.49979115
   0.33568186  0.33073496  0.39638863
   0.74921139  0.25002002  0.60481236
   0.91516043  0.16546085  0.49972069
   0.08198109  0.33218544  0.39491751
   0.91637040  0.41957079  0.49965259
   0.66476526  0.41678820  0.50005199
   0.07984316  0.58484109  0.39733297
   0.74784294  0.50031858  0.60428140
   0.00200617  0.50056553  0.60233267
   0.08212900  0.83572903  0.39478810
   0.41776472  0.66684054  0.49937306
   0.66680434  0.16560436  0.50015043
   0.83288175  0.33411208  0.40214145
   0.83089147  0.83388851  0.40245600
   0.83217811  0.58533274  0.40321355
   0.49810634  0.74857522  0.59725514
   0.41863401  0.91605491  0.50160714
   0.58288186  0.83512933  0.40327590
   0.66629928  0.66721169  0.50019056
   0.08428349  0.08335123  0.40166878
   0.49857500  0.25274360  0.59619199
   0.41631934  0.41604351  0.49842164
   0.58395373  0.33274729  0.40246499
   0.58340752  0.08233400  0.40219941
   0.33442628  0.83603809  0.40232218
   0.25183044  0.49988675  0.59656874
   0.16725286  0.41689128  0.49954389
   0.33384860  0.08118298  0.40291665
   0.00309065  0.74984051  0.59695892
   0.91560768  0.91565657  0.49906477
   0.91710059  0.66639933  0.50075522
   0.00023942  0.24913077  0.59741389
   0.00047132 -0.00096061  0.59755305
   0.49766158  0.50043811  0.59717746
   0.25013485  0.74833497  0.59793716
Direct configuration=    14
   0.75071273  0.74909744  0.60347374
   0.49935993 -0.00049149  0.60540436
   0.41812164  0.16769059  0.49966698
   0.83062268  0.08524962  0.39740663
   0.66878472  0.91432297  0.49965055
   0.16704974  0.91575318  0.50019150
   0.75225217 -0.00041855  0.60214937
   0.16542782  0.66482848  0.49987613
   0.33509915  0.58400534  0.39490241
   0.25019768  0.25149255  0.60442148
   0.58579549  0.58515854  0.39454083
   0.24851482 -0.00197840  0.60583448
   0.16823861  0.16682267  0.49991642
   0.33560197  0.33078475  0.39613651
   0.74896774  0.24994200  0.60505214
   0.91506592  0.16566932  0.49969713
   0.08203562  0.33215510  0.39472854
   0.91650223  0.41926671  0.49971765
   0.66507326  0.41641690  0.50013408
   0.07977853  0.58498120  0.39718199
   0.74769760  0.50045498  0.60453953
   0.00190479  0.50069118  0.60243180
   0.08214388  0.83582908  0.39447120
   0.41772762  0.66714672  0.49907099
   0.66699658  0.16545582  0.50025489
   0.83277680  0.33406928  0.40227087
   0.83100302  0.83391143  0.40258570
   0.83190394  0.58558188  0.40337821
   0.49824563  0.74855972  0.59720524
   0.41883905  0.91573329  0.50193674
   0.58261588  0.83516765  0.40363037
   0.66618143  0.66742329  0.50030443
   0.08414951  0.08332447  0.40177898
   0.49878424  0.25256478  0.59597784
   0.41620865  0.41594825  0.49810942
   0.58397606  0.33297496  0.40249139
   0.58348956  0.08220573  0.40240450
   0.33449950  0.83599113  0.40245746
   0.25221761  0.49975156  0.59616048
   0.16749880  0.41668498  0.49937292
   0.33407404  0.08105297  0.40313857
   0.00291539  0.75004546  0.59672896
   0.91550818  0.91554377  0.49889462
   0.91699852  0.66654245  0.50087878
   0.00031979  0.24912417  0.59735456
   0.00050308 -0.00117072  0.59746689
   0.49745392  0.50040221  0.59694472
   0.25016449  0.74824059  0.59767700
Direct configuration=    15
   0.75063045  0.74906572  0.60364957
   0.49941051 -0.00054522  0.60580756
   0.41791297  0.16766934  0.49978504
   0.83055542  0.08523460  0.39737827
   0.66872613  0.91427995  0.50000820
   0.16694860  0.91601652  0.50010768
   0.75204542 -0.00017329  0.60210343
   0.16535800  0.66490357  0.49943711
   0.33523700  0.58407168  0.39453381
   0.25017074  0.25157370  0.60441372
   0.58571783  0.58524108  0.39449167
   0.24872076 -0.00233059  0.60602273
   0.16839757  0.16657439  0.50004107
   0.33572234  0.33087336  0.39596974
   0.74897029  0.24987814  0.60508881
   0.91517154  0.16533285  0.49976702
   0.08198325  0.33217729  0.39477006
   0.91641912  0.41964959  0.49979324
   0.66495353  0.41623775  0.50011597
   0.07973965  0.58503657  0.39710523
   0.74750471  0.50035206  0.60466336
   0.00215861  0.50063802  0.60239234
   0.08222340  0.83597709  0.39430800
   0.41792873  0.66695910  0.49888673
   0.66719999  0.16559389  0.50029781
   0.83276234  0.33410275  0.40226069
   0.83107519  0.83388281  0.40268034
   0.83170952  0.58580032  0.40351699
   0.49837931  0.74864010  0.59722990
   0.41862087  0.91597193  0.50214485
   0.58251639  0.83523821  0.40394265
   0.66648377  0.66738240  0.50049012
   0.08422819  0.08329788  0.40181893
   0.49895653  0.25223017  0.59589096
   0.41632805  0.41591057  0.49787276
   0.58384807  0.33320748  0.40248202
   0.58355315  0.08210290  0.40258792
   0.33422892  0.83605886  0.40248775
   0.25234257  0.49954800  0.59579555
   0.16733459  0.41673650  0.49919000
   0.33432308  0.08089182  0.40333657
   0.00270044  0.75017020  0.59652422
   0.91559442  0.91570270  0.49882634
   0.91695290  0.66630508  0.50090258
   0.00023707  0.24915009  0.59747175
   0.00050707 -0.00131032  0.59742421
   0.49734388  0.50050287  0.59673443
   0.25016714  0.74818952  0.59745029
Direct configuration=    16
   0.75057429  0.74904407  0.60376958
   0.49944504 -0.00058190  0.60608274
   0.41777056  0.16765484  0.49986561
   0.83050951  0.08522434  0.39735891
   0.66868614  0.91425059  0.50025230
   0.16687957  0.91619624  0.50005047
   0.75190431 -0.00000590  0.60207208
   0.16531035  0.66495482  0.49913749
   0.33533108  0.58411696  0.39428225
   0.25015235  0.25162909  0.60440842
   0.58566482  0.58529742  0.39445812
   0.24886131 -0.00257096  0.60615122
   0.16850606  0.16640494  0.50012614
   0.33580449  0.33093383  0.39585592
   0.74897204  0.24983454  0.60511384
   0.91524362  0.16510321  0.49981472
   0.08194752  0.33219243  0.39479841
   0.91636240  0.41991091  0.49984482
   0.66487181  0.41611549  0.50010361
   0.07971311  0.58507437  0.39705285
   0.74737305  0.50028182  0.60474787
   0.00233184  0.50060174  0.60236541
   0.08227767  0.83607811  0.39419661
   0.41806599  0.66683104  0.49876098
   0.66733882  0.16568813  0.50032710
   0.83275247  0.33412559  0.40225374
   0.83112444  0.83386328  0.40274493
   0.83157682  0.58594941  0.40361170
   0.49847054  0.74869496  0.59724673
   0.41847197  0.91613481  0.50228688
   0.58244849  0.83528636  0.40415579
   0.66669011  0.66735449  0.50061685
   0.08428189  0.08327973  0.40184619
   0.49907412  0.25200180  0.59583166
   0.41640954  0.41588485  0.49771123
   0.58376072  0.33336617  0.40247563
   0.58359655  0.08203272  0.40271312
   0.33404425  0.83610509  0.40250843
   0.25242785  0.49940907  0.59554648
   0.16722252  0.41677167  0.49906516
   0.33449304  0.08078183  0.40347170
   0.00255374  0.75025534  0.59638448
   0.91565328  0.91581117  0.49877975
   0.91692177  0.66614307  0.50091883
   0.00018063  0.24916778  0.59755174
   0.00050979 -0.00140560  0.59739508
   0.49726877  0.50057158  0.59659091
   0.25016895  0.74815466  0.59729555
Direct configuration=    17
   0.75068619  0.74892146  0.60391881
   0.49936236 -0.00051415  0.60647806
   0.41783144  0.16764395  0.49997850
   0.83043815  0.08529896  0.39739739