unknown system                          
           1
    11.002582    0.000000    0.000000
     5.501291    9.528515    0.000000
     0.000000    0.000000   24.491785
   Au   Pd
  24  24
Direct configuration=     1
   0.08333333  0.08333333  0.40830017
   0.83333333  0.83333333  0.40830017
   0.75000000  0.50000000  0.59169983
   0.66666667  0.66666667  0.50000000
   0.83333333  0.58333333  0.40830017
   0.75000000  0.25000000  0.59169983
   0.66666667  0.16666667  0.50000000
   0.58333333  0.83333333  0.40830017
   0.50000000  0.50000000  0.59169983
   0.58333333  0.58333333  0.40830017
   0.41666667  0.41666667  0.50000000
   0.58333333  0.33333333  0.40830017
   0.41666667  0.16666667  0.50000000
   0.33333333  0.58333333  0.40830017
   0.16666667  0.41666667  0.50000000
   0.25000000  0.75000000  0.59169983
   0.25000000  0.00000000  0.59169983
   0.00000000  0.75000000  0.59169983
   0.08333333  0.58333333  0.40830017
   0.33333333  0.08333333  0.40830017
   0.33333333  0.33333333  0.40830017
   0.91666667  0.66666667  0.50000000
   0.91666667  0.16666667  0.50000000
   0.00000000  0.25000000  0.59169983
   0.66666667  0.41666667  0.50000000
   0.83333333  0.33333333  0.40830017
   0.91666667  0.41666667  0.50000000
   0.08333333  0.33333333  0.40830017
   0.00000000  0.00000000  0.59169983
   0.83333333  0.08333333  0.40830017
   0.50000000  0.75000000  0.59169983
   0.41666667  0.91666667  0.50000000
   0.75000000  0.00000000  0.59169983
   0.41666667  0.66666667  0.50000000
   0.08333333  0.83333333  0.40830017
   0.50000000  0.25000000  0.59169983
   0.91666667  0.91666667  0.50000000
   0.50000000  0.00000000  0.59169983
   0.58333333  0.08333333  0.40830017
   0.66666667  0.91666667  0.50000000
   0.16666667  0.91666667  0.50000000
   0.33333333  0.83333333  0.40830017
   0.25000000  0.50000000  0.59169983
   0.16666667  0.66666667  0.50000000
   0.16666667  0.16666667  0.50000000
   0.25000000  0.25000000  0.59169983
   0.00000000  0.50000000  0.59169983
   0.75000000  0.75000000  0.59169983
Direct configuration=     2
   0.08316749  0.08311528  0.40663787
   0.83317479  0.83535584  0.40641003
   0.75022290  0.50094344  0.59359763
   0.66533058  0.66742892  0.50083368
   0.83430773  0.58124505  0.40603430
   0.74969355  0.24905586  0.59391509
   0.66764675  0.16460005  0.50005764
   0.58232144  0.83459176  0.40638987
   0.49938617  0.50037124  0.59353707
   0.58315079  0.58304124  0.40643296
   0.41629107  0.41800065  0.50083748
   0.58514352  0.33214342  0.40609664
   0.41736108  0.16460025  0.50082171
   0.33234397  0.58544196  0.40643014
   0.16547477  0.41619291  0.50080713
   0.25004173  0.75000324  0.59325450
   0.25076652 -0.00007074  0.59324631
  -0.00058391  0.75047508  0.59347674
   0.08354573  0.58371905  0.40604881
   0.33313415  0.08299344  0.40643579
   0.33324408  0.33256926  0.40569163
   0.91644215  0.66720353  0.50081046
   0.91715953  0.16625027  0.49955850
   0.00099252  0.25023807  0.59359041
   0.66716466  0.41698882  0.49976188
   0.83376069  0.33321648  0.40729570
   0.91732137  0.41565890  0.49981424
   0.08275239  0.33324122  0.40719360
  -0.00029641 -0.00037808  0.59270474
   0.83337376  0.08298790  0.40720609
   0.50015859  0.75071170  0.59264726
   0.41620206  0.91636997  0.50033932
   0.74980458 -0.00028752  0.59264999
   0.41596741  0.66804953  0.50001429
   0.08343354  0.83360935  0.40757998
   0.49962769  0.24939881  0.59304777
   0.91712350  0.91681666  0.49996142
   0.50058488 -0.00036793  0.59259154
   0.58407246  0.08285467  0.40704696
   0.66648635  0.91719912  0.50052892
   0.16709908  0.91573137  0.49973628
   0.33268097  0.83347841  0.40757043
   0.24979287  0.49954007  0.59286651
   0.16665322  0.66798802  0.50001988
   0.16668443  0.16674895  0.50008256
   0.25020774  0.25029600  0.59278352
   0.00039179  0.49968558  0.59284371
   0.74919330  0.75095293  0.59276104
Direct configuration=     3
   0.08266996  0.08246113  0.40165097
   0.83269915  0.84142336  0.40073960
   0.75089161  0.50377377  0.59929104
   0.66132233  0.66971569  0.50333473
   0.83723093  0.57498018  0.39923669
   0.74877419  0.24622343  0.60056086
   0.67058701  0.15840020  0.50023056
   0.57928576  0.83836703  0.40065896
   0.49754469  0.50148498  0.59904878
   0.58260317  0.58216496  0.40083133
   0.41516427  0.42200260  0.50334993
   0.59057409  0.32857369  0.39948605
   0.41944432  0.15840099  0.50328684
   0.32937587  0.59176782  0.40082004
   0.16189906  0.41477163  0.50322851
   0.25016691  0.75001297  0.59791849
   0.25306608 -0.00028296  0.59788576
  -0.00233563  0.75190034  0.59880745
   0.08418291  0.58487621  0.39929472
   0.33253658  0.08197377  0.40084267
   0.33297632  0.33027704  0.39786602
   0.91576858  0.66881411  0.50324183
   0.91863814  0.16500106  0.49823402
   0.00397007  0.25095228  0.59926214
   0.66865863  0.41795527  0.49904753
   0.83504275  0.33286590  0.40428230
   0.91928547  0.41263559  0.49925695
   0.08100954  0.33296488  0.40387388
  -0.00118563 -0.00151231  0.59571946
   0.83349503  0.08195161  0.40392384
   0.50063436  0.75284682  0.59548955
   0.41480825  0.91547990  0.50135726
   0.74921834 -0.00115008  0.59550045
   0.41386963  0.67219812  0.50005715
   0.08373417  0.83443742  0.40541941
   0.49851074  0.24759524  0.59709159
   0.91849399  0.91726662  0.49984566
   0.50233951 -0.00147173  0.59526668
   0.58628984  0.08141867  0.40328732
   0.66594541  0.91879648  0.50211569
   0.16839630  0.91292549  0.49894513
   0.33072387  0.83391363  0.40538121
   0.24917149  0.49816027  0.59636654
   0.16661287  0.67195208  0.50007953
   0.16673774  0.16699581  0.50033024
   0.25083095  0.25118400  0.59603458
   0.00156716  0.49874230  0.59627537
   0.74677320  0.75381174  0.59594468
Direct configuration=     4
   0.08260208  0.08255600  0.40008923
   0.83324400  0.83814168  0.39961457
   0.75133468  0.50223458  0.60083697
   0.66342682  0.66864063  0.50217248
   0.83571679  0.57853426  0.39803867
   0.74900212  0.24710517  0.60189543
   0.66877837  0.16260964  0.50017795
   0.58162059  0.83583786  0.39962643
   0.49912958  0.50103047  0.60065039
   0.58285383  0.58314458  0.39964360
   0.41579247  0.42031314  0.50237151
   0.58843428  0.32918318  0.39832010
   0.41755087  0.16168964  0.50220121
   0.33095134  0.58848815  0.39962043
   0.16441457  0.41556340  0.50198193
   0.24978387  0.75037067  0.59932530
   0.25230526  0.00018147  0.59917651
  -0.00194279  0.75150913  0.60051854
   0.08332665  0.58473458  0.39817926
   0.33191730  0.08298041  0.39966241
   0.33375980  0.33096232  0.39674237
   0.91523743  0.66903986  0.50223989
   0.91869290  0.16537520  0.49892227
   0.00275124  0.25038672  0.60059042
   0.66800090  0.41735013  0.49938719
   0.83526609  0.33177862  0.40326939
   0.91694172  0.41425129  0.49952939
   0.08290693  0.33221535  0.40311583
  -0.00098490 -0.00049628  0.59629876
   0.83415342  0.08279908  0.40284440
   0.49992885  0.75274745  0.59702558
   0.41367011  0.91640877  0.50090725
   0.74919732 -0.00108709  0.59676970
   0.41469899  0.67051648  0.50001895
   0.08271638  0.83517076  0.40450748
   0.49873455  0.24757962  0.59822006
   0.91952757  0.91544408  0.49988924
   0.50253465 -0.00176843  0.59699337
   0.58436251  0.08311979  0.40254425
   0.66755577  0.91526246  0.50123404
   0.16783085  0.91498266  0.49946272
   0.33134033  0.83474200  0.40457803
   0.24833277  0.49891507  0.59755754
   0.16592910  0.67055398  0.50012402
   0.16717257  0.16474448  0.50022803
   0.25160068  0.25052236  0.59755282
   0.00074183  0.49974479  0.59785158
   0.74715693  0.75388987  0.59749250
Direct configuration=     5
   0.08256678  0.08260534  0.39927709
   0.83352733  0.83643513  0.39902953
   0.75156509  0.50143416  0.60164089
   0.66452120  0.66808157  0.50156808
   0.83492940  0.58038246  0.39741568
   0.74912065  0.24756370  0.60258944
   0.66783783  0.16479864  0.50015059
   0.58283476  0.83452263  0.39908948
   0.49995376  0.50079411  0.60148326
   0.58298418  0.58365400  0.39902596
   0.41611915  0.41943458  0.50186271
   0.58732154  0.32950012  0.39771378
   0.41656623  0.16339981  0.50163665
   0.33177063  0.58678265  0.39899661
   0.16572269  0.41597513  0.50133368
   0.24958468  0.75055668  0.60005687
   0.25190962  0.00042299  0.59984774
  -0.00173850  0.75130569  0.60140834
   0.08288137  0.58466093  0.39759920
   0.33159525  0.08350388  0.39904865
   0.33416722  0.33131868  0.39615804
   0.91496121  0.66915726  0.50171886
   0.91872138  0.16556975  0.49928017
   0.00211742  0.25009262  0.60128115
   0.66765887  0.41703544  0.49956382
   0.83538224  0.33121321  0.40274265
   0.91572291  0.41509149  0.49967106
   0.08389361  0.33182558  0.40272163
  -0.00088052  0.00003208  0.59660001
   0.83449581  0.08323979  0.40228306
   0.49956196  0.75269577  0.59782435
   0.41307826  0.91689181  0.50067323
   0.74918640 -0.00105434  0.59742974
   0.41513027  0.66964200  0.49999909
   0.08218711  0.83555211  0.40403326
   0.49885093  0.24757149  0.59880690
   0.92006505  0.91449632  0.49991190
   0.50263614 -0.00192272  0.59789129
   0.58336026  0.08400440  0.40215784
   0.66839320  0.91342469  0.50077557
   0.16753680  0.91605244  0.49973188
   0.33166090  0.83517277  0.40416035
   0.24789662  0.49930759  0.59817689
   0.16557353  0.66982693  0.50014716
   0.16739870  0.16357374  0.50017488
   0.25200096  0.25017829  0.59834234
   0.00031263  0.50026610  0.59867125
   0.74735647  0.75393049  0.59829740
Direct configuration=     6
   0.08259245  0.08275302  0.39875215
   0.83311718  0.83667233  0.39875668
   0.75133947  0.50160565  0.60200573
   0.66450080  0.66715077  0.50135358
   0.83520820  0.58013949  0.39713241
   0.74918849  0.24765448  0.60294700
   0.66805495  0.16436623  0.50025071
   0.58270191  0.83489078  0.39884230
   0.49972675  0.50063205  0.60178746
   0.58321488  0.58317713  0.39881396
   0.41627271  0.41950103  0.50154680
   0.58667415  0.33045287  0.39742336
   0.41710909  0.16325385  0.50130133
   0.33207847  0.58619948  0.39885979
   0.16503986  0.41628507  0.50093303
   0.24969165  0.75028506  0.60035416
   0.25175001  0.00063716  0.60029099
  -0.00174607  0.75127632  0.60190438
   0.08326525  0.58408347  0.39734329
   0.33256795  0.08317588  0.39872387
   0.33388059  0.33208894  0.39577855
   0.91627557  0.66750891  0.50143731
   0.91809332  0.16592673  0.49958834
   0.00190951  0.25025756  0.60158398
   0.66690307  0.41737465  0.49976589
   0.83499675  0.33200209  0.40260917
   0.91619078  0.41572408  0.49989042
   0.08358315  0.33266419  0.40280824
  -0.00107871  0.00039092  0.59675310
   0.83396320  0.08304708  0.40225011
   0.50001654  0.75207018  0.59796814
   0.41394378  0.91693735  0.50060449
   0.74909469 -0.00057010  0.59747475
   0.41546395  0.66849120  0.50009563
   0.08280364  0.83480568  0.40389909
   0.49898960  0.24787577  0.59891316
   0.91904779  0.91499691  0.49994906
   0.50238175 -0.00142911  0.59807923
   0.58355700  0.08342036  0.40222388
   0.66724254  0.91510394  0.50037346
   0.16770183  0.91562531  0.49999715
   0.33188396  0.83473499  0.40401466
   0.24831700  0.49936713  0.59830730
   0.16601415  0.66910268  0.50019424
   0.16684810  0.16445320  0.50024298
   0.25172697  0.25036874  0.59849371
   0.00022181  0.50034020  0.59872879
   0.74767948  0.75312829  0.59865220
Direct configuration=     7
   0.08259985  0.08279566  0.39860062
   0.83299878  0.83674080  0.39867792
   0.75127434  0.50165515  0.60211105
   0.66449491  0.66688208  0.50129166
   0.83528868  0.58006935  0.39705063
   0.74920807  0.24768068  0.60305022
   0.66811763  0.16424141  0.50027961
   0.58266356  0.83499706  0.39877094
   0.49966123  0.50058527  0.60187527
   0.58328148  0.58303947  0.39875277
   0.41631704  0.41952021  0.50145560
   0.58648727  0.33072790  0.39733952
   0.41726580  0.16321172  0.50120454
   0.33216733  0.58603113  0.39882029
   0.16484274  0.41637454  0.50081737
   0.24972253  0.75020666  0.60043997
   0.25170394  0.00069899  0.60041894
  -0.00174825  0.75126784  0.60204757
   0.08337607  0.58391678  0.39726942
   0.33284874  0.08308119  0.39863012
   0.33379785  0.33231130  0.39566900
   0.91665499  0.66703308  0.50135603
   0.91791202  0.16602978  0.49967731
   0.00184949  0.25030517  0.60167140
   0.66668490  0.41747257  0.49982422
   0.83488546  0.33222982  0.40257063
   0.91632585  0.41590669  0.49995375
   0.08349353  0.33290627  0.40283324
  -0.00113592  0.00049451  0.59679729
   0.83380945  0.08299145  0.40224059
   0.50014777  0.75188959  0.59800964
   0.41419363  0.91695050  0.50058465
   0.74906822 -0.00043032  0.59748775
   0.41556028  0.66815900  0.50012350
   0.08298161  0.83459021  0.40386036
   0.49902963  0.24796360  0.59894383
   0.91875413  0.91514142  0.49995978
   0.50230832 -0.00128662  0.59813348
   0.58361380  0.08325177  0.40224295
   0.66691037  0.91558869  0.50025738
   0.16774947  0.91550201  0.50007372
   0.33194835  0.83460861  0.40397261
   0.24843835  0.49938432  0.59834495
   0.16614135  0.66889361  0.50020783
   0.16668916  0.16470707  0.50026264
   0.25164788  0.25042371  0.59853741
   0.00019559  0.50036159  0.59874540
   0.74777273  0.75289671  0.59875462
Direct configuration=     8
   0.08255454  0.08295068  0.39842313
   0.83316464  0.83677974  0.39854687
   0.75104111  0.50185305  0.60233489
   0.66449096  0.66695934  0.50127982
   0.83535088  0.57994995  0.39685135
   0.74915413  0.24785553  0.60332440
   0.66827471  0.16413804  0.50035495
   0.58251964  0.83487344  0.39860340
   0.49942613  0.50040457  0.60203057
   0.58341080  0.58300751  0.39864035
   0.41623372  0.41919166  0.50134586
   0.58667154  0.33066245  0.39720011
   0.41696733  0.16359757  0.50112801
   0.33208110  0.58633896  0.39876619
   0.16530861  0.41575027  0.50075120
   0.24976183  0.75021709  0.60058380
   0.25187544  0.00059793  0.60063106
  -0.00200476  0.75143419  0.60226243
   0.08344229  0.58408151  0.39701883
   0.33295372  0.08316618  0.39846583
   0.33378313  0.33225885  0.39530019
   0.91633991  0.66737708  0.50128896
   0.91765975  0.16644416  0.49971938
   0.00179344  0.25060450  0.60185441
   0.66668878  0.41731641  0.49999021
   0.83476602  0.33249551  0.40270600
   0.91638631  0.41577440  0.50015212
   0.08335962  0.33297060  0.40295366
  -0.00117008  0.00046750  0.59689951
   0.83348563  0.08303281  0.40238456
   0.50037984  0.75168919  0.59789503
   0.41463800  0.91672627  0.50063891
   0.74901545 -0.00043034  0.59740812
   0.41543670  0.66813412  0.50022822
   0.08337942  0.83409080  0.40394466
   0.49890964  0.24825509  0.59883906
   0.91834810  0.91493680  0.49999749
   0.50219097 -0.00101158  0.59805425
   0.58380314  0.08334586  0.40227146
   0.66693525  0.91547672  0.50016433
   0.16797792  0.91508290  0.50023077
   0.33206389  0.83416360  0.40402543
   0.24872543  0.49921008  0.59822764
   0.16625168  0.66892406  0.50030173
   0.16643658  0.16511908  0.50032064
   0.25143559  0.25080251  0.59836366
   0.00042062  0.50027990  0.59865722
   0.74788092  0.75265343  0.59863932
Direct configuration=     9
   0.08251883  0.08307289  0.39828323
   0.83329538  0.83681044  0.39844357
   0.75085726  0.50200904  0.60251133
   0.66448784  0.66702024  0.50127049
   0.83539992  0.57985583  0.39669427
   0.74911160  0.24799336  0.60354053
   0.66839853  0.16405656  0.50041434
   0.58240619  0.83477600  0.39847133
   0.49924081  0.50026213  0.60215298
   0.58351273  0.58298232  0.39855174
   0.41616805  0.41893268  0.50125936
   0.58681679  0.33061086  0.39709021
   0.41673206  0.16390171  0.50106768
   0.33201312  0.58658160  0.39872355
   0.16567584  0.41525818  0.50069905
   0.24979281  0.75022532  0.60069717
   0.25201062  0.00051827  0.60079826
  -0.00220696  0.75156532  0.60243179
   0.08349448  0.58421137  0.39682130
   0.33303647  0.08323318  0.39833633
   0.33377153  0.33221751  0.39500947
   0.91609155  0.66764824  0.50123609
   0.91746090  0.16677079  0.49975255
   0.00174926  0.25084045  0.60199868
   0.66669184  0.41719332  0.50012105
   0.83467187  0.33270494  0.40281270
   0.91643396  0.41567012  0.50030849
   0.08325406  0.33302131  0.40304858
  -0.00119700  0.00044621  0.59698009
   0.83323038  0.08306542  0.40249804
   0.50056276  0.75153123  0.59780468
   0.41498828  0.91654951  0.50068169
   0.74897385 -0.00043036  0.59734536
   0.41533929  0.66811452  0.50031076
   0.08369300  0.83369715  0.40401111
   0.49881506  0.24848486  0.59875647
   0.91802804  0.91477551  0.50002722
   0.50209847 -0.00079477  0.59799180
   0.58395239  0.08342003  0.40229393
   0.66695486  0.91538845  0.50009099
   0.16815799  0.91475254  0.50035456
   0.33215497  0.83381282  0.40406707
   0.24895172  0.49907274  0.59813517
   0.16633865  0.66894806  0.50037575
   0.16623748  0.16544384  0.50036636
   0.25126826  0.25110110  0.59822670
   0.00059800  0.50021550  0.59858771
   0.74796621  0.75246166  0.59854843
Direct configuration=    10
   0.08249108  0.08293371  0.39824198
   0.83347165  0.83668079  0.39825864
   0.75065232  0.50215654  0.60280206
   0.66462245  0.66685819  0.50121577
   0.83547019  0.57999382  0.39646321
   0.74913108  0.24810665  0.60392965
   0.66835277  0.16411704  0.50052818
   0.58238388  0.83467409  0.39825213
   0.49905916  0.50024574  0.60231914
   0.58361630  0.58290804  0.39847830
   0.41623412  0.41876073  0.50104818
   0.58691643  0.33059464  0.39695055
   0.41676922  0.16369639  0.50093165
   0.33225444  0.58643574  0.39866626
   0.16551732  0.41553881  0.50055201
   0.24973056  0.75029574  0.60089443
   0.25217567  0.00053602  0.60097759
  -0.00228043  0.75157206  0.60264004
   0.08351252  0.58426100  0.39651141
   0.33290741  0.08319282  0.39821364
   0.33383093  0.33217644  0.39440659
   0.91613067  0.66762115  0.50114463
   0.91778620  0.16649200  0.49980078
   0.00178501  0.25090153  0.60224744
   0.66656081  0.41722980  0.50036618
   0.83468311  0.33271867  0.40305862
   0.91624173  0.41583146  0.50058000
   0.08323263  0.33298836  0.40320341
  -0.00121412  0.00051945  0.59705899
   0.83337725  0.08306761  0.40276023
   0.50060791  0.75149672  0.59765598
   0.41497950  0.91665550  0.50072945
   0.74881180 -0.00039675  0.59724457
   0.41538326  0.66797134  0.50045515
   0.08374804  0.83383010  0.40421280
   0.49878614  0.24855187  0.59858911
   0.91806929  0.91463173  0.50009261
   0.50203282 -0.00057634  0.59779885
   0.58400803  0.08356264  0.40231904
   0.66684425  0.91522182  0.49998402
   0.16804109  0.91492177  0.50052456
   0.33212729  0.83383492  0.40423649
   0.24887910  0.49922613  0.59793299
   0.16617108  0.66887472  0.50054362
   0.16621094  0.16498861  0.50044007
   0.25116107  0.25129221  0.59800835
   0.00077026  0.50032524  0.59842396
   0.74796576  0.75248277  0.59830667
Direct configuration=    11
   0.08244967  0.08272601  0.39818044
   0.83373469  0.83648730  0.39798266
   0.75034649  0.50237667  0.60323593
   0.66482334  0.66661637  0.50113412
   0.83557507  0.58019974  0.39611840
   0.74916014  0.24827571  0.60451034
   0.66828449  0.16420730  0.50069806
   0.58235058  0.83452199  0.39792501
   0.49878807  0.50022127  0.60256710
   0.58377086  0.58279718  0.39836870
   0.41633271  0.41850411  0.50073301
   0.58706513  0.33057043  0.39674214
   0.41682467  0.16338997  0.50072864
   0.33261457  0.58621808  0.39858075
   0.16528077  0.41595762  0.50033258
   0.24963767  0.75040085  0.60118880
   0.25242198  0.00056251  0.60124521
  -0.00239007  0.75158211  0.60295082
   0.08353943  0.58433507  0.39604896
   0.33271480  0.08313259  0.39803055
   0.33391957  0.33211514  0.39350689
   0.91618904  0.66758071  0.50100813
   0.91827167  0.16607596  0.49987275
   0.00183836  0.25099268  0.60261869
   0.66636526  0.41728424  0.50073201
   0.83469989  0.33273916  0.40342562
   0.91595485  0.41607222  0.50098519
   0.08320064  0.33293919  0.40343447
  -0.00123967  0.00062874  0.59717674
   0.83359644  0.08307087  0.40315151
   0.50067529  0.75144522  0.59743408
   0.41496641  0.91681367  0.50080072
   0.74856997 -0.00034658  0.59709417
   0.41544888  0.66775768  0.50067064
   0.08383017  0.83402851  0.40451379
   0.49874298  0.24865187  0.59833935
   0.91813085  0.91441716  0.50019019
   0.50193486 -0.00025037  0.59751091
   0.58409106  0.08377547  0.40235652
   0.66667919  0.91497315  0.49982438
   0.16786663  0.91517431  0.50077825
   0.33208599  0.83386790  0.40448932
   0.24877073  0.49945503  0.59763128
   0.16592102  0.66876527  0.50079414
   0.16617132  0.16430925  0.50055008
   0.25100111  0.25157741  0.59768249
   0.00102734  0.50048900  0.59817958
   0.74796510  0.75251426  0.59794589
Direct configuration=    12
   0.08243567  0.08265577  0.39815963
   0.83382364  0.83642187  0.39788933
   0.75024307  0.50245111  0.60338264
   0.66489127  0.66653460  0.50110651
   0.83561053  0.58026937  0.39600181
   0.74916997  0.24833288  0.60470670
   0.66826140  0.16423782  0.50075550
   0.58233931  0.83447056  0.39781440
   0.49869640  0.50021300  0.60265095
   0.58382312  0.58275969  0.39833164
   0.41636605  0.41841734  0.50062644
   0.58711541  0.33056224  0.39667166
   0.41684342  0.16328636  0.50066000
   0.33273635  0.58614447  0.39855183
   0.16520078  0.41609923  0.50025838
   0.24960626  0.75043639  0.60128834
   0.25250526  0.00057147  0.60133571
  -0.00242714  0.75158551  0.60305591
   0.08354853  0.58436011  0.39589258
   0.33264967  0.08311222  0.39796864
   0.33394954  0.33209441  0.39320266
   0.91620878  0.66756704  0.50096198
   0.91843583  0.16593528  0.49989709
   0.00185640  0.25102350  0.60274422
   0.66629914  0.41730265  0.50085571
   0.83470556  0.33274609  0.40354972
   0.91585784  0.41615364  0.50112220
   0.08318982  0.33292256  0.40351261
  -0.00124831  0.00066570  0.59721655
   0.83367056  0.08307197  0.40328382
   0.50069808  0.75142781  0.59735905
   0.41496198  0.91686716  0.50082482
   0.74848820 -0.00032962  0.59704331
   0.41547106  0.66768543  0.50074351
   0.08385794  0.83409560  0.40461557
   0.49872838  0.24868569  0.59825490
   0.91815166  0.91434461  0.50022319
   0.50190174 -0.00014014  0.59741354
   0.58411914  0.08384744  0.40236919
   0.66662338  0.91488907  0.49977040
   0.16780764  0.91525970  0.50086404
   0.33207202  0.83387905  0.40457482
   0.24873408  0.49953243  0.59752926
   0.16583646  0.66872826  0.50087885
   0.16615793  0.16407953  0.50058727
   0.25094702  0.25167384  0.59757231
   0.00111427  0.50054438  0.59809695
   0.74796487  0.75252491  0.59782389
Direct configuration=    13
   0.08251886  0.08256605  0.39822007
   0.83368442  0.83666245  0.39774094
   0.75046735  0.50236494  0.60370379
   0.66480279  0.66626626  0.50089113
   0.83563180  0.58019981  0.39579873
   0.74928806  0.24817711  0.60511349
   0.66840378  0.16427460  0.50084294
   0.58239695  0.83475643  0.39760113
   0.49861667  0.50034749  0.60278572
   0.58399227  0.58265892  0.39838787
   0.41628818  0.41848644  0.50030128
   0.58721475  0.33049577  0.39659096
   0.41650380  0.16344103  0.50027916
   0.33269710  0.58597043  0.39856205
   0.16516199  0.41598361  0.49985623
   0.24943343  0.75069178  0.60151250
   0.25242481  0.00076878  0.60151025
  -0.00242963  0.75175479  0.60322644
   0.08396914  0.58411596  0.39557771
   0.33260184  0.08309507  0.39789172
   0.33382632  0.33214201  0.39248882
   0.91631823  0.66749037  0.50073269
   0.91819497  0.16589420  0.50017740
   0.00185687  0.25098586  0.60304050
   0.66644234  0.41712166  0.50115160
   0.83489988  0.33278981  0.40394300
   0.91578721  0.41598625  0.50136359
   0.08327552  0.33289284  0.40369765
  -0.00135662  0.00085692  0.59732261
   0.83387110  0.08298013  0.40357421
   0.50045803  0.75164110  0.59727594
   0.41467169  0.91669022  0.50076753
   0.74852789 -0.00018195  0.59697472
   0.41534210  0.66764070  0.50085171
   0.08388988  0.83401415  0.40492145
   0.49871665  0.24876594  0.59807912
   0.91824699  0.91433573  0.50035960
   0.50193777 -0.00018445  0.59722451
   0.58407125  0.08363989  0.40236109
   0.66670441  0.91480230  0.49947009
   0.16798545  0.91500651  0.50110661
   0.33212541  0.83400193  0.40491782
   0.24850856  0.49984527  0.59731882
   0.16592260  0.66873872  0.50095827
   0.16644617  0.16397847  0.50065225
   0.25100024  0.25161684  0.59730933
   0.00077415  0.50075256  0.59800309
   0.74788658  0.75267831  0.59756186
Direct configuration=    14
   0.08257960  0.08250054  0.39826421
   0.83358277  0.83683811  0.39763258
   0.75063111  0.50230202  0.60393828
   0.66473818  0.66607033  0.50073388
   0.83564733  0.58014901  0.39565045
   0.74937428  0.24806337  0.60541051
   0.66850774  0.16430145  0.50090678
   0.58243902  0.83496515  0.39744541
   0.49855846  0.50044569  0.60288412
   0.58411577  0.58258535  0.39842893
   0.41623132  0.41853689  0.50006387
   0.58728728  0.33044724  0.39653203
   0.41625582  0.16355397  0.50000109
   0.33266844  0.58584336  0.39856952
   0.16513367  0.41589919  0.49956260
   0.24930724  0.75087826  0.60167617
   0.25236607  0.00091285  0.60163769
  -0.00243144  0.75187839  0.60335096
   0.08427624  0.58393769  0.39534781
   0.33256693  0.08308254  0.39783556
   0.33373636  0.33217677  0.39196760
   0.91639815  0.66743439  0.50056527
   0.91801910  0.16586420  0.50038208
   0.00185721  0.25095837  0.60325683
   0.66654690  0.41698952  0.50136764
   0.83504176  0.33282173  0.40423016
   0.91573564  0.41586403  0.50153984
   0.08333809  0.33287115  0.40383277
  -0.00143570  0.00099654  0.59740004
   0.83401752  0.08291306  0.40378625
   0.50028275  0.75179683  0.59721527
   0.41445974  0.91656103  0.50072571
   0.74855688 -0.00007412  0.59692463
   0.41524793  0.66760805  0.50093072
   0.08391320  0.83395467  0.40514478
   0.49870808  0.24882453  0.59795077
   0.91831659  0.91432925  0.50045921
   0.50196408 -0.00021681  0.59708649
   0.58403629  0.08348835  0.40235518
   0.66676358  0.91473895  0.49925081
   0.16811528  0.91482164  0.50128372
   0.33216440  0.83409164  0.40516827
   0.24834389  0.50007370  0.59716516
   0.16598550  0.66874636  0.50101627
   0.16665663  0.16390468  0.50069969
   0.25103910  0.25157521  0.59711731
   0.00052581  0.50090457  0.59793456
   0.74782941  0.75279032  0.59737054
Direct configuration=    15
   0.08263073  0.08261070  0.39849638
   0.83381454  0.83676748  0.39761893
   0.75061800  0.50235487  0.60402862
   0.66461039  0.66611225  0.50059675
   0.83583829  0.58004458  0.39562057
   0.74912702  0.24808883  0.60559757
   0.66811262  0.16432425  0.50087226
   0.58253743  0.83493392  0.39735315
   0.49868350  0.50053536  0.60282797
   0.58396176  0.58268801  0.39860601
   0.41622564  0.41854308  0.49994560
   0.58739660  0.33023130  0.39661361
   0.41647404  0.16371817  0.49971748
   0.33266072  0.58603081  0.39860854
   0.16518687  0.41585888  0.49937079
   0.24926232  0.75105460  0.60179045
   0.25212182  0.00111924  0.60167854
  -0.00252772  0.75201524  0.60330251
   0.08401000  0.58403404  0.39523077
   0.33257039  0.08323552  0.39779597
   0.33397993  0.33181037  0.39162691
   0.91644627  0.66735101  0.50036060
   0.91813385  0.16596022  0.50074183
   0.00187676  0.25094181  0.60340694
   0.66651791  0.41690570  0.50155313
   0.83520910  0.33273258  0.40454472
   0.91600232  0.41551689  0.50160850
   0.08337070  0.33285316  0.40377863
  -0.00139854  0.00103131  0.59753908
   0.83392070  0.08297079  0.40386095
   0.50028324  0.75187143  0.59725236
   0.41456041  0.91634096  0.50066982
   0.74868935 -0.00012581  0.59694771
   0.41523589  0.66739463  0.50094155
   0.08397536  0.83363924  0.40529967
   0.49857646  0.24899429  0.59779541
   0.91838668  0.91420628  0.50060090
   0.50208510 -0.00031060  0.59691998
   0.58385941  0.08370425  0.40224111
   0.66675340  0.91488137  0.49904652
   0.16809364  0.91478566  0.50145959
   0.33237906  0.83386210  0.40537408
   0.24822364  0.50000777  0.59700232
   0.16610228  0.66869576  0.50096481
   0.16635482  0.16420617  0.50072604
   0.25108011  0.25158861  0.59694662
   0.00032393  0.50094834  0.59791587
   0.74766322  0.75293457  0.59720190
Direct configuration=    16
   0.08265292  0.08265849  0.39859711
   0.83391509  0.83673683  0.39761300
   0.75061232  0.50237780  0.60406782
   0.66455495  0.66613044  0.50053726
   0.83592114  0.57999927  0.39560761
   0.74901975  0.24809988  0.60567872
   0.66794120  0.16433415  0.50085728
   0.58258012  0.83492037  0.39731312
   0.49873775  0.50057426  0.60280361
   0.58389495  0.58273255  0.39868283
   0.41622318  0.41854577  0.49989429
   0.58744403  0.33013761  0.39664900
   0.41656872  0.16378941  0.49959444
   0.33265737  0.58611213  0.39862547
   0.16520994  0.41584139  0.49928758
   0.24924283  0.75113111  0.60184003
   0.25201585  0.00120878  0.60169626
  -0.00256949  0.75207462  0.60328149
   0.08389449  0.58407584  0.39518000
   0.33257189  0.08330189  0.39777879
   0.33408561  0.33165141  0.39147911
   0.91646715  0.66731484  0.50027181
   0.91818363  0.16600188  0.50089791
   0.00188524  0.25093463  0.60347207
   0.66650534  0.41686934  0.50163360
   0.83528171  0.33269390  0.40468119
   0.91611802  0.41536629  0.50163828
   0.08338484  0.33284536  0.40375515
  -0.00138242  0.00104640  0.59759940
   0.83387870  0.08299584  0.40389335
   0.50028345  0.75190379  0.59726845
   0.41460409  0.91624549  0.50064557
   0.74874682 -0.00014824  0.59695773
   0.41523067  0.66730204  0.50094624
   0.08400233  0.83350240  0.40536686
   0.49851936  0.24906794  0.59772800
   0.91841708  0.91415294  0.50066237
   0.50213760 -0.00035129  0.59684775
   0.58378267  0.08379792  0.40219162
   0.66674898  0.91494315  0.49895789
   0.16808425  0.91477005  0.50153590
   0.33247219  0.83376251  0.40546337
   0.24817147  0.49997917  0.59693167
   0.16615295  0.66867381  0.50094248
   0.16622389  0.16433697  0.50073747
   0.25109789  0.25159442  0.59687256
   0.00023635  0.50096733  0.59790776
   0.74759113  0.75299715  0.59712874
Direct configuration=    17
   0.08274766  0.08254467  0.39897610
   0.83399460  0.83679659  0.39762462
   0.75053415  0.50250099  0.60407661
   0.66465210  0.66612128  0.50047793