  56  56   0   0
  0.4903395E+02  0.1100258E-08  0.1100258E-08  0.2619179E-08  0.3500000E-15
  1.000000000000000E-004
  CAR 
 unknown system                          
      6.47040491    -21.67245250  301     -1.38781126      1.00000000
    -21.672  0.0000E+00  0.0000E+00
    -21.579  0.0000E+00  0.0000E+00
    -21.485  0.0000E+00  0.0000E+00
    -21.391  0.0000E+00  0.0000E+00
    -21.297  0.0000E+00  0.0000E+00
    -21.203  0.0000E+00  0.0000E+00
    -21.110  0.0000E+00  0.0000E+00
    -21.016  0.0000E+00  0.0000E+00
    -20.922  0.1491E-14  0.1399E-15
    -20.828  0.1560E-10  0.1464E-11
    -20.734  0.2966E-07  0.2784E-08
    -20.641  0.1056E-04  0.9930E-06
    -20.547  0.7399E-03  0.7040E-04
    -20.453  0.1097E-01  0.1100E-02
    -20.359  0.3719E-01  0.4588E-02
    -20.265  0.3035E-01  0.7435E-02
    -20.172  0.8432E-02  0.8226E-02
    -20.078  0.1541E-01  0.9672E-02
    -19.984  0.1971E-01  0.1152E-01
    -19.890  0.1258E-01  0.1270E-01
    -19.796  0.2697E-01  0.1523E-01
    -19.702  0.3799E-01  0.1879E-01
    -19.609  0.3652E-01  0.2222E-01
    -19.515  0.2998E-01  0.2503E-01
    -19.421  0.2339E-01  0.2723E-01
    -19.327  0.7864E-02  0.2797E-01
    -19.233  0.4963E-02  0.2843E-01
    -19.140  0.1824E-01  0.3014E-01
    -19.046  0.1647E-01  0.3169E-01
    -18.952  0.3217E-02  0.3199E-01
    -18.858  0.1293E-03  0.3200E-01
    -18.764  0.1008E-05  0.3200E-01
    -18.671  0.1460E-08  0.3200E-01
    -18.577  0.3831E-12  0.3200E-01
    -18.483  0.1894E-16  0.3200E-01
    -18.389  0.0000E+00  0.3200E-01
    -18.295  0.0000E+00  0.3200E-01
    -18.202  0.0000E+00  0.3200E-01
    -18.108  0.0000E+00  0.3200E-01
    -18.014  0.0000E+00  0.3200E-01
    -17.920  0.0000E+00  0.3200E-01
    -17.826  0.0000E+00  0.3200E-01
    -17.732  0.0000E+00  0.3200E-01
    -17.639  0.0000E+00  0.3200E-01
    -17.545  0.0000E+00  0.3200E-01
    -17.451  0.0000E+00  0.3200E-01
    -17.357  0.0000E+00  0.3200E-01
    -17.263  0.0000E+00  0.3200E-01
    -17.170  0.0000E+00  0.3200E-01
    -17.076  0.0000E+00  0.3200E-01
    -16.982  0.0000E+00  0.3200E-01
    -16.888  0.0000E+00  0.3200E-01
    -16.794  0.0000E+00  0.3200E-01
    -16.701  0.0000E+00  0.3200E-01
    -16.607  0.0000E+00  0.3200E-01
    -16.513  0.0000E+00  0.3200E-01
    -16.419  0.0000E+00  0.3200E-01
    -16.325  0.0000E+00  0.3200E-01
    -16.232  0.0000E+00  0.3200E-01
    -16.138  0.0000E+00  0.3200E-01
    -16.044  0.0000E+00  0.3200E-01
    -15.950  0.0000E+00  0.3200E-01
    -15.856  0.0000E+00  0.3200E-01
    -15.762  0.0000E+00  0.3200E-01
    -15.669  0.0000E+00  0.3200E-01
    -15.575  0.0000E+00  0.3200E-01
    -15.481  0.0000E+00  0.3200E-01
    -15.387  0.0000E+00  0.3200E-01
    -15.293  0.0000E+00  0.3200E-01
    -15.200  0.0000E+00  0.3200E-01
    -15.106  0.0000E+00  0.3200E-01
    -15.012  0.0000E+00  0.3200E-01
    -14.918  0.0000E+00  0.3200E-01
    -14.824  0.0000E+00  0.3200E-01
    -14.731  0.0000E+00  0.3200E-01
    -14.637  0.0000E+00  0.3200E-01
    -14.543  0.0000E+00  0.3200E-01
    -14.449  0.0000E+00  0.3200E-01
    -14.355  0.0000E+00  0.3200E-01
    -14.262  0.0000E+00  0.3200E-01
    -14.168  0.0000E+00  0.3200E-01
    -14.074  0.0000E+00  0.3200E-01
    -13.980  0.0000E+00  0.3200E-01
    -13.886  0.0000E+00  0.3200E-01
    -13.792  0.0000E+00  0.3200E-01
    -13.699  0.0000E+00  0.3200E-01
    -13.605  0.0000E+00  0.3200E-01
    -13.511  0.0000E+00  0.3200E-01
    -13.417  0.0000E+00  0.3200E-01
    -13.323  0.0000E+00  0.3200E-01
    -13.230  0.0000E+00  0.3200E-01
    -13.136  0.0000E+00  0.3200E-01
    -13.042  0.0000E+00  0.3200E-01
    -12.948  0.0000E+00  0.3200E-01
    -12.854  0.0000E+00  0.3200E-01
    -12.761  0.0000E+00  0.3200E-01
    -12.667  0.0000E+00  0.3200E-01
    -12.573  0.0000E+00  0.3200E-01
    -12.479  0.0000E+00  0.3200E-01
    -12.385  0.0000E+00  0.3200E-01
    -12.292  0.0000E+00  0.3200E-01
    -12.198  0.0000E+00  0.3200E-01
    -12.104  0.0000E+00  0.3200E-01
    -12.010  0.0000E+00  0.3200E-01
    -11.916  0.0000E+00  0.3200E-01
    -11.822  0.0000E+00  0.3200E-01
    -11.729  0.0000E+00  0.3200E-01
    -11.635  0.0000E+00  0.3200E-01
    -11.541  0.0000E+00  0.3200E-01
    -11.447  0.0000E+00  0.3200E-01
    -11.353  0.0000E+00  0.3200E-01
    -11.260  0.0000E+00  0.3200E-01
    -11.166  0.0000E+00  0.3200E-01
    -11.072  0.0000E+00  0.3200E-01
    -10.978  0.0000E+00  0.3200E-01
    -10.884  0.0000E+00  0.3200E-01
    -10.791  0.0000E+00  0.3200E-01
    -10.697  0.0000E+00  0.3200E-01
    -10.603  0.0000E+00  0.3200E-01
    -10.509  0.0000E+00  0.3200E-01
    -10.415  0.0000E+00  0.3200E-01
    -10.322  0.0000E+00  0.3200E-01
    -10.228  0.0000E+00  0.3200E-01
    -10.134  0.0000E+00  0.3200E-01
    -10.040  0.0000E+00  0.3200E-01
     -9.946  0.0000E+00  0.3200E-01
     -9.852  0.0000E+00  0.3200E-01
     -9.759  0.1183E-17  0.3200E-01
     -9.665  0.3283E-13  0.3200E-01
     -9.571  0.1692E-09  0.3200E-01
     -9.477  0.1591E-06  0.3200E-01
     -9.383  0.2794E-04  0.3200E-01
     -9.290  0.9531E-03  0.3209E-01
     -9.196  0.6710E-02  0.3272E-01
     -9.102  0.1133E-01  0.3378E-01
     -9.008  0.1055E-01  0.3477E-01
     -8.914  0.9825E-02  0.3570E-01
     -8.821  0.3185E-02  0.3599E-01
     -8.727  0.2043E-02  0.3619E-01
     -8.633  0.6283E-02  0.3678E-01
     -8.539  0.1175E-01  0.3788E-01
     -8.445  0.1765E-01  0.3953E-01
     -8.351  0.2118E-01  0.4152E-01
     -8.258  0.2588E-01  0.4395E-01
     -8.164  0.3888E-01  0.4760E-01
     -8.070  0.4527E-01  0.5184E-01
     -7.976  0.4424E-01  0.5599E-01
     -7.882  0.4654E-01  0.6036E-01
     -7.789  0.5088E-01  0.6513E-01
     -7.695  0.4960E-01  0.6979E-01
     -7.601  0.6192E-01  0.7559E-01
     -7.507  0.8332E-01  0.8341E-01
     -7.413  0.9917E-01  0.9271E-01
     -7.320  0.1159E+00  0.1036E+00
     -7.226  0.1333E+00  0.1161E+00
     -7.132  0.1418E+00  0.1294E+00
     -7.038  0.1433E+00  0.1428E+00
     -6.944  0.1484E+00  0.1568E+00
     -6.851  0.1441E+00  0.1703E+00
     -6.757  0.1411E+00  0.1835E+00
     -6.663  0.1520E+00  0.1978E+00
     -6.569  0.1620E+00  0.2130E+00
     -6.475  0.1757E+00  0.2295E+00
     -6.381  0.1745E+00  0.2458E+00
     -6.288  0.1560E+00  0.2605E+00
     -6.194  0.1502E+00  0.2746E+00
     -6.100  0.1490E+00  0.2885E+00
     -6.006  0.1446E+00  0.3021E+00
     -5.912  0.1475E+00  0.3159E+00
     -5.819  0.1528E+00  0.3303E+00
     -5.725  0.1597E+00  0.3453E+00
     -5.631  0.1697E+00  0.3612E+00
     -5.537  0.1731E+00  0.3774E+00
     -5.443  0.1749E+00  0.3938E+00
     -5.350  0.1800E+00  0.4107E+00
     -5.256  0.1736E+00  0.4270E+00
     -5.162  0.1771E+00  0.4436E+00
     -5.068  0.1787E+00  0.4604E+00
     -4.974  0.1715E+00  0.4765E+00
     -4.881  0.1603E+00  0.4915E+00
     -4.787  0.1642E+00  0.5069E+00
     -4.693  0.1742E+00  0.5232E+00
     -4.599  0.1798E+00  0.5401E+00
     -4.505  0.1847E+00  0.5574E+00
     -4.411  0.1843E+00  0.5747E+00
     -4.318  0.1830E+00  0.5919E+00
     -4.224  0.1851E+00  0.6093E+00
     -4.130  0.1837E+00  0.6265E+00
     -4.036  0.1812E+00  0.6435E+00
     -3.942  0.1869E+00  0.6610E+00
     -3.849  0.1904E+00  0.6789E+00
     -3.755  0.1909E+00  0.6968E+00
     -3.661  0.1977E+00  0.7153E+00
     -3.567  0.1956E+00  0.7337E+00
     -3.473  0.1857E+00  0.7511E+00
     -3.380  0.1873E+00  0.7687E+00
     -3.286  0.1814E+00  0.7857E+00
     -3.192  0.1799E+00  0.8026E+00
     -3.098  0.1859E+00  0.8200E+00
     -3.004  0.1901E+00  0.8379E+00
     -2.911  0.1850E+00  0.8552E+00
     -2.817  0.1759E+00  0.8717E+00
     -2.723  0.1754E+00  0.8882E+00
     -2.629  0.1829E+00  0.9053E+00
     -2.535  0.1809E+00  0.9223E+00
     -2.441  0.1825E+00  0.9394E+00
     -2.348  0.1905E+00  0.9573E+00
     -2.254  0.1953E+00  0.9756E+00
     -2.160  0.1948E+00  0.9939E+00
     -2.066  0.1896E+00  0.1012E+01
     -1.972  0.1759E+00  0.1028E+01
     -1.879  0.1610E+00  0.1043E+01
     -1.785  0.1599E+00  0.1058E+01
     -1.691  0.1514E+00  0.1072E+01
     -1.597  0.1280E+00  0.1085E+01
     -1.503  0.1086E+00  0.1095E+01
     -1.410  0.8361E-01  0.1103E+01
     -1.316  0.6209E-01  0.1108E+01
     -1.222  0.5629E-01  0.1114E+01
     -1.128  0.6049E-01  0.1119E+01
     -1.034  0.6768E-01  0.1126E+01
     -0.941  0.6629E-01  0.1132E+01
     -0.847  0.5810E-01  0.1137E+01
     -0.753  0.4739E-01  0.1142E+01
     -0.659  0.4387E-01  0.1146E+01
     -0.565  0.4876E-01  0.1150E+01
     -0.471  0.4863E-01  0.1155E+01
     -0.378  0.4246E-01  0.1159E+01
     -0.284  0.3598E-01  0.1162E+01
     -0.190  0.2554E-01  0.1165E+01
     -0.096  0.2039E-01  0.1167E+01
     -0.002  0.2107E-01  0.1169E+01
      0.091  0.2549E-01  0.1171E+01
      0.185  0.2674E-01  0.1174E+01
      0.279  0.2958E-01  0.1176E+01
      0.373  0.3625E-01  0.1180E+01
      0.467  0.3592E-01  0.1183E+01
      0.560  0.3756E-01  0.1187E+01
      0.654  0.3919E-01  0.1190E+01
      0.748  0.3566E-01  0.1194E+01
      0.842  0.3061E-01  0.1197E+01
      0.936  0.2576E-01  0.1199E+01
      1.029  0.2094E-01  0.1201E+01
      1.123  0.1551E-01  0.1202E+01
      1.217  0.2128E-01  0.1204E+01
      1.311  0.2836E-01  0.1207E+01
      1.405  0.2854E-01  0.1210E+01
      1.499  0.3021E-01  0.1213E+01
      1.592  0.3441E-01  0.1216E+01
      1.686  0.3222E-01  0.1219E+01
      1.780  0.3178E-01  0.1222E+01
      1.874  0.3537E-01  0.1225E+01
      1.968  0.3471E-01  0.1228E+01
      2.061  0.3068E-01  0.1231E+01
      2.155  0.2917E-01  0.1234E+01
      2.249  0.3080E-01  0.1237E+01
      2.343  0.2947E-01  0.1240E+01
      2.437  0.2892E-01  0.1242E+01
      2.530  0.2414E-01  0.1245E+01
      2.624  0.1696E-01  0.1246E+01
      2.718  0.1964E-01  0.1248E+01
      2.812  0.2196E-01  0.1250E+01
      2.906  0.1852E-01  0.1252E+01
      2.999  0.2302E-01  0.1254E+01
      3.093  0.2584E-01  0.1256E+01
      3.187  0.2814E-01  0.1259E+01
      3.281  0.3318E-01  0.1262E+01
      3.375  0.3815E-01  0.1266E+01
      3.469  0.3600E-01  0.1269E+01
      3.562  0.3208E-01  0.1272E+01
      3.656  0.3180E-01  0.1275E+01
      3.750  0.3697E-01  0.1279E+01
      3.844  0.3617E-01  0.1282E+01
      3.938  0.3124E-01  0.1285E+01
      4.031  0.3575E-01  0.1288E+01
      4.125  0.3886E-01  0.1292E+01
      4.219  0.3470E-01  0.1295E+01
      4.313  0.3125E-01  0.1298E+01
      4.407  0.3466E-01  0.1301E+01
      4.500  0.4358E-01  0.1305E+01
      4.594  0.5108E-01  0.1310E+01
      4.688  0.5073E-01  0.1315E+01
      4.782  0.5758E-01  0.1320E+01
      4.876  0.5810E-01  0.1326E+01
      4.969  0.5843E-01  0.1331E+01
      5.063  0.6005E-01  0.1337E+01
      5.157  0.4673E-01  0.1341E+01
      5.251  0.2329E-01  0.1344E+01
      5.345  0.4933E-02  0.1344E+01
      5.439  0.2945E-03  0.1344E+01
      5.532  0.3935E-05  0.1344E+01
      5.626  0.1052E-07  0.1344E+01
      5.720  0.5310E-11  0.1344E+01
      5.814  0.4915E-15  0.1344E+01
      5.908  0.0000E+00  0.1344E+01
      6.001  0.0000E+00  0.1344E+01
      6.095  0.0000E+00  0.1344E+01
      6.189  0.0000E+00  0.1344E+01
      6.283  0.0000E+00  0.1344E+01
      6.377  0.0000E+00  0.1344E+01
      6.470  0.0000E+00  0.1344E+01
