unknown system                          
           1
    11.002582    0.000000    0.000000
     5.501291    9.528515    0.000000
     0.000000    0.000000   26.191785
   Au   O    Pd
  24   8  24
Direct configuration=     1
   0.75684206  0.48742109  0.56124652
   0.75533195  0.98901179  0.55937619
   0.83333333  0.83333333  0.38179910
   0.66396308  0.41567554  0.47074546
   0.91688052  0.66754755  0.47134437
   0.08333333  0.58333333  0.38179910
   0.83333333  0.08333333  0.38179910
   0.83333333  0.33333333  0.38179910
   0.91635837  0.16490457  0.47184831
   0.08333333  0.33333333  0.38179910
   0.99683247  0.25944546  0.55956814
   0.66569201  0.66470146  0.46842758
   0.25514526  0.98749650  0.56215274
   0.33333333  0.33333333  0.38179910
   0.16839232  0.41199153  0.47321844
   0.41549710  0.91667159  0.47226137
   0.58333333  0.83333333  0.38179910
   0.16949055  0.66705141  0.46887385
   0.25000007  0.49977595  0.55933056
   0.16597291  0.91780724  0.46937921
   0.74715130  0.75865125  0.56091155
   0.58333333  0.08333333  0.38179910
   0.50459633  0.99030652  0.56041681
   0.33333333  0.08333333  0.38179910
   0.56902659  0.59267835  0.60782363
   0.84498387  0.58259413  0.61026756
   0.09130546  0.82021855  0.60654179
   0.57902699  0.08944762  0.61002980
   0.57863233  0.33722732  0.60544529
   0.83361083  0.08771227  0.60868242
   0.07962521  0.08760709  0.61045399
   0.32933299  0.09372611  0.61010896
   0.41961565  0.16872874  0.47116788
   0.25401475  0.74676166  0.55995178
   0.33333333  0.83333333  0.38179910
   0.75245963  0.25192013  0.56408807
   0.33333333  0.58333333  0.38179910
   0.24835076  0.25426648  0.56044100
   0.00280317  0.74548449  0.55991733
   0.41982257  0.41502828  0.47116550
   0.91458473  0.91913080  0.47091872
   0.08333333  0.83333333  0.38179910
   0.00521755  0.49862513  0.56076480
   0.66692047  0.91952767  0.47293980
   0.91568245  0.41582111  0.47117648
   0.00004766  0.99995616  0.56637620
   0.58333333  0.33333333  0.38179910
   0.08333333  0.08333333  0.38179910
   0.49283401  0.25456589  0.56306743
   0.41649160  0.66358377  0.47022996
   0.49652697  0.75049751  0.56044116
   0.49368786  0.50292808  0.56349627
   0.66442828  0.16817686  0.46911841
   0.58333333  0.58333333  0.38179910
   0.16736942  0.16605421  0.46896116
   0.83333333  0.58333333  0.38179910
Direct configuration=     2
   0.75471557  0.49117565  0.56162446
   0.75663556  0.99152729  0.55971385
   0.83333333  0.83333333  0.38179910
   0.66380960  0.41550332  0.47123324
   0.91674449  0.66730103  0.47173614
   0.08333333  0.58333333  0.38179910
   0.83333333  0.08333333  0.38179910
   0.83333333  0.33333333  0.38179910
   0.91624362  0.16487899  0.47235314
   0.08333333  0.33333333  0.38179910
   0.99995253  0.25779711  0.55986261
   0.66577566  0.66481898  0.46905058
   0.25458947  0.98789244  0.56286077
   0.33333333  0.33333333  0.38179910
   0.16823067  0.41195003  0.47331204
   0.41583520  0.91649835  0.47240644
   0.58333333  0.83333333  0.38179910
   0.16936110  0.66708547  0.46922083
   0.24947513  0.50086655  0.56009198
   0.16570996  0.91744219  0.46977702
   0.74867271  0.75328307  0.56168839
   0.58333333  0.08333333  0.38179910
   0.50235835  0.99137890  0.56074686
   0.33333333  0.08333333  0.38179910
   0.56859491  0.59421551  0.60834935
   0.84557882  0.58326610  0.61028159
   0.09251562  0.81818056  0.60697841
   0.57858711  0.08963139  0.61027331
   0.57909232  0.33652351  0.60637588
   0.83221111  0.08771140  0.60928616
   0.08042567  0.08896090  0.61103689
   0.32840842  0.09549262  0.61006268
   0.41941850  0.16854203  0.47171360
   0.25478626  0.74562716  0.55979570
   0.33333333  0.83333333  0.38179910
   0.75265181  0.25182455  0.56382244
   0.33333333  0.58333333  0.38179910
   0.24837823  0.25382797  0.56085033
   0.00321966  0.74419545  0.55990108
   0.41949410  0.41508249  0.47163970
   0.91513035  0.91887807  0.47135134
   0.08333333  0.83333333  0.38179910
   0.00582589  0.49891273  0.56121421
   0.66681142  0.91905871  0.47275962
   0.91600260  0.41595475  0.47138519
   0.00092945  0.99778604  0.56583473
   0.58333333  0.33333333  0.38179910
   0.08333333  0.08333333  0.38179910
   0.49109189  0.25414921  0.56277718
   0.41673342  0.66359743  0.47058018
   0.49791474  0.75003879  0.56048411
   0.49090813  0.50495766  0.56285111
   0.66448512  0.16827328  0.46979346
   0.58333333  0.58333333  0.38179910
   0.16750314  0.16617683  0.46960946
   0.83333333  0.58333333  0.38179910
Direct configuration=     3
   0.75390127  0.49261340  0.56176918
   0.75713475  0.99249056  0.55984315
   0.83333333  0.83333333  0.38179910
   0.66375083  0.41543737  0.47142003
   0.91669240  0.66720663  0.47188616
   0.08333333  0.58333333  0.38179910
   0.83333333  0.08333333  0.38179910
   0.83333333  0.33333333  0.38179910
   0.91619967  0.16486919  0.47254646
   0.08333333  0.33333333  0.38179910
   0.00114730  0.25716591  0.55997537
   0.66580769  0.66486398  0.46928915
   0.25437665  0.98804406  0.56313190
   0.33333333  0.33333333  0.38179910
   0.16816877  0.41193414  0.47334788
   0.41596466  0.91643200  0.47246199
   0.58333333  0.83333333  0.38179910
   0.16931153  0.66709852  0.46935370
   0.24927411  0.50128417  0.56038355
   0.16560927  0.91730241  0.46992935
   0.74925531  0.75122741  0.56198587
   0.58333333  0.08333333  0.38179910
   0.50150135  0.99178955  0.56087325
   0.33333333  0.08333333  0.38179910
   0.56842960  0.59480414  0.60855067
   0.84580664  0.58352342  0.61028696
   0.09297902  0.81740015  0.60714561
   0.57841866  0.08970176  0.61036656
   0.57926846  0.33625400  0.60673224
   0.83167511  0.08771106  0.60951735
   0.08073219  0.08947931  0.61126011
   0.32805438  0.09616908  0.61004496
   0.41934300  0.16847054  0.47192258
   0.25508169  0.74519272  0.55973593
   0.33333333  0.83333333  0.38179910
   0.75272540  0.25178795  0.56372072
   0.33333333  0.58333333  0.38179910
   0.24838875  0.25366005  0.56100708
   0.00337915  0.74370184  0.55989486
   0.41936832  0.41510324  0.47182129
   0.91533929  0.91878129  0.47151700
   0.08333333  0.83333333  0.38179910
   0.00605884  0.49902286  0.56138631
   0.66676966  0.91887913  0.47269062
   0.91612519  0.41600593  0.47146511
   0.00126711  0.99695504  0.56562738
   0.58333333  0.33333333  0.38179910
   0.08333333  0.08333333  0.38179910
   0.49042477  0.25398964  0.56266603
   0.41682603  0.66360266  0.47071429
   0.49844616  0.74986313  0.56050056
   0.48984368  0.50573486  0.56260405
   0.66450689  0.16831021  0.47005196
   0.58333333  0.58333333  0.38179910
   0.16755434  0.16622378  0.46985771
   0.83333333  0.58333333  0.38179910
Direct configuration=     4
   0.75336023  0.49317282  0.56202316
   0.75652391  0.99237328  0.56002723
   0.83333333  0.83333333  0.38179910
   0.66372767  0.41536604  0.47200102
   0.91652137  0.66709148  0.47227860
   0.08333333  0.58333333  0.38179910
   0.83333333  0.08333333  0.38179910
   0.83333333  0.33333333  0.38179910
   0.91616681  0.16497778  0.47312014
   0.08333333  0.33333333  0.38179910
   0.00219307  0.25750885  0.56031234
   0.66593408  0.66484130  0.46977662
   0.25451353  0.98703694  0.56392941
   0.33333333  0.33333333  0.38179910
   0.16818841  0.41198350  0.47361776
   0.41594611  0.91631034  0.47266583
   0.58333333  0.83333333  0.38179910
   0.16924391  0.66683882  0.46963571
   0.24866307  0.50187701  0.56138523
   0.16558110  0.91707318  0.47034789
   0.74837286  0.75184587  0.56237262
   0.58333333  0.08333333  0.38179910
   0.50262394  0.99085669  0.56114759
   0.33333333  0.08333333  0.38179910
   0.56688278  0.59605186  0.60906143
   0.84755988  0.58303785  0.61124367
   0.09457482  0.81480642  0.60746465
   0.57790143  0.08986898  0.61038415
   0.57881783  0.33658179  0.60676624
   0.83152581  0.08774522  0.60998254
   0.08082889  0.09036742  0.61184373
   0.32677483  0.09828929  0.61050319
   0.41920645  0.16822065  0.47246633
   0.25531003  0.74493092  0.55974622
   0.33333333  0.83333333  0.38179910
   0.75218324  0.25284288  0.56385565
   0.33333333  0.58333333  0.38179910
   0.24772073  0.25465944  0.56134789
   0.00338312  0.74292876  0.56008566
   0.41881384  0.41508698  0.47235858
   0.91572063  0.91845288  0.47191596
   0.08333333  0.83333333  0.38179910
   0.00767180  0.49813214  0.56183298
   0.66707246  0.91831237  0.47315835
   0.91632166  0.41597987  0.47191050
   0.00219221  0.99552377  0.56584665
   0.58333333  0.33333333  0.38179910
   0.08333333  0.08333333  0.38179910
   0.48955266  0.25423887  0.56288532
   0.41701281  0.66368146  0.47101427
   0.49898215  0.75048254  0.56057701
   0.48943744  0.50571670  0.56278996
   0.66448356  0.16827256  0.47073829
   0.58333333  0.58333333  0.38179910
   0.16775792  0.16608810  0.47051442
   0.83333333  0.58333333  0.38179910
Direct configuration=     5
   0.75233062  0.49423740  0.56250647
   0.75536148  0.99215009  0.56037751
   0.83333333  0.83333333  0.38179910
   0.66368360  0.41523030  0.47310665
   0.91619589  0.66687236  0.47302542
   0.08333333  0.58333333  0.38179910
   0.83333333  0.08333333  0.38179910
   0.83333333  0.33333333  0.38179910
   0.91610426  0.16518444  0.47421185
   0.08333333  0.33333333  0.38179910
   0.00418320  0.25816146  0.56095358
   0.66617461  0.66479813  0.47070428
   0.25477402  0.98512038  0.56544708
   0.33333333  0.33333333  0.38179910
   0.16822577  0.41207743  0.47413133
   0.41591080  0.91607881  0.47305374
   0.58333333  0.83333333  0.38179910
   0.16911524  0.66634461  0.47017238
   0.24750024  0.50300519  0.56329145
   0.16552750  0.91663697  0.47114437
   0.74669354  0.75302279  0.56310861
   0.58333333  0.08333333  0.38179910
   0.50476024  0.98908143  0.56166965
   0.33333333  0.08333333  0.38179910
   0.56393915  0.59842627  0.61003342
   0.85089629  0.58211381  0.61306429
   0.09761163  0.80987051  0.60807178
   0.57691715  0.09018722  0.61041762
   0.57796026  0.33720557  0.60683096
   0.83124168  0.08781022  0.61086782
   0.08101292  0.09205750  0.61295437
   0.32433984  0.10232407  0.61137520
   0.41894657  0.16774512  0.47350110
   0.25574456  0.74443271  0.55976581
   0.33333333  0.83333333  0.38179910
   0.75115150  0.25485044  0.56411241
   0.33333333  0.58333333  0.38179910
   0.24644949  0.25656130  0.56199645
   0.00339067  0.74145757  0.56044875
   0.41775865  0.41505605  0.47338105
   0.91644633  0.91782792  0.47267519
   0.08333333  0.83333333  0.38179910
   0.01074128  0.49643709  0.56268300
   0.66764869  0.91723381  0.47404844
   0.91669554  0.41593027  0.47275808
   0.00395269  0.99280007  0.56626393
   0.58333333  0.33333333  0.38179910
   0.08333333  0.08333333  0.38179910
   0.48789303  0.25471316  0.56330262
   0.41736825  0.66383144  0.47158515
   0.50000213  0.75166127  0.56072249
   0.48866434  0.50568214  0.56314376
   0.66443917  0.16820093  0.47204439
   0.58333333  0.58333333  0.38179910
   0.16814534  0.16582989  0.47176412
   0.83333333  0.58333333  0.38179910
Direct configuration=     6
   0.75282785  0.49446989  0.56308720
   0.75555524  0.99195500  0.56075357
   0.83333333  0.83333333  0.38179910
   0.66356765  0.41527113  0.47344694
   0.91613059  0.66668800  0.47333953
   0.08333333  0.58333333  0.38179910
   0.83333333  0.08333333  0.38179910
   0.83333333  0.33333333  0.38179910
   0.91621722  0.16515558  0.47471864
   0.08333333  0.33333333  0.38179910
   0.00386692  0.25860240  0.56146862
   0.66635330  0.66455503  0.47090515
   0.25568703  0.98436472  0.56653900
   0.33333333  0.33333333  0.38179910
   0.16838552  0.41215013  0.47438338
   0.41570586  0.91613211  0.47324692
   0.58333333  0.83333333  0.38179910
   0.16917442  0.66595361  0.47033788
   0.24750810  0.50319434  0.56434148
   0.16556586  0.91663121  0.47138160
   0.74732562  0.75251105  0.56387510
   0.58333333  0.08333333  0.38179910
   0.50410714  0.98921706  0.56213413
   0.33333333  0.08333333  0.38179910
   0.56203166  0.59971107  0.61030083
   0.85276826  0.58171485  0.61364357
   0.09888168  0.80755846  0.60831322
   0.57631846  0.09052152  0.61056149
   0.57741372  0.33760875  0.60675775
   0.83155996  0.08795607  0.61077365
   0.08063726  0.09265869  0.61333309
   0.32329072  0.10408458  0.61169504
   0.41893534  0.16739855  0.47391282
   0.25605869  0.74421434  0.55985548
   0.33333333  0.83333333  0.38179910
   0.75143780  0.25442901  0.56469260
   0.33333333  0.58333333  0.38179910
   0.24672728  0.25683314  0.56242565
   0.00294402  0.74138529  0.56080570
   0.41731885  0.41504305  0.47383353
   0.91655416  0.91763646  0.47298036
   0.08333333  0.83333333  0.38179910
   0.01038705  0.49664294  0.56341387
   0.66797617  0.91693724  0.47434942
   0.91679468  0.41583117  0.47317327
   0.00388423  0.99247743  0.56717817
   0.58333333  0.33333333  0.38179910
   0.08333333  0.08333333  0.38179910
   0.48739105  0.25519165  0.56368229
   0.41746493  0.66380364  0.47178184
   0.49998688  0.75168791  0.56103109
   0.48884228  0.50583083  0.56363732
   0.66429482  0.16810485  0.47249048
   0.58333333  0.58333333  0.38179910
   0.16844001  0.16544840  0.47223283
   0.83333333  0.58333333  0.38179910
Direct configuration=     7
   0.75431954  0.49516734  0.56482939
   0.75613651  0.99136972  0.56188175
   0.83333333  0.83333333  0.38179910
   0.66321981  0.41539360  0.47446782
   0.91593470  0.66613495  0.47428185
   0.08333333  0.58333333  0.38179910
   0.83333333  0.08333333  0.38179910
   0.83333333  0.33333333  0.38179910
   0.91655608  0.16506901  0.47623902
   0.08333333  0.33333333  0.38179910
   0.00291809  0.25992520  0.56301373
   0.66688935  0.66382571  0.47150777
   0.25842609  0.98209774  0.56981477
   0.33333333  0.33333333  0.38179910
   0.16886477  0.41236824  0.47513952
   0.41509105  0.91629201  0.47382648
   0.58333333  0.83333333  0.38179910
   0.16935197  0.66478059  0.47083440
   0.24753167  0.50376177  0.56749158
   0.16568095  0.91661395  0.47209328
   0.74922185  0.75097583  0.56617460
   0.58333333  0.08333333  0.38179910
   0.50214786  0.98962393  0.56352758
   0.33333333  0.08333333  0.38179910
   0.55630917  0.60356548  0.61110307
   0.85838417  0.58051796  0.61538142
   0.10269183  0.80062229  0.60903755
   0.57452241  0.09152443  0.61099310
   0.57577409  0.33881830  0.60653812
   0.83251480  0.08839362  0.61049114
   0.07951030  0.09446226  0.61446925
   0.32014338  0.10936609  0.61265458
   0.41890163  0.16635887  0.47514796
   0.25700107  0.74355924  0.56012447
   0.33333333  0.83333333  0.38179910
   0.75229669  0.25316472  0.56643320
   0.33333333  0.58333333  0.38179910
   0.24756066  0.25764865  0.56371325
   0.00160406  0.74116845  0.56187653
   0.41599944  0.41500405  0.47519095
   0.91687766  0.91706210  0.47389586
   0.08333333  0.83333333  0.38179910
   0.00932434  0.49726051  0.56560648
   0.66895862  0.91604753  0.47525235
   0.91709211  0.41553387  0.47441887
   0.00367884  0.99150950  0.56992088
   0.58333333  0.33333333  0.38179910
   0.08333333  0.08333333  0.38179910
   0.48588510  0.25662714  0.56482132
   0.41775497  0.66372024  0.47237192
   0.49994111  0.75176783  0.56195688
   0.48937608  0.50627692  0.56511801
   0.66386178  0.16781662  0.47382874
   0.58333333  0.58333333  0.38179910
   0.16932402  0.16430392  0.47363896
   0.83333333  0.58333333  0.38179910
Direct configuration=     8
   0.75451717  0.49522408  0.56593866
   0.75600740  0.99069093  0.56244713
   0.83333333  0.83333333  0.38179910
   0.66314034  0.41519225  0.47470491
   0.91604629  0.66576617  0.47459898
   0.08333333  0.58333333  0.38179910
   0.83333333  0.08333333  0.38179910
   0.83333333  0.33333333  0.38179910
   0.91673565  0.16474877  0.47672239
   0.08333333  0.33333333  0.38179910
   0.00188981  0.25986131  0.56386246
   0.66698862  0.66355352  0.47153879
   0.25881209  0.98159825  0.57187451
   0.33333333  0.33333333  0.38179910
   0.16887323  0.41222409  0.47575303
   0.41528776  0.91611558  0.47411634
   0.58333333  0.83333333  0.38179910
   0.16946342  0.66456613  0.47099969
   0.24747898  0.50395381  0.56885955
   0.16563944  0.91674169  0.47228342
   0.74945842  0.75124506  0.56742147
   0.58333333  0.08333333  0.38179910
   0.50167105  0.98949079  0.56407953
   0.33333333  0.08333333  0.38179910
   0.55440060  0.60487506  0.61194822
   0.85961183  0.58069505  0.61688316
   0.10377919  0.79829981  0.60964894
   0.57409502  0.09199927  0.61160022
   0.57590709  0.33837170  0.60743027
   0.83258004  0.08826671  0.61114183
   0.07895999  0.09451067  0.61500380
   0.31916488  0.11053908  0.61382141
   0.41909096  0.16586668  0.47543331
   0.25696235  0.74400203  0.56020589
   0.33333333  0.83333333  0.38179910
   0.75318388  0.25349943  0.56689484
   0.33333333  0.58333333  0.38179910
   0.24711398  0.25922559  0.56372103
   0.00133433  0.74137696  0.56239255
   0.41596872  0.41496112  0.47570124
   0.91691388  0.91707450  0.47411743
   0.08333333  0.83333333  0.38179910
   0.00983242  0.49715169  0.56620996
   0.66903372  0.91586203  0.47566217
   0.91742953  0.41507673  0.47484033
   0.00542154  0.99052710  0.57148244
   0.58333333  0.33333333  0.38179910
   0.08333333  0.08333333  0.38179910
   0.48548894  0.25695175  0.56513057
   0.41773474  0.66352710  0.47241633
   0.49972569  0.75166067  0.56222265
   0.48942206  0.50740154  0.56538706
   0.66367647  0.16772228  0.47404477
   0.58333333  0.58333333  0.38179910
   0.16937959  0.16407235  0.47413862
   0.83333333  0.58333333  0.38179910
Direct configuration=     9
   0.75487366  0.49532642  0.56793951
   0.75577452  0.98946654  0.56346695
   0.83333333  0.83333333  0.38179910
   0.66299701  0.41482907  0.47513256
   0.91624757  0.66510098  0.47517098
   0.08333333  0.58333333  0.38179910
   0.83333333  0.08333333  0.38179910
   0.83333333  0.33333333  0.38179910
   0.91705953  0.16417113  0.47759428
   0.08333333  0.33333333  0.38179910
   0.00003505  0.25974606  0.56539335
   0.66716767  0.66306254  0.47159473
   0.25950835  0.98069729  0.57558980
   0.33333333  0.33333333  0.38179910
   0.16888850  0.41196409  0.47685964
   0.41564257  0.91579734  0.47463917
   0.58333333  0.83333333  0.38179910
   0.16966445  0.66417930  0.47129783
   0.24738396  0.50430020  0.57132703
   0.16556457  0.91697210  0.47262640
   0.74988515  0.75173069  0.56967053
   0.58333333  0.08333333  0.38179910
   0.50081100  0.98925065  0.56507511
   0.33333333  0.08333333  0.38179910
   0.55095799  0.60723722  0.61347268
   0.86182622  0.58101449  0.61959194
   0.10574053  0.79411059  0.61075174
   0.57332412  0.09285577  0.61269532
   0.57614699  0.33756614  0.60903949
   0.83269772  0.08803780  0.61231551
   0.07796736  0.09459801  0.61596801
   0.31739992  0.11265487  0.61592611
   0.41943247  0.16497890  0.47594801
   0.25689249  0.74480073  0.56035275
   0.33333333  0.83333333  0.38179910
   0.75478415  0.25410317  0.56772753
   0.33333333  0.58333333  0.38179910
   0.24630827  0.26207001  0.56373505
   0.00084779  0.74175306  0.56332335
   0.41591332  0.41488369  0.47662167
   0.91697923  0.91709689  0.47451709
   0.08333333  0.83333333  0.38179910
   0.01074888  0.49695542  0.56729849
   0.66916918  0.91552743  0.47640139
   0.91803816  0.41425216  0.47560056
   0.00856495  0.98875509  0.57429912
   0.58333333  0.33333333  0.38179910
   0.08333333  0.08333333  0.38179910
   0.48477437  0.25753726  0.56568837
   0.41769824  0.66317874  0.47249643
   0.49933712  0.75146738  0.56270204
   0.48950500  0.50943009  0.56587236
   0.66334221  0.16755211  0.47443444
   0.58333333  0.58333333  0.38179910
   0.16947981  0.16365467  0.47503989
   0.83333333  0.58333333  0.38179910
Direct configuration=    10
   0.75448196  0.49629612  0.56916860
   0.75566358  0.98982399  0.56411478
   0.83333333  0.83333333  0.38179910
   0.66328656  0.41445716  0.47526732
   0.91624518  0.66494107  0.47548069
   0.08333333  0.58333333  0.38179910
   0.83333333  0.08333333  0.38179910
   0.83333333  0.33333333  0.38179910
   0.91712951  0.16380000  0.47788674
   0.08333333  0.33333333  0.38179910
  -0.00048948  0.25989972  0.56593287
   0.66741300  0.66270575  0.47167342
   0.26062452  0.98017050  0.57786178
   0.33333333  0.33333333  0.38179910
   0.16883709  0.41193154  0.47733820
   0.41594537  0.91548593  0.47499032
   0.58333333  0.83333333  0.38179910
   0.16961944  0.66421248  0.47147262
   0.24761847  0.50488055  0.57248490
   0.16561981  0.91710074  0.47273230
   0.74968414  0.75149173  0.57097126
   0.58333333  0.08333333  0.38179910
   0.50033945  0.98960534  0.56561082
   0.33333333  0.08333333  0.38179910
   0.54966328  0.60836933  0.61444223
   0.86251434  0.58150002  0.62089052
   0.10670255  0.79253222  0.61153777
   0.57298795  0.09348426  0.61328327
   0.57653507  0.33749438  0.60965409
   0.83217509  0.08804420  0.61306006
   0.07757134  0.09466498  0.61708622
   0.31617979  0.11430654  0.61678737
   0.41961628  0.16470549  0.47602794
   0.25615466  0.74566178  0.56045871
   0.33333333  0.83333333  0.38179910
   0.75465904  0.25439290  0.56834990
   0.33333333  0.58333333  0.38179910
   0.24634383  0.26115669  0.56407380
   0.00104517  0.74195440  0.56362669
   0.41605673  0.41484365  0.47704597
   0.91694083  0.91712335  0.47471166
   0.08333333  0.83333333  0.38179910
   0.01013819  0.49730979  0.56791765
   0.66913244  0.91523252  0.47679096
   0.91812912  0.41372079  0.47597509
   0.00961746  0.98692437  0.57569281
   0.58333333  0.33333333  0.38179910
   0.08333333  0.08333333  0.38179910
   0.48575649  0.25734871  0.56610701
   0.41756639  0.66308755  0.47238541
   0.49945842  0.75131254  0.56282244
   0.49035743  0.50883248  0.56629348
   0.66335906  0.16738850  0.47444794
   0.58333333  0.58333333  0.38179910
   0.16933576  0.16357648  0.47542604
   0.83333333  0.58333333  0.38179910
Direct configuration=    11
   0.75348999  0.49875188  0.57228122
   0.75538264  0.99072921  0.56575538
   0.83333333  0.83333333  0.38179910
   0.66401983  0.41351529  0.47560861
   0.91623912  0.66453610  0.47626501
   0.08333333  0.58333333  0.38179910
   0.83333333  0.08333333  0.38179910
   0.83333333  0.33333333  0.38179910
   0.91730672  0.16286014  0.47862738
   0.08333333  0.33333333  0.38179910
  -0.00181785  0.26028884  0.56729919
   0.66803429  0.66180219  0.47187270
   0.26345118  0.97883642  0.58361550
   0.33333333  0.33333333  0.38179910
   0.16870691  0.41184912  0.47855014
   0.41671221  0.91469728  0.47587960
   0.58333333  0.83333333  0.38179910
   0.16950548  0.66429652  0.47191526
   0.24821236  0.50635026  0.57541718
   0.16575970  0.91742652  0.47300048
   0.74917508  0.75088655  0.57426534
   0.58333333  0.08333333  0.38179910
   0.49914524  0.99050358  0.56696749
   0.33333333  0.08333333  0.38179910
   0.54638448  0.61123637  0.61689760
   0.86425698  0.58272960  0.62417916
   0.10913884  0.78853503  0.61352840
   0.57213663  0.09507590  0.61477224
   0.57751785  0.33731265  0.61121054
   0.83085155  0.08806042  0.61494560
   0.07656843  0.09483460  0.61991805
   0.31308984  0.11848934  0.61896848
   0.42008178  0.16401308  0.47623036
   0.25428613  0.74784238  0.56072703
   0.33333333  0.83333333  0.38179910
   0.75434220  0.25512663  0.56992603
   0.33333333  0.58333333  0.38179910
   0.24643390  0.25884374  0.56493168
   0.00154501  0.74246428  0.56439489
   0.41641990  0.41474226  0.47812051
   0.91684357  0.91719037  0.47520440
   0.08333333  0.83333333  0.38179910
   0.00859162  0.49820724  0.56948568
   0.66903941  0.91448566  0.47777754
   0.91835948  0.41237510  0.47692359
   0.01228292  0.98228811  0.57922229
   0.58333333  0.33333333  0.38179910
   0.08333333  0.08333333  0.38179910
   0.48824370  0.25687122  0.56716718
   0.41723249  0.66285662  0.47210424
   0.49976562  0.75092041  0.56312737
   0.49251618  0.50731906  0.56735996
   0.66340172  0.16697416  0.47448212
   0.58333333  0.58333333  0.38179910
   0.16897096  0.16337848  0.47640395
   0.83333333  0.58333333  0.38179910
Direct configuration=    12
   0.75282859  0.49924179  0.57296545
   0.75520732  0.99101399  0.56584840
   0.83333333  0.83333333  0.38179910
   0.66450345  0.41346474  0.47570108
   0.91593248  0.66487359  0.47653445
   0.08333333  0.58333333  0.38179910
   0.83333333  0.08333333  0.38179910
   0.83333333  0.33333333  0.38179910
   0.91710009  0.16281068  0.47873424
   0.08333333  0.33333333  0.38179910
  -0.00081334  0.25923772  0.56732760
   0.66840956  0.66135452  0.47212863
   0.26448300  0.97691022  0.58503892
   0.33333333  0.33333333  0.38179910
   0.16885207  0.41186924  0.47873796
   0.41665650  0.91471020  0.47612012
   0.58333333  0.83333333  0.38179910
   0.16925490  0.66439338  0.47201055
   0.24869014  0.50546513  0.57552086
   0.16601283  0.91737143  0.47295279
   0.74823982  0.75200577  0.57475451
   0.58333333  0.08333333  0.38179910
   0.50004224  0.99077067  0.56686711
   0.33333333  0.08333333  0.38179910
   0.54597056  0.61208528  0.61680874
   0.86459175  0.58280259  0.62439039
   0.10966436  0.78819637  0.61411559
   0.57231847  0.09514482  0.61512652
   0.57769170  0.33792559  0.61128382
   0.83067857  0.08836173  0.61524000
   0.07590263  0.09557356  0.62080282
   0.31235734  0.12003409  0.61948275
   0.41982504  0.16446794  0.47621512
   0.25494015  0.74811827  0.56087537
   0.33333333  0.83333333  0.38179910
   0.75416182  0.25450796  0.57034224
   0.33333333  0.58333333  0.38179910
   0.24664427  0.25760511  0.56512964
   0.00159832  0.74241596  0.56414893
   0.41641579  0.41467811  0.47821865
   0.91655519  0.91703513  0.47534027
   0.08333333  0.83333333  0.38179910
   0.00781551  0.49861609  0.56987217
   0.66933733  0.91414606  0.47815479
   0.91785235  0.41246704  0.47715829
   0.01043966  0.98282589  0.57999703
   0.58333333  0.33333333  0.38179910
   0.08333333  0.08333333  0.38179910
   0.48868802  0.25670740  0.56726675
   0.41727849  0.66291783  0.47209553
   0.49988112  0.75010396  0.56322871
   0.49308709  0.50715374  0.56778732
   0.66379623  0.16663459  0.47435938
   0.58333333  0.58333333  0.38179910
   0.16904320  0.16331433  0.47639830
   0.83333333  0.58333333  0.38179910
Direct configuration=    13
   0.75214802  0.49974591  0.57366951
   0.75502692  0.99130703  0.56594411
   0.83333333  0.83333333  0.38179910
   0.66500109  0.41341273  0.47579623
   0.91561696  0.66522085  0.47681171
   0.08333333  0.58333333  0.38179910
   0.83333333  0.08333333  0.38179910
   0.83333333  0.33333333  0.38179910
   0.91688747  0.16275978  0.47884420
   0.08333333  0.33333333  0.38179910
   0.00022029  0.25815615  0.56735683
   0.66879571  0.66089388  0.47239197
   0.26554473  0.97492819  0.58650359
   0.33333333  0.33333333  0.38179910
   0.16900144  0.41188993  0.47893123
   0.41659918  0.91472351  0.47636762
   0.58333333  0.83333333  0.38179910
   0.16899705  0.66449304  0.47210861
   0.24918178  0.50455434  0.57562754
   0.16627331  0.91731473  0.47290371
   0.74727745  0.75315743  0.57525786
   0.58333333  0.08333333  0.38179910
   0.50096524  0.99104551  0.56676383
   0.33333333  0.08333333  0.38179910
   0.54554463  0.61295881  0.61671731
   0.86493623  0.58287769  0.62460775
   0.11020511  0.78784790  0.61471980
   0.57250558  0.09521574  0.61549107
   0.57787058  0.33855629  0.61135923
   0.83050057  0.08867177  0.61554293
   0.07521753  0.09633394  0.62171323
   0.31160361  0.12162361  0.62001193
   0.41956086  0.16493599  0.47619943
   0.25561312  0.74840215  0.56102800
   0.33333333  0.83333333  0.38179910
   0.75397620  0.25387136  0.57077052
   0.33333333  0.58333333  0.38179910
   0.24686075  0.25633058  0.56533334
   0.00165318  0.74236624  0.56389584
   0.41641155  0.41461211  0.47831965
   0.91625846  0.91687539  0.47548007
   0.08333333  0.83333333  0.38179910
   0.00701691  0.49903678  0.57026987
   0.66964388  0.91379661  0.47854297
   0.91733053  0.41256166  0.47739979
   0.00854297  0.98337927  0.58079422
   0.58333333  0.33333333  0.38179910
   0.08333333  0.08333333  0.38179910
   0.48914522  0.25653883  0.56736921
   0.41732583  0.66298081  0.47208657
   0.49999996  0.74926384  0.56333298
   0.49367454  0.50698363  0.56822706
   0.66420217  0.16628518  0.47423309
   0.58333333  0.58333333  0.38179910
   0.16911753  0.16324833  0.47639249
   0.83333333  0.58333333  0.38179910
Direct configuration=    14
   0.75252497  0.49915178  0.57429844
   0.75486326  0.99163400  0.56585871
   0.83333333  0.83333333  0.38179910
   0.66524633  0.41339215  0.47596036
   0.91535780  0.66534999  0.47708248
   0.08333333  0.58333333  0.38179910
   0.83333333  0.08333333  0.38179910
   0.83333333  0.33333333  0.38179910
   0.91679829  0.16258792  0.47894863
   0.08333333  0.33333333  0.38179910
   0.00134263  0.25669887  0.56726307
   0.66902226  0.66066124  0.47272766
   0.26658796  0.97305038  0.58835919
   0.33333333  0.33333333  0.38179910
   0.16884143  0.41200184  0.47914058
   0.41666216  0.91480947  0.47667533
   0.58333333  0.83333333  0.38179910
   0.16886444  0.66461642  0.47221039
   0.24949680  0.50343058  0.57535432
   0.16636532  0.91719834  0.47284262
   0.74644491  0.75423266  0.57571943
   0.58333333  0.08333333  0.38179910
   0.50087314  0.99141347  0.56640629
   0.33333333  0.08333333  0.38179910
   0.54551401  0.61344043  0.61690430
   0.86483178  0.58311505  0.62466697
   0.11054157  0.78775506  0.61491405
   0.57282299  0.09524837  0.61589271
   0.57772004  0.33904040  0.61161878
   0.82936598  0.08938921  0.61628360
   0.07466887  0.09684526  0.62249501
   0.31087739  0.12270982  0.62061944
   0.41932770  0.16545080  0.47616127
   0.25533812  0.74882831  0.56144273
   0.33333333  0.83333333  0.38179910
   0.75436197  0.25349935  0.57085677
   0.33333333  0.58333333  0.38179910
   0.24706242  0.25534483  0.56532683
   0.00248603  0.74219629  0.56371498
   0.41657411  0.41465011  0.47834484
   0.91607476  0.91679528  0.47557050
   0.08333333  0.83333333  0.38179910
   0.00680579  0.49890390  0.57051136
   0.66985704  0.91354585  0.47883015
   0.91704022  0.41270370  0.47772333