  56  56   0   0
  0.4903395E+02  0.1100258E-08  0.1100258E-08  0.2619179E-08  0.3500000E-15
  1.000000000000000E-004
  CAR 
 unknown system                          
      6.48055176    -21.49378620  301     -1.41071058      1.00000000
    -21.494  0.0000E+00  0.0000E+00
    -21.401  0.0000E+00  0.0000E+00
    -21.307  0.0000E+00  0.0000E+00
    -21.214  0.0000E+00  0.0000E+00
    -21.121  0.0000E+00  0.0000E+00
    -21.028  0.0000E+00  0.0000E+00
    -20.934  0.0000E+00  0.0000E+00
    -20.841  0.0000E+00  0.0000E+00
    -20.748  0.2204E-14  0.2055E-15
    -20.655  0.2024E-10  0.1888E-11
    -20.561  0.3403E-07  0.3175E-08
    -20.468  0.1068E-04  0.9987E-06
    -20.375  0.6472E-03  0.6135E-04
    -20.282  0.8113E-02  0.8179E-03
    -20.188  0.2569E-01  0.3214E-02
    -20.095  0.3904E-01  0.6854E-02
    -20.002  0.3956E-01  0.1054E-01
    -19.909  0.1478E-01  0.1192E-01
    -19.815  0.1037E-01  0.1289E-01
    -19.722  0.3601E-01  0.1625E-01
    -19.629  0.3306E-01  0.1933E-01
    -19.536  0.9083E-02  0.2018E-01
    -19.442  0.1429E-01  0.2151E-01
    -19.349  0.2000E-01  0.2337E-01
    -19.256  0.7448E-02  0.2407E-01
    -19.163  0.1128E-01  0.2512E-01
    -19.069  0.2716E-01  0.2765E-01
    -18.976  0.2923E-01  0.3038E-01
    -18.883  0.1509E-01  0.3178E-01
    -18.790  0.2234E-02  0.3199E-01
    -18.696  0.7189E-04  0.3200E-01
    -18.603  0.4573E-06  0.3200E-01
    -18.510  0.5499E-09  0.3200E-01
    -18.417  0.1219E-12  0.3200E-01
    -18.323  0.5556E-17  0.3200E-01
    -18.230  0.0000E+00  0.3200E-01
    -18.137  0.0000E+00  0.3200E-01
    -18.044  0.0000E+00  0.3200E-01
    -17.950  0.0000E+00  0.3200E-01
    -17.857  0.0000E+00  0.3200E-01
    -17.764  0.0000E+00  0.3200E-01
    -17.671  0.0000E+00  0.3200E-01
    -17.577  0.0000E+00  0.3200E-01
    -17.484  0.0000E+00  0.3200E-01
    -17.391  0.0000E+00  0.3200E-01
    -17.298  0.0000E+00  0.3200E-01
    -17.204  0.0000E+00  0.3200E-01
    -17.111  0.0000E+00  0.3200E-01
    -17.018  0.0000E+00  0.3200E-01
    -16.925  0.0000E+00  0.3200E-01
    -16.831  0.0000E+00  0.3200E-01
    -16.738  0.0000E+00  0.3200E-01
    -16.645  0.0000E+00  0.3200E-01
    -16.552  0.0000E+00  0.3200E-01
    -16.458  0.0000E+00  0.3200E-01
    -16.365  0.0000E+00  0.3200E-01
    -16.272  0.0000E+00  0.3200E-01
    -16.179  0.0000E+00  0.3200E-01
    -16.085  0.0000E+00  0.3200E-01
    -15.992  0.0000E+00  0.3200E-01
    -15.899  0.0000E+00  0.3200E-01
    -15.806  0.0000E+00  0.3200E-01
    -15.712  0.0000E+00  0.3200E-01
    -15.619  0.0000E+00  0.3200E-01
    -15.526  0.0000E+00  0.3200E-01
    -15.433  0.0000E+00  0.3200E-01
    -15.339  0.0000E+00  0.3200E-01
    -15.246  0.0000E+00  0.3200E-01
    -15.153  0.0000E+00  0.3200E-01
    -15.060  0.0000E+00  0.3200E-01
    -14.966  0.0000E+00  0.3200E-01
    -14.873  0.0000E+00  0.3200E-01
    -14.780  0.0000E+00  0.3200E-01
    -14.687  0.0000E+00  0.3200E-01
    -14.593  0.0000E+00  0.3200E-01
    -14.500  0.0000E+00  0.3200E-01
    -14.407  0.0000E+00  0.3200E-01
    -14.314  0.0000E+00  0.3200E-01
    -14.220  0.0000E+00  0.3200E-01
    -14.127  0.0000E+00  0.3200E-01
    -14.034  0.0000E+00  0.3200E-01
    -13.941  0.0000E+00  0.3200E-01
    -13.847  0.0000E+00  0.3200E-01
    -13.754  0.0000E+00  0.3200E-01
    -13.661  0.0000E+00  0.3200E-01
    -13.568  0.0000E+00  0.3200E-01
    -13.474  0.0000E+00  0.3200E-01
    -13.381  0.0000E+00  0.3200E-01
    -13.288  0.0000E+00  0.3200E-01
    -13.195  0.0000E+00  0.3200E-01
    -13.101  0.0000E+00  0.3200E-01
    -13.008  0.0000E+00  0.3200E-01
    -12.915  0.0000E+00  0.3200E-01
    -12.822  0.0000E+00  0.3200E-01
    -12.728  0.0000E+00  0.3200E-01
    -12.635  0.0000E+00  0.3200E-01
    -12.542  0.0000E+00  0.3200E-01
    -12.449  0.0000E+00  0.3200E-01
    -12.356  0.0000E+00  0.3200E-01
    -12.262  0.0000E+00  0.3200E-01
    -12.169  0.0000E+00  0.3200E-01
    -12.076  0.0000E+00  0.3200E-01
    -11.983  0.0000E+00  0.3200E-01
    -11.889  0.0000E+00  0.3200E-01
    -11.796  0.0000E+00  0.3200E-01
    -11.703  0.0000E+00  0.3200E-01
    -11.610  0.0000E+00  0.3200E-01
    -11.516  0.0000E+00  0.3200E-01
    -11.423  0.0000E+00  0.3200E-01
    -11.330  0.0000E+00  0.3200E-01
    -11.237  0.0000E+00  0.3200E-01
    -11.143  0.0000E+00  0.3200E-01
    -11.050  0.0000E+00  0.3200E-01
    -10.957  0.0000E+00  0.3200E-01
    -10.864  0.0000E+00  0.3200E-01
    -10.770  0.0000E+00  0.3200E-01
    -10.677  0.0000E+00  0.3200E-01
    -10.584  0.0000E+00  0.3200E-01
    -10.491  0.0000E+00  0.3200E-01
    -10.397  0.0000E+00  0.3200E-01
    -10.304  0.0000E+00  0.3200E-01
    -10.211  0.0000E+00  0.3200E-01
    -10.118  0.0000E+00  0.3200E-01
    -10.024  0.0000E+00  0.3200E-01
     -9.931  0.0000E+00  0.3200E-01
     -9.838  0.0000E+00  0.3200E-01
     -9.745  0.0000E+00  0.3200E-01
     -9.651  0.7842E-15  0.3200E-01
     -9.558  0.7535E-11  0.3200E-01
     -9.465  0.1331E-07  0.3200E-01
     -9.372  0.4408E-05  0.3200E-01
     -9.278  0.2823E-03  0.3203E-01
     -9.185  0.3688E-02  0.3237E-01
     -9.092  0.1099E-01  0.3340E-01
     -8.999  0.1225E-01  0.3454E-01
     -8.905  0.1120E-01  0.3558E-01
     -8.812  0.4152E-02  0.3597E-01
     -8.719  0.1204E-02  0.3608E-01
     -8.626  0.6346E-02  0.3667E-01
     -8.532  0.1229E-01  0.3782E-01
     -8.439  0.1262E-01  0.3900E-01
     -8.346  0.1533E-01  0.4042E-01
     -8.253  0.2192E-01  0.4247E-01
     -8.159  0.2571E-01  0.4487E-01
     -8.066  0.3564E-01  0.4819E-01
     -7.973  0.5294E-01  0.5313E-01
     -7.880  0.6548E-01  0.5923E-01
     -7.786  0.6030E-01  0.6485E-01
     -7.693  0.5662E-01  0.7013E-01
     -7.600  0.6127E-01  0.7585E-01
     -7.507  0.6463E-01  0.8187E-01
     -7.413  0.7118E-01  0.8851E-01
     -7.320  0.8849E-01  0.9676E-01
     -7.227  0.1035E+00  0.1064E+00
     -7.134  0.1107E+00  0.1167E+00
     -7.040  0.1317E+00  0.1290E+00
     -6.947  0.1476E+00  0.1428E+00
     -6.854  0.1522E+00  0.1570E+00
     -6.761  0.1506E+00  0.1710E+00
     -6.667  0.1447E+00  0.1845E+00
     -6.574  0.1450E+00  0.1980E+00
     -6.481  0.1472E+00  0.2118E+00
     -6.388  0.1516E+00  0.2259E+00
     -6.294  0.1609E+00  0.2409E+00
     -6.201  0.1740E+00  0.2571E+00
     -6.108  0.1722E+00  0.2732E+00
     -6.015  0.1648E+00  0.2886E+00
     -5.921  0.1572E+00  0.3032E+00
     -5.828  0.1576E+00  0.3179E+00
     -5.735  0.1616E+00  0.3330E+00
     -5.642  0.1621E+00  0.3481E+00
     -5.548  0.1662E+00  0.3636E+00
     -5.455  0.1691E+00  0.3794E+00
     -5.362  0.1733E+00  0.3955E+00
     -5.269  0.1797E+00  0.4123E+00
     -5.175  0.1756E+00  0.4287E+00
     -5.082  0.1737E+00  0.4449E+00
     -4.989  0.1808E+00  0.4617E+00
     -4.896  0.1792E+00  0.4784E+00
     -4.802  0.1752E+00  0.4948E+00
     -4.709  0.1759E+00  0.5112E+00
     -4.616  0.1855E+00  0.5285E+00
     -4.523  0.1947E+00  0.5466E+00
     -4.429  0.1876E+00  0.5641E+00
     -4.336  0.1835E+00  0.5812E+00
     -4.243  0.1883E+00  0.5988E+00
     -4.150  0.1873E+00  0.6163E+00
     -4.056  0.1900E+00  0.6340E+00
     -3.963  0.1913E+00  0.6518E+00
     -3.870  0.1839E+00  0.6690E+00
     -3.777  0.1787E+00  0.6856E+00
     -3.683  0.1814E+00  0.7025E+00
     -3.590  0.1831E+00  0.7196E+00
     -3.497  0.1837E+00  0.7367E+00
     -3.404  0.1820E+00  0.7537E+00
     -3.310  0.1757E+00  0.7701E+00
     -3.217  0.1766E+00  0.7866E+00
     -3.124  0.1818E+00  0.8035E+00
     -3.031  0.1845E+00  0.8207E+00
     -2.937  0.1867E+00  0.8381E+00
     -2.844  0.1816E+00  0.8551E+00
     -2.751  0.1755E+00  0.8714E+00
     -2.658  0.1799E+00  0.8882E+00
     -2.564  0.1835E+00  0.9053E+00
     -2.471  0.1838E+00  0.9225E+00
     -2.378  0.1920E+00  0.9404E+00
     -2.285  0.2025E+00  0.9592E+00
     -2.191  0.2093E+00  0.9788E+00
     -2.098  0.2107E+00  0.9984E+00
     -2.005  0.2062E+00  0.1018E+01
     -1.912  0.2017E+00  0.1036E+01
     -1.819  0.1806E+00  0.1053E+01
     -1.725  0.1564E+00  0.1068E+01
     -1.632  0.1374E+00  0.1081E+01
     -1.539  0.1164E+00  0.1092E+01
     -1.446  0.9984E-01  0.1101E+01
     -1.352  0.8536E-01  0.1109E+01
     -1.259  0.6531E-01  0.1115E+01
     -1.166  0.5944E-01  0.1120E+01
     -1.073  0.5330E-01  0.1125E+01
     -0.979  0.4858E-01  0.1130E+01
     -0.886  0.4652E-01  0.1134E+01
     -0.793  0.3900E-01  0.1138E+01
     -0.700  0.4364E-01  0.1142E+01
     -0.606  0.5375E-01  0.1147E+01
     -0.513  0.5085E-01  0.1152E+01
     -0.420  0.4742E-01  0.1156E+01
     -0.327  0.4041E-01  0.1160E+01
     -0.233  0.2919E-01  0.1163E+01
     -0.140  0.2325E-01  0.1165E+01
     -0.047  0.2850E-01  0.1167E+01
      0.046  0.2577E-01  0.1170E+01
      0.140  0.2033E-01  0.1172E+01
      0.233  0.2498E-01  0.1174E+01
      0.326  0.3394E-01  0.1177E+01
      0.419  0.3749E-01  0.1181E+01
      0.513  0.3946E-01  0.1184E+01
      0.606  0.3885E-01  0.1188E+01
      0.699  0.3475E-01  0.1191E+01
      0.792  0.3074E-01  0.1194E+01
      0.886  0.3316E-01  0.1197E+01
      0.979  0.3028E-01  0.1200E+01
      1.072  0.2706E-01  0.1203E+01
      1.165  0.2348E-01  0.1205E+01
      1.259  0.2513E-01  0.1207E+01
      1.352  0.2333E-01  0.1209E+01
      1.445  0.1755E-01  0.1211E+01
      1.538  0.2428E-01  0.1213E+01
      1.632  0.3467E-01  0.1216E+01
      1.725  0.3966E-01  0.1220E+01
      1.818  0.3414E-01  0.1223E+01
      1.911  0.2875E-01  0.1226E+01
      2.005  0.3114E-01  0.1229E+01
      2.098  0.3178E-01  0.1232E+01
      2.191  0.2925E-01  0.1235E+01
      2.284  0.3222E-01  0.1238E+01
      2.378  0.3563E-01  0.1241E+01
      2.471  0.2560E-01  0.1243E+01
      2.564  0.2109E-01  0.1245E+01
      2.657  0.2816E-01  0.1248E+01
      2.751  0.2688E-01  0.1250E+01
      2.844  0.2306E-01  0.1253E+01
      2.937  0.2449E-01  0.1255E+01
      3.030  0.2700E-01  0.1257E+01
      3.124  0.3004E-01  0.1260E+01
      3.217  0.3164E-01  0.1263E+01
      3.310  0.3300E-01  0.1266E+01
      3.403  0.3760E-01  0.1270E+01
      3.497  0.3754E-01  0.1273E+01
      3.590  0.3541E-01  0.1276E+01
      3.683  0.2872E-01  0.1279E+01
      3.776  0.2792E-01  0.1282E+01
      3.870  0.3076E-01  0.1285E+01
      3.963  0.3273E-01  0.1288E+01
      4.056  0.4109E-01  0.1292E+01
      4.149  0.3736E-01  0.1295E+01
      4.243  0.3020E-01  0.1298E+01
      4.336  0.2946E-01  0.1301E+01
      4.429  0.3442E-01  0.1304E+01
      4.522  0.4070E-01  0.1308E+01
      4.616  0.4782E-01  0.1312E+01
      4.709  0.4852E-01  0.1317E+01
      4.802  0.5434E-01  0.1322E+01
      4.895  0.5928E-01  0.1327E+01
      4.989  0.5768E-01  0.1333E+01
      5.082  0.5290E-01  0.1337E+01
      5.175  0.4452E-01  0.1342E+01
      5.268  0.2162E-01  0.1344E+01
      5.362  0.3779E-02  0.1344E+01
      5.455  0.1891E-03  0.1344E+01
      5.548  0.2368E-05  0.1344E+01
      5.641  0.6573E-08  0.1344E+01
      5.735  0.3675E-11  0.1344E+01
      5.828  0.3897E-15  0.1344E+01
      5.921  0.0000E+00  0.1344E+01
      6.014  0.0000E+00  0.1344E+01
      6.108  0.0000E+00  0.1344E+01
      6.201  0.0000E+00  0.1344E+01
      6.294  0.0000E+00  0.1344E+01
      6.387  0.0000E+00  0.1344E+01
      6.481  0.0000E+00  0.1344E+01
