       N       E                     dE             d eps       ncg     rms          rms(c)
DAV:   1     0.319952942527E+04    0.31995E+04   -0.18974E+05  3672   0.112E+03
DAV:   2     0.135758331764E+02   -0.31860E+04   -0.29288E+04  4416   0.263E+02
DAV:   3    -0.199972217032E+03   -0.21355E+03   -0.19850E+03  4116   0.650E+01
DAV:   4    -0.205636083487E+03   -0.56639E+01   -0.56049E+01  4200   0.108E+01
DAV:   5    -0.205835740247E+03   -0.19966E+00   -0.19912E+00  4440   0.203E+00    0.628E+01
RMM:   6    -0.201082440948E+03    0.47533E+01   -0.97266E+01  3678   0.153E+01    0.576E+01
RMM:   7    -0.213908048963E+03   -0.12826E+02   -0.56555E+01  3681   0.120E+01    0.489E+01
RMM:   8    -0.224467947333E+03   -0.10560E+02   -0.90188E+01  3678   0.143E+01    0.472E+01
RMM:   9    -0.215622565397E+03    0.88454E+01   -0.72814E+01  3681   0.132E+01    0.410E+01
RMM:  10    -0.199311578513E+03    0.16311E+02   -0.23636E+01  3683   0.827E+00    0.244E+01
RMM:  11    -0.191438498876E+03    0.78731E+01   -0.14139E+01  3679   0.609E+00    0.136E+01
RMM:  12    -0.188554984925E+03    0.28835E+01   -0.75735E+00  3679   0.422E+00    0.961E+00
RMM:  13    -0.187866926812E+03    0.68806E+00   -0.21345E+00  3681   0.231E+00    0.618E+00
RMM:  14    -0.188048024568E+03   -0.18110E+00   -0.79392E-01  3679   0.139E+00    0.624E+00
RMM:  15    -0.187979495059E+03    0.68530E-01   -0.43193E-01  3679   0.101E+00    0.583E+00
RMM:  16    -0.187745423370E+03    0.23407E+00   -0.27565E-01  3678   0.805E-01    0.420E+00
RMM:  17    -0.187633564254E+03    0.11186E+00   -0.17779E-01  3680   0.646E-01    0.285E+00
RMM:  18    -0.187565861397E+03    0.67703E-01   -0.11879E-01  3679   0.515E-01    0.188E+00
RMM:  19    -0.187530641056E+03    0.35220E-01   -0.35792E-02  3680   0.288E-01    0.876E-01
RMM:  20    -0.187526168982E+03    0.44721E-02   -0.85956E-03  3682   0.139E-01    0.665E-01
RMM:  21    -0.187523508336E+03    0.26606E-02   -0.27411E-03  3679   0.777E-02    0.516E-01
RMM:  22    -0.187522788357E+03    0.71998E-03   -0.22628E-03  3681   0.736E-02    0.452E-01
RMM:  23    -0.187520739685E+03    0.20487E-02   -0.27957E-03  3678   0.762E-02    0.256E-01
RMM:  24    -0.187520192771E+03    0.54691E-03   -0.89463E-04  3679   0.437E-02    0.983E-02
RMM:  25    -0.187520326333E+03   -0.13356E-03   -0.30873E-04  3681   0.250E-02    0.786E-02
RMM:  26    -0.187520650932E+03   -0.32460E-03   -0.15550E-04  3678   0.168E-02    0.700E-02
RMM:  27    -0.187520946294E+03   -0.29536E-03   -0.57026E-05  3672   0.114E-02    0.513E-02
RMM:  28    -0.187521340384E+03   -0.39409E-03   -0.49699E-05  3672   0.103E-02    0.359E-02
RMM:  29    -0.187522081469E+03   -0.74109E-03   -0.58823E-05  3672   0.110E-02    0.225E-02
RMM:  30    -0.187522524024E+03   -0.44255E-03   -0.25873E-05  3573   0.666E-03    0.189E-02
RMM:  31    -0.187523379997E+03   -0.85597E-03   -0.60756E-05  3668   0.101E-02    0.156E-02
RMM:  32    -0.187523542732E+03   -0.16274E-03   -0.13587E-05  3011   0.445E-03    0.114E-02
RMM:  33    -0.187523703633E+03   -0.16090E-03   -0.86983E-06  2849   0.386E-03    0.778E-03
RMM:  34    -0.187523760014E+03   -0.56381E-04   -0.19550E-06  2305   0.188E-03    0.515E-03
RMM:  35    -0.187523850189E+03   -0.90175E-04   -0.18428E-06  2318   0.184E-03    0.234E-03
RMM:  36    -0.187523897006E+03   -0.46817E-04   -0.92679E-07  2164   0.129E-03    0.241E-03
RMM:  37    -0.187523924822E+03   -0.27816E-04   -0.59029E-07  2135   0.106E-03    0.161E-03
RMM:  38    -0.187523939382E+03   -0.14560E-04   -0.33629E-07  1832   0.772E-04    0.154E-03
RMM:  39    -0.187523944484E+03   -0.51018E-05   -0.21238E-07  1695   0.634E-04    0.108E-03
RMM:  40    -0.187523946121E+03   -0.16365E-05   -0.59546E-08  1058   0.384E-04    0.512E-04
RMM:  41    -0.187523947291E+03   -0.11701E-05   -0.26720E-08   767   0.356E-04    0.360E-04
RMM:  42    -0.187523948282E+03   -0.99139E-06   -0.45760E-08   927   0.390E-04
   1 F= -.18752395E+03 E0= -.18739712E+03  d E =-.187524E+03
       N       E                     dE             d eps       ncg     rms          rms(c)
DAV:   1    -0.188199264830E+03   -0.67532E+00   -0.24772E+02  3696   0.241E+01    0.286E+00
RMM:   2    -0.188467256738E+03   -0.26799E+00   -0.26215E+00  3684   0.347E+00    0.227E+00
RMM:   3    -0.188725519957E+03   -0.25826E+00   -0.30007E-01  3710   0.905E-01    0.456E+00
RMM:   4    -0.188454559320E+03    0.27096E+00   -0.14899E-01  3684   0.600E-01    0.162E+00
RMM:   5    -0.188449572106E+03    0.49872E-02   -0.73885E-02  3680   0.433E-01    0.127E+00
RMM:   6    -0.188439440102E+03    0.10132E-01   -0.24985E-02  3683   0.260E-01    0.756E-01
RMM:   7    -0.188435538545E+03    0.39016E-02   -0.88107E-03  3682   0.150E-01    0.511E-01
RMM:   8    -0.188433346219E+03    0.21923E-02   -0.31473E-03  3680   0.885E-02    0.234E-01
RMM:   9    -0.188432789465E+03    0.55675E-03   -0.13375E-03  3683   0.578E-02    0.127E-01
RMM:  10    -0.188432684832E+03    0.10463E-03   -0.56342E-04  3686   0.365E-02    0.100E-01
RMM:  11    -0.188432589544E+03    0.95287E-04   -0.15171E-04  3686   0.196E-02    0.425E-02
RMM:  12    -0.188432591714E+03   -0.21696E-05   -0.36059E-05  3680   0.957E-03    0.360E-02
RMM:  13    -0.188432580937E+03    0.10777E-04   -0.17241E-05  3670   0.679E-03    0.151E-02
RMM:  14    -0.188432580827E+03    0.10906E-06   -0.71770E-06  3101   0.430E-03
   2 F= -.18843258E+03 E0= -.18830606E+03  d E =-.908633E+00
       N       E                     dE             d eps       ncg     rms          rms(c)
DAV:   1    -0.187845225557E+03    0.58736E+00   -0.13692E+03  3672   0.572E+01    0.535E+00
RMM:   2    -0.189255827529E+03   -0.14106E+01   -0.14343E+01  3682   0.814E+00    0.373E+00
RMM:   3    -0.190050323689E+03   -0.79450E+00   -0.11705E+00  3711   0.181E+00    0.751E+00
RMM:   4    -0.189218408493E+03    0.83192E+00   -0.47953E-01  3689   0.108E+00    0.322E+00
RMM:   5    -0.189178541136E+03    0.39867E-01   -0.21483E-01  3683   0.736E-01    0.233E+00
RMM:   6    -0.189157178724E+03    0.21362E-01   -0.12954E-01  3683   0.583E-01    0.161E+00
RMM:   7    -0.189146140920E+03    0.11038E-01   -0.53543E-02  3680   0.366E-01    0.135E+00
RMM:   8    -0.189129639460E+03    0.16501E-01   -0.19339E-02  3682   0.223E-01    0.557E-01
RMM:   9    -0.189126428793E+03    0.32107E-02   -0.70780E-03  3681   0.132E-01    0.329E-01
RMM:  10    -0.189125790606E+03    0.63819E-03   -0.28419E-03  3683   0.814E-02    0.262E-01
RMM:  11    -0.189125166995E+03    0.62361E-03   -0.92079E-04  3685   0.474E-02    0.119E-01
RMM:  12    -0.189125142787E+03    0.24208E-04   -0.31816E-04  3684   0.284E-02    0.835E-02
RMM:  13    -0.189125098256E+03    0.44530E-04   -0.14791E-04  3681   0.196E-02    0.432E-02
RMM:  14    -0.189125092507E+03    0.57492E-05   -0.43570E-05  3678   0.107E-02    0.247E-02
RMM:  15    -0.189125091366E+03    0.11411E-05   -0.13754E-05  3645   0.602E-03    0.135E-02
RMM:  16    -0.189125095563E+03   -0.41968E-05   -0.46089E-06  2865   0.348E-03    0.956E-03
RMM:  17    -0.189125099081E+03   -0.35177E-05   -0.17410E-06  2152   0.232E-03    0.509E-03
RMM:  18    -0.189125103411E+03   -0.43307E-05   -0.61425E-07  2057   0.135E-03    0.365E-03
RMM:  19    -0.189125106495E+03   -0.30842E-05   -0.23494E-07  1813   0.844E-04    0.188E-03
RMM:  20    -0.189125109949E+03   -0.34537E-05   -0.94887E-08  1348   0.504E-04    0.136E-03
RMM:  21    -0.189125113377E+03   -0.34282E-05   -0.83040E-08  1288   0.481E-04    0.128E-03
RMM:  22    -0.189125119952E+03   -0.65751E-05   -0.20879E-07  1735   0.628E-04    0.212E-03
RMM:  23    -0.189125123581E+03   -0.36285E-05   -0.14428E-07  1392   0.486E-04    0.179E-03
RMM:  24    -0.189125127188E+03   -0.36072E-05   -0.16329E-07  1330   0.496E-04    0.887E-04
RMM:  25    -0.189125128423E+03   -0.12354E-05   -0.45401E-08   799   0.395E-04    0.678E-04
RMM:  26    -0.189125129898E+03   -0.14744E-05   -0.11646E-07  1324   0.450E-04    0.400E-04
RMM:  27    -0.189125130470E+03   -0.57182E-06   -0.30917E-08   676   0.328E-04
   3 F= -.18912513E+03 E0= -.18899960E+03  d E =-.160118E+01
       N       E                     dE             d eps       ncg     rms          rms(c)
DAV:   1    -0.189511511337E+03   -0.38638E+00   -0.46165E+02  3672   0.331E+01    0.245E+00
RMM:   2    -0.190009219963E+03   -0.49771E+00   -0.46565E+00  3683   0.470E+00    0.256E+00
RMM:   3    -0.190144763518E+03   -0.13554E+00   -0.34656E-01  3718   0.101E+00    0.416E+00
RMM:   4    -0.189948957273E+03    0.19581E+00   -0.67982E-02  3677   0.449E-01    0.146E+00
RMM:   5    -0.189946730079E+03    0.22272E-02   -0.52675E-02  3683   0.370E-01    0.139E+00
RMM:   6    -0.189938386235E+03    0.83438E-02   -0.57028E-02  3685   0.379E-01    0.101E+00
RMM:   7    -0.189931290519E+03    0.70957E-02   -0.15498E-02  3684   0.200E-01    0.655E-01
RMM:   8    -0.189927508303E+03    0.37822E-02   -0.47147E-03  3681   0.108E-01    0.360E-01
RMM:   9    -0.189926289462E+03    0.12188E-02   -0.18849E-03  3681   0.697E-02    0.162E-01
RMM:  10    -0.189926172977E+03    0.11648E-03   -0.57205E-04  3685   0.373E-02    0.149E-01
RMM:  11    -0.189925998807E+03    0.17417E-03   -0.20685E-04  3684   0.228E-02    0.846E-02
RMM:  12    -0.189925951348E+03    0.47458E-04   -0.18135E-04  3683   0.209E-02    0.529E-02
RMM:  13    -0.189925930916E+03    0.20432E-04   -0.67468E-05  3682   0.130E-02    0.200E-02
RMM:  14    -0.189925931790E+03   -0.87352E-06   -0.10460E-05  3639   0.513E-03    0.132E-02
RMM:  15    -0.189925930852E+03    0.93820E-06   -0.23849E-06  2353   0.266E-03
   4 F= -.18992593E+03 E0= -.18980279E+03  d E =-.800800E+00
       N       E                     dE             d eps       ncg     rms          rms(c)
DAV:   1    -0.187158178932E+03    0.27678E+01   -0.43984E+03  3672   0.106E+02    0.636E+00
RMM:   2    -0.191178007158E+03   -0.40198E+01   -0.41404E+01  3683   0.142E+01    0.445E+00
RMM:   3    -0.191778990456E+03   -0.60098E+00   -0.20114E+00  3708   0.247E+00    0.778E+00
RMM:   4    -0.191016795109E+03    0.76220E+00   -0.36930E-01  3685   0.101E+00    0.368E+00
RMM:   5    -0.190982787100E+03    0.34008E-01   -0.23132E-01  3683   0.765E-01    0.353E+00
RMM:   6    -0.190913635094E+03    0.69152E-01   -0.44743E-01  3681   0.105E+00    0.272E+00
RMM:   7    -0.190903974719E+03    0.96604E-02   -0.22197E-01  3681   0.747E-01    0.239E+00
RMM:   8    -0.190847753113E+03    0.56222E-01   -0.57983E-02  3685   0.390E-01    0.934E-01
RMM:   9    -0.190840384291E+03    0.73688E-02   -0.16329E-02  3682   0.202E-01    0.672E-01
RMM:  10    -0.190836853631E+03    0.35307E-02   -0.60222E-03  3682   0.125E-01    0.467E-01
RMM:  11    -0.190835119346E+03    0.17343E-02   -0.48341E-03  3682   0.108E-01    0.288E-01
RMM:  12    -0.190834596323E+03    0.52302E-03   -0.29161E-03  3681   0.843E-02    0.189E-01
RMM:  13    -0.190834378898E+03    0.21742E-03   -0.76539E-04  3681   0.439E-02    0.115E-01
RMM:  14    -0.190834232869E+03    0.14603E-03   -0.18037E-04  3684   0.219E-02    0.350E-02
RMM:  15    -0.190834228567E+03    0.43022E-05   -0.34256E-05  3679   0.934E-03    0.263E-02
RMM:  16    -0.190834225059E+03    0.35082E-05   -0.18174E-05  3674   0.682E-03    0.982E-03
RMM:  17    -0.190834230017E+03   -0.49581E-05   -0.44437E-06  2796   0.341E-03    0.714E-03
RMM:  18    -0.190834233608E+03   -0.35911E-05   -0.11631E-06  2078   0.199E-03    0.264E-03
RMM:  19    -0.190834237035E+03   -0.34269E-05   -0.36468E-07  2028   0.102E-03    0.246E-03
RMM:  20    -0.190834240811E+03   -0.37762E-05   -0.21208E-07  2046   0.751E-04    0.123E-03
RMM:  21    -0.190834243565E+03   -0.27543E-05   -0.70744E-08  1028   0.436E-04    0.813E-04
RMM:  22    -0.190834246026E+03   -0.24606E-05   -0.46241E-08   874   0.428E-04    0.719E-04
RMM:  23    -0.190834249840E+03   -0.38141E-05   -0.18305E-07  1742   0.568E-04    0.882E-04
RMM:  24    -0.190834251672E+03   -0.18325E-05   -0.76671E-08  1070   0.406E-04    0.566E-04
RMM:  25    -0.190834252999E+03   -0.13269E-05   -0.69166E-08   866   0.383E-04    0.428E-04
RMM:  26    -0.190834253676E+03   -0.67698E-06   -0.56141E-08   818   0.391E-04
   5 F= -.19083425E+03 E0= -.19071714E+03  d E =-.170912E+01
       N       E                     dE             d eps       ncg     rms          rms(c)
DAV:   1    -0.190508490180E+03    0.32576E+00   -0.82525E+02  3672   0.447E+01    0.319E+00
RMM:   2    -0.191397602564E+03   -0.88911E+00   -0.87115E+00  3683   0.638E+00    0.286E+00
RMM:   3    -0.191761530263E+03   -0.36393E+00   -0.63938E-01  3709   0.134E+00    0.579E+00
RMM:   4    -0.191333343467E+03    0.42819E+00   -0.13531E-01  3683   0.617E-01    0.198E+00
RMM:   5    -0.191312168529E+03    0.21175E-01   -0.57319E-02  3683   0.387E-01    0.149E+00
RMM:   6    -0.191303476250E+03    0.86923E-02   -0.87433E-02  3683   0.464E-01    0.120E+00
RMM:   7    -0.191298702335E+03    0.47739E-02   -0.38296E-02  3680   0.308E-01    0.100E+00
RMM:   8    -0.191289246371E+03    0.94560E-02   -0.87778E-03  3685   0.152E-01    0.424E-01
RMM:   9    -0.191287501050E+03    0.17453E-02   -0.30569E-03  3684   0.876E-02    0.219E-01
RMM:  10    -0.191287047819E+03    0.45323E-03   -0.89154E-04  3681   0.476E-02    0.136E-01
RMM:  11    -0.191286926409E+03    0.12141E-03   -0.44130E-04  3683   0.327E-02    0.103E-01
RMM:  12    -0.191286831139E+03    0.95271E-04   -0.24110E-04  3681   0.243E-02    0.524E-02
RMM:  13    -0.191286830571E+03    0.56779E-06   -0.10661E-04  3681   0.163E-02    0.381E-02
RMM:  14    -0.191286819708E+03    0.10863E-04   -0.27589E-05  3682   0.846E-03    0.168E-02
RMM:  15    -0.191286817847E+03    0.18614E-05   -0.48514E-06  2830   0.366E-03    0.913E-03
RMM:  16    -0.191286817502E+03    0.34471E-06   -0.17853E-06  2046   0.232E-03
   6 F= -.19128682E+03 E0= -.19117206E+03  d E =-.452564E+00
       N       E                     dE             d eps       ncg     rms          rms(c)
DAV:   1    -0.191286123140E+03    0.69471E-03   -0.13758E+00  3792   0.181E+00    0.119E-01
RMM:   2    -0.191287667053E+03   -0.15439E-02   -0.14858E-02  3684   0.263E-01    0.138E-01
RMM:   3    -0.191288046918E+03   -0.37986E-03   -0.10679E-03  3717   0.555E-02    0.240E-01
RMM:   4    -0.191287455592E+03    0.59133E-03   -0.18564E-04  3683   0.237E-02    0.677E-02
RMM:   5    -0.191287463064E+03   -0.74720E-05   -0.93031E-05  3682   0.158E-02    0.608E-02
RMM:   6    -0.191287458466E+03    0.45981E-05   -0.17686E-04  3685   0.211E-02    0.422E-02
RMM:   7    -0.191287445804E+03    0.12662E-04   -0.46702E-05  3675   0.108E-02    0.236E-02
RMM:   8    -0.191287440329E+03    0.54742E-05   -0.90604E-06  3573   0.480E-03    0.134E-02
RMM:   9    -0.191287438664E+03    0.16657E-05   -0.32629E-06  2475   0.301E-03    0.829E-03
RMM:  10    -0.191287438007E+03    0.65698E-06   -0.14028E-06  1968   0.208E-03
   7 F= -.19128744E+03 E0= -.19117278E+03  d E =-.453184E+00
       N       E                     dE             d eps       ncg     rms          rms(c)
DAV:   1    -0.191282649425E+03    0.47892E-02   -0.53516E+01  3672   0.113E+01    0.832E-01
RMM:   2    -0.191348872537E+03   -0.66223E-01   -0.62693E-01  3684   0.166E+00    0.991E-01
RMM:   3    -0.191365607043E+03   -0.16735E-01   -0.48036E-02  3706   0.359E-01    0.154E+00
RMM:   4    -0.191340377487E+03    0.25230E-01   -0.99553E-03  3683   0.166E-01    0.449E-01
RMM:   5    -0.191339268426E+03    0.11091E-02   -0.40673E-03  3684   0.104E-01    0.349E-01
RMM:   6    -0.191339678960E+03   -0.41053E-03   -0.70688E-03  3680   0.131E-01    0.392E-01
RMM:   7    -0.191338470411E+03    0.12085E-02   -0.29248E-03  3680   0.847E-02    0.175E-01
RMM:   8    -0.191338226357E+03    0.24405E-03   -0.51459E-04  3688   0.363E-02    0.113E-01
RMM:   9    -0.191338056438E+03    0.16992E-03   -0.19701E-04  3681   0.223E-02    0.457E-02
RMM:  10    -0.191338036876E+03    0.19562E-04   -0.59833E-05  3680   0.120E-02    0.299E-02
RMM:  11    -0.191338027160E+03    0.97160E-05   -0.26709E-05  3681   0.775E-03    0.158E-02
RMM:  12    -0.191338026061E+03    0.10990E-05   -0.19013E-05  3677   0.655E-03    0.116E-02
RMM:  13    -0.191338025433E+03    0.62799E-06   -0.53992E-06  2940   0.373E-03
   8 F= -.19133803E+03 E0= -.19122365E+03  d E =-.505874E-01
       N       E                     dE             d eps       ncg     rms          rms(c)
DAV:   1    -0.191336981688E+03    0.10444E-02   -0.25803E+00  3708   0.248E+00    0.179E-01
RMM:   2    -0.191340230430E+03   -0.32487E-02   -0.30361E-02  3684   0.366E-01    0.234E-01
RMM:   3    -0.191340791043E+03   -0.56061E-03   -0.23159E-03  3708   0.791E-02    0.325E-01
RMM:   4    -0.191339705972E+03    0.10851E-02   -0.45454E-04  3682   0.358E-02    0.981E-02
RMM:   5    -0.191339682445E+03    0.23527E-04   -0.19070E-04  3684   0.226E-02    0.753E-02
RMM:   6    -0.191339725014E+03   -0.42569E-04   -0.35929E-04  3679   0.296E-02    0.881E-02
RMM:   7    -0.191339660252E+03    0.64762E-04   -0.14134E-04  3679   0.186E-02    0.338E-02
RMM:   8    -0.191339653297E+03    0.69552E-05   -0.23465E-05  3676   0.774E-03    0.248E-02
RMM:   9    -0.191339645213E+03    0.80837E-05   -0.89926E-06  3569   0.480E-03    0.995E-03
RMM:  10    -0.191339644475E+03    0.73793E-06   -0.26185E-06  2232   0.263E-03
   9 F= -.19133964E+03 E0= -.19122532E+03  d E =-.522065E-01
       N       E                     dE             d eps       ncg     rms          rms(c)
DAV:   1    -0.191339440662E+03    0.20455E-03   -0.13286E+01  3672   0.563E+00    0.354E-01
RMM:   2    -0.191356015514E+03   -0.16575E-01   -0.15531E-01  3683   0.831E-01    0.488E-01
RMM:   3    -0.191357479373E+03   -0.14639E-02   -0.10847E-02  3718   0.174E-01    0.589E-01
RMM:   4    -0.191353943731E+03    0.35356E-02   -0.19083E-03  3684   0.735E-02    0.216E-01
RMM:   5    -0.191353689379E+03    0.25435E-03   -0.79302E-04  3685   0.462E-02    0.168E-01
RMM:   6    -0.191353800228E+03   -0.11085E-03   -0.21484E-03  3680   0.715E-02    0.190E-01
RMM:   7    -0.191353493019E+03    0.30721E-03   -0.70678E-04  3679   0.415E-02    0.779E-02
RMM:   8    -0.191353446885E+03    0.46134E-04   -0.10023E-04  3688   0.159E-02    0.561E-02
RMM:   9    -0.191353410133E+03    0.36751E-04   -0.40330E-05  3678   0.102E-02    0.279E-02
RMM:  10    -0.191353402028E+03    0.81058E-05   -0.19809E-05  3672   0.672E-03    0.199E-02
RMM:  11    -0.191353396491E+03    0.55371E-05   -0.14960E-05  3678   0.576E-03    0.914E-03
RMM:  12    -0.191353396155E+03    0.33568E-06   -0.82359E-06  3665   0.424E-03
  10 F= -.19135340E+03 E0= -.19123933E+03  d E =-.137517E-01
       N       E                     dE             d eps       ncg     rms          rms(c)
DAV:   1    -0.191351430512E+03    0.19660E-02   -0.35097E+00  3672   0.289E+00    0.180E-01
RMM:   2    -0.191355862203E+03   -0.44317E-02   -0.41081E-02  3683   0.428E-01    0.264E-01
RMM:   3    -0.191356057789E+03   -0.19559E-03   -0.28697E-03  3719   0.894E-02    0.290E-01
RMM:   4    -0.191355222608E+03    0.83518E-03   -0.48505E-04  3684   0.373E-02    0.110E-01
RMM:   5    -0.191355167667E+03    0.54941E-04   -0.20584E-04  3685   0.236E-02    0.862E-02
RMM:   6    -0.191355192498E+03   -0.24831E-04   -0.61206E-04  3680   0.381E-02    0.860E-02
RMM:   7    -0.191355133379E+03    0.59119E-04   -0.16264E-04  3677   0.199E-02    0.398E-02
RMM:   8    -0.191355118822E+03    0.14557E-04   -0.23341E-05  3679   0.776E-03    0.260E-02
RMM:   9    -0.191355111080E+03    0.77419E-05   -0.94734E-06  3615   0.491E-03    0.144E-02
RMM:  10    -0.191355108869E+03    0.22105E-05   -0.54288E-06  3065   0.357E-03    0.103E-02
RMM:  11    -0.191355107568E+03    0.13016E-05   -0.37294E-06  2494   0.313E-03    0.491E-03
RMM:  12    -0.191355107552E+03    0.15898E-07   -0.23879E-06  1984   0.265E-03
  11 F= -.19135511E+03 E0= -.19124116E+03  d E =-.154631E-01
       N       E                     dE             d eps       ncg     rms          rms(c)
DAV:   1    -0.191353344523E+03    0.17630E-02   -0.66398E+00  3672   0.399E+00    0.248E-01
RMM:   2    -0.191361096583E+03   -0.77521E-02   -0.75499E-02  3682   0.585E-01    0.297E-01
RMM:   3    -0.191362345432E+03   -0.12488E-02   -0.51642E-03  3715   0.121E-01    0.436E-01
RMM:   4    -0.191360398692E+03    0.19467E-02   -0.95987E-04  3688   0.517E-02    0.152E-01
RMM:   5    -0.191360320812E+03    0.77880E-04   -0.46088E-04  3682   0.348E-02    0.130E-01
RMM:   6    -0.191360330487E+03   -0.96755E-05   -0.11171E-03  3680   0.518E-02    0.120E-01
RMM:   7    -0.191360208060E+03    0.12243E-03   -0.32803E-04  3674   0.284E-02    0.524E-02
RMM:   8    -0.191360185743E+03    0.22317E-04   -0.41786E-05  3684   0.104E-02    0.359E-02
RMM:   9    -0.191360171356E+03    0.14387E-04   -0.17187E-05  3673   0.667E-03    0.205E-02
RMM:  10    -0.191360166584E+03    0.47725E-05   -0.12092E-05  3672   0.527E-03    0.146E-02
RMM:  11    -0.191360163714E+03    0.28695E-05   -0.86023E-06  3670   0.438E-03    0.635E-03
RMM:  12    -0.191360163465E+03    0.24970E-06   -0.34757E-06  2402   0.293E-03
  12 F= -.19136016E+03 E0= -.19124657E+03  d E =-.505591E-02
       N       E                     dE             d eps       ncg     rms          rms(c)
DAV:   1    -0.191360028699E+03    0.13502E-03   -0.30846E-01  3732   0.859E-01    0.528E-02
RMM:   2    -0.191360394351E+03   -0.36565E-03   -0.35093E-03  3682   0.126E-01    0.710E-02
RMM:   3    -0.191360425061E+03   -0.30710E-04   -0.24023E-04  3715   0.261E-02    0.873E-02
RMM:   4    -0.191360348934E+03    0.76126E-04   -0.41571E-05  3687   0.108E-02    0.329E-02
RMM:   5    -0.191360347926E+03    0.10088E-05   -0.20901E-05  3673   0.745E-03    0.283E-02
RMM:   6    -0.191360350910E+03   -0.29844E-05   -0.55531E-05  3679   0.115E-02    0.263E-02
RMM:   7    -0.191360344850E+03    0.60602E-05   -0.15893E-05  3672   0.625E-03    0.107E-02
RMM:   8    -0.191360343668E+03    0.11821E-05   -0.15370E-06  2053   0.213E-03    0.665E-03
RMM:   9    -0.191360343186E+03    0.48181E-06   -0.78748E-07  1943   0.164E-03
  13 F= -.19136034E+03 E0= -.19124681E+03  d E =-.523563E-02
       N       E                     dE             d eps       ncg     rms          rms(c)
DAV:   1    -0.191359941136E+03    0.40253E-03   -0.24192E+00  3672   0.240E+00    0.137E-01
RMM:   2    -0.191362654142E+03   -0.27130E-02   -0.26891E-02  3681   0.351E-01    0.163E-01
RMM:   3    -0.191363101732E+03   -0.44759E-03   -0.17833E-03  3717   0.716E-02    0.254E-01
RMM:   4    -0.191362429923E+03    0.67181E-03   -0.29427E-04  3684   0.288E-02    0.858E-02
RMM:   5    -0.191362411157E+03    0.18766E-04   -0.12560E-04  3684   0.184E-02    0.739E-02
RMM:   6    -0.191362393988E+03    0.17169E-04   -0.39118E-04  3680   0.305E-02    0.623E-02
RMM:   7    -0.191362369044E+03    0.24944E-04   -0.12691E-04  3680   0.176E-02    0.301E-02
RMM:   8    -0.191362362790E+03    0.62542E-05   -0.12540E-05  3683   0.592E-03    0.200E-02
RMM:   9    -0.191362358478E+03    0.43116E-05   -0.50554E-06  2897   0.369E-03    0.138E-02
RMM:  10    -0.191362355972E+03    0.25066E-05   -0.53869E-06  3435   0.364E-03    0.839E-03
RMM:  11    -0.191362354946E+03    0.10258E-05   -0.37194E-06  2404   0.308E-03    0.431E-03
RMM:  12    -0.191362354824E+03    0.12206E-06   -0.17670E-06  1945   0.237E-03
  14 F= -.19136235E+03 E0= -.19124884E+03  d E =-.201164E-02
       N       E                     dE             d eps       ncg     rms          rms(c)
DAV:   1    -0.191362228486E+03    0.12646E-03   -0.28608E-01  3696   0.827E-01    0.465E-02
RMM:   2    -0.191362548847E+03   -0.32036E-03   -0.31677E-03  3683   0.121E-01    0.582E-02
RMM:   3    -0.191362589685E+03   -0.40838E-04   -0.20783E-04  3718   0.245E-02    0.834E-02
RMM:   4    -0.191362517678E+03    0.72006E-04   -0.32867E-05  3681   0.967E-03    0.299E-02
RMM:   5    -0.191362516688E+03    0.99069E-06   -0.14975E-05  3677   0.636E-03    0.264E-02
RMM:   6    -0.191362516192E+03    0.49567E-06   -0.48207E-05  3683   0.107E-02    0.235E-02
RMM:   7    -0.191362512278E+03    0.39136E-05   -0.16894E-05  3672   0.642E-03    0.104E-02
RMM:   8    -0.191362511515E+03    0.76369E-06   -0.14800E-06  2054   0.213E-03
  15 F= -.19136251E+03 E0= -.19124899E+03  d E =-.216833E-02
       N       E                     dE             d eps       ncg     rms          rms(c)
DAV:   1    -0.191361766530E+03    0.74575E-03   -0.20087E+00  3672   0.219E+00    0.115E-01
RMM:   2    -0.191363879856E+03   -0.21133E-02   -0.21725E-02  3681   0.318E-01    0.111E-01
RMM:   3    -0.191364331903E+03   -0.45205E-03   -0.13303E-03  3711   0.627E-02    0.229E-01
RMM:   4    -0.191363778852E+03    0.55305E-03   -0.20556E-04  3681   0.242E-02    0.687E-02
RMM:   5    -0.191363780120E+03   -0.12678E-05   -0.93138E-05  3684   0.158E-02    0.665E-02
RMM:   6    -0.191363740836E+03    0.39284E-04   -0.29990E-04  3680   0.266E-02    0.370E-02
RMM:   7    -0.191363744543E+03   -0.37077E-05   -0.78433E-05  3680   0.138E-02    0.295E-02
RMM:   8    -0.191363737451E+03    0.70926E-05   -0.10677E-05  3557   0.546E-03    0.165E-02
RMM:   9    -0.191363734326E+03    0.31251E-05   -0.37643E-06  2659   0.319E-03    0.117E-02
RMM:  10    -0.191363731915E+03    0.24104E-05   -0.74640E-06  3668   0.422E-03    0.612E-03
RMM:  11    -0.191363731506E+03    0.40954E-06   -0.20169E-06  1962   0.232E-03
  16 F= -.19136373E+03 E0= -.19125023E+03  d E =-.121999E-02
       N       E                     dE             d eps       ncg     rms          rms(c)
DAV:   1    -0.191363671994E+03    0.59922E-04   -0.14191E-01  3696   0.582E-01    0.299E-02
RMM:   2    -0.191363822489E+03   -0.15050E-03   -0.15279E-03  3682   0.845E-02    0.335E-02
RMM:   3    -0.191363846359E+03   -0.23870E-04   -0.94842E-05  3716   0.167E-02    0.578E-02
RMM:   4    -0.191363811276E+03    0.35083E-04   -0.13361E-05  3667   0.625E-03    0.190E-02
RMM:   5    -0.191363811699E+03   -0.42281E-06   -0.61856E-06  3041   0.414E-03
  17 F= -.19136381E+03 E0= -.19125033E+03  d E =-.130018E-02
       N       E                     dE             d eps       ncg     rms          rms(c)
DAV:   1    -0.191363119606E+03    0.69167E-03   -0.56821E-01  3684   0.117E+00    0.648E-02
RMM:   2    -0.191363728952E+03   -0.60935E-03   -0.61219E-03  3682   0.168E-01    0.741E-02
RMM:   3    -0.191363812648E+03   -0.83697E-04   -0.40318E-04  3715   0.344E-02    0.114E-01
RMM:   4    -0.191363691189E+03    0.12146E-03   -0.64797E-05  3682   0.134E-02    0.510E-02
RMM:   5    -0.191363678473E+03    0.12716E-04   -0.25901E-05  3678   0.842E-03    0.364E-02
RMM:   6    -0.191363682235E+03   -0.37622E-05   -0.77885E-05  3684   0.138E-02    0.412E-02
RMM:   7    -0.191363668237E+03    0.13998E-04   -0.43721E-05  3679   0.103E-02    0.119E-02
RMM:   8    -0.191363669123E+03   -0.88613E-06   -0.44302E-06  2794   0.346E-03
  18 F= -.19136367E+03 E0= -.19125020E+03  d E =-.115761E-02
       N       E                     dE             d eps       ncg     rms          rms(c)
DAV:   1    -0.191363467973E+03    0.20026E-03   -0.36246E-01  3684   0.930E-01    0.461E-02
RMM:   2    -0.191363851126E+03   -0.38315E-03   -0.38277E-03  3681   0.134E-01    0.555E-02
RMM:   3    -0.191363893802E+03   -0.42676E-04   -0.23424E-04  3719   0.264E-02    0.844E-02
RMM:   4    -0.191363820666E+03    0.73136E-04   -0.30724E-05  3680   0.954E-03    0.316E-02
RMM:   5    -0.191363819393E+03    0.12728E-05   -0.15287E-05  3677   0.643E-03    0.300E-02
RMM:   6    -0.191363813782E+03    0.56113E-05   -0.74508E-05  3685   0.132E-02    0.194E-02
RMM:   7    -0.191363813699E+03    0.82058E-07   -0.15728E-05  3672   0.619E-03    0.142E-02
RMM:   8    -0.191363812568E+03    0.11314E-05   -0.20963E-06  2199   0.251E-03    0.871E-03
RMM:   9    -0.191363811776E+03    0.79217E-06   -0.87403E-07  1948   0.173E-03
  19 F= -.19136381E+03 E0= -.19125032E+03  d E =-.130026E-02
       N       E                     dE             d eps       ncg     rms          rms(c)
DAV:   1    -0.191363425708E+03    0.38686E-03   -0.97606E-01  3672   0.152E+00    0.757E-02
RMM:   2    -0.191364414895E+03   -0.98919E-03   -0.10141E-02  3682   0.218E-01    0.662E-02
RMM:   3    -0.191364512511E+03   -0.97616E-04   -0.55551E-04  3715   0.415E-02    0.114E-01
RMM:   4    -0.191364391116E+03    0.12139E-03   -0.76717E-05  3686   0.148E-02    0.547E-02
RMM:   5    -0.191364382614E+03    0.85027E-05   -0.38298E-05  3679   0.100E-02    0.504E-02
RMM:   6    -0.191364371747E+03    0.10867E-04   -0.11221E-04  3685   0.165E-02    0.468E-02
RMM:   7    -0.191364354732E+03    0.17014E-04   -0.80716E-05  3681   0.140E-02    0.172E-02
RMM:   8    -0.191364356270E+03   -0.15378E-05   -0.98165E-06  3627   0.503E-03    0.163E-02
RMM:   9    -0.191364353231E+03    0.30395E-05   -0.23093E-06  2244   0.262E-03    0.953E-03
RMM:  10    -0.191364352098E+03    0.11331E-05   -0.17454E-06  1947   0.227E-03    0.708E-03
RMM:  11    -0.191364351152E+03    0.94574E-06   -0.33634E-06  2051   0.309E-03
  20 F= -.19136435E+03 E0= -.19125084E+03  d E =-.539376E-03
