unknown system                          
           1
    11.002582    0.000000    0.000000
     5.501291    9.528515    0.000000
     0.000000    0.000000   24.491785
   Au   Pd
  24  24
Direct configuration=     1
   0.08333333  0.08333333  0.40830017
   0.08333333  0.33333333  0.40830017
   0.16666667  0.16666667  0.50000000
   0.00000000  0.25000000  0.59169983
   0.91666667  0.91666667  0.50000000
   0.08333333  0.58333333  0.40830017
   0.00000000  0.50000000  0.59169983
   0.00000000  0.75000000  0.59169983
   0.91666667  0.66666667  0.50000000
   0.33333333  0.08333333  0.40830017
   0.75000000  0.75000000  0.59169983
   0.25000000  0.00000000  0.59169983
   0.91666667  0.41666667  0.50000000
   0.16666667  0.66666667  0.50000000
   0.25000000  0.50000000  0.59169983
   0.41666667  0.41666667  0.50000000
   0.41666667  0.91666667  0.50000000
   0.50000000  0.75000000  0.59169983
   0.66666667  0.16666667  0.50000000
   0.75000000  0.00000000  0.59169983
   0.83333333  0.33333333  0.40830017
   0.66666667  0.41666667  0.50000000
   0.83333333  0.83333333  0.40830017
   0.16666667  0.41666667  0.50000000
   0.41666667  0.16666667  0.50000000
   0.58333333  0.08333333  0.40830017
   0.66666667  0.91666667  0.50000000
   0.16666667  0.91666667  0.50000000
   0.33333333  0.33333333  0.40830017
   0.08333333  0.83333333  0.40830017
   0.33333333  0.58333333  0.40830017
   0.25000000  0.25000000  0.59169983
   0.50000000  0.00000000  0.59169983
   0.33333333  0.83333333  0.40830017
   0.58333333  0.33333333  0.40830017
   0.75000000  0.25000000  0.59169983
   0.41666667  0.66666667  0.50000000
   0.58333333  0.58333333  0.40830017
   0.58333333  0.83333333  0.40830017
   0.91666667  0.16666667  0.50000000
   0.75000000  0.50000000  0.59169983
   0.66666667  0.66666667  0.50000000
   0.83333333  0.58333333  0.40830017
   0.00000000  0.00000000  0.59169983
   0.83333333  0.08333333  0.40830017
   0.50000000  0.50000000  0.59169983
   0.50000000  0.25000000  0.59169983
   0.25000000  0.75000000  0.59169983
Direct configuration=     2
   0.08333333  0.08333333  0.40830017
   0.08333333  0.33333333  0.40830017
   0.16737725  0.16585096  0.50044708
  -0.00103573  0.24959794  0.59386280
   0.91732315  0.91857987  0.49962405
   0.08333333  0.58333333  0.40830017
  -0.00005256  0.49919299  0.59433395
   0.00074555  0.75083236  0.59427449
   0.91407570  0.66733360  0.49950932
   0.33333333  0.08333333  0.40830017
   0.74857740  0.75035815  0.59364767
   0.24968732 -0.00031885  0.59383771
   0.91429002  0.41789990  0.50001236
   0.16862523  0.66844107  0.49959026
   0.25164245  0.49920685  0.59423194
   0.41765418  0.41618971  0.49962733
   0.41838410  0.91536852  0.49959502
   0.50020423  0.74874487  0.59351073
   0.66622872  0.16652385  0.49971586
   0.74887553  0.00132414  0.59384692
   0.83333333  0.33333333  0.40830017
   0.66586127  0.41783157  0.50031369
   0.83333333  0.83333333  0.40830017
   0.16907185  0.41440248  0.49996505
   0.41760590  0.16624091  0.50017608
   0.58333333  0.08333333  0.40830017
   0.66507377  0.91716625  0.49970084
   0.16665216  0.91592207  0.49991982
   0.33333333  0.33333333  0.40830017
   0.08333333  0.83333333  0.40830017
   0.33333333  0.58333333  0.40830017
   0.25128910  0.24945469  0.59290968
   0.49966085  0.00125582  0.59269355
   0.33333333  0.83333333  0.40830017
   0.58333333  0.33333333  0.40830017
   0.74975410  0.25046611  0.59289152
   0.41651574  0.66703077  0.49963144
   0.58333333  0.58333333  0.40830017
   0.58333333  0.83333333  0.40830017
   0.91664075  0.16548826  0.50023515
   0.74938920  0.49983175  0.59287442
   0.66609145  0.66699369  0.49952362
   0.83333333  0.58333333  0.40830017
   0.00025342  0.00012222  0.59270508
   0.83333333  0.08333333  0.40830017
   0.50032065  0.49996502  0.59281681
   0.49977399  0.24970366  0.59286752
   0.25030645  0.74999231  0.59272348
Direct configuration=     3
   0.08333333  0.08333333  0.40830017
   0.08333333  0.33333333  0.40830017
   0.16902600  0.16395829  0.50148441
  -0.00343890  0.24866504  0.59888149
   0.91884636  0.92301905  0.49875173
   0.08333333  0.58333333  0.40830017
  -0.00017451  0.49732049  0.60044584
   0.00247544  0.75276366  0.60024841
   0.90806394  0.66888109  0.49837079
   0.33333333  0.08333333  0.40830017
   0.74527656  0.75118916  0.59816719
   0.24896182 -0.00105867  0.59879818
   0.90877555  0.42076136  0.50004105
   0.17316963  0.67255818  0.49863955
   0.25545338  0.49736653  0.60010714
   0.41994548  0.41508305  0.49876262
   0.42236902  0.91235646  0.49865534
   0.50067810  0.74583261  0.59771254
   0.66521257  0.16619246  0.49905659
   0.74626645  0.00439651  0.59882877
   0.83333333  0.33333333  0.40830017
   0.66399252  0.42053446  0.50104155
   0.83333333  0.83333333  0.40830017
   0.17465255  0.40914893  0.49988397
   0.41978520  0.16525304  0.50058463
   0.58333333  0.08333333  0.40830017
   0.66137781  0.91832542  0.49900669
   0.16661850  0.91419439  0.49973378
   0.33333333  0.33333333  0.40830017
   0.08333333  0.83333333  0.40830017
   0.33333333  0.58333333  0.40830017
   0.25428016  0.24818943  0.59571687
   0.49887391  0.00416968  0.59499925
   0.33333333  0.83333333  0.40830017
   0.58333333  0.33333333  0.40830017
   0.74918355  0.25154762  0.59565657
   0.41616555  0.66787558  0.49877629
   0.58333333  0.58333333  0.40830017
   0.58333333  0.83333333  0.40830017
   0.91658063  0.16275402  0.50078078
   0.74797197  0.49944135  0.59559981
   0.66475678  0.66775246  0.49841829
   0.83333333  0.58333333  0.40830017
   0.00084141  0.00040581  0.59503753
   0.83333333  0.08333333  0.40830017
   0.50106464  0.49988387  0.59540853
   0.49924959  0.24901608  0.59557688
   0.25101751  0.74997446  0.59509863
Direct configuration=     4
   0.08333333  0.08333333  0.40830017
   0.08333333  0.33333333  0.40830017
   0.16873595  0.16269676  0.50366904
  -0.00387699  0.24864306  0.60158977
   0.91815063  0.92163973  0.50039482
   0.08333333  0.58333333  0.40830017
   0.00026043  0.49725640  0.60342004
   0.00248040  0.75268180  0.60295777
   0.90890849  0.66956755  0.50059402
   0.33333333  0.08333333  0.40830017
   0.74507265  0.75168971  0.60054168
   0.24965445 -0.00159358  0.60149870
   0.90969654  0.41999783  0.50194593
   0.17239979  0.67133579  0.50029691
   0.25587518  0.49745772  0.60307872
   0.41963173  0.41564349  0.49997941
   0.42170722  0.91169795  0.50019523
   0.50001073  0.74577768  0.60004405
   0.66563887  0.16552559  0.50024309
   0.74630659  0.00476715  0.60138397
   0.83333333  0.33333333  0.40830017
   0.66314960  0.42073126  0.50227791
   0.83333333  0.83333333  0.40830017
   0.17420457  0.41061374  0.50188124
   0.42085611  0.16411140  0.50148634
   0.58333333  0.08333333  0.40830017
   0.66193174  0.91870098  0.50016278
   0.16852922  0.91578227  0.50078161
   0.33333333  0.33333333  0.40830017
   0.08333333  0.83333333  0.40830017
   0.33333333  0.58333333  0.40830017
   0.25433429  0.24795825  0.59749513
   0.49809575  0.00439815  0.59637782
   0.33333333  0.83333333  0.40830017
   0.58333333  0.33333333  0.40830017
   0.74809110  0.25202273  0.59720730
   0.41759757  0.66847565  0.49940318
   0.58333333  0.58333333  0.40830017
   0.58333333  0.83333333  0.40830017
   0.91651159  0.16443739  0.50208838
   0.74783610  0.49920881  0.59737317
   0.66293013  0.66871204  0.49929593
   0.83333333  0.58333333  0.40830017
   0.00062979  0.00030466  0.59655787
   0.83333333  0.08333333  0.40830017
   0.50119998  0.49924897  0.59692433
   0.49939759  0.24936308  0.59715183
   0.25159769  0.74946970  0.59663883
Direct configuration=     5
   0.08333333  0.08333333  0.40830017
   0.08333333  0.33333333  0.40830017
   0.16786581  0.15891217  0.51022293
  -0.00519125  0.24857712  0.60971458
   0.91606343  0.91750176  0.50532406
   0.08333333  0.58333333  0.40830017
   0.00156526  0.49706412  0.61234264
   0.00249530  0.75243621  0.61108585
   0.91144215  0.67162694  0.50726373
   0.33333333  0.08333333  0.40830017
   0.74446092  0.75319136  0.60766514
   0.25173234 -0.00319829  0.60960023
   0.91245953  0.41770724  0.50766057
   0.17009025  0.66766864  0.50526899
   0.25714056  0.49773129  0.61199345
   0.41869046  0.41732479  0.50362976
   0.41972181  0.90972243  0.50481490
   0.49800863  0.74561288  0.60703860
   0.66691778  0.16352498  0.50380260
   0.74642700  0.00587909  0.60904957
   0.83333333  0.33333333  0.40830017
   0.66062082  0.42132163  0.50598698
   0.83333333  0.83333333  0.40830017
   0.17286064  0.41500818  0.50787303
   0.42406883  0.16068649  0.50419146
   0.58333333  0.08333333  0.40830017
   0.66359354  0.91982769  0.50363106
   0.17426139  0.92054592  0.50392512
   0.33333333  0.33333333  0.40830017
   0.08333333  0.83333333  0.40830017
   0.33333333  0.58333333  0.40830017
   0.25449670  0.24726470  0.60282991
   0.49576125  0.00508355  0.60051351
   0.33333333  0.83333333  0.40830017
   0.58333333  0.33333333  0.40830017
   0.74481376  0.25344804  0.60185948
   0.42189366  0.67027587  0.50128385
   0.58333333  0.58333333  0.40830017
   0.58333333  0.83333333  0.40830017
   0.91630448  0.16948748  0.50601119
   0.74742851  0.49851119  0.60269326
   0.65745016  0.67159077  0.50192886
   0.83333333  0.58333333  0.40830017
  -0.00000506  0.00000123  0.60111891
   0.83333333  0.08333333  0.40830017
   0.50160600  0.49734428  0.60147172
   0.49984157  0.25040408  0.60187668
   0.25333821  0.74795543  0.60125944
Direct configuration=     6
   0.08333333  0.08333333  0.40830017
   0.08333333  0.33333333  0.40830017
   0.16828561  0.16504105  0.51269020
  -0.00430007  0.24864168  0.61270649
   0.91894972  0.91765379  0.50766638
   0.08333333  0.58333333  0.40830017
   0.00148284  0.49777119  0.61530040
   0.00211679  0.75136764  0.61377052
   0.91204132  0.66864921  0.51022518
   0.33333333  0.08333333  0.40830017
   0.74508328  0.75295413  0.60984904
   0.25092435 -0.00268538  0.61280701
   0.91447834  0.41973703  0.50991859
   0.16959339  0.66988969  0.50764995
   0.25536529  0.49833142  0.61502234
   0.41709101  0.41756308  0.50546164
   0.41992384  0.91500828  0.50712548
   0.49942811  0.74571767  0.60949288
   0.66862157  0.16435110  0.50564953
   0.74713308  0.00457486  0.61157496
   0.83333333  0.33333333  0.40830017
   0.66375719  0.41934793  0.50713954
   0.83333333  0.83333333  0.40830017
   0.17056080  0.41416591  0.51043247
   0.41967720  0.16277701  0.50547494
   0.58333333  0.08333333  0.40830017
   0.66538113  0.91694720  0.50590812
   0.17055364  0.91628271  0.50577626
   0.33333333  0.33333333  0.40830017
   0.08333333  0.83333333  0.40830017
   0.33333333  0.58333333  0.40830017
   0.25251797  0.24870781  0.60494202
   0.49699492  0.00308547  0.60220390
   0.33333333  0.83333333  0.40830017
   0.58333333  0.33333333  0.40830017
   0.74517976  0.25260816  0.60361600
   0.41738482  0.66874985  0.50305788
   0.58333333  0.58333333  0.40830017
   0.58333333  0.83333333  0.40830017
   0.91538900  0.16865769  0.50775489
   0.74803047  0.49966739  0.60470127
   0.66456721  0.66928091  0.50428132
   0.83333333  0.58333333  0.40830017
   0.00009513 -0.00043515  0.60253828
   0.83333333  0.08333333  0.40830017
   0.50076599  0.49776060  0.60337297
   0.49932480  0.25054371  0.60339879
   0.25214590  0.74767593  0.60259462
Direct configuration=     7
   0.08333333  0.08333333  0.40830017
   0.08333333  0.33333333  0.40830017
   0.16830285  0.16529283  0.51279156
  -0.00426346  0.24864433  0.61282940
   0.91906829  0.91766003  0.50776261
   0.08333333  0.58333333  0.40830017
   0.00147946  0.49780024  0.61542191
   0.00210124  0.75132374  0.61388081
   0.91206593  0.66852688  0.51034684
   0.33333333  0.08333333  0.40830017
   0.74510885  0.75294438  0.60993876
   0.25089116 -0.00266431  0.61293875
   0.91456128  0.41982042  0.51001135
   0.16957298  0.66998093  0.50774776
   0.25529236  0.49835607  0.61514678
   0.41702531  0.41757287  0.50553689
   0.41993214  0.91522543  0.50722040
   0.49948643  0.74572197  0.60959371
   0.66869157  0.16438503  0.50572540
   0.74716208  0.00452128  0.61167871
   0.83333333  0.33333333  0.40830017
   0.66388604  0.41926684  0.50718688
   0.83333333  0.83333333  0.40830017
   0.17046632  0.41413131  0.51053762
   0.41949678  0.16286289  0.50552767
   0.58333333  0.08333333  0.40830017
   0.66545456  0.91682887  0.50600167
   0.17040132  0.91610757  0.50585231
   0.33333333  0.33333333  0.40830017
   0.08333333  0.83333333  0.40830017
   0.33333333  0.58333333  0.40830017
   0.25243668  0.24876710  0.60502879
   0.49704560  0.00300338  0.60227334
   0.33333333  0.83333333  0.40830017
   0.58333333  0.33333333  0.40830017
   0.74519480  0.25257365  0.60368816
   0.41719958  0.66868716  0.50313076
   0.58333333  0.58333333  0.40830017
   0.58333333  0.83333333  0.40830017
   0.91535139  0.16862360  0.50782652
   0.74805520  0.49971489  0.60478376
   0.66485959  0.66918602  0.50437796
   0.83333333  0.58333333  0.40830017
   0.00009925 -0.00045308  0.60259659
   0.83333333  0.08333333  0.40830017
   0.50073148  0.49777771  0.60345107
   0.49930357  0.25054944  0.60346132
   0.25209692  0.74766444  0.60264947
Direct configuration=     8
   0.08333333  0.08333333  0.40830017
   0.08333333  0.33333333  0.40830017
   0.16723628  0.16528641  0.51280475
  -0.00383735  0.24873470  0.61336150
   0.91923042  0.91808735  0.50790369
   0.08333333  0.58333333  0.40830017
   0.00065952  0.49840371  0.61616762
   0.00162579  0.75105866  0.61437328
   0.91358387  0.66811049  0.51062271
   0.33333333  0.08333333  0.40830017
   0.74587899  0.75230802  0.61037614
   0.24991446 -0.00226006  0.61339506
   0.91474988  0.41932317  0.51020390
   0.16871522  0.66941982  0.50791025
   0.25430572  0.49831800  0.61559784
   0.41651199  0.41660734  0.50587819
   0.41960446  0.91450397  0.50746006
   0.49983144  0.74601568  0.60962865
   0.66758702  0.16435875  0.50609147
   0.74722479  0.00365113  0.61186048
   0.83333333  0.33333333  0.40830017
   0.66525670  0.41988428  0.50717909
   0.83333333  0.83333333  0.40830017
   0.16990300  0.41527016  0.51073071
   0.41876800  0.16529424  0.50580256
   0.58333333  0.08333333  0.40830017
   0.66674564  0.91650045  0.50670486
   0.16879057  0.91704472  0.50634407
   0.33333333  0.33333333  0.40830017
   0.08333333  0.83333333  0.40830017
   0.33333333  0.58333333  0.40830017
   0.25205819  0.24930330  0.60622269
   0.49797319  0.00241220  0.60294793
   0.33333333  0.83333333  0.40830017
   0.58333333  0.33333333  0.40830017
   0.74652771  0.25193535  0.60420126
   0.41714510  0.66883216  0.50400842
   0.58333333  0.58333333  0.40830017
   0.58333333  0.83333333  0.40830017
   0.91723643  0.16739965  0.50812045
   0.74865114  0.49998475  0.60525000
   0.66560516  0.66848523  0.50534328
   0.83333333  0.58333333  0.40830017
   0.00042411 -0.00045571  0.60309828
   0.83333333  0.08333333  0.40830017
   0.50038575  0.49846713  0.60377537
   0.49866133  0.25000211  0.60355523
   0.25153702  0.74816895  0.60315160
Direct configuration=     9
   0.08333333  0.08333333  0.40830017
   0.08333333  0.33333333  0.40830017
   0.16700200  0.16528500  0.51280764
  -0.00374375  0.24875455  0.61347838
   0.91926603  0.91818121  0.50793468
   0.08333333  0.58333333  0.40830017
   0.00047942  0.49853627  0.61633141
   0.00152135  0.75100043  0.61448145
   0.91391729  0.66801902  0.51068331
   0.33333333  0.08333333  0.40830017
   0.74604816  0.75216824  0.61047221
   0.24969992 -0.00217126  0.61349529
   0.91479131  0.41921394  0.51024619
   0.16852681  0.66929657  0.50794594
   0.25408900  0.49830964  0.61569692
   0.41639923  0.41639526  0.50595315
   0.41953248  0.91434550  0.50751270
   0.49990722  0.74608019  0.60963633
   0.66734440  0.16435297  0.50617188
   0.74723856  0.00345999  0.61190041
   0.83333333  0.33333333  0.40830017
   0.66555777  0.42001990  0.50717738
   0.83333333  0.83333333  0.40830017
   0.16977927  0.41552031  0.51077313
   0.41860792  0.16582829  0.50586294
   0.58333333  0.08333333  0.40830017
   0.66702922  0.91642831  0.50685932
   0.16843676  0.91725057  0.50645209
   0.33333333  0.33333333  0.40830017
   0.08333333  0.83333333  0.40830017
   0.33333333  0.58333333  0.40830017
   0.25197506  0.24942108  0.60648493
   0.49817694  0.00228235  0.60309611
   0.33333333  0.83333333  0.40830017
   0.58333333  0.33333333  0.40830017
   0.74682049  0.25179514  0.60431397
   0.41713314  0.66886401  0.50420120
   0.58333333  0.58333333  0.40830017
   0.58333333  0.83333333  0.40830017
   0.91765048  0.16713080  0.50818501
   0.74878204  0.50004403  0.60535241
   0.66576893  0.66833130  0.50555532
   0.83333333  0.58333333  0.40830017
   0.00049547 -0.00045628  0.60320847
   0.83333333  0.08333333  0.40830017
   0.50030981  0.49861857  0.60384660
   0.49852026  0.24988189  0.60357585
   0.25141403  0.74827977  0.60326189
Direct configuration=    10
   0.08333333  0.08333333  0.40830017
   0.08333333  0.33333333  0.40830017
   0.16748371  0.16477737  0.51274715
  -0.00350945  0.24910186  0.61375217
   0.91859394  0.91873427  0.50777534
   0.08333333  0.58333333  0.40830017
   0.00003685  0.49850508  0.61682679
   0.00138004  0.75120666  0.61473152
   0.91430842  0.66820771  0.51052108
   0.33333333  0.08333333  0.40830017
   0.74648190  0.75167978  0.61073266
   0.24968869 -0.00194005  0.61356717
   0.91528372  0.41870743  0.51017846
   0.16884069  0.66905959  0.50786549
   0.25382339  0.49834642  0.61583169
   0.41714525  0.41684906  0.50604115
   0.41953125  0.91417043  0.50746319
   0.49964440  0.74661889  0.60941310
   0.66735415  0.16480306  0.50630081
   0.74738502  0.00331652  0.61179435
   0.83333333  0.33333333  0.40830017
   0.66533051  0.41978659  0.50719908
   0.83333333  0.83333333  0.40830017
   0.16928498  0.41552050  0.51083994
   0.41799032  0.16579053  0.50602918
   0.58333333  0.08333333  0.40830017
   0.66701377  0.91653242  0.50721388
   0.16845537  0.91745680  0.50664594
   0.33333333  0.33333333  0.40830017
   0.08333333  0.83333333  0.40830017
   0.33333333  0.58333333  0.40830017
   0.25174438  0.24925433  0.60719037
   0.49789700  0.00231127  0.60341879
   0.33333333  0.83333333  0.40830017
   0.58333333  0.33333333  0.40830017
   0.74728086  0.25165248  0.60444630
   0.41723090  0.66861545  0.50475150
   0.58333333  0.58333333  0.40830017
   0.58333333  0.83333333  0.40830017
   0.91777593  0.16684272  0.50826551
   0.74903807  0.49973550  0.60568258
   0.66561539  0.66877004  0.50611830
   0.83333333  0.58333333  0.40830017
   0.00034547 -0.00054483  0.60365471
   0.83333333  0.08333333  0.40830017
   0.50032631  0.49857163  0.60381280
   0.49845394  0.24962521  0.60366852
   0.25106274  0.74842591  0.60360724
Direct configuration=    11
   0.08333333  0.08333333  0.40830017
   0.08333333  0.33333333  0.40830017
   0.16773130  0.16451645  0.51271606
  -0.00338901  0.24928038  0.61389290
   0.91824849  0.91901853  0.50769345
   0.08333333  0.58333333  0.40830017
  -0.00019063  0.49848904  0.61708141
   0.00130741  0.75131266  0.61486005
   0.91450946  0.66830469  0.51043769
   0.33333333  0.08333333  0.40830017
   0.74670485  0.75142872  0.61086653
   0.24968291 -0.00182121  0.61360411
   0.91553682  0.41844708  0.51014364
   0.16900203  0.66893779  0.50782414
   0.25368686  0.49836533  0.61590097
   0.41752870  0.41708231  0.50608638
   0.41953061  0.91408045  0.50743774
   0.49950931  0.74689578  0.60929837
   0.66735916  0.16503440  0.50636708
   0.74746030  0.00324277  0.61173984
   0.83333333  0.33333333  0.40830017
   0.66521370  0.41966667  0.50721023
   0.83333333  0.83333333  0.40830017
   0.16903091  0.41552060  0.51087428
   0.41767288  0.16577111  0.50611462
   0.58333333  0.08333333  0.40830017
   0.66700582  0.91658593  0.50739612
   0.16846493  0.91756280  0.50674558
   0.33333333  0.33333333  0.40830017
   0.08333333  0.83333333  0.40830017
   0.33333333  0.58333333  0.40830017
   0.25162581  0.24916862  0.60755296
   0.49775311  0.00232613  0.60358465
   0.33333333  0.83333333  0.40830017
   0.58333333  0.33333333  0.40830017
   0.74751749  0.25157915  0.60451431
   0.41728115  0.66848769  0.50503436
   0.58333333  0.58333333  0.40830017
   0.58333333  0.83333333  0.40830017
   0.91784041  0.16669465  0.50830689
   0.74916966  0.49957692  0.60585229
   0.66553647  0.66899555  0.50640768
   0.83333333  0.58333333  0.40830017
   0.00026837 -0.00059035  0.60388408
   0.83333333  0.08333333  0.40830017
   0.50033479  0.49854750  0.60379542
   0.49841986  0.24949328  0.60371615
   0.25088218  0.74850102  0.60378475
Direct configuration=    12
   0.08333333  0.08333333  0.40830017
   0.08333333  0.33333333  0.40830017
   0.16827383  0.16428132  0.51280659
  -0.00324320  0.24911085  0.61404887
   0.91840177  0.91897064  0.50759612
   0.08333333  0.58333333  0.40830017
  -0.00012188  0.49844976  0.61753009
   0.00136978  0.75129971  0.61500972
   0.91420931  0.66849147  0.51024970
   0.33333333  0.08333333  0.40830017
   0.74676652  0.75129720  0.61108114
   0.24960043 -0.00173719  0.61360844
   0.91515385  0.41858097  0.51013225
   0.16922431  0.66937180  0.50779413
   0.25364138  0.49828524  0.61589342
   0.41717418  0.41724154  0.50607191
   0.41978713  0.91409413  0.50727784
   0.49932259  0.74699545  0.60909893
   0.66707990  0.16531705  0.50637328
   0.74736968  0.00337813  0.61157308
   0.83333333  0.33333333  0.40830017
   0.66577956  0.41963808  0.50724847
   0.83333333  0.83333333  0.40830017
   0.16973499  0.41492060  0.51108116
   0.41766173  0.16549250  0.50629196
   0.58333333  0.08333333  0.40830017
   0.66637116  0.91703930  0.50759147
   0.16872632  0.91704882  0.50688587
   0.33333333  0.33333333  0.40830017
   0.08333333  0.83333333  0.40830017
   0.33333333  0.58333333  0.40830017
   0.25145995  0.24912076  0.60792510
   0.49740297  0.00252418  0.60378357
   0.33333333  0.83333333  0.40830017
   0.58333333  0.33333333  0.40830017
   0.74752716  0.25162065  0.60456494
   0.41730489  0.66874885  0.50529688
   0.58333333  0.58333333  0.40830017
   0.58333333  0.83333333  0.40830017
   0.91761231  0.16691525  0.50841258
   0.74892874  0.49926469  0.60604372
   0.66589377  0.66882777  0.50671215
   0.83333333  0.58333333  0.40830017
   0.00013361 -0.00050176  0.60422670
   0.83333333  0.08333333  0.40830017
   0.50044215  0.49831675  0.60382844
   0.49843854  0.24951141  0.60378494
   0.25063072  0.74851480  0.60404605
Direct configuration=    13
   0.08333333  0.08333333  0.40830017
   0.08333333  0.33333333  0.40830017
   0.16839075  0.16423064  0.51282610
  -0.00321177  0.24907432  0.61408248
   0.91843480  0.91896032  0.50757515
   0.08333333  0.58333333  0.40830017
  -0.00010706  0.49844129  0.61762678
   0.00138322  0.75129692  0.61504198
   0.91414463  0.66853172  0.51020918
   0.33333333  0.08333333  0.40830017
   0.74677981  0.75126885  0.61112739
   0.24958265 -0.00171908  0.61360938
   0.91507131  0.41860983  0.51012979
   0.16927222  0.66946533  0.50778766
   0.25363158  0.49826798  0.61589179
   0.41709778  0.41727585  0.50606879
   0.41984241  0.91409707  0.50724339
   0.49928235  0.74701693  0.60905595
   0.66701972  0.16537796  0.50637462
   0.74735015  0.00340730  0.61153715
   0.83333333  0.33333333  0.40830017
   0.66590150  0.41963192  0.50725672
   0.83333333  0.83333333  0.40830017
   0.16988672  0.41479129  0.51112575
   0.41765933  0.16543245  0.50633018
   0.58333333  0.08333333  0.40830017
   0.66623439  0.91713701  0.50763357
   0.16878265  0.91693806  0.50691610
   0.33333333  0.33333333  0.40830017
   0.08333333  0.83333333  0.40830017
   0.33333333  0.58333333  0.40830017
   0.25142421  0.24911045  0.60800530
   0.49732751  0.00256686  0.60382644
   0.33333333  0.83333333  0.40830017
   0.58333333  0.33333333  0.40830017
   0.74752924  0.25162959  0.60457585
   0.41731001  0.66880513  0.50535346
   0.58333333  0.58333333  0.40830017
   0.58333333  0.83333333  0.40830017
   0.91756316  0.16696279  0.50843535
   0.74887682  0.49919740  0.60608497
   0.66597077  0.66879161  0.50677777
   0.83333333  0.58333333  0.40830017
   0.00010457 -0.00048267  0.60430054
   0.83333333  0.08333333  0.40830017
   0.50046529  0.49826702  0.60383556
   0.49844257  0.24951532  0.60379976
   0.25057653  0.74851777  0.60410236
Direct configuration=    14
   0.08333333  0.08333333  0.40830017
   0.08333333  0.33333333  0.40830017
   0.16815643  0.16432609  0.51297269
  -0.00329819  0.24896620  0.61413070
   0.91859600  0.91892027  0.50762103
   0.08333333  0.58333333  0.40830017
  -0.00007789  0.49850059  0.61789078
   0.00129183  0.75121106  0.61508179
   0.91419247  0.66839006  0.51015187
   0.33333333  0.08333333  0.40830017
   0.74668063  0.75131872  0.61124453
   0.24948683 -0.00188651  0.61360558
   0.91541111  0.41873988  0.51022896
   0.16915064  0.66954557  0.50781246
   0.25369660  0.49817484  0.61583530
   0.41695175  0.41726097  0.50601917
   0.42005602  0.91398198  0.50710066
   0.49925937  0.74680658  0.60895359
   0.66679667  0.16547938  0.50630264
   0.74719471  0.00345572  0.61137327
   0.83333333  0.33333333  0.40830017
   0.66567431  0.41988869  0.50726728
   0.83333333  0.83333333  0.40830017
   0.16990686  0.41484576  0.51135320
   0.41808429  0.16529488  0.50644337
   0.58333333  0.08333333  0.40830017
   0.66610938  0.91736294  0.50769113
   0.16889249  0.91701244  0.50700833
   0.33333333  0.33333333  0.40830017
   0.08333333  0.83333333  0.40830017
   0.33333333  0.58333333  0.40830017
   0.25137869  0.24920145  0.60816414
   0.49718424  0.00263400  0.60395136
   0.33333333  0.83333333  0.40830017
   0.58333333  0.33333333  0.40830017
   0.74735661  0.25162689  0.60459910
   0.41765913  0.66881867  0.50537147
   0.58333333  0.58333333  0.40830017
   0.58333333  0.83333333  0.40830017
   0.91776380  0.16690739  0.50855918
   0.74878615  0.49913893  0.60621333
   0.66613351  0.66866412  0.50682246
   0.83333333  0.58333333  0.40830017
  -0.00002249 -0.00040718  0.60447553
   0.83333333  0.08333333  0.40830017
   0.50044570  0.49807979  0.60387334
   0.49838664  0.24966675  0.60384780
   0.25054587  0.74844163  0.60429322
Direct configuration=    15
   0.08333333  0.08333333  0.40830017
   0.08333333  0.33333333  0.40830017
   0.16807588  0.16435890  0.51302309
  -0.00332789  0.24892903  0.61414727
   0.91865141  0.91890650  0.50763681
   0.08333333  0.58333333  0.40830017
  -0.00006786  0.49852098  0.61798154
   0.00126041  0.75118154  0.61509547
   0.91420892  0.66834136  0.51013216
   0.33333333  0.08333333  0.40830017
   0.74664653  0.75133587  0.61128481
   0.24945388 -0.00194408  0.61360427
   0.91552793  0.41878460  0.51026305
   0.16910884  0.66957315  0.50782099
   0.25371896  0.49814282  0.61581588
   0.41690155  0.41725585  0.50600211
   0.42012945  0.91394241  0.50705160
   0.49925147  0.74673427  0.60891839
   0.66671999  0.16551425  0.50627789
   0.74714127  0.00347237  0.61131693
   0.83333333  0.33333333  0.40830017
   0.66559620  0.41997697  0.50727092
   0.83333333  0.83333333  0.40830017
   0.16991378  0.41486448  0.51143140
   0.41823039  0.16524759  0.50648228
   0.58333333  0.08333333  0.40830017
   0.66606641  0.91744061  0.50771092
   0.16893025  0.91703801  0.50704004
   0.33333333  0.33333333  0.40830017
   0.08333333  0.83333333  0.40830017
   0.33333333  0.58333333  0.40830017
   0.25136304  0.24923273  0.60821875
   0.49713499  0.00265708  0.60399431
   0.33333333  0.83333333  0.40830017
   0.58333333  0.33333333  0.40830017
   0.74729725  0.25162596  0.60460710
   0.41777916  0.66882333  0.50537767
   0.58333333  0.58333333  0.40830017
   0.58333333  0.83333333  0.40830017
   0.91783277  0.16688834  0.50860175
   0.74875498  0.49911882  0.60625746
   0.66618946  0.66862029  0.50683782
   0.83333333  0.58333333  0.40830017
  -0.00006617 -0.00038123  0.60453569
   0.83333333  0.08333333  0.40830017
   0.50043896  0.49801542  0.60388633
   0.49836741  0.24971881  0.60386432
   0.25053533  0.74841545  0.60435884
Direct configuration=    16
   0.08333333  0.08333333  0.40830017
   0.08333333  0.33333333  0.40830017
   0.16811008  0.16448248  0.51320353
  -0.00355298  0.24902369  0.61419763
   0.91865435  0.91900846  0.50773595
   0.08333333  0.58333333  0.40830017
  -0.00021457  0.49854463  0.61822205
   0.00109263  0.75116276  0.61508482
   0.91422298  0.66848301  0.51014847
   0.33333333  0.08333333  0.40830017
   0.74647589  0.75137214  0.61136469
   0.24948447 -0.00217667  0.61360291
   0.91570261  0.41875417  0.51042320
   0.16916633  0.66956049  0.50789185
   0.25371936  0.49820220  0.61577616
   0.41682781  0.41742886  0.50593724
   0.42012396  0.91411616  0.50697311
   0.49925970  0.74655442  0.60885079
   0.66700365  0.16559089  0.50618983
   0.74698637  0.00342043  0.61114442
   0.83333333  0.33333333  0.40830017
   0.66563892  0.41993526  0.50728411
   0.83333333  0.83333333  0.40830017
   0.16988907  0.41491754  0.51164966
   0.41817799  0.16531182  0.50657402
   0.58333333  0.08333333  0.40830017
   0.66645340  0.91718308  0.50771630
   0.16906464  0.91714554  0.50714132
   0.33333333  0.33333333  0.40830017
   0.08333333  0.83333333  0.40830017
   0.33333333  0.58333333  0.40830017
   0.25136481  0.24919353  0.60831898
   0.49699291  0.00260324  0.60409531
   0.33333333  0.83333333  0.40830017
   0.58333333  0.33333333  0.40830017
   0.74711654  0.25160415  0.60460818
   0.41774411  0.66878524  0.50532001
   0.58333333  0.58333333  0.40830017
   0.58333333  0.83333333  0.40830017
   0.91777709  0.16697236  0.50871757
   0.74888196  0.49907292  0.60635575
   0.66645052  0.66855570  0.50681354
   0.83333333  0.58333333  0.40830017
  -0.00025737 -0.00044662  0.60468303
   0.83333333  0.08333333  0.40830017
   0.50033923  0.49789101  0.60392890
   0.49829679  0.24977902  0.60391913
   0.25048945  0.74825579  0.60449465
Direct configuration=    17
   0.08333333  0.08333333  0.40830017
   0.08333333  0.33333333  0.40830017
   0.16811916  0.16451531  0.51325148
  -0.00361279  0.24904884  0.61421102