  48  48   0   0
  0.5349325E+02  0.1100258E-08  0.1100258E-08  0.2449179E-08  0.3500000E-15
  1.000000000000000E-004
  CAR 
 unknown system                          
      6.38008129     -9.69388309  301     -1.10360865      1.00000000
     -9.694  0.0000E+00  0.0000E+00
     -9.640  0.0000E+00  0.0000E+00
     -9.587  0.0000E+00  0.0000E+00
     -9.533  0.0000E+00  0.0000E+00
     -9.480  0.0000E+00  0.0000E+00
     -9.426  0.0000E+00  0.0000E+00
     -9.372  0.0000E+00  0.0000E+00
     -9.319  0.0000E+00  0.0000E+00
     -9.265  0.6907E-17  0.3701E-18
     -9.212  0.2799E-14  0.1503E-15
     -9.158  0.6222E-12  0.3349E-13
     -9.105  0.7885E-10  0.4258E-11
     -9.051  0.5705E-08  0.3099E-09
     -8.997  0.2361E-06  0.1296E-07
     -8.944  0.5602E-05  0.3131E-06
     -8.890  0.7636E-04  0.4404E-05
     -8.837  0.5994E-03  0.3652E-04
     -8.783  0.2717E-02  0.1821E-03
     -8.729  0.7128E-02  0.5640E-03
     -8.676  0.1093E-01  0.1150E-02
     -8.622  0.1041E-01  0.1707E-02
     -8.569  0.8379E-02  0.2156E-02
     -8.515  0.9493E-02  0.2665E-02
     -8.462  0.1105E-01  0.3257E-02
     -8.408  0.8574E-02  0.3717E-02
     -8.354  0.4040E-02  0.3933E-02
     -8.301  0.1444E-02  0.4010E-02
     -8.247  0.1717E-02  0.4102E-02
     -8.194  0.4302E-02  0.4333E-02
     -8.140  0.7747E-02  0.4748E-02
     -8.086  0.9709E-02  0.5268E-02
     -8.033  0.9517E-02  0.5778E-02
     -7.979  0.9411E-02  0.6282E-02
     -7.926  0.1201E-01  0.6926E-02
     -7.872  0.1693E-01  0.7833E-02
     -7.819  0.2062E-01  0.8937E-02
     -7.765  0.2036E-01  0.1003E-01
     -7.711  0.1680E-01  0.1093E-01
     -7.658  0.1185E-01  0.1156E-01
     -7.604  0.8119E-02  0.1200E-01
     -7.551  0.8686E-02  0.1246E-01
     -7.497  0.1353E-01  0.1319E-01
     -7.444  0.1842E-01  0.1418E-01
     -7.390  0.1971E-01  0.1523E-01
     -7.336  0.1953E-01  0.1628E-01
     -7.283  0.2311E-01  0.1752E-01
     -7.229  0.2913E-01  0.1908E-01
     -7.176  0.3133E-01  0.2076E-01
     -7.122  0.2988E-01  0.2236E-01
     -7.068  0.3023E-01  0.2398E-01
     -7.015  0.3347E-01  0.2577E-01
     -6.961  0.3886E-01  0.2785E-01
     -6.908  0.4960E-01  0.3051E-01
     -6.854  0.6560E-01  0.3402E-01
     -6.801  0.8009E-01  0.3832E-01
     -6.747  0.9109E-01  0.4320E-01
     -6.693  0.1013E+00  0.4863E-01
     -6.640  0.1092E+00  0.5448E-01
     -6.586  0.1142E+00  0.6060E-01
     -6.533  0.1167E+00  0.6685E-01
     -6.479  0.1129E+00  0.7290E-01
     -6.426  0.1052E+00  0.7853E-01
     -6.372  0.1026E+00  0.8403E-01
     -6.318  0.1104E+00  0.8994E-01
     -6.265  0.1239E+00  0.9658E-01
     -6.211  0.1353E+00  0.1038E+00
     -6.158  0.1421E+00  0.1114E+00
     -6.104  0.1467E+00  0.1193E+00
     -6.050  0.1504E+00  0.1274E+00
     -5.997  0.1537E+00  0.1356E+00
     -5.943  0.1571E+00  0.1440E+00
     -5.890  0.1574E+00  0.1524E+00
     -5.836  0.1505E+00  0.1605E+00
     -5.783  0.1412E+00  0.1681E+00
     -5.729  0.1375E+00  0.1754E+00
     -5.675  0.1403E+00  0.1830E+00
     -5.622  0.1434E+00  0.1906E+00
     -5.568  0.1435E+00  0.1983E+00
     -5.515  0.1424E+00  0.2060E+00
     -5.461  0.1411E+00  0.2135E+00
     -5.407  0.1405E+00  0.2210E+00
     -5.354  0.1436E+00  0.2287E+00
     -5.300  0.1529E+00  0.2369E+00
     -5.247  0.1668E+00  0.2459E+00
     -5.193  0.1780E+00  0.2554E+00
     -5.140  0.1803E+00  0.2651E+00
     -5.086  0.1769E+00  0.2745E+00
     -5.032  0.1737E+00  0.2838E+00
     -4.979  0.1726E+00  0.2931E+00
     -4.925  0.1726E+00  0.3023E+00
     -4.872  0.1709E+00  0.3115E+00
     -4.818  0.1665E+00  0.3204E+00
     -4.765  0.1628E+00  0.3291E+00
     -4.711  0.1636E+00  0.3379E+00
     -4.657  0.1680E+00  0.3469E+00
     -4.604  0.1746E+00  0.3563E+00
     -4.550  0.1810E+00  0.3660E+00
     -4.497  0.1842E+00  0.3758E+00
     -4.443  0.1840E+00  0.3857E+00
     -4.389  0.1823E+00  0.3955E+00
     -4.336  0.1812E+00  0.4052E+00
     -4.282  0.1802E+00  0.4148E+00
     -4.229  0.1778E+00  0.4243E+00
     -4.175  0.1762E+00  0.4338E+00
     -4.122  0.1778E+00  0.4433E+00
     -4.068  0.1799E+00  0.4530E+00
     -4.014  0.1812E+00  0.4627E+00
     -3.961  0.1848E+00  0.4726E+00
     -3.907  0.1905E+00  0.4828E+00
     -3.854  0.1951E+00  0.4932E+00
     -3.800  0.1977E+00  0.5038E+00
     -3.747  0.2002E+00  0.5145E+00
     -3.693  0.2033E+00  0.5254E+00
     -3.639  0.2051E+00  0.5364E+00
     -3.586  0.2061E+00  0.5475E+00
     -3.532  0.2080E+00  0.5586E+00
     -3.479  0.2101E+00  0.5699E+00
     -3.425  0.2116E+00  0.5812E+00
     -3.371  0.2122E+00  0.5926E+00
     -3.318  0.2098E+00  0.6038E+00
     -3.264  0.2045E+00  0.6148E+00
     -3.211  0.1991E+00  0.6254E+00
     -3.157  0.1961E+00  0.6359E+00
     -3.104  0.1942E+00  0.6463E+00
     -3.050  0.1898E+00  0.6565E+00
     -2.996  0.1832E+00  0.6663E+00
     -2.943  0.1797E+00  0.6760E+00
     -2.889  0.1800E+00  0.6856E+00
     -2.836  0.1808E+00  0.6953E+00
     -2.782  0.1815E+00  0.7050E+00
     -2.728  0.1821E+00  0.7148E+00
     -2.675  0.1821E+00  0.7245E+00
     -2.621  0.1817E+00  0.7343E+00
     -2.568  0.1802E+00  0.7439E+00
     -2.514  0.1795E+00  0.7535E+00
     -2.461  0.1814E+00  0.7633E+00
     -2.407  0.1839E+00  0.7731E+00
     -2.353  0.1858E+00  0.7831E+00
     -2.300  0.1863E+00  0.7931E+00
     -2.246  0.1833E+00  0.8029E+00
     -2.193  0.1780E+00  0.8124E+00
     -2.139  0.1749E+00  0.8218E+00
     -2.086  0.1751E+00  0.8312E+00
     -2.032  0.1783E+00  0.8407E+00
     -1.978  0.1854E+00  0.8506E+00
     -1.925  0.1927E+00  0.8610E+00
     -1.871  0.1943E+00  0.8714E+00
     -1.818  0.1918E+00  0.8817E+00
     -1.764  0.1914E+00  0.8919E+00
     -1.710  0.1918E+00  0.9022E+00
     -1.657  0.1890E+00  0.9123E+00
     -1.603  0.1868E+00  0.9223E+00
     -1.550  0.1891E+00  0.9325E+00
     -1.496  0.1917E+00  0.9427E+00
     -1.443  0.1918E+00  0.9530E+00
     -1.389  0.1910E+00  0.9632E+00
     -1.335  0.1883E+00  0.9733E+00
     -1.282  0.1809E+00  0.9830E+00
     -1.228  0.1672E+00  0.9920E+00
     -1.175  0.1461E+00  0.9998E+00
     -1.121  0.1197E+00  0.1006E+01
     -1.068  0.9359E-01  0.1011E+01
     -1.014  0.7010E-01  0.1015E+01
     -0.960  0.4861E-01  0.1018E+01
     -0.907  0.3075E-01  0.1019E+01
     -0.853  0.2051E-01  0.1020E+01
     -0.800  0.1878E-01  0.1021E+01
     -0.746  0.2034E-01  0.1022E+01
     -0.692  0.2020E-01  0.1024E+01
     -0.639  0.2011E-01  0.1025E+01
     -0.585  0.2519E-01  0.1026E+01
     -0.532  0.3538E-01  0.1028E+01
     -0.478  0.4403E-01  0.1030E+01
     -0.425  0.4469E-01  0.1033E+01
     -0.371  0.3792E-01  0.1035E+01
     -0.317  0.3171E-01  0.1036E+01
     -0.264  0.3339E-01  0.1038E+01
     -0.210  0.3946E-01  0.1040E+01
     -0.157  0.4059E-01  0.1042E+01
     -0.103  0.3492E-01  0.1044E+01
     -0.050  0.2803E-01  0.1046E+01
      0.004  0.2469E-01  0.1047E+01
      0.058  0.2622E-01  0.1049E+01
      0.111  0.3136E-01  0.1050E+01
      0.165  0.3483E-01  0.1052E+01
      0.218  0.3382E-01  0.1054E+01
      0.272  0.3378E-01  0.1056E+01
      0.326  0.3758E-01  0.1058E+01
      0.379  0.4097E-01  0.1060E+01
      0.433  0.4111E-01  0.1062E+01
      0.486  0.3831E-01  0.1064E+01
      0.540  0.3532E-01  0.1066E+01
      0.593  0.3574E-01  0.1068E+01
      0.647  0.3938E-01  0.1070E+01
      0.701  0.4296E-01  0.1072E+01
      0.754  0.4237E-01  0.1075E+01
      0.808  0.3464E-01  0.1076E+01
      0.861  0.2372E-01  0.1078E+01
      0.915  0.1843E-01  0.1079E+01
      0.969  0.2098E-01  0.1080E+01
      1.022  0.2553E-01  0.1081E+01
      1.076  0.2714E-01  0.1083E+01
      1.129  0.2462E-01  0.1084E+01
      1.183  0.1894E-01  0.1085E+01
      1.236  0.1388E-01  0.1086E+01
      1.290  0.1254E-01  0.1086E+01
      1.344  0.1306E-01  0.1087E+01
      1.397  0.1304E-01  0.1088E+01
      1.451  0.1583E-01  0.1089E+01
      1.504  0.2504E-01  0.1090E+01
      1.558  0.3555E-01  0.1092E+01
      1.611  0.3860E-01  0.1094E+01
      1.665  0.3483E-01  0.1096E+01
      1.719  0.3382E-01  0.1098E+01
      1.772  0.3764E-01  0.1100E+01
      1.826  0.3791E-01  0.1102E+01
      1.879  0.3122E-01  0.1103E+01
      1.933  0.2274E-01  0.1105E+01
      1.987  0.1666E-01  0.1106E+01
      2.040  0.1429E-01  0.1106E+01
      2.094  0.1760E-01  0.1107E+01
      2.147  0.2515E-01  0.1109E+01
      2.201  0.3211E-01  0.1110E+01
      2.254  0.3726E-01  0.1112E+01
      2.308  0.4164E-01  0.1115E+01
      2.362  0.4441E-01  0.1117E+01
      2.415  0.4502E-01  0.1119E+01
      2.469  0.4447E-01  0.1122E+01
      2.522  0.4419E-01  0.1124E+01
      2.576  0.4511E-01  0.1126E+01
      2.629  0.4698E-01  0.1129E+01
      2.683  0.4729E-01  0.1132E+01
      2.737  0.4350E-01  0.1134E+01
      2.790  0.3571E-01  0.1136E+01
      2.844  0.2591E-01  0.1137E+01
      2.897  0.1797E-01  0.1138E+01
      2.951  0.1500E-01  0.1139E+01
      3.005  0.1484E-01  0.1140E+01
      3.058  0.1498E-01  0.1141E+01
      3.112  0.1537E-01  0.1141E+01
      3.165  0.1659E-01  0.1142E+01
      3.219  0.2033E-01  0.1143E+01
      3.272  0.2413E-01  0.1145E+01
      3.326  0.2304E-01  0.1146E+01
      3.380  0.1893E-01  0.1147E+01
      3.433  0.1725E-01  0.1148E+01
      3.487  0.2046E-01  0.1149E+01
      3.540  0.2720E-01  0.1150E+01
      3.594  0.3318E-01  0.1152E+01
      3.648  0.3621E-01  0.1154E+01
      3.701  0.3747E-01  0.1156E+01
      3.755  0.3598E-01  0.1158E+01
      3.808  0.3015E-01  0.1160E+01
      3.862  0.2303E-01  0.1161E+01
      3.915  0.1924E-01  0.1162E+01
      3.969  0.2108E-01  0.1163E+01
      4.023  0.2634E-01  0.1164E+01
      4.076  0.2923E-01  0.1166E+01
      4.130  0.2868E-01  0.1168E+01
      4.183  0.2770E-01  0.1169E+01
      4.237  0.2538E-01  0.1170E+01
      4.290  0.2017E-01  0.1171E+01
      4.344  0.1696E-01  0.1172E+01
      4.398  0.2110E-01  0.1173E+01
      4.451  0.2875E-01  0.1175E+01
      4.505  0.3499E-01  0.1177E+01
      4.558  0.4221E-01  0.1179E+01
      4.612  0.5131E-01  0.1182E+01
      4.666  0.5563E-01  0.1185E+01
      4.719  0.5108E-01  0.1188E+01
      4.773  0.4468E-01  0.1190E+01
      4.826  0.4323E-01  0.1192E+01
      4.880  0.4593E-01  0.1195E+01
      4.933  0.5217E-01  0.1198E+01
      4.987  0.6177E-01  0.1201E+01
      5.041  0.7036E-01  0.1205E+01
      5.094  0.7330E-01  0.1209E+01
      5.148  0.7029E-01  0.1212E+01
      5.201  0.6396E-01  0.1216E+01
      5.255  0.5518E-01  0.1219E+01
      5.308  0.4304E-01  0.1221E+01
      5.362  0.2908E-01  0.1223E+01
      5.416  0.1633E-01  0.1223E+01
      5.469  0.7044E-02  0.1224E+01
      5.523  0.2108E-02  0.1224E+01
      5.576  0.4050E-03  0.1224E+01
      5.630  0.4764E-04  0.1224E+01
      5.684  0.3341E-05  0.1224E+01
      5.737  0.1376E-06  0.1224E+01
      5.791  0.3298E-08  0.1224E+01
      5.844  0.4568E-10  0.1224E+01
      5.898  0.3639E-12  0.1224E+01
      5.951  0.1662E-14  0.1224E+01
      6.005  0.4144E-17  0.1224E+01
      6.059  0.0000E+00  0.1224E+01
      6.112  0.0000E+00  0.1224E+01
      6.166  0.0000E+00  0.1224E+01
      6.219  0.0000E+00  0.1224E+01
      6.273  0.0000E+00  0.1224E+01
      6.327  0.0000E+00  0.1224E+01
      6.380  0.0000E+00  0.1224E+01
