 vasp.5.4.1 24Jun15 (build Mar 14 2019 10:18:33) complex                        
  
 executed on INTEL-19.0.2+OPENMPI date 2023.01.31  01:03:40
 running on   36 total cores
 distrk:  each k-point on   36 cores,    1 groups
 distr:  one band on NCORES_PER_BAND=   6 cores,    6 groups


--------------------------------------------------------------------------------------------------------


 INCAR:
 POTCAR:    PAW_PBE Au 04Oct2007                  
 POTCAR:    PAW_PBE Pd 04Jan2005                  
 POTCAR:    PAW_PBE Au 04Oct2007                  
  local pseudopotential read in
  partial core-charges read in
  partial kinetic energy density read in
  atomic valenz-charges read in
  non local Contribution for L=           2  read in
    real space projection operators read in
  non local Contribution for L=           2  read in
    real space projection operators read in
  non local Contribution for L=           0  read in
    real space projection operators read in
  non local Contribution for L=           0  read in
    real space projection operators read in
  non local Contribution for L=           1  read in
    real space projection operators read in
  non local Contribution for L=           1  read in
    real space projection operators read in
    PAW grid and wavefunctions read in
 
   number of l-projection  operators is LMAX  =           6
   number of lm-projection operators is LMMAX =          18
 
 POTCAR:    PAW_PBE Pd 04Jan2005                  
  local pseudopotential read in
  partial core-charges read in
  partial kinetic energy density read in
  atomic valenz-charges read in
  non local Contribution for L=           2  read in
    real space projection operators read in
  non local Contribution for L=           2  read in
    real space projection operators read in
  non local Contribution for L=           0  read in
    real space projection operators read in
  non local Contribution for L=           0  read in
    real space projection operators read in
  non local Contribution for L=           1  read in
    real space projection operators read in
  non local Contribution for L=           1  read in
    real space projection operators read in
    PAW grid and wavefunctions read in
 
   number of l-projection  operators is LMAX  =           6
   number of lm-projection operators is LMMAX =          18
 
 Optimization of the real space projectors (new method)

 maximal supplied QI-value         = 15.12
 optimisation between [QCUT,QGAM] = [ 10.13, 20.41] = [ 28.73,116.64] Ry 
 Optimized for a Real-space Cutoff    1.51 Angstroem

   l    n(q)    QCUT    max X(q) W(low)/X(q) W(high)/X(q)  e(spline) 
   2      8    10.129    60.898    0.46E-03    0.46E-03    0.14E-06
   2      8    10.129    58.894    0.47E-03    0.47E-03    0.14E-06
   0      9    10.129   109.617    0.16E-03    0.11E-03    0.54E-07
   0      9    10.129    75.026    0.15E-03    0.11E-03    0.52E-07
   1      9    10.129    16.344    0.96E-04    0.15E-03    0.14E-06
   1      9    10.129    10.160    0.81E-04    0.12E-03    0.11E-06
 Optimization of the real space projectors (new method)

 maximal supplied QI-value         = 14.36
 optimisation between [QCUT,QGAM] = [ 10.20, 20.39] = [ 29.12,116.47] Ry 
 Optimized for a Real-space Cutoff    1.51 Angstroem

   l    n(q)    QCUT    max X(q) W(low)/X(q) W(high)/X(q)  e(spline) 
   2      8    10.197    59.108    0.26E-03    0.14E-03    0.96E-07
   2      8    10.197    58.101    0.27E-03    0.14E-03    0.98E-07
   0      9    10.197   102.235    0.54E-04    0.60E-05    0.72E-07
   0      9    10.197    58.388    0.52E-04    0.60E-05    0.68E-07
   1      9    10.197    22.191    0.18E-03    0.25E-03    0.79E-07
   1      9    10.197    15.590    0.15E-03    0.21E-03    0.69E-07
  PAW_PBE Au 04Oct2007                  :
 energy of atom  1       EATOM= -926.0867
 kinetic energy error for atom=    0.0062 (will be added to EATOM!!)
  PAW_PBE Pd 04Jan2005                  :
 energy of atom  2       EATOM= -809.7530
 kinetic energy error for atom=    0.0091 (will be added to EATOM!!)
 
 
 POSCAR: Au Pd                                   
  positions in cartesian coordinates
  No initial velocities read in
 exchange correlation table for  LEXCH =        8
   RHO(1)=    0.500       N(1)  =     2000
   RHO(2)=  100.500       N(2)  =     4000

 VTST: version 3.2, (02/03/18)

 CHAIN: initializing optimizer
 
 OPT: Using VASP Conjugate-Gradient optimizer
 CHAIN: Read ICHAIN            0
 
 POSCAR: Au Pd                                   
  positions in cartesian coordinates
  No initial velocities read in
 


--------------------------------------------------------------------------------------------------------


 ion  position               nearest neighbor table
   1  0.083  0.083  0.408-  12 2.75   8 2.75  18 2.75  24 2.75  28 2.75  17 2.75   5 2.75  35 2.75
                            29 2.75
   2  0.917  0.917  0.500-  36 2.75  10 2.75  41 2.75  29 2.75  13 2.75  16 2.75  42 2.75  35 2.75
                            19 2.75  17 2.75  28 2.75  32 2.75
   3  0.417  0.667  0.500-  15 2.75  14 2.75  38 2.75  37 2.75  35 2.75  43 2.75  44 2.75  16 2.75
                             7 2.75  18 2.75  39 2.75  46 2.75
   4  0.083  0.583  0.408-  16 2.75  11 2.75   8 2.75  28 2.75  36 2.75  15 2.75   6 2.75  26 2.75
                            13 2.75
   5  0.333  0.083  0.408-  20 2.75  11 2.75  18 2.75   8 2.75  40 2.75   1 2.75  47 2.75  43 2.75
                            12 2.75
   6  0.833  0.583  0.408-  13 2.75   8 2.75  24 2.75  36 2.75  40 2.75   4 2.75  46 2.75  31 2.75
                             7 2.75
   7  0.667  0.667  0.500-  46 2.75   9 2.75  39 2.75  19 2.75  43 2.75  44 2.75  31 2.75   3 2.75
                            13 2.75  40 2.75   6 2.75  48 2.75
   8  0.083  0.333  0.408-  26 2.75   4 2.75   5 2.75   6 2.75   1 2.75  24 2.75  11 2.75  12 2.75
                            31 2.75
   9  0.750  0.500  0.592-   7 2.75  31 2.75  30 2.75  39 2.75  45 2.75  48 2.75  34 2.75  14 2.75
                            44 2.75
  10  0.000  0.750  0.592-   2 2.75  16 2.75  32 2.75  33 2.75  34 2.75  41 2.75  38 2.75  48 2.75
                            13 2.75
  11  0.333  0.333  0.408-  37 2.75   5 2.75  15 2.75   4 2.75  47 2.75   8 2.75  22 2.75  20 2.75
                            26 2.75
  12  0.167  0.167  0.500-   1 2.75  27 2.75  30 2.75  26 2.75  31 2.75  35 2.75  43 2.75  20 2.75
                            29 2.75   8 2.75  25 2.75   5 2.75
  13  0.917  0.667  0.500-   6 2.75  34 2.75  48 2.75  26 2.75  31 2.75   2 2.75  19 2.75  16 2.75
                             7 2.75  36 2.75  10 2.75   4 2.75
  14  0.500  0.500  0.592-   3 2.75  44 2.75  38 2.75  39 2.75  23 2.75  45 2.75   9 2.75  33 2.75
                            37 2.75
  15  0.333  0.583  0.408-   3 2.75  11 2.75  18 2.75  22 2.75  28 2.75   4 2.75  46 2.75  37 2.75
                            16 2.75
  16  0.167  0.667  0.500-   4 2.75  33 2.75  10 2.75  26 2.75   2 2.75  35 2.75  37 2.75   3 2.75
                            13 2.75  28 2.75  15 2.75  38 2.75
  17  0.833  0.083  0.408-  29 2.75  24 2.75  28 2.75  22 2.75  36 2.75   1 2.75  47 2.75   2 2.75
                            42 2.75
  18  0.333  0.833  0.408-  43 2.75   5 2.75  15 2.75   1 2.75  46 2.75  28 2.75  40 2.75   3 2.75
                            35 2.75
  19  0.667  0.917  0.500-  40 2.75  48 2.75  21 2.75   7 2.75  13 2.75  42 2.75  20 2.75  43 2.75
                             2 2.75  47 2.75  36 2.75  41 2.75
  20  0.417  0.167  0.500-   5 2.75  21 2.75  25 2.75  19 2.75  26 2.75  37 2.75  43 2.75  42 2.75
                            12 2.75  11 2.75  23 2.75  47 2.75
  21  0.500  0.000  0.592-  20 2.75  19 2.75  23 2.75  25 2.75  39 2.75  48 2.75  41 2.75  27 2.75
                            43 2.75
  22  0.583  0.333  0.408-  44 2.75  17 2.75  15 2.75  46 2.75  47 2.75  24 2.75  11 2.75  42 2.75
                            37 2.75
  23  0.500  0.250  0.592-  37 2.75  42 2.75  33 2.75  14 2.75  41 2.75  21 2.75  25 2.75  45 2.75
                            20 2.75
  24  0.833  0.333  0.408-  31 2.75   6 2.75  17 2.75   1 2.75  46 2.75   8 2.75  22 2.75  29 2.75
                            44 2.75
  25  0.250  0.250  0.592-  26 2.75  20 2.75  21 2.75  27 2.75  33 2.75  34 2.75  23 2.75  30 2.75
                            12 2.75
  26  0.167  0.417  0.500-   8 2.75  25 2.75  34 2.75  16 2.75  20 2.75  12 2.75  13 2.75  31 2.75
                            37 2.75   4 2.75  11 2.75  33 2.75
  27  0.250  0.000  0.592-  12 2.75  43 2.75  30 2.75  38 2.75  39 2.75  25 2.75  32 2.75  21 2.75
                            35 2.75
  28  0.083  0.833  0.408-  35 2.75   4 2.75  15 2.75  17 2.75   1 2.75  18 2.75  36 2.75  16 2.75
                             2 2.75
  29  0.917  0.167  0.500-  17 2.75  32 2.75  45 2.75   2 2.75  35 2.75  44 2.75  31 2.75  12 2.75
                            42 2.75  24 2.75   1 2.75  30 2.75
  30  0.000  0.250  0.592-  31 2.75  12 2.75  27 2.75   9 2.75  32 2.75  34 2.75  25 2.75  45 2.75
                            29 2.75
  31  0.917  0.417  0.500-  24 2.75  30 2.75   9 2.75  13 2.75   7 2.75  29 2.75  12 2.75  26 2.75
                            44 2.75   6 2.75  34 2.75   8 2.75
  32  0.000  0.000  0.592-  29 2.75  35 2.75  30 2.75  10 2.75  38 2.75  45 2.75  41 2.75  27 2.75
                             2 2.75
  33  0.250  0.500  0.592-  16 2.75  37 2.75  23 2.75  25 2.75  10 2.75  38 2.75  14 2.75  34 2.75
                            26 2.75
  34  0.000  0.500  0.592-  13 2.75  26 2.75  25 2.75  10 2.75  30 2.75  48 2.75  33 2.75   9 2.75
                            31 2.75
  35  0.167  0.917  0.500-  28 2.75  38 2.75  32 2.75   3 2.75  29 2.75  12 2.75  16 2.75   2 2.75
                            43 2.75   1 2.75  27 2.75  18 2.75
  36  0.833  0.833  0.408-   2 2.75   4 2.75   6 2.75  17 2.75  47 2.75  40 2.75  28 2.75  13 2.75
                            19 2.75
  37  0.417  0.417  0.500-  11 2.75  23 2.75  33 2.75  20 2.75   3 2.75  16 2.75  42 2.75  26 2.75
                            44 2.75  15 2.75  22 2.75  14 2.75
  38  0.250  0.750  0.592-  35 2.75   3 2.75  27 2.75  32 2.75  33 2.75  14 2.75  10 2.75  39 2.75
                            16 2.75
  39  0.500  0.750  0.592-  43 2.75   7 2.75  14 2.75  21 2.75  27 2.75   9 2.75  38 2.75  48 2.75
                             3 2.75
  40  0.583  0.833  0.408-  19 2.75   6 2.75   5 2.75  46 2.75  47 2.75  18 2.75  36 2.75   7 2.75
                            43 2.75
  41  0.750  0.000  0.592-  42 2.75   2 2.75  23 2.75  10 2.75  45 2.75  48 2.75  32 2.75  21 2.75
                            19 2.75
  42  0.667  0.167  0.500-  47 2.75  41 2.75  23 2.75  37 2.75  19 2.75  44 2.75   2 2.75  20 2.75
                            29 2.75  22 2.75  45 2.75  17 2.75
  43  0.417  0.917  0.500-  18 2.75  39 2.75  27 2.75   3 2.75  20 2.75   7 2.75  12 2.75  35 2.75
                            19 2.75   5 2.75  21 2.75  40 2.75
  44  0.667  0.417  0.500-  22 2.75  45 2.75  14 2.75   7 2.75  29 2.75  42 2.75   3 2.75  31 2.75
                            37 2.75  46 2.75   9 2.75  24 2.75
  45  0.750  0.250  0.592-  44 2.75  29 2.75   9 2.75  32 2.75  41 2.75  14 2.75  30 2.75  23 2.75
                            42 2.75
  46  0.583  0.583  0.408-   7 2.75  18 2.75  22 2.75  24 2.75  40 2.75   6 2.75  15 2.75  44 2.75
                             3 2.75
  47  0.583  0.083  0.408-  42 2.75  22 2.75  36 2.75  40 2.75  11 2.75   5 2.75  17 2.75  19 2.75
                            20 2.75
  48  0.750  0.750  0.592-  19 2.75  13 2.75   9 2.75  21 2.75  34 2.75  41 2.75  39 2.75  10 2.75
                             7 2.75
 
  LATTYP: Found a hexagonal cell.
 ALAT       =    11.0025815153
 C/A-ratio  =     2.2260035120
  
  Lattice vectors:
  
 A1 = (   5.5012907576,  -9.5285150994,   0.0000000000)
 A2 = ( -11.0025815153,   0.0000000000,   0.0000000000)
 A3 = (   0.0000000000,   0.0000000000, -24.4917850943)


Analysis of symmetry for initial positions (statically):
=====================================================================
 Subroutine PRICEL returns:
 Original cell was already a primitive cell.
 

 Routine SETGRP: Setting up the symmetry group for a 
 hexagonal supercell.


 Subroutine GETGRP returns: Found  1 space group operations
 (whereof  1 operations were pure point group operations)
 out of a pool of 24 trial point group operations.


The static configuration has the point symmetry C_1 .


Analysis of symmetry for dynamics (positions and initial velocities):
=====================================================================
 Subroutine PRICEL returns:
 Original cell was already a primitive cell.
 

 Routine SETGRP: Setting up the symmetry group for a 
 hexagonal supercell.


 Subroutine GETGRP returns: Found  1 space group operations
 (whereof  1 operations were pure point group operations)
 out of a pool of 24 trial point group operations.


The dynamic configuration has the point symmetry C_1 .


Analysis of constrained symmetry for selective dynamics:
=====================================================================
 Subroutine PRICEL returns:
 Original cell was already a primitive cell.
 

 Routine SETGRP: Setting up the symmetry group for a 
 hexagonal supercell.


 Subroutine GETGRP returns: Found  1 space group operations
 (whereof  1 operations were pure point group operations)
 out of a pool of 24 trial point group operations.


The constrained configuration has the point symmetry C_1 .
 
 
 KPOINTS: Automatic mesh                          

Automatic generation of k-mesh.
Space group operators:
 irot       det(A)        alpha          n_x          n_y          n_z        tau_x        tau_y        tau_z
    1     1.000000     0.000000     1.000000     0.000000     0.000000     0.000000     0.000000     0.000000
 
 Subroutine IBZKPT returns following result:
 ===========================================
 
 Found      6 irreducible k-points:
 
 Following reciprocal coordinates:
            Coordinates               Weight
  0.250000  0.250000  0.000000     16.000000
  0.000000  0.250000  0.000000     16.000000
 -0.250000  0.000000  0.000000     16.000000
 -0.250000  0.250000  0.000000     16.000000
  0.500000 -0.250000  0.000000     16.000000
 -0.250000  0.500000  0.000000     16.000000
 
 Following cartesian coordinates:
            Coordinates               Weight
  0.022722  0.013119  0.000000     16.000000
  0.000000  0.026237  0.000000     16.000000
 -0.022722  0.013119  0.000000     16.000000
 -0.022722  0.039356  0.000000     16.000000
  0.045444 -0.052474  0.000000     16.000000
 -0.022722  0.065593  0.000000     16.000000
 


--------------------------------------------------------------------------------------------------------




 Dimension of arrays:
   k-points           NKPTS =      6   k-points in BZ     NKDIM =      6   number of bands    NBANDS=    306
   number of dos      NEDOS =    301   number of ions     NIONS =     48
   non local maximal  LDIM  =      6   non local SUM 2l+1 LMDIM =     18
   total plane-waves  NPLWV = 349920
   max r-space proj   IRMAX =   2009   max aug-charges    IRDMAX=   8532
   dimension x,y,z NGX =    54 NGY =   54 NGZ =  120
   dimension x,y,z NGXF=   108 NGYF=  108 NGZF=  240
   support grid    NGXF=   108 NGYF=  108 NGZF=  240
   ions per type =              24  24
 NGX,Y,Z   is equivalent  to a cutoff of   8.16,  8.16,  8.15 a.u.
 NGXF,Y,Z  is equivalent  to a cutoff of  16.32, 16.32, 16.29 a.u.


 I would recommend the setting:
   dimension x,y,z NGX =    54 NGY =   54 NGZ =  120
 SYSTEM =  unknown system                          
 POSCAR =  Au Pd                                   

 Startparameter for this run:
   NWRITE =      1    write-flag & timer
   PREC   = normal    normal or accurate (medium, high low for compatibility)
   ISTART =      0    job   : 0-new  1-cont  2-samecut
   ICHARG =      2    charge: 1-file 2-atom 10-const
   ISPIN  =      1    spin polarized calculation?
   LNONCOLLINEAR =      F non collinear calculations
   LSORBIT =      F    spin-orbit coupling
   INIWAV =      1    electr: 0-lowe 1-rand  2-diag
   LASPH  =      F    aspherical Exc in radial PAW
   METAGGA=      F    non-selfconsistent MetaGGA calc.

 Electronic Relaxation 1
   ENCUT  =  400.0 eV  29.40 Ry    5.42 a.u.  17.94 17.94 39.94*2*pi/ulx,y,z
   ENINI  =  400.0     initial cutoff
   ENAUG  =  416.2 eV  augmentation charge cutoff
   NELM   =    500;   NELMIN=  2; NELMDL= -5     # of ELM steps 
   EDIFF  = 0.1E-05   stopping-criterion for ELM
   LREAL  =      T    real-space projection
   NLSPLINE    = F    spline interpolate recip. space projectors
   LCOMPAT=      F    compatible to vasp.4.4
   GGA_COMPAT  = T    GGA compatible to vasp.4.4-vasp.4.6
   LMAXPAW     = -100 max onsite density
   LMAXMIX     =    2 max onsite mixed and CHGCAR
   VOSKOWN=      1    Vosko Wilk Nusair interpolation
   ROPT   =   -0.00050  -0.00050
 Ionic relaxation
   EDIFFG = -.2E-01   stopping-criterion for IOM
   NSW    =    500    number of steps for IOM
   NBLOCK =      1;   KBLOCK =    500    inner block; outer block 
   IBRION =      2    ionic relax: 0-MD 1-quasi-New 2-CG
   NFREE  =      2    steps in history (QN), initial steepest desc. (CG)
   ISIF   =      0    stress and relaxation
   IWAVPR =     11    prediction:  0-non 1-charg 2-wave 3-comb
   ISYM   =      2    0-nonsym 1-usesym 2-fastsym
   LCORR  =      T    Harris-Foulkes like correction to forces

   POTIM  = 0.3500    time-step for ionic-motion
   TEIN   =    0.0    initial temperature
   TEBEG  =    0.0;   TEEND  =   0.0 temperature during run
   SMASS  =  -3.00    Nose mass-parameter (am)
   estimated Nose-frequenzy (Omega)   =  0.10E-29 period in steps =****** mass=  -0.277E-26a.u.
   SCALEE = 1.0000    scale energy and forces
   NPACO  =    256;   APACO  = 16.0  distance and # of slots for P.C.
   PSTRESS=    0.0 pullay stress

  Mass of Ions in am
   POMASS = 196.97106.42
  Ionic Valenz
   ZVAL   =  11.00 10.00
  Atomic Wigner-Seitz radii
   RWIGS  =  -1.00 -1.00
  virtual crystal weights 
   VCA    =   1.00  1.00
   NELECT =     504.0000    total number of electrons
   NUPDOWN=      -1.0000    fix difference up-down

 DOS related values:
   EMIN   =  10.00;   EMAX   =-10.00  energy-range for DOS
   EFERMI =   0.00
   ISMEAR =     0;   SIGMA  =   0.10  broadening in eV -4-tet -1-fermi 0-gaus

 Electronic relaxation 2 (details)
   IALGO  =     68    algorithm
   LDIAG  =      T    sub-space diagonalisation (order eigenvalues)
   LSUBROT=      F    optimize rotation matrix (better conditioning)
   TURBO    =      0    0=normal 1=particle mesh
   IRESTART =      0    0=no restart 2=restart with 2 vectors
   NREBOOT  =      0    no. of reboots
   NMIN     =      0    reboot dimension
   EREF     =   0.00    reference energy to select bands
   IMIX   =      4    mixing-type and parameters
     AMIX     =   0.40;   BMIX     =  1.00
     AMIX_MAG =   1.60;   BMIX_MAG =  1.00
     AMIN     =   0.10
     WC   =   100.;   INIMIX=   1;  MIXPRE=   1;  MAXMIX= -45

 Intra band minimization:
   WEIMIN = 0.0010     energy-eigenvalue tresh-hold
   EBREAK =  0.82E-09  absolut break condition
   DEPER  =   0.30     relativ break condition  

   TIME   =   0.40     timestep for ELM

  volume/ion in A,a.u.               =      53.49       360.99
  Fermi-wavevector in a.u.,A,eV,Ry     =   0.951418  1.797920 12.315955  0.905197
  Thomas-Fermi vector in A             =   2.079887
 
 Write flags
   LWAVE  =      F    write WAVECAR
   LCHARG =      F    write CHGCAR
   LVTOT  =      F    write LOCPOT, total local potential
   LVHAR  =      F    write LOCPOT, Hartree potential only
   LELF   =      F    write electronic localiz. function (ELF)
   LORBIT =      0    0 simple, 1 ext, 2 COOP (PROOUT)


 Dipole corrections
   LMONO  =      F    monopole corrections only (constant potential shift)
   LDIPOL =      T    correct potential (dipole corrections)
   IDIPOL =      3    1-x, 2-y, 3-z, 4-all directions 
   EPSILON=  1.0000000 bulk dielectric constant

 Exchange correlation treatment:
   GGA     =    PE    GGA type
   LEXCH   =     8    internal setting for exchange type
   VOSKOWN=      1    Vosko Wilk Nusair interpolation
   LHFCALC =     F    Hartree Fock is set to
   LHFONE  =     F    Hartree Fock one center treatment
   AEXX    =    0.0000 exact exchange contribution

 Linear response parameters
   LEPSILON=     F    determine dielectric tensor
   LRPA    =     F    only Hartree local field effects (RPA)
   LNABLA  =     F    use nabla operator in PAW spheres
   LVEL    =     F    velocity operator in full k-point grid
   LINTERFAST=   F  fast interpolation
   KINTER  =     0    interpolate to denser k-point grid
   CSHIFT  =0.1000    complex shift for real part using Kramers Kronig
   OMEGAMAX=  -1.0    maximum frequency
   DEG_THRESHOLD= 0.2000000E-02 threshold for treating states as degnerate
   RTIME   =    0.100 relaxation time in fs

 Orbital magnetization related:
   ORBITALMAG=     F  switch on orbital magnetization
   LCHIMAG   =     F  perturbation theory with respect to B field
   DQ        =  0.001000  dq finite difference perturbation B field



--------------------------------------------------------------------------------------------------------


 conjugate gradient relaxation of ions
   using selective dynamics as specified on POSCAR
   WARNING: If single coordinates had been selected the selection of coordinates
            is made according to the corresponding   d i r e c t   coordinates!
            Don't support selection of single cartesian coordinates -- sorry ...
  !
 charge density and potential will be updated during run
 non-spin polarized calculation
 RMM-DIIS sequential band-by-band and
  variant of blocked Davidson during initial phase
 perform sub-space diagonalisation
    before iterative eigenvector-optimisation
 modified Broyden-mixing scheme, WC =      100.0
 initial mixing is a Kerker type mixing with AMIX =  0.4000 and BMIX =      1.0000
 Hartree-type preconditioning will be used
 using additional bands           54
 real space projection scheme for non local part
 use partial core corrections
 calculate Harris-corrections to forces 
   (improved forces if not selfconsistent)
 use gradient corrections 
 use of overlap-Matrix (Vanderbilt PP)
 Gauss-broadening in eV      SIGMA  =   0.10


--------------------------------------------------------------------------------------------------------


  energy-cutoff  :      400.00
  volume of cell :     2567.68
      direct lattice vectors                 reciprocal lattice vectors
    11.002581515  0.000000000  0.000000000     0.090887761 -0.052474073  0.000000000
     5.501290758  9.528515099  0.000000000     0.000000000  0.104948147  0.000000000
     0.000000000  0.000000000 24.491785094     0.000000000  0.000000000  0.040830017

  length of vectors
    11.002581515 11.002581515 24.491785094     0.104948147  0.104948147  0.040830017


 
 k-points in units of 2pi/SCALE and weight: Automatic mesh                          
   0.02272194  0.01311852  0.00000000       0.167
   0.00000000  0.02623704  0.00000000       0.167
  -0.02272194  0.01311852  0.00000000       0.167
  -0.02272194  0.03935555  0.00000000       0.167
   0.04544388 -0.05247407  0.00000000       0.167
  -0.02272194  0.06559259  0.00000000       0.167
 
 k-points in reciprocal lattice and weights: Automatic mesh                          
   0.25000000  0.25000000  0.00000000       0.167
   0.00000000  0.25000000  0.00000000       0.167
  -0.25000000  0.00000000  0.00000000       0.167
  -0.25000000  0.25000000  0.00000000       0.167
   0.50000000 -0.25000000  0.00000000       0.167
  -0.25000000  0.50000000  0.00000000       0.167
 
 position of ions in fractional coordinates (direct lattice) 
   0.08333333  0.08333333  0.40830017
   0.91666667  0.91666667  0.50000000
   0.41666667  0.66666667  0.50000000
   0.08333333  0.58333333  0.40830017
   0.33333333  0.08333333  0.40830017
   0.83333333  0.58333333  0.40830017
   0.66666667  0.66666667  0.50000000
   0.08333333  0.33333333  0.40830017
   0.75000000  0.50000000  0.59169983
   0.00000000  0.75000000  0.59169983
   0.33333333  0.33333333  0.40830017
   0.16666667  0.16666667  0.50000000
   0.91666667  0.66666667  0.50000000
   0.50000000  0.50000000  0.59169983
   0.33333333  0.58333333  0.40830017
   0.16666667  0.66666667  0.50000000
   0.83333333  0.08333333  0.40830017
   0.33333333  0.83333333  0.40830017
   0.66666667  0.91666667  0.50000000
   0.41666667  0.16666667  0.50000000
   0.50000000  0.00000000  0.59169983
   0.58333333  0.33333333  0.40830017
   0.50000000  0.25000000  0.59169983
   0.83333333  0.33333333  0.40830017
   0.25000000  0.25000000  0.59169983
   0.16666667  0.41666667  0.50000000
   0.25000000  0.00000000  0.59169983
   0.08333333  0.83333333  0.40830017
   0.91666667  0.16666667  0.50000000
   0.00000000  0.25000000  0.59169983
   0.91666667  0.41666667  0.50000000
   0.00000000  0.00000000  0.59169983
   0.25000000  0.50000000  0.59169983
   0.00000000  0.50000000  0.59169983
   0.16666667  0.91666667  0.50000000
   0.83333333  0.83333333  0.40830017
   0.41666667  0.41666667  0.50000000
   0.25000000  0.75000000  0.59169983
   0.50000000  0.75000000  0.59169983
   0.58333333  0.83333333  0.40830017
   0.75000000  0.00000000  0.59169983
   0.66666667  0.16666667  0.50000000
   0.41666667  0.91666667  0.50000000
   0.66666667  0.41666667  0.50000000
   0.75000000  0.25000000  0.59169983
   0.58333333  0.58333333  0.40830017
   0.58333333  0.08333333  0.40830017
   0.75000000  0.75000000  0.59169983
 
 position of ions in cartesian coordinates  (Angst):
   1.37532269  0.79404292 10.00000000
  15.12854958  8.73447217 12.24589255
   8.25193614  6.35234340 12.24589255
   4.12596807  5.55830047 10.00000000
   4.12596807  0.79404292 10.00000000
  12.37790420  5.55830047 10.00000000
  11.00258152  6.35234340 12.24589255
   2.75064538  3.17617170 10.00000000
  11.00258152  4.76425755 14.49178509
   4.12596807  7.14638632 14.49178509
   5.50129076  3.17617170 10.00000000
   2.75064538  1.58808585 12.24589255
  13.75322689  6.35234340 12.24589255
   8.25193614  4.76425755 14.49178509
   6.87661345  5.55830047 10.00000000
   5.50129076  6.35234340 12.24589255
   9.62725883  0.79404292 10.00000000
   8.25193614  7.94042925 10.00000000
  12.37790420  8.73447217 12.24589255
   5.50129076  1.58808585 12.24589255
   5.50129076  0.00000000 14.49178509
   8.25193614  3.17617170 10.00000000
   6.87661345  2.38212877 14.49178509
  11.00258152  3.17617170 10.00000000
   4.12596807  2.38212877 14.49178509
   4.12596807  3.97021462 12.24589255
   2.75064538  0.00000000 14.49178509
   5.50129076  7.94042925 10.00000000
  11.00258152  1.58808585 12.24589255
   1.37532269  2.38212877 14.49178509
  12.37790420  3.97021462 12.24589255
   0.00000000  0.00000000 14.49178509
   5.50129076  4.76425755 14.49178509
   2.75064538  4.76425755 14.49178509
   6.87661345  8.73447217 12.24589255
  13.75322689  7.94042925 10.00000000
   6.87661345  3.97021462 12.24589255
   6.87661345  7.14638632 14.49178509
   9.62725883  7.14638632 14.49178509
  11.00258152  7.94042925 10.00000000
   8.25193614  0.00000000 14.49178509
   8.25193614  1.58808585 12.24589255
   9.62725883  8.73447217 12.24589255
   9.62725883  3.97021462 12.24589255
   9.62725883  2.38212877 14.49178509
   9.62725883  5.55830047 10.00000000
   6.87661345  0.79404292 10.00000000
  12.37790420  7.14638632 14.49178509
 


--------------------------------------------------------------------------------------------------------


 k-point  1 :   0.2500 0.2500 0.0000  plane waves:   46635
 k-point  2 :   0.0000 0.2500 0.0000  plane waves:   46635
 k-point  3 :  -0.2500 0.0000 0.0000  plane waves:   46635
 k-point  4 :  -0.2500 0.2500 0.0000  plane waves:   46644
 k-point  5 :   0.5000-0.2500 0.0000  plane waves:   46644
 k-point  6 :  -0.2500 0.5000 0.0000  plane waves:   46644

 maximum and minimum number of plane-waves per node :      7818     7732

 maximum number of plane-waves:     46644
 maximum index in each direction: 
   IXMAX=   18   IYMAX=   18   IZMAX=   39
   IXMIN=  -18   IYMIN=  -18   IZMIN=  -39

 WARNING: aliasing errors must be expected set NGX to  74 to avoid them
 WARNING: aliasing errors must be expected set NGY to  74 to avoid them
 WARNING: aliasing errors must be expected set NGZ to 158 to avoid them
 aliasing errors are usually negligible using standard VASP settings
 and one can safely disregard these warnings

 real space projection operators:
  total allocation   :      12803.06 KBytes
  max/ min on nodes  :       2145.66       2127.94


 parallel 3D FFT for wavefunctions:
    minimum data exchange during FFTs selected (reduces bandwidth)
 parallel 3D FFT for charge:
    minimum data exchange during FFTs selected (reduces bandwidth)


 total amount of memory used by VASP on root node    84353. kBytes
========================================================================

   base      :      30000. kBytes
   nonlr-proj:       4285. kBytes
   fftplans  :       4447. kBytes
   grid      :       6721. kBytes
   one-center:        124. kBytes
   wavefun   :      38776. kBytes
 
     INWAV:  cpu time    0.0000: real time    0.0000
 Broyden mixing: mesh for mixing (old mesh)
   NGX = 35   NGY = 35   NGZ = 79
  (NGX  =108   NGY  =108   NGZ  =240)
  gives a total of  96775 points

 initial charge density was supplied:
 charge density of overlapping atoms calculated
 number of electron     504.0000000 magnetization 
 keeping initial charge density in first step


--------------------------------------------------------------------------------------------------------


 Maximum index for non-local projection operator          355
 Maximum index for augmentation-charges          437 (set IRDMAX)


--------------------------------------------------------------------------------------------------------


 First call to EWALD:  gamma=   0.129
 Maximum number of real-space cells 4x 4x 2
 Maximum number of reciprocal cells 2x 2x 5

 FEWALD executed in parallel
    FEWALD:  cpu time    0.0022: real time    0.0025


----------------------------------------- Iteration    1(   1)  ---------------------------------------


    POTLOK:  cpu time    0.0549: real time    0.0551
    SETDIJ:  cpu time    0.0068: real time    0.0068
     EDDAV:  cpu time    9.3647: real time    9.3700
       DOS:  cpu time    0.0014: real time    0.0014
    --------------------------------------------
      LOOP:  cpu time    9.4318: real time    9.4416

 eigenvalue-minimisations  :  3672
 total energy-change (2. order) : 0.3199957E+04  (-0.1897762E+05)
 number of electron     504.0000000 magnetization 
 augmentation part      504.0000000 magnetization 

 DIPCOR: dipole corrections for dipol
 direction  3 min pos     1,
 dipolmoment           0.000000      0.000000      0.000004 electrons x Angstroem
 Tr[quadrupol]    -10304.223628

 energy correction for charged system         0.000000 eV
 dipol+quadrupol energy correction           -0.000000 eV
 added-field ion interaction          0.000004 eV  (added to PSCEN)


 Free energy of the ion-electron system (eV)
  ---------------------------------------------------
  alpha Z        PSCENC =       805.86936850
  Ewald energy   TEWEN  =    200175.87366191
  -Hartree energ DENC   =   -242590.21258295
  -exchange      EXHF   =         0.00000000
  -V(xc)+E(xc)   XCENC  =      -327.62694577
  PAW double counting   =     40340.05962942   -38292.62782345
  entropy T*S    EENTRO =        -0.13090949
  eigenvalues    EBANDS =      1428.96657040
  atomic energy  EATOM  =     41659.78587232
  Solvation  Ediel_sol  =         0.00000000
  ---------------------------------------------------
  free energy    TOTEN  =      3199.95684090 eV

  energy without entropy =     3200.08775039  energy(sigma->0) =     3200.02229565


--------------------------------------------------------------------------------------------------------




----------------------------------------- Iteration    1(   2)  ---------------------------------------


     EDDAV:  cpu time   11.1710: real time   11.1774
       DOS:  cpu time    0.0015: real time    0.0015
    --------------------------------------------
      LOOP:  cpu time   11.1733: real time   11.1812

 eigenvalue-minimisations  :  4404
 total energy-change (2. order) :-0.3185731E+04  (-0.2933786E+04)
 number of electron     504.0000000 magnetization 
 augmentation part      504.0000000 magnetization 

 DIPCOR: dipole corrections for dipol
 direction  3 min pos     1,
 dipolmoment           0.000000      0.000000      0.000004 electrons x Angstroem
 Tr[quadrupol]    -10304.223628

 energy correction for charged system         0.000000 eV
 dipol+quadrupol energy correction           -0.000000 eV
 added-field ion interaction          0.000004 eV  (added to PSCEN)


 Free energy of the ion-electron system (eV)
  ---------------------------------------------------
  alpha Z        PSCENC =       805.86936850
  Ewald energy   TEWEN  =    200175.87366191
  -Hartree energ DENC   =   -242590.21258295
  -exchange      EXHF   =         0.00000000
  -V(xc)+E(xc)   XCENC  =      -327.62694577
  PAW double counting   =     40340.05962942   -38292.62782345
  entropy T*S    EENTRO =        -0.11512694
  eigenvalues    EBANDS =     -1756.78014759
  atomic energy  EATOM  =     41659.78587232
  Solvation  Ediel_sol  =         0.00000000
  ---------------------------------------------------
  free energy    TOTEN  =        14.22590546 eV

  energy without entropy =       14.34103240  energy(sigma->0) =       14.28346893


--------------------------------------------------------------------------------------------------------




----------------------------------------- Iteration    1(   3)  ---------------------------------------


     EDDAV:  cpu time   10.7183: real time   10.7859
       DOS:  cpu time    0.0016: real time    0.0016
    --------------------------------------------
      LOOP:  cpu time   10.7207: real time   10.7939

 eigenvalue-minimisations  :  4140
 total energy-change (2. order) :-0.2150191E+03  (-0.1997759E+03)
 number of electron     504.0000000 magnetization 
 augmentation part      504.0000000 magnetization 

 DIPCOR: dipole corrections for dipol
 direction  3 min pos     1,
 dipolmoment           0.000000      0.000000      0.000004 electrons x Angstroem
 Tr[quadrupol]    -10304.223628

 energy correction for charged system         0.000000 eV
 dipol+quadrupol energy correction           -0.000000 eV
 added-field ion interaction          0.000004 eV  (added to PSCEN)


 Free energy of the ion-electron system (eV)
  ---------------------------------------------------
  alpha Z        PSCENC =       805.86936850
  Ewald energy   TEWEN  =    200175.87366191
  -Hartree energ DENC   =   -242590.21258295
  -exchange      EXHF   =         0.00000000
  -V(xc)+E(xc)   XCENC  =      -327.62694577
  PAW double counting   =     40340.05962942   -38292.62782345
  entropy T*S    EENTRO =        -0.18221485
  eigenvalues    EBANDS =     -1971.73219489
  atomic energy  EATOM  =     41659.78587232
  Solvation  Ediel_sol  =         0.00000000
  ---------------------------------------------------
  free energy    TOTEN  =      -200.79322975 eV

  energy without entropy =     -200.61101490  energy(sigma->0) =     -200.70212232


--------------------------------------------------------------------------------------------------------




----------------------------------------- Iteration    1(   4)  ---------------------------------------


     EDDAV:  cpu time   10.9599: real time   10.9650
       DOS:  cpu time    0.0015: real time    0.0015
    --------------------------------------------
      LOOP:  cpu time   10.9620: real time   10.9702

 eigenvalue-minimisations  :  4236
 total energy-change (2. order) :-0.5755899E+01  (-0.5689346E+01)
 number of electron     504.0000000 magnetization 
 augmentation part      504.0000000 magnetization 

 DIPCOR: dipole corrections for dipol
 direction  3 min pos     1,
 dipolmoment           0.000000      0.000000      0.000004 electrons x Angstroem
 Tr[quadrupol]    -10304.223628

 energy correction for charged system         0.000000 eV
 dipol+quadrupol energy correction           -0.000000 eV
 added-field ion interaction          0.000004 eV  (added to PSCEN)


 Free energy of the ion-electron system (eV)
  ---------------------------------------------------
  alpha Z        PSCENC =       805.86936850
  Ewald energy   TEWEN  =    200175.87366191
  -Hartree energ DENC   =   -242590.21258295
  -exchange      EXHF   =         0.00000000
  -V(xc)+E(xc)   XCENC  =      -327.62694577
  PAW double counting   =     40340.05962942   -38292.62782345
  entropy T*S    EENTRO =        -0.19608863
  eigenvalues    EBANDS =     -1977.47421967
  atomic energy  EATOM  =     41659.78587232
  Solvation  Ediel_sol  =         0.00000000
  ---------------------------------------------------
  free energy    TOTEN  =      -206.54912831 eV

  energy without entropy =     -206.35303968  energy(sigma->0) =     -206.45108400


--------------------------------------------------------------------------------------------------------




----------------------------------------- Iteration    1(   5)  ---------------------------------------


     EDDAV:  cpu time   11.5207: real time   11.5421
       DOS:  cpu time    0.0017: real time    0.0017
    CHARGE:  cpu time    0.4479: real time    0.4491
    MIXING:  cpu time    0.0047: real time    0.0047
    --------------------------------------------
      LOOP:  cpu time   11.9758: real time   12.0010

 eigenvalue-minimisations  :  4416
 total energy-change (2. order) :-0.1920992E+00  (-0.1915015E+00)
 number of electron     503.9998404 magnetization 
 augmentation part      191.3160322 magnetization 

 DIPCOR: dipole corrections for dipol
 direction  3 min pos     1,
 dipolmoment           0.000000      0.000000      0.000004 electrons x Angstroem
 Tr[quadrupol]    -10304.223628

 energy correction for charged system         0.000000 eV
 dipol+quadrupol energy correction           -0.000000 eV
 added-field ion interaction          0.000004 eV  (added to PSCEN)


 Broyden mixing:
  rms(total) = 0.62466E+01    rms(broyden)= 0.62465E+01
  rms(prec ) = 0.63990E+01
  weight for this iteration     100.00

 Free energy of the ion-electron system (eV)
  ---------------------------------------------------
  alpha Z        PSCENC =       805.86936850
  Ewald energy   TEWEN  =    200175.87366191
  -Hartree energ DENC   =   -242590.21258295
  -exchange      EXHF   =         0.00000000
  -V(xc)+E(xc)   XCENC  =      -327.62694577
  PAW double counting   =     40340.05962942   -38292.62782345
  entropy T*S    EENTRO =        -0.19548013
  eigenvalues    EBANDS =     -1977.66692738
  atomic energy  EATOM  =     41659.78587232
  Solvation  Ediel_sol  =         0.00000000
  ---------------------------------------------------
  free energy    TOTEN  =      -206.74122751 eV

  energy without entropy =     -206.54574739  energy(sigma->0) =     -206.64348745


--------------------------------------------------------------------------------------------------------




----------------------------------------- Iteration    1(   6)  ---------------------------------------


    POTLOK:  cpu time    0.0475: real time    0.0666
    SETDIJ:  cpu time    0.0046: real time    0.0067
    EDDIAG:  cpu time    1.5201: real time    1.8701
  RMM-DIIS:  cpu time    4.4972: real time    4.4996
    ORTHCH:  cpu time    0.4113: real time    0.4116
       DOS:  cpu time    0.0018: real time    0.0018
    CHARGE:  cpu time    0.3074: real time    0.3074
    MIXING:  cpu time    0.0020: real time    0.0021
    --------------------------------------------
      LOOP:  cpu time    6.7926: real time    7.1706

 eigenvalue-minimisations  :  3673
 total energy-change (2. order) :-0.1169598E+02  (-0.1086125E+02)
 number of electron     503.9998440 magnetization 
 augmentation part      189.4284407 magnetization 

 DIPCOR: dipole corrections for dipol
 direction  3 min pos     1,
 dipolmoment           0.000000      0.000000      2.012653 electrons x Angstroem
 Tr[quadrupol]    -10305.642701

 energy correction for charged system         0.000000 eV
 dipol+quadrupol energy correction           -0.142738 eV
 added-field ion interaction          1.911358 eV  (added to PSCEN)


 Broyden mixing:
  rms(total) = 0.65726E+01    rms(broyden)= 0.65725E+01
  rms(prec ) = 0.74008E+01
  weight for this iteration     100.00

 eigenvalues of (default mixing * dielectric matrix)
  average eigenvalue GAMMA=   0.4561
  0.4561

 Free energy of the ion-electron system (eV)
  ---------------------------------------------------
  alpha Z        PSCENC =       807.63798415
  Ewald energy   TEWEN  =    200175.87366191
  -Hartree energ DENC   =   -242338.86958304
  -exchange      EXHF   =         0.00000000
  -V(xc)+E(xc)   XCENC  =      -340.21179295
  PAW double counting   =     43919.53293131   -41931.35102665
  entropy T*S    EENTRO =        -0.27113388
  eigenvalues    EBANDS =     -2170.56411981
  atomic energy  EATOM  =     41659.78587232
  Solvation  Ediel_sol  =         0.00000000
  ---------------------------------------------------
  free energy    TOTEN  =      -218.43720664 eV

  energy without entropy =     -218.16607276  energy(sigma->0) =     -218.30163970


--------------------------------------------------------------------------------------------------------




----------------------------------------- Iteration    1(   7)  ---------------------------------------


    POTLOK:  cpu time    0.0498: real time    0.0499
    SETDIJ:  cpu time    0.0060: real time    0.0060
    EDDIAG:  cpu time    1.6592: real time    1.6608
  RMM-DIIS:  cpu time    4.5126: real time    4.5156
    ORTHCH:  cpu time    0.4105: real time    0.4105
       DOS:  cpu time    0.0018: real time    0.0019
    CHARGE:  cpu time    0.3025: real time    0.3027
    MIXING:  cpu time    0.0020: real time    0.0020
    --------------------------------------------
      LOOP:  cpu time    6.9453: real time    6.9527

 eigenvalue-minimisations  :  3681
 total energy-change (2. order) : 0.6613604E+01  (-0.5859246E+01)
 number of electron     503.9998382 magnetization 
 augmentation part      194.2554196 magnetization 

 DIPCOR: dipole corrections for dipol
 direction  3 min pos     1,
 dipolmoment           0.000000      0.000000     -1.042872 electrons x Angstroem
 Tr[quadrupol]    -10305.471840

 energy correction for charged system         0.000000 eV
 dipol+quadrupol energy correction           -0.038323 eV
 added-field ion interaction         -0.990385 eV  (added to PSCEN)


 Broyden mixing:
  rms(total) = 0.50125E+01    rms(broyden)= 0.50122E+01
  rms(prec ) = 0.57772E+01
  weight for this iteration     100.00

 eigenvalues of (default mixing * dielectric matrix)
  average eigenvalue GAMMA=   0.6810
  1.1056  0.2564

 Free energy of the ion-electron system (eV)
  ---------------------------------------------------
  alpha Z        PSCENC =       804.84065594
  Ewald energy   TEWEN  =    200175.87366191
  -Hartree energ DENC   =   -242260.10694110
  -exchange      EXHF   =         0.00000000
  -V(xc)+E(xc)   XCENC  =      -342.18565731
  PAW double counting   =     44723.75248173   -42753.13526050
  entropy T*S    EENTRO =        -0.20948805
  eigenvalues    EBANDS =     -2220.43892739
  atomic energy  EATOM  =     41659.78587232
  Solvation  Ediel_sol  =         0.00000000
  ---------------------------------------------------
  free energy    TOTEN  =      -211.82360244 eV

  energy without entropy =     -211.61411440  energy(sigma->0) =     -211.71885842


--------------------------------------------------------------------------------------------------------




----------------------------------------- Iteration    1(   8)  ---------------------------------------


    POTLOK:  cpu time    0.0493: real time    0.0494
    SETDIJ:  cpu time    0.0060: real time    0.0060
    EDDIAG:  cpu time    1.6267: real time    1.6789
  RMM-DIIS:  cpu time    4.4104: real time    4.4355
    ORTHCH:  cpu time    0.4108: real time    0.4108
       DOS:  cpu time    0.0018: real time    0.0018
    CHARGE:  cpu time    0.3013: real time    0.3014
    MIXING:  cpu time    0.0021: real time    0.0021
    --------------------------------------------
      LOOP:  cpu time    6.8092: real time    6.8882

 eigenvalue-minimisations  :  3675
 total energy-change (2. order) :-0.3239296E+01  (-0.9237194E+01)
 number of electron     503.9998351 magnetization 
 augmentation part      197.1869271 magnetization 

 DIPCOR: dipole corrections for dipol
 direction  3 min pos     1,
 dipolmoment           0.000000      0.000000      1.183117 electrons x Angstroem
 Tr[quadrupol]    -10305.126496

 energy correction for charged system         0.000000 eV
 dipol+quadrupol energy correction           -0.049324 eV
 added-field ion interaction          1.123572 eV  (added to PSCEN)


 Broyden mixing:
  rms(total) = 0.42391E+01    rms(broyden)= 0.42388E+01
  rms(prec ) = 0.47617E+01
  weight for this iteration     100.00

 eigenvalues of (default mixing * dielectric matrix)
  average eigenvalue GAMMA=   0.7943
  1.7619  0.4095  0.2114

 Free energy of the ion-electron system (eV)
  ---------------------------------------------------
  alpha Z        PSCENC =       806.94361245
  Ewald energy   TEWEN  =    200175.87366191
  -Hartree energ DENC   =   -242152.92088703
  -exchange      EXHF   =         0.00000000
  -V(xc)+E(xc)   XCENC  =      -344.53332301
  PAW double counting   =     46357.70647651   -44415.67536914
  entropy T*S    EENTRO =        -0.22853379
  eigenvalues    EBANDS =     -2302.01440916
  atomic energy  EATOM  =     41659.78587232
  Solvation  Ediel_sol  =         0.00000000
  ---------------------------------------------------
  free energy    TOTEN  =      -215.06289894 eV

  energy without entropy =     -214.83436516  energy(sigma->0) =     -214.94863205


--------------------------------------------------------------------------------------------------------




----------------------------------------- Iteration    1(   9)  ---------------------------------------


    POTLOK:  cpu time    0.0491: real time    0.0492
    SETDIJ:  cpu time    0.0060: real time    0.0060
    EDDIAG:  cpu time    1.6719: real time    1.6732
  RMM-DIIS:  cpu time    4.4665: real time    4.4686
    ORTHCH:  cpu time    0.4165: real time    0.4169
       DOS:  cpu time    0.0017: real time    0.0017
    CHARGE:  cpu time    0.3052: real time    0.3053
    MIXING:  cpu time    0.0025: real time    0.0025
    --------------------------------------------
      LOOP:  cpu time    6.9203: real time    6.9258

 eigenvalue-minimisations  :  3675
 total energy-change (2. order) : 0.3762689E+01  (-0.5053308E+01)
 number of electron     503.9998339 magnetization 
 augmentation part      198.2011407 magnetization 

 DIPCOR: dipole corrections for dipol
 direction  3 min pos     1,
 dipolmoment           0.000000      0.000000     -0.162620 electrons x Angstroem
 Tr[quadrupol]    -10305.640600

 energy correction for charged system         0.000000 eV
 dipol+quadrupol energy correction           -0.000932 eV
 added-field ion interaction         -0.154435 eV  (added to PSCEN)


 Broyden mixing:
  rms(total) = 0.36310E+01    rms(broyden)= 0.36307E+01
  rms(prec ) = 0.40249E+01
  weight for this iteration     100.00

 eigenvalues of (default mixing * dielectric matrix)
  average eigenvalue GAMMA=   0.7752
  2.1135  0.3760  0.3760  0.2351

 Free energy of the ion-electron system (eV)
  ---------------------------------------------------
  alpha Z        PSCENC =       805.71399715
  Ewald energy   TEWEN  =    200175.87366191
  -Hartree energ DENC   =   -242139.09408499
  -exchange      EXHF   =         0.00000000
  -V(xc)+E(xc)   XCENC  =      -345.79139218
  PAW double counting   =     47953.38174519   -46033.42175277
  entropy T*S    EENTRO =        -0.21707455
  eigenvalues    EBANDS =     -2287.53118215
  atomic energy  EATOM  =     41659.78587232
  Solvation  Ediel_sol  =         0.00000000
  ---------------------------------------------------
  free energy    TOTEN  =      -211.30021009 eV

  energy without entropy =     -211.08313554  energy(sigma->0) =     -211.19167282


--------------------------------------------------------------------------------------------------------




----------------------------------------- Iteration    1(  10)  ---------------------------------------


    POTLOK:  cpu time    0.0503: real time    0.0504
    SETDIJ:  cpu time    0.0062: real time    0.0062
    EDDIAG:  cpu time    1.6510: real time    1.6542
  RMM-DIIS:  cpu time    4.5117: real time    4.5138
    ORTHCH:  cpu time    0.4047: real time    0.4050
       DOS:  cpu time    0.0019: real time    0.0019
    CHARGE:  cpu time    0.3089: real time    0.3090
    MIXING:  cpu time    0.0026: real time    0.0026
    --------------------------------------------
      LOOP:  cpu time    6.9382: real time    6.9494

 eigenvalue-minimisations  :  3681
 total energy-change (2. order) : 0.1207130E+02  (-0.1990729E+01)
 number of electron     503.9998341 magnetization 
 augmentation part      198.6597591 magnetization 

 DIPCOR: dipole corrections for dipol
 direction  3 min pos     1,
 dipolmoment           0.000000      0.000000      0.519316 electrons x Angstroem
 Tr[quadrupol]    -10305.634801

 energy correction for charged system         0.000000 eV
 dipol+quadrupol energy correction           -0.009503 eV
 added-field ion interaction          0.493179 eV  (added to PSCEN)


 Broyden mixing:
  rms(total) = 0.21856E+01    rms(broyden)= 0.21853E+01
  rms(prec ) = 0.25574E+01
  weight for this iteration     100.00

 eigenvalues of (default mixing * dielectric matrix)
  average eigenvalue GAMMA=   0.7455
  2.2064  0.5016  0.5016  0.2205  0.2973

 Free energy of the ion-electron system (eV)
  ---------------------------------------------------
  alpha Z        PSCENC =       806.35304053
  Ewald energy   TEWEN  =    200175.87366191
  -Hartree energ DENC   =   -242138.84337921
  -exchange      EXHF   =         0.00000000
  -V(xc)+E(xc)   XCENC  =      -346.04688329
  PAW double counting   =     48856.01064267   -46946.30753226
  entropy T*S    EENTRO =        -0.19107714
  eigenvalues    EBANDS =     -2265.86325631
  atomic energy  EATOM  =     41659.78587232
  Solvation  Ediel_sol  =         0.00000000
  ---------------------------------------------------
  free energy    TOTEN  =      -199.22891078 eV

  energy without entropy =     -199.03783364  energy(sigma->0) =     -199.13337221


--------------------------------------------------------------------------------------------------------




----------------------------------------- Iteration    1(  11)  ---------------------------------------


    POTLOK:  cpu time    0.0506: real time    0.0506
    SETDIJ:  cpu time    0.0061: real time    0.0061
    EDDIAG:  cpu time    1.8960: real time    1.8971
  RMM-DIIS:  cpu time    4.5067: real time    4.5088
    ORTHCH:  cpu time    0.3992: real time    0.3994
       DOS:  cpu time    0.0017: real time    0.0017
    CHARGE:  cpu time    0.3004: real time    0.3005
    MIXING:  cpu time    0.0026: real time    0.0026
    --------------------------------------------
      LOOP:  cpu time    7.1642: real time    7.1694

 eigenvalue-minimisations  :  3681
 total energy-change (2. order) : 0.5512652E+01  (-0.1462710E+01)
 number of electron     503.9998347 magnetization 
 augmentation part      198.6236596 magnetization 

 DIPCOR: dipole corrections for dipol
 direction  3 min pos     1,
 dipolmoment           0.000000      0.000000      0.279375 electrons x Angstroem
 Tr[quadrupol]    -10306.186195

 energy correction for charged system         0.000000 eV
 dipol+quadrupol energy correction           -0.002750 eV
 added-field ion interaction          0.265315 eV  (added to PSCEN)


 Broyden mixing:
  rms(total) = 0.16187E+01    rms(broyden)= 0.16184E+01
  rms(prec ) = 0.18375E+01
  weight for this iteration     100.00

 eigenvalues of (default mixing * dielectric matrix)
  average eigenvalue GAMMA=   0.7083
  2.2477  0.5970  0.5970  0.2247  0.2916  0.2916

 Free energy of the ion-electron system (eV)
  ---------------------------------------------------
  alpha Z        PSCENC =       806.13192879
  Ewald energy   TEWEN  =    200175.87366191
  -Hartree energ DENC   =   -242176.21416059
  -exchange      EXHF   =         0.00000000
  -V(xc)+E(xc)   XCENC  =      -345.66770433
  PAW double counting   =     49084.46525149   -47174.74723461
  entropy T*S    EENTRO =        -0.18001009
  eigenvalues    EBANDS =     -2223.16386356
  atomic energy  EATOM  =     41659.78587232
  Solvation  Ediel_sol  =         0.00000000
  ---------------------------------------------------
  free energy    TOTEN  =      -193.71625868 eV

  energy without entropy =     -193.53624859  energy(sigma->0) =     -193.62625363


--------------------------------------------------------------------------------------------------------




----------------------------------------- Iteration    1(  12)  ---------------------------------------


    POTLOK:  cpu time    0.0493: real time    0.0493
    SETDIJ:  cpu time    0.0061: real time    0.0061
    EDDIAG:  cpu time    1.6433: real time    1.6447
  RMM-DIIS:  cpu time    4.5131: real time    4.5153
    ORTHCH:  cpu time    0.3993: real time    0.3993
       DOS:  cpu time    0.0020: real time    0.0020
    CHARGE:  cpu time    0.2978: real time    0.2981
    MIXING:  cpu time    0.0027: real time    0.0027
    --------------------------------------------
      LOOP:  cpu time    6.9145: real time    6.9219

 eigenvalue-minimisations  :  3680
 total energy-change (2. order) : 0.4161609E+01  (-0.5286934E+00)
 number of electron     503.9998354 magnetization 
 augmentation part      198.1135118 magnetization 

 DIPCOR: dipole corrections for dipol
 direction  3 min pos     1,
 dipolmoment           0.000000      0.000000      0.189638 electrons x Angstroem
 Tr[quadrupol]    -10306.528469

 energy correction for charged system         0.000000 eV
 dipol+quadrupol energy correction           -0.001267 eV
 added-field ion interaction          0.180094 eV  (added to PSCEN)


 Broyden mixing:
  rms(total) = 0.87044E+00    rms(broyden)= 0.87025E+00
  rms(prec ) = 0.93693E+00
  weight for this iteration     100.00

 eigenvalues of (default mixing * dielectric matrix)
  average eigenvalue GAMMA=   0.6699
  2.2326  0.5991  0.5991  0.4569  0.2203  0.2906  0.2906

 Free energy of the ion-electron system (eV)
  ---------------------------------------------------
  alpha Z        PSCENC =       806.04819094
  Ewald energy   TEWEN  =    200175.87366191
  -Hartree energ DENC   =   -242213.04680705
  -exchange      EXHF   =         0.00000000
  -V(xc)+E(xc)   XCENC  =      -345.05368776
  PAW double counting   =     49227.60410666   -47315.73264486
  entropy T*S    EENTRO =        -0.22129050
  eigenvalues    EBANDS =     -2184.81205151
  atomic energy  EATOM  =     41659.78587232
  Solvation  Ediel_sol  =         0.00000000
  ---------------------------------------------------
  free energy    TOTEN  =      -189.55464985 eV

  energy without entropy =     -189.33335935  energy(sigma->0) =     -189.44400460


--------------------------------------------------------------------------------------------------------




----------------------------------------- Iteration    1(  13)  ---------------------------------------


    POTLOK:  cpu time    0.0491: real time    0.0492
    SETDIJ:  cpu time    0.0060: real time    0.0060
    EDDIAG:  cpu time    1.6549: real time    1.6565
  RMM-DIIS:  cpu time    4.5035: real time    4.5166
    ORTHCH:  cpu time    0.3869: real time    0.4131
       DOS:  cpu time    0.0018: real time    0.0019
    CHARGE:  cpu time    0.3003: real time    0.3198
    MIXING:  cpu time    0.0027: real time    0.0028
    --------------------------------------------
      LOOP:  cpu time    6.9062: real time    6.9685

 eigenvalue-minimisations  :  3683
 total energy-change (2. order) : 0.4868197E+00  (-0.1332056E+00)
 number of electron     503.9998359 magnetization 
 augmentation part      197.7597878 magnetization 

 DIPCOR: dipole corrections for dipol
 direction  3 min pos     1,
 dipolmoment           0.000000      0.000000      0.217096 electrons x Angstroem
 Tr[quadrupol]    -10306.662515

 energy correction for charged system         0.000000 eV
 dipol+quadrupol energy correction           -0.001661 eV
 added-field ion interaction          0.206170 eV  (added to PSCEN)


 Broyden mixing:
  rms(total) = 0.71895E+00    rms(broyden)= 0.71890E+00
  rms(prec ) = 0.75849E+00
  weight for this iteration     100.00

 eigenvalues of (default mixing * dielectric matrix)
  average eigenvalue GAMMA=   0.7080
  2.2249  0.8661  0.8661  0.5968  0.3048  0.3048  0.2254  0.2748

 Free energy of the ion-electron system (eV)
  ---------------------------------------------------
  alpha Z        PSCENC =       806.07387320
  Ewald energy   TEWEN  =    200175.87366191
  -Hartree energ DENC   =   -242229.03228681
  -exchange      EXHF   =         0.00000000
  -V(xc)+E(xc)   XCENC  =      -344.71456274
  PAW double counting   =     49246.08998705   -47332.30310838
  entropy T*S    EENTRO =        -0.19771067
  eigenvalues    EBANDS =     -2170.64355607
  atomic energy  EATOM  =     41659.78587232
  Solvation  Ediel_sol  =         0.00000000
  ---------------------------------------------------
  free energy    TOTEN  =      -189.06783018 eV

  energy without entropy =     -188.87011951  energy(sigma->0) =     -188.96897485


--------------------------------------------------------------------------------------------------------




----------------------------------------- Iteration    1(  14)  ---------------------------------------


    POTLOK:  cpu time    0.0481: real time    0.0494
    SETDIJ:  cpu time    0.0061: real time    0.0074
    EDDIAG:  cpu time    1.6284: real time    1.6294
  RMM-DIIS:  cpu time    4.0625: real time    4.8138
    ORTHCH:  cpu time    0.3995: real time    0.3997
       DOS:  cpu time    0.0019: real time    0.0019
    CHARGE:  cpu time    0.2995: real time    0.2995
    MIXING:  cpu time    0.0029: real time    0.0029
    --------------------------------------------
      LOOP:  cpu time    6.4499: real time    7.2067

 eigenvalue-minimisations  :  3679
 total energy-change (2. order) :-0.1212923E+00  (-0.6380721E-01)
 number of electron     503.9998362 magnetization 
 augmentation part      197.3726662 magnetization 

 DIPCOR: dipole corrections for dipol
 direction  3 min pos     1,
 dipolmoment           0.000000      0.000000      0.216744 electrons x Angstroem
 Tr[quadrupol]    -10307.267698

 energy correction for charged system         0.000000 eV
 dipol+quadrupol energy correction           -0.001655 eV
 added-field ion interaction          0.205836 eV  (added to PSCEN)


 Broyden mixing:
  rms(total) = 0.62078E+00    rms(broyden)= 0.62071E+00
  rms(prec ) = 0.70712E+00
  weight for this iteration     100.00

 eigenvalues of (default mixing * dielectric matrix)
  average eigenvalue GAMMA=   0.7211
  2.1551  1.0787  1.0787  0.6307  0.3829  0.3829  0.2215  0.2796  0.2796

 Free energy of the ion-electron system (eV)
  ---------------------------------------------------
  alpha Z        PSCENC =       806.07354457
  Ewald energy   TEWEN  =    200175.87366191
  -Hartree energ DENC   =   -242261.30890722
  -exchange      EXHF   =         0.00000000
  -V(xc)+E(xc)   XCENC  =      -344.33648406
  PAW double counting   =     49277.80656240   -47361.33826409
  entropy T*S    EENTRO =        -0.21493159
  eigenvalues    EBANDS =     -2141.53017668
  atomic energy  EATOM  =     41659.78587232
  Solvation  Ediel_sol  =         0.00000000
  ---------------------------------------------------
  free energy    TOTEN  =      -189.18912245 eV

  energy without entropy =     -188.97419085  energy(sigma->0) =     -189.08165665


--------------------------------------------------------------------------------------------------------




----------------------------------------- Iteration    1(  15)  ---------------------------------------


    POTLOK:  cpu time    0.0491: real time    0.0491
    SETDIJ:  cpu time    0.0060: real time    0.0060
    EDDIAG:  cpu time    1.6413: real time    1.6421
  RMM-DIIS:  cpu time    4.4999: real time    4.5021
    ORTHCH:  cpu time    0.3983: real time    0.3986
       DOS:  cpu time    0.0018: real time    0.0018
    CHARGE:  cpu time    0.3000: real time    0.3001
    MIXING:  cpu time    0.0032: real time    0.0032
    --------------------------------------------
      LOOP:  cpu time    6.9004: real time    6.9065

 eigenvalue-minimisations  :  3680
 total energy-change (2. order) : 0.1611700E+00  (-0.4630791E-01)
 number of electron     503.9998363 magnetization 
 augmentation part      197.2168013 magnetization 

 DIPCOR: dipole corrections for dipol
 direction  3 min pos     1,
 dipolmoment           0.000000      0.000000      0.228597 electrons x Angstroem
 Tr[quadrupol]    -10307.417336

 energy correction for charged system         0.000000 eV
 dipol+quadrupol energy correction           -0.001841 eV
 added-field ion interaction          0.217092 eV  (added to PSCEN)


 Broyden mixing:
  rms(total) = 0.56268E+00    rms(broyden)= 0.56262E+00
  rms(prec ) = 0.64569E+00
  weight for this iteration     100.00

 eigenvalues of (default mixing * dielectric matrix)
  average eigenvalue GAMMA=   0.7554
  2.1215  1.3685  1.3685  0.6364  0.6364  0.3800  0.2874  0.2874  0.2262  0.2413

 Free energy of the ion-electron system (eV)
  ---------------------------------------------------
  alpha Z        PSCENC =       806.08461517
  Ewald energy   TEWEN  =    200175.87366191
  -Hartree energ DENC   =   -242275.23010220
  -exchange      EXHF   =         0.00000000
  -V(xc)+E(xc)   XCENC  =      -343.98514374
  PAW double counting   =     49278.25785680   -47359.45358209
  entropy T*S    EENTRO =        -0.21626480
  eigenvalues    EBANDS =     -2130.14486585
  atomic energy  EATOM  =     41659.78587232
  Solvation  Ediel_sol  =         0.00000000
  ---------------------------------------------------
  free energy    TOTEN  =      -189.02795248 eV

  energy without entropy =     -188.81168768  energy(sigma->0) =     -188.91982008


--------------------------------------------------------------------------------------------------------




----------------------------------------- Iteration    1(  16)  ---------------------------------------


    POTLOK:  cpu time    0.0493: real time    0.0493
    SETDIJ:  cpu time    0.0060: real time    0.0060
    EDDIAG:  cpu time    1.6465: real time    1.6474
  RMM-DIIS:  cpu time    4.4504: real time    4.4528
    ORTHCH:  cpu time    0.4017: real time    0.4017
       DOS:  cpu time    0.0019: real time    0.0019
    CHARGE:  cpu time    0.2975: real time    0.2978
    MIXING:  cpu time    0.0034: real time    0.0034
    --------------------------------------------
      LOOP:  cpu time    6.8575: real time    6.8639

 eigenvalue-minimisations  :  3681
 total energy-change (2. order) : 0.1507775E+00  (-0.3999328E-01)
 number of electron     503.9998363 magnetization 
 augmentation part      197.1843722 magnetization 

 DIPCOR: dipole corrections for dipol
 direction  3 min pos     1,
 dipolmoment           0.000000      0.000000      0.192126 electrons x Angstroem
 Tr[quadrupol]    -10307.906060

 energy correction for charged system         0.000000 eV
 dipol+quadrupol energy correction           -0.001301 eV
 added-field ion interaction          0.182456 eV  (added to PSCEN)


 Broyden mixing:
  rms(total) = 0.40607E+00    rms(broyden)= 0.40599E+00
  rms(prec ) = 0.47078E+00
  weight for this iteration     100.00

 eigenvalues of (default mixing * dielectric matrix)
  average eigenvalue GAMMA=   0.7495
  2.1600  1.5046  1.5046  0.6607  0.6607  0.4252  0.3058  0.3058  0.2221  0.2540
  0.2407

 Free energy of the ion-electron system (eV)
  ---------------------------------------------------
  alpha Z        PSCENC =       806.05052007
  Ewald energy   TEWEN  =    200175.87366191
  -Hartree energ DENC   =   -242298.16937189
  -exchange      EXHF   =         0.00000000
  -V(xc)+E(xc)   XCENC  =      -343.71876854
  PAW double counting   =     49312.22830995   -47391.47445640
  entropy T*S    EENTRO =        -0.21430832
  eigenvalues    EBANDS =     -2109.23863407
  atomic energy  EATOM  =     41659.78587232
  Solvation  Ediel_sol  =         0.00000000
  ---------------------------------------------------
  free energy    TOTEN  =      -188.87717497 eV

  energy without entropy =     -188.66286665  energy(sigma->0) =     -188.77002081


--------------------------------------------------------------------------------------------------------




----------------------------------------- Iteration    1(  17)  ---------------------------------------


    POTLOK:  cpu time    0.0492: real time    0.0495
    SETDIJ:  cpu time    0.0060: real time    0.0060
    EDDIAG:  cpu time    1.6632: real time    1.6654
  RMM-DIIS:  cpu time    4.5264: real time    4.5286
    ORTHCH:  cpu time    0.4010: real time    0.4010
       DOS:  cpu time    0.0016: real time    0.0016
    CHARGE:  cpu time    0.2997: real time    0.2997
    MIXING:  cpu time    0.0036: real time    0.0036
    --------------------------------------------
      LOOP:  cpu time    6.9515: real time    6.9591

 eigenvalue-minimisations  :  3679
 total energy-change (2. order) : 0.1539972E+00  (-0.1883548E-01)
 number of electron     503.9998362 magnetization 
 augmentation part      197.1818376 magnetization 

 DIPCOR: dipole corrections for dipol
 direction  3 min pos     1,
 dipolmoment           0.000000      0.000000      0.157889 electrons x Angstroem
 Tr[quadrupol]    -10308.187737

 energy correction for charged system         0.000000 eV
 dipol+quadrupol energy correction           -0.000878 eV
 added-field ion interaction          0.149943 eV  (added to PSCEN)


 Broyden mixing:
  rms(total) = 0.22056E+00    rms(broyden)= 0.22048E+00
  rms(prec ) = 0.25194E+00
  weight for this iteration     100.00

 eigenvalues of (default mixing * dielectric matrix)
  average eigenvalue GAMMA=   0.7264
  2.1775  1.5366  1.5366  0.6669  0.6669  0.5039  0.3183  0.3183  0.2742  0.2742
  0.2218  0.2218

 Free energy of the ion-electron system (eV)
  ---------------------------------------------------
  alpha Z        PSCENC =       806.01842875
  Ewald energy   TEWEN  =    200175.87366191
  -Hartree energ DENC   =   -242311.26987091
  -exchange      EXHF   =         0.00000000
  -V(xc)+E(xc)   XCENC  =      -343.60813081
  PAW double counting   =     49340.42768052   -47418.91929852
  entropy T*S    EENTRO =        -0.23795494
  eigenvalues    EBANDS =     -2096.79356614
  atomic energy  EATOM  =     41659.78587232
  Solvation  Ediel_sol  =         0.00000000
  ---------------------------------------------------
  free energy    TOTEN  =      -188.72317782 eV

  energy without entropy =     -188.48522288  energy(sigma->0) =     -188.60420035


--------------------------------------------------------------------------------------------------------




----------------------------------------- Iteration    1(  18)  ---------------------------------------


    POTLOK:  cpu time    0.0495: real time    0.0499
    SETDIJ:  cpu time    0.0078: real time    0.0078
    EDDIAG:  cpu time    1.6319: real time    1.6324
  RMM-DIIS:  cpu time    4.5257: real time    4.5285
    ORTHCH:  cpu time    0.3945: real time    0.3948
       DOS:  cpu time    0.0015: real time    0.0015
    CHARGE:  cpu time    0.3008: real time    0.3009
    MIXING:  cpu time    0.0039: real time    0.0039
    --------------------------------------------
      LOOP:  cpu time    6.9162: real time    6.9220

 eigenvalue-minimisations  :  3679
 total energy-change (2. order) : 0.4256716E-01  (-0.6048041E-02)
 number of electron     503.9998363 magnetization 
 augmentation part      197.1334451 magnetization 

 DIPCOR: dipole corrections for dipol
 direction  3 min pos     1,
 dipolmoment           0.000000      0.000000      0.144740 electrons x Angstroem
 Tr[quadrupol]    -10308.300465

 energy correction for charged system         0.000000 eV
 dipol+quadrupol energy correction           -0.000738 eV
 added-field ion interaction          0.137456 eV  (added to PSCEN)


 Broyden mixing:
  rms(total) = 0.12650E+00    rms(broyden)= 0.12646E+00
  rms(prec ) = 0.14304E+00
  weight for this iteration     100.00

 eigenvalues of (default mixing * dielectric matrix)
  average eigenvalue GAMMA=   0.7138
  2.2649  1.5514  1.5514  0.7166  0.7166  0.5237  0.3811  0.3025  0.3025  0.2953
  0.2474  0.2255  0.1999

 Free energy of the ion-electron system (eV)
  ---------------------------------------------------
  alpha Z        PSCENC =       806.00608174
  Ewald energy   TEWEN  =    200175.87366191
  -Hartree energ DENC   =   -242317.52436518
  -exchange      EXHF   =         0.00000000
  -V(xc)+E(xc)   XCENC  =      -343.53559586
  PAW double counting   =     49353.46203797   -47431.54474240
  entropy T*S    EENTRO =        -0.22779748
  eigenvalues    EBANDS =     -2090.97576368
  atomic energy  EATOM  =     41659.78587232
  Solvation  Ediel_sol  =         0.00000000
  ---------------------------------------------------
  free energy    TOTEN  =      -188.68061066 eV

  energy without entropy =     -188.45281319  energy(sigma->0) =     -188.56671192


--------------------------------------------------------------------------------------------------------




----------------------------------------- Iteration    1(  19)  ---------------------------------------


    POTLOK:  cpu time    0.0493: real time    0.0494
    SETDIJ:  cpu time    0.0061: real time    0.0061
    EDDIAG:  cpu time    1.6425: real time    1.6431
  RMM-DIIS:  cpu time    4.3818: real time    4.4547
    ORTHCH:  cpu time    0.3933: real time    0.3934
       DOS:  cpu time    0.0016: real time    0.0016
    CHARGE:  cpu time    0.2998: real time    0.3001
    MIXING:  cpu time    0.0039: real time    0.0040
    --------------------------------------------
      LOOP:  cpu time    6.7792: real time    6.8571

 eigenvalue-minimisations  :  3681
 total energy-change (2. order) : 0.1413955E-01  (-0.1451675E-02)
 number of electron     503.9998364 magnetization 
 augmentation part      197.1061856 magnetization 

 DIPCOR: dipole corrections for dipol
 direction  3 min pos     1,
 dipolmoment           0.000000      0.000000      0.130982 electrons x Angstroem
 Tr[quadrupol]    -10308.422822

 energy correction for charged system         0.000000 eV
 dipol+quadrupol energy correction           -0.000605 eV
 added-field ion interaction          0.124390 eV  (added to PSCEN)


 Broyden mixing:
  rms(total) = 0.77874E-01    rms(broyden)= 0.77859E-01
  rms(prec ) = 0.85856E-01
  weight for this iteration     100.00

 eigenvalues of (default mixing * dielectric matrix)
  average eigenvalue GAMMA=   0.7074
  2.3289  1.5729  1.5729  0.7562  0.7562  0.4714  0.4714  0.4392  0.2975  0.2975
  0.2729  0.2236  0.2421  0.2006

 Free energy of the ion-electron system (eV)
  ---------------------------------------------------
  alpha Z        PSCENC =       805.99314984
  Ewald energy   TEWEN  =    200175.87366191
  -Hartree energ DENC   =   -242322.71859670
  -exchange      EXHF   =         0.00000000
  -V(xc)+E(xc)   XCENC  =      -343.50855882
  PAW double counting   =     49365.78718447   -47443.74522155
  entropy T*S    EENTRO =        -0.22814453
  eigenvalues    EBANDS =     -2085.90581805
  atomic energy  EATOM  =     41659.78587232
  Solvation  Ediel_sol  =         0.00000000
  ---------------------------------------------------
  free energy    TOTEN  =      -188.66647111 eV

  energy without entropy =     -188.43832658  energy(sigma->0) =     -188.55239884


--------------------------------------------------------------------------------------------------------




----------------------------------------- Iteration    1(  20)  ---------------------------------------


    POTLOK:  cpu time    0.0496: real time    0.0496
    SETDIJ:  cpu time    0.0061: real time    0.0061
    EDDIAG:  cpu time    1.6337: real time    1.6353
  RMM-DIIS:  cpu time    4.5333: real time    4.5368
    ORTHCH:  cpu time    0.3941: real time    0.3941
       DOS:  cpu time    0.0015: real time    0.0015
    CHARGE:  cpu time    0.2985: real time    0.2988
    MIXING:  cpu time    0.0040: real time    0.0040
    --------------------------------------------
      LOOP:  cpu time    6.9217: real time    6.9291

 eigenvalue-minimisations  :  3683
 total energy-change (2. order) : 0.2341582E-02  (-0.4356085E-03)
 number of electron     503.9998364 magnetization 
 augmentation part      197.0997694 magnetization 

 DIPCOR: dipole corrections for dipol
 direction  3 min pos     1,
 dipolmoment           0.000000      0.000000      0.125102 electrons x Angstroem
 Tr[quadrupol]    -10308.514778

 energy correction for charged system         0.000000 eV
 dipol+quadrupol energy correction           -0.000551 eV
 added-field ion interaction          0.118806 eV  (added to PSCEN)


 Broyden mixing:
  rms(total) = 0.68979E-01    rms(broyden)= 0.68974E-01
  rms(prec ) = 0.75810E-01
  weight for this iteration     100.00

 eigenvalues of (default mixing * dielectric matrix)
  average eigenvalue GAMMA=   0.7389
  2.3573  1.5923  1.5923  0.9686  0.9686  0.7154  0.5389  0.5389  0.3074  0.3074
  0.2707  0.2707  0.2253  0.2335  0.1963

 Free energy of the ion-electron system (eV)
  ---------------------------------------------------
  alpha Z        PSCENC =       805.98761877
  Ewald energy   TEWEN  =    200175.87366191
  -Hartree energ DENC   =   -242325.95774722
  -exchange      EXHF   =         0.00000000
  -V(xc)+E(xc)   XCENC  =      -343.51063749
  PAW double counting   =     49373.01476826   -47451.02337746
  entropy T*S    EENTRO =        -0.22959412
  eigenvalues    EBANDS =     -2082.60469448
  atomic energy  EATOM  =     41659.78587232
  Solvation  Ediel_sol  =         0.00000000
  ---------------------------------------------------
  free energy    TOTEN  =      -188.66412953 eV

  energy without entropy =     -188.43453540  energy(sigma->0) =     -188.54933246


--------------------------------------------------------------------------------------------------------




----------------------------------------- Iteration    1(  21)  ---------------------------------------


    POTLOK:  cpu time    0.0499: real time    0.0500
    SETDIJ:  cpu time    0.0060: real time    0.0060
    EDDIAG:  cpu time    1.6515: real time    1.6521
  RMM-DIIS:  cpu time    4.5193: real time    4.5215
    ORTHCH:  cpu time    0.3936: real time    0.3939
       DOS:  cpu time    0.0015: real time    0.0015
    CHARGE:  cpu time    0.3008: real time    0.3008
    MIXING:  cpu time    0.0041: real time    0.0041
    --------------------------------------------
      LOOP:  cpu time    6.9274: real time    6.9336

 eigenvalue-minimisations  :  3680
 total energy-change (2. order) : 0.1915556E-02  (-0.7864326E-03)
 number of electron     503.9998364 magnetization 
 augmentation part      197.0759356 magnetization 

 DIPCOR: dipole corrections for dipol
 direction  3 min pos     1,
 dipolmoment           0.000000      0.000000      0.112082 electrons x Angstroem
 Tr[quadrupol]    -10308.706378

 energy correction for charged system         0.000000 eV
 dipol+quadrupol energy correction           -0.000443 eV
 added-field ion interaction          0.106441 eV  (added to PSCEN)


 Broyden mixing:
  rms(total) = 0.63577E-01    rms(broyden)= 0.63570E-01
  rms(prec ) = 0.71741E-01
  weight for this iteration     100.00

 eigenvalues of (default mixing * dielectric matrix)
  average eigenvalue GAMMA=   0.7489
  2.3240  1.7146  1.7146  1.0161  1.0161  0.7706  0.6387  0.6387  0.3256  0.3256
  0.2991  0.2991  0.2485  0.2225  0.2344  0.1939

 Free energy of the ion-electron system (eV)
  ---------------------------------------------------
  alpha Z        PSCENC =       805.97536282
  Ewald energy   TEWEN  =    200175.87366191
  -Hartree energ DENC   =   -242333.58366890
  -exchange      EXHF   =         0.00000000
  -V(xc)+E(xc)   XCENC  =      -343.47768930
  PAW double counting   =     49381.49942077   -47459.42485018
  entropy T*S    EENTRO =        -0.22753317
  eigenvalues    EBANDS =     -2075.08279023
  atomic energy  EATOM  =     41659.78587232
  Solvation  Ediel_sol  =         0.00000000
  ---------------------------------------------------
  free energy    TOTEN  =      -188.66221397 eV

  energy without entropy =     -188.43468080  energy(sigma->0) =     -188.54844739


--------------------------------------------------------------------------------------------------------




----------------------------------------- Iteration    1(  22)  ---------------------------------------


    POTLOK:  cpu time    0.0495: real time    0.0495
    SETDIJ:  cpu time    0.0060: real time    0.0060
    EDDIAG:  cpu time    1.6175: real time    1.6184
  RMM-DIIS:  cpu time    4.5113: real time    4.5133
    ORTHCH:  cpu time    0.3930: real time    0.3935
       DOS:  cpu time    0.0014: real time    0.0014
    CHARGE:  cpu time    0.3053: real time    0.4017
    MIXING:  cpu time    0.0042: real time    0.0063
    --------------------------------------------
      LOOP:  cpu time    6.8891: real time    6.9925

 eigenvalue-minimisations  :  3682
 total energy-change (2. order) : 0.2995650E-02  (-0.4149083E-03)
 number of electron     503.9998364 magnetization 
 augmentation part      197.0761116 magnetization 

 DIPCOR: dipole corrections for dipol
 direction  3 min pos     1,
 dipolmoment           0.000000      0.000000      0.105429 electrons x Angstroem
 Tr[quadrupol]    -10308.821912

 energy correction for charged system         0.000000 eV
 dipol+quadrupol energy correction           -0.000392 eV
 added-field ion interaction          0.100123 eV  (added to PSCEN)


 Broyden mixing:
  rms(total) = 0.38895E-01    rms(broyden)= 0.38889E-01
  rms(prec ) = 0.44567E-01
  weight for this iteration     100.00

 eigenvalues of (default mixing * dielectric matrix)
  average eigenvalue GAMMA=   0.7523
  2.3083  1.6443  1.6443  1.5845  0.7909  0.7909  0.7419  0.7419  0.4094  0.3506
  0.3018  0.3018  0.2669  0.2669  0.2255  0.2255  0.1938

 Free energy of the ion-electron system (eV)
  ---------------------------------------------------
  alpha Z        PSCENC =       805.96909571
  Ewald energy   TEWEN  =    200175.87366191
  -Hartree energ DENC   =   -242337.68119492
  -exchange      EXHF   =         0.00000000
  -V(xc)+E(xc)   XCENC  =      -343.47231190
  PAW double counting   =     49381.62165089   -47459.59327494
  entropy T*S    EENTRO =        -0.22849624
  eigenvalues    EBANDS =     -2070.93422115
  atomic energy  EATOM  =     41659.78587232
  Solvation  Ediel_sol  =         0.00000000
  ---------------------------------------------------
  free energy    TOTEN  =      -188.65921832 eV

  energy without entropy =     -188.43072208  energy(sigma->0) =     -188.54497020


--------------------------------------------------------------------------------------------------------




----------------------------------------- Iteration    1(  23)  ---------------------------------------


    POTLOK:  cpu time    0.0450: real time    0.0685
    SETDIJ:  cpu time    0.0054: real time    0.0097
    EDDIAG:  cpu time    1.4901: real time    1.9702
  RMM-DIIS:  cpu time    4.4900: real time    4.5035
[...]
    275       1.7452      0.00000
    276       1.8079      0.00000
    277       2.1565      0.00000
    278       2.2313      0.00000
    279       2.2765      0.00000
    280       2.3620      0.00000
    281       2.4678      0.00000
    282       2.5948      0.00000
    283       2.6696      0.00000
    284       3.0181      0.00000
    285       3.1758      0.00000
    286       3.2540      0.00000
    287       3.5451      0.00000
    288       3.6589      0.00000
    289       3.7128      0.00000
    290       3.9906      0.00000
    291       4.0837      0.00000
    292       4.1941      0.00000
    293       4.5015      0.00000
    294       4.5496      0.00000
    295       4.6197      0.00000
    296       4.6411      0.00000
    297       4.6873      0.00000
    298       4.7881      0.00000
    299       4.8653      0.00000
    300       4.9099      0.00000
    301       4.9375      0.00000
    302       5.0421      0.00000
    303       5.0738      0.00000
    304       5.1059      0.00000
    305       5.1454      0.00000
    306       5.2593      0.00000


--------------------------------------------------------------------------------------------------------


 soft charge-density along one line, spin component           1
         0         1         2         3         4         5         6         7         8         9
 total charge-density along one line
 
 pseudopotential strength for first ion, spin component:           1
 -8.075  -0.000  -0.001  -0.002  -0.000  -8.221  -0.000  -0.001
 -0.000  -7.998  -0.000   0.001  -0.002  -0.000  -8.146  -0.000
 -0.001  -0.000  -7.993  -0.001   0.002  -0.001  -0.000  -8.141
 -0.002   0.001  -0.001  -8.000  -0.001  -0.002   0.001  -0.001
 -0.000  -0.002   0.002  -0.001  -8.075  -0.000  -0.002   0.002
 -8.221  -0.000  -0.001  -0.002  -0.000  -8.351  -0.000  -0.001
 -0.000  -8.146  -0.000   0.001  -0.002  -0.000  -8.278  -0.000
 -0.001  -0.000  -8.141  -0.001   0.002  -0.001  -0.000  -8.273
 -0.002   0.001  -0.001  -8.148  -0.001  -0.002   0.001  -0.001
 -0.000  -0.002   0.002  -0.001  -8.221  -0.000  -0.002   0.002
 -0.001  -0.000  -0.026   0.000   0.001  -0.001  -0.000  -0.025
 -0.001  -0.000  -0.037   0.000   0.001  -0.001  -0.000  -0.037
  0.004  -0.005  -0.002   0.000  -0.004   0.004  -0.004  -0.002
  0.000   0.004  -0.007   0.003   0.000   0.000   0.004  -0.006
  0.004   0.000  -0.002  -0.004   0.003   0.004   0.000  -0.002
  0.004  -0.005  -0.003   0.000  -0.005   0.004  -0.004  -0.003
  0.000   0.004  -0.007   0.004   0.000   0.000   0.004  -0.007
  0.005   0.000  -0.002  -0.005   0.004   0.005   0.000  -0.002
 total augmentation occupancy for first ion, spin component:           1
  4.732   0.013   0.142   0.042   0.110  -2.903  -0.007  -0.137  -0.068  -0.105   0.093  -0.044  -0.049  -0.012  -0.038   0.006
  0.013   4.064   0.012   0.037   0.017  -0.008  -1.835  -0.014  -0.030  -0.052  -0.005   0.015  -0.134  -0.001  -0.009   0.002
  0.142   0.012   4.646   0.051  -0.031  -0.137  -0.014  -2.536  -0.051   0.039   1.146  -0.209   0.024  -0.239   0.010  -0.003
  0.042   0.037   0.051   4.130  -0.009  -0.068  -0.030  -0.051  -1.887   0.004  -0.021   0.025  -0.006  -0.012  -0.127   0.000
  0.110   0.017  -0.031  -0.009   4.812  -0.105  -0.053   0.039   0.004  -2.988  -0.065   0.036  -0.002  -0.001   0.017  -0.004
 -2.903  -0.008  -0.137  -0.068  -0.105   2.963   0.004   0.132   0.088   0.100  -0.086   0.043   0.040   0.009   0.035  -0.002
 -0.007  -1.835  -0.014  -0.030  -0.053   0.004   1.573   0.014   0.023   0.080   0.002  -0.012   0.124  -0.001   0.006  -0.005
 -0.137  -0.014  -2.536  -0.051   0.039   0.132   0.014   2.372   0.048  -0.046  -1.073   0.227  -0.021   0.245  -0.009   0.001
 -0.068  -0.030  -0.051  -1.887   0.004   0.088   0.023   0.048   1.615  -0.001   0.016  -0.021   0.004   0.008   0.117  -0.000
 -0.105  -0.052   0.039   0.004  -2.988   0.100   0.080  -0.046  -0.001   3.051   0.056  -0.033   0.004  -0.000  -0.016   0.001
  0.093  -0.005   1.146  -0.021  -0.065  -0.086   0.002  -1.073   0.016   0.056   2.539  -0.574   0.013   0.109   0.006  -0.000
 -0.044   0.015  -0.209   0.025   0.036   0.043  -0.012   0.227  -0.021  -0.033  -0.574   0.174  -0.014  -0.048  -0.011   0.001
 -0.049  -0.134   0.024  -0.006  -0.002   0.040   0.124  -0.021   0.004   0.004   0.013  -0.014   0.201  -0.001  -0.003  -0.006
 -0.012  -0.001  -0.239  -0.012  -0.001   0.009  -0.001   0.245   0.008  -0.000   0.109  -0.048  -0.001   0.095  -0.000   0.000
 -0.038  -0.009   0.010  -0.127   0.017   0.035   0.006  -0.009   0.117  -0.016   0.006  -0.011  -0.003  -0.000   0.202   0.000
  0.006   0.002  -0.003   0.000  -0.004  -0.002  -0.005   0.001  -0.000   0.001  -0.000   0.001  -0.006   0.000   0.000   0.000
  0.000   0.004  -0.001   0.005   0.000  -0.000  -0.001  -0.006  -0.002  -0.000  -0.007   0.002  -0.000  -0.003  -0.000   0.000
  0.006   0.000  -0.002   0.003   0.003  -0.002  -0.000   0.000  -0.005   0.000   0.000   0.000   0.000  -0.000  -0.007  -0.000


------------------------ aborting loop because EDIFF is reached ----------------------------------------


    CHARGE:  cpu time    0.2989: real time    0.2990
    FORLOC:  cpu time    0.0187: real time    0.0187
    FORNL :  cpu time    1.6781: real time    1.6789
    FORCOR:  cpu time    0.0672: real time    0.0685
    FORHAR:  cpu time    0.0292: real time    0.0292
    MIXING:  cpu time    0.0034: real time    0.0034
    OFIELD:  cpu time    0.0000: real time    0.0000

 VOLUME and BASIS-vectors are now :
 -----------------------------------------------------------------------------
  energy-cutoff  :      400.00
  volume of cell :     2567.68
      direct lattice vectors                 reciprocal lattice vectors
    11.002581515  0.000000000  0.000000000     0.090887761 -0.052474073  0.000000000
     5.501290758  9.528515099  0.000000000     0.000000000  0.104948147  0.000000000
     0.000000000  0.000000000 24.491785094     0.000000000  0.000000000  0.040830017

  length of vectors
    11.002581515 11.002581515 24.491785094     0.104948147  0.104948147  0.040830017


 FORCES acting on ions
    electron-ion (+dipol)            ewald-force                    non-local-force                 convergence-correction
 -----------------------------------------------------------------------------------------------
   0.709E+01 0.143E+02 0.220E+04   -.766E+01 -.149E+02 -.220E+04   0.419E+00 0.311E+00 -.272E+00   -.162E-03 0.282E-02 -.746E-03
   0.414E+01 0.858E+01 -.178E+02   -.357E+01 -.775E+01 0.179E+02   -.560E+00 -.827E+00 -.437E-01   -.664E-02 0.695E-02 0.111E-02
   -.196E+01 0.730E+01 -.441E+02   0.219E+01 -.708E+01 0.448E+02   -.229E+00 -.219E+00 -.671E+00   0.501E-02 -.110E-01 -.671E-02
   0.627E+00 -.226E+02 0.220E+04   -.572E+00 0.232E+02 -.220E+04   -.570E-01 -.309E+00 -.194E-01   -.927E-03 -.256E-02 0.108E-02
   -.219E+02 0.170E+02 0.220E+04   0.228E+02 -.178E+02 -.220E+04   -.519E+00 0.538E+00 0.765E-01   0.259E-02 0.823E-03 -.924E-03
   0.101E+02 -.223E+02 0.220E+04   -.108E+02 0.230E+02 -.220E+04   0.456E+00 -.337E+00 0.993E-01   -.223E-02 -.103E-02 0.246E-02
   0.635E+00 0.410E+01 -.129E+02   -.122E+01 -.411E+01 0.129E+02   0.585E+00 0.188E-01 -.842E-03   0.230E-02 -.499E-02 -.238E-02
   0.173E-01 -.651E+01 0.219E+04   0.157E+00 0.664E+01 -.219E+04   -.165E+00 -.580E-01 -.121E+00   -.473E-03 0.821E-03 0.130E-02
   -.305E+01 0.535E+01 -.228E+04   0.366E+01 -.562E+01 0.228E+04   -.613E+00 0.260E+00 0.296E+00   0.405E-02 0.539E-02 -.622E-02
   -.120E+01 -.645E+01 -.236E+04   0.116E+01 0.650E+01 0.236E+04   0.481E-01 -.494E-01 -.203E+00   -.518E-02 -.160E-02 0.568E-02
   -.123E+02 0.631E+01 0.219E+04   0.124E+02 -.649E+01 -.219E+04   0.210E-01 0.767E-01 -.555E-01   0.149E-02 -.133E-02 0.424E-03
   -.311E+01 0.984E+00 -.709E+02   0.259E+01 -.998E+00 0.724E+02   0.506E+00 0.142E-01 -.156E+01   0.337E-02 0.249E-02 -.117E-01
   -.393E+01 -.643E+01 -.650E+02   0.370E+01 0.548E+01 0.657E+02   0.227E+00 0.956E+00 -.689E+00   -.832E-02 -.781E-02 0.290E-03
   -.361E+01 -.146E+00 -.228E+04   0.331E+01 0.370E+00 0.228E+04   0.295E+00 -.222E+00 0.259E+00   0.164E-02 -.282E-02 -.699E-02
   -.698E+01 -.599E+01 0.220E+04   0.739E+01 0.632E+01 -.220E+04   -.290E+00 -.208E+00 0.200E+00   0.229E-02 -.279E-02 0.422E-03
   0.570E+01 -.309E+01 -.628E+02   -.513E+01 0.270E+01 0.634E+02   -.556E+00 0.399E+00 -.582E+00   0.130E-02 -.114E-01 -.378E-02
   0.166E+02 0.184E+02 0.221E+04   -.171E+02 -.191E+02 -.221E+04   0.285E+00 0.446E+00 -.541E-01   -.253E-02 0.322E-02 0.969E-03
   -.958E+01 0.111E+02 0.220E+04   0.968E+01 -.113E+02 -.220E+04   0.317E-02 0.114E+00 -.538E-01   0.278E-02 -.192E-02 -.218E-02
   0.457E+01 -.227E+01 0.146E+02   -.467E+01 0.270E+01 -.152E+02   0.104E+00 -.426E+00 0.585E+00   0.250E-03 -.727E-04 -.218E-03
   -.759E+01 0.546E+01 -.619E+02   0.789E+01 -.491E+01 0.618E+02   -.303E+00 -.544E+00 0.428E-01   0.437E-02 -.269E-02 -.421E-02
   0.402E+01 0.261E+01 -.230E+04   -.447E+01 -.341E+01 0.230E+04   0.441E+00 0.800E+00 -.525E-01   0.493E-02 -.220E-02 0.418E-02
   0.251E+01 -.255E+01 0.220E+04   -.266E+01 0.260E+01 -.220E+04   0.111E+00 -.317E-01 -.521E+00   0.618E-03 -.234E-03 0.166E-02
   -.419E+01 0.418E+01 -.229E+04   0.445E+01 -.406E+01 0.229E+04   -.262E+00 -.117E+00 0.305E+00   0.492E-02 0.134E-02 -.315E-02
   0.970E+01 -.148E+02 0.220E+04   -.982E+01 0.154E+02 -.219E+04   0.177E-01 -.347E+00 -.499E+00   -.159E-02 0.181E-02 0.253E-02
   0.929E+01 -.328E-01 -.204E+04   -.966E+01 0.552E+00 0.204E+04   0.376E+00 -.525E+00 0.178E+01   0.234E-02 0.569E-02 -.195E-02
   -.240E+01 -.142E+01 -.425E+02   0.241E+01 0.146E+01 0.438E+02   -.306E-02 -.382E-01 -.140E+01   -.277E-02 0.399E-02 -.688E-02
   0.625E+01 -.261E+01 -.202E+04   -.652E+01 0.224E+01 0.201E+04   0.277E+00 0.378E+00 0.196E+01   0.231E-02 0.815E-03 -.662E-02
   0.104E+02 0.316E+01 0.201E+04   -.106E+02 -.310E+01 -.201E+04   0.206E-01 -.107E+00 -.147E+01   -.162E-03 -.373E-04 -.128E-02
   0.399E+01 -.284E+01 -.289E+02   -.420E+01 0.310E+01 0.302E+02   0.221E+00 -.269E+00 -.130E+01   -.779E-02 0.604E-02 -.884E-02
   0.321E+01 0.683E+01 -.203E+04   -.332E+01 -.692E+01 0.203E+04   0.112E+00 0.857E-01 0.198E+01   -.537E-02 0.918E-02 -.926E-02
   0.547E+01 -.469E+01 -.515E+02   -.540E+01 0.426E+01 0.524E+02   -.561E-01 0.422E+00 -.896E+00   -.149E-02 0.604E-02 0.163E-02
   -.540E+01 -.945E+01 -.201E+04   0.559E+01 0.969E+01 0.201E+04   -.187E+00 -.243E+00 0.177E+01   -.992E-02 -.798E-03 -.106E-01
   0.455E+01 0.335E+01 -.201E+04   -.490E+01 -.350E+01 0.201E+04   0.349E+00 0.145E+00 0.178E+01   -.531E-02 0.152E-02 -.822E-02
   0.236E+01 0.972E+01 -.202E+04   -.215E+01 -.100E+02 0.202E+04   -.212E+00 0.279E+00 0.185E+01   -.150E-02 0.821E-02 -.729E-02
   -.731E+00 0.409E+01 -.188E+02   0.694E+00 -.386E+01 0.197E+02   0.424E-01 -.215E+00 -.860E+00   -.346E-02 0.110E-02 -.647E-02
   0.616E+01 -.610E+01 0.202E+04   -.617E+01 0.623E+01 -.202E+04   -.711E-02 -.920E-01 -.120E+01   -.288E-02 0.136E-02 0.313E-03
   -.616E+01 0.326E+01 -.607E+02   0.607E+01 -.345E+01 0.612E+02   0.871E-01 0.200E+00 -.497E+00   0.184E-02 -.205E-02 -.307E-02
   -.126E+01 -.116E+02 -.203E+04   0.149E+01 0.121E+02 0.203E+04   -.228E+00 -.453E+00 0.160E+01   -.671E-02 -.359E-02 -.435E-02
   0.220E+00 -.632E+01 -.202E+04   -.401E+00 0.688E+01 0.201E+04   0.175E+00 -.558E+00 0.142E+01   0.710E-02 -.303E-02 -.518E-04
   -.817E+01 -.602E+00 0.202E+04   0.822E+01 0.770E+00 -.202E+04   0.255E-01 -.136E+00 -.150E+01   0.586E-03 -.273E-03 -.230E-03
   -.540E+01 -.454E+01 -.199E+04   0.576E+01 0.467E+01 0.199E+04   -.358E+00 -.126E+00 0.139E+01   0.101E-02 -.900E-03 0.190E-03
   0.519E+01 -.338E+01 -.159E+02   -.483E+01 0.374E+01 0.164E+02   -.359E+00 -.363E+00 -.484E+00   0.807E-03 -.111E-02 -.715E-02
   -.622E+01 0.573E+00 -.276E+02   0.589E+01 -.786E+00 0.280E+02   0.332E+00 0.218E+00 -.410E+00   0.504E-02 -.149E-02 -.357E-02
   0.276E+01 -.634E+01 -.312E+02   -.274E+01 0.564E+01 0.312E+02   -.189E-01 0.719E+00 -.438E-02   -.920E-03 -.204E-02 -.299E-03
   -.726E+01 0.907E+01 -.198E+04   0.751E+01 -.959E+01 0.198E+04   -.245E+00 0.516E+00 0.211E+01   -.252E-02 0.192E-02 -.111E-01
   -.356E+01 -.790E+01 0.201E+04   0.370E+01 0.788E+01 -.201E+04   -.836E-01 0.104E+00 -.155E+01   0.773E-03 -.145E-02 0.124E-02
   -.167E+01 0.172E+02 0.201E+04   0.181E+01 -.175E+02 -.201E+04   -.159E+00 0.125E+00 -.159E+01   0.574E-04 0.825E-03 -.744E-04
   0.190E+01 -.215E+01 -.202E+04   -.194E+01 0.219E+01 0.201E+04   0.277E-01 -.480E-01 0.128E+01   0.280E-02 -.482E-02 0.268E-02
 -----------------------------------------------------------------------------------------------
   -.838E-01 -.248E+00 -.217E+01   -.524E-13 -.782E-13 -.682E-12   0.943E-01 0.261E+00 0.223E+01   -.123E-01 -.371E-02 -.118E+00
 
 
 POSITION                                       TOTAL-FORCE (eV/Angst)
 -----------------------------------------------------------------------------------
      1.37532      0.79404     10.00000        -0.154866     -0.231208     -0.127652
     15.15031      8.76189     12.45101         0.001709      0.008544      0.000498
      8.26308      6.35910     12.49150         0.000193     -0.004145     -0.003744
      4.12597      5.55830     10.00000        -0.002445      0.327673     -0.159830
      4.12597      0.79404     10.00000         0.323208     -0.258631     -0.166683
     12.37790      5.55830     10.00000        -0.212482      0.286222     -0.182050
     10.98791      6.35216     12.45048         0.002815      0.000798     -0.001306
      2.75065      3.17617     10.00000         0.008708      0.072703     -0.075572
     11.02765      4.74964     14.97039         0.004838     -0.001528      0.001299
      4.12863      7.15028     15.08768         0.005909     -0.001064      0.001432
      5.50129      3.17617     10.00000         0.135562     -0.109840     -0.075132
      2.73644      1.59523     12.51823        -0.010780      0.002007      0.006417
     13.75697      6.34146     12.51038        -0.011783      0.001643     -0.003918
      8.25246      4.76810     14.98427         0.002500     -0.001346      0.007669
      6.87661      5.55830     10.00000         0.126891      0.121694     -0.156431
      5.51494      6.35640     12.50882         0.015383     -0.004381     -0.001256
      9.62726      0.79404     10.00000        -0.214779     -0.269624     -0.183270
      8.25194      7.94043     10.00000         0.105164     -0.123490     -0.121864
     12.37698      8.75638     12.41473         0.001643     -0.000355     -0.007607
      5.51692      1.61157     12.50037         0.003325      0.001471     -0.000557
      5.48345     -0.02531     15.01682        -0.006815      0.001859     -0.003456
      8.25194      3.17617     10.00000        -0.039065      0.020955      0.038542
      6.88565      2.37304     14.99210        -0.002705     -0.002617      0.005034
     11.00258      3.17617     10.00000        -0.107209      0.207587      0.010625
      4.10564      2.39161     14.88257         0.005490     -0.000142      0.006770
      4.12922      3.97268     12.49253         0.002594      0.001502     -0.003863
      2.72973     -0.01913     14.84439         0.008485      0.002168      0.003892
      5.50129      7.94043     10.00000        -0.107392     -0.044556      0.242514
     10.99977      1.60690     12.46721         0.006688     -0.004562      0.012902
      1.37696      2.36333     14.85389         0.002307      0.001207      0.006917
     12.36396      3.96252     12.49900         0.005497     -0.000440      0.004005
      0.00383      0.00443     14.83613        -0.002018     -0.002837      0.001165
      5.49137      4.76241     14.86455        -0.000952     -0.003872      0.006129
      2.76580      4.74893     14.86417        -0.003001     -0.007626      0.002965
      6.87863      8.75132     12.45885         0.001744      0.008819      0.001905
     13.75323      7.94043     10.00000        -0.021157      0.047211      0.212099
      6.89434      3.96691     12.51366         0.000926      0.012622      0.001706
      6.88332      7.16540     14.88228         0.000161     -0.002324      0.008654
      9.62276      7.15187     14.87187         0.001147     -0.005360      0.001165
     11.00258      7.94043     10.00000         0.079407      0.031185      0.201575
      8.26276     -0.00688     14.83975         0.002942      0.003204     -0.000574
      8.26044      1.61659     12.45050         0.002086      0.002775      0.001050
      9.62630      8.74919     12.46646         0.003536      0.002708     -0.001950
      9.62931      3.95092     12.47041        -0.004062      0.008983      0.003399
      9.64341      2.35485     14.81073         0.002542     -0.000756      0.007647
      9.62726      5.55830     10.00000         0.057468      0.077321      0.253760
      6.87661      0.79404     10.00000        -0.016079     -0.161168      0.227449
     12.37868      7.14562     14.87703        -0.003280     -0.010991     -0.002470
 -----------------------------------------------------------------------------------
    total drift:                               -0.001878      0.008662     -0.064050


--------------------------------------------------------------------------------------------------------



  FREE ENERGIE OF THE ION-ELECTRON SYSTEM (eV)
  ---------------------------------------------------
  free  energy   TOTEN  =      -192.16522320 eV

  energy  without entropy=     -191.96772018  energy(sigma->0) =     -192.06647169
 
 d Force = 0.4396737E-03[ 0.111E-03, 0.768E-03]  d Energy = 0.4154083E-03 0.243E-04
 d Force = 0.2849366E+02[ 0.285E+02, 0.285E+02]  d Ewald  = 0.2849367E+02-0.518E-05


--------------------------------------------------------------------------------------------------------


    POTLOK:  cpu time    0.0579: real time    0.0579


--------------------------------------------------------------------------------------------------------


 stress matrix after NEB project (eV)
      0.00000      0.00000      0.00000
      0.00000      0.00000      0.00000
      0.00000      0.00000      0.00000
  FORCES: max atom, RMS     0.016044    0.007066
  FORCE total and by dimension    0.048952    0.015383
  Stress total and by dimension    0.000000    0.000000
 Conjugate gradient step on ions:
 trial-energy change:   -0.000415  1 .order   -0.000440   -0.000768   -0.000111
  (g-gl).g = 0.276E-03      g.g   = 0.297E-03  gl.gl    = 0.692E-03
 g(Force)  = 0.297E-03   g(Stress)= 0.000E+00 ortho     = 0.613E-05
 gamma     =   0.39917
 trial     =   2.56802
 opt step  =   3.16726  (harmonic =   3.00340) maximal distance =0.00338575
 next E    =  -192.165236   (d E  =  -0.00043)


--------------------------------------------------------------------------------------------------------


  
 reached required accuracy - stopping structural energy minimisation
     LOOP+:  cpu time   68.7697: real time   69.0494
    4ORBIT:  cpu time    0.0000: real time    0.0000

 total amount of memory used by VASP on root node    84353. kBytes
========================================================================

   base      :      30000. kBytes
   nonlr-proj:       4285. kBytes
   fftplans  :       4447. kBytes
   grid      :       6721. kBytes
   one-center:        124. kBytes
   wavefun   :      38776. kBytes
 
  
  
 General timing and accounting informations for this job:
 ========================================================
  
                  Total CPU time used (sec):     1928.623
                            User time (sec):     1850.667
                          System time (sec):       77.956
                         Elapsed time (sec):     1953.496
  
                   Maximum memory used (kb):      820488.
                   Average memory used (kb):           0.
  
                          Minor page faults:       770682
                          Major page faults:            0
                 Voluntary context switches:         8994
