  48  48   0   0
  0.5349325E+02  0.1100258E-08  0.1100258E-08  0.2449179E-08  0.3500000E-15
  1.000000000000000E-004
  CAR 
 unknown system                          
      6.35759045     -9.72713018  301     -1.09778780      1.00000000
     -9.727  0.0000E+00  0.0000E+00
     -9.674  0.0000E+00  0.0000E+00
     -9.620  0.0000E+00  0.0000E+00
     -9.566  0.0000E+00  0.0000E+00
     -9.513  0.0000E+00  0.0000E+00
     -9.459  0.0000E+00  0.0000E+00
     -9.405  0.0000E+00  0.0000E+00
     -9.352  0.0000E+00  0.0000E+00
     -9.298  0.4141E-17  0.2220E-18
     -9.245  0.1641E-14  0.8823E-16
     -9.191  0.3580E-12  0.1928E-13
     -9.137  0.4476E-10  0.2419E-11
     -9.084  0.3222E-08  0.1752E-09
     -9.030  0.1342E-06  0.7370E-08
     -8.977  0.3254E-05  0.1818E-06
     -8.923  0.4620E-04  0.2659E-05
     -8.869  0.3867E-03  0.2339E-04
     -8.816  0.1918E-02  0.1262E-03
     -8.762  0.5675E-02  0.4305E-03
     -8.708  0.1019E-01  0.9769E-03
     -8.655  0.1185E-01  0.1613E-02
     -8.601  0.1092E-01  0.2198E-02
     -8.548  0.1035E-01  0.2753E-02
     -8.494  0.9591E-02  0.3267E-02
     -8.440  0.7270E-02  0.3657E-02
     -8.387  0.4207E-02  0.3883E-02
     -8.333  0.1878E-02  0.3983E-02
     -8.280  0.1298E-02  0.4053E-02
     -8.226  0.2386E-02  0.4181E-02
     -8.172  0.3719E-02  0.4380E-02
     -8.119  0.4076E-02  0.4599E-02
     -8.065  0.5075E-02  0.4871E-02
     -8.011  0.9063E-02  0.5357E-02
     -7.958  0.1441E-01  0.6129E-02
     -7.904  0.1679E-01  0.7030E-02
     -7.851  0.1568E-01  0.7870E-02
     -7.797  0.1580E-01  0.8717E-02
     -7.743  0.1835E-01  0.9701E-02
     -7.690  0.1888E-01  0.1071E-01
     -7.636  0.1739E-01  0.1165E-01
     -7.583  0.1844E-01  0.1263E-01
     -7.529  0.2149E-01  0.1379E-01
     -7.475  0.2100E-01  0.1491E-01
     -7.422  0.1740E-01  0.1585E-01
     -7.368  0.1660E-01  0.1674E-01
     -7.314  0.1950E-01  0.1778E-01
     -7.261  0.2206E-01  0.1896E-01
     -7.207  0.2356E-01  0.2023E-01
     -7.154  0.2706E-01  0.2168E-01
     -7.100  0.3207E-01  0.2340E-01
     -7.046  0.3580E-01  0.2532E-01
     -6.993  0.4024E-01  0.2747E-01
     -6.939  0.4861E-01  0.3008E-01
     -6.885  0.5875E-01  0.3323E-01
     -6.832  0.6859E-01  0.3691E-01
     -6.778  0.7951E-01  0.4117E-01
     -6.725  0.9000E-01  0.4600E-01
     -6.671  0.9629E-01  0.5116E-01
     -6.617  0.9935E-01  0.5648E-01
     -6.564  0.1027E+00  0.6199E-01
     -6.510  0.1068E+00  0.6772E-01
     -6.457  0.1100E+00  0.7361E-01
     -6.403  0.1111E+00  0.7957E-01
     -6.349  0.1107E+00  0.8550E-01
     -6.296  0.1145E+00  0.9164E-01
     -6.242  0.1252E+00  0.9835E-01
     -6.188  0.1363E+00  0.1057E+00
     -6.135  0.1431E+00  0.1133E+00
     -6.081  0.1484E+00  0.1213E+00
     -6.028  0.1547E+00  0.1296E+00
     -5.974  0.1579E+00  0.1380E+00
     -5.920  0.1551E+00  0.1464E+00
     -5.867  0.1506E+00  0.1544E+00
     -5.813  0.1487E+00  0.1624E+00
     -5.760  0.1487E+00  0.1704E+00
     -5.706  0.1479E+00  0.1783E+00
     -5.652  0.1458E+00  0.1861E+00
     -5.599  0.1447E+00  0.1939E+00
     -5.545  0.1443E+00  0.2016E+00
     -5.491  0.1448E+00  0.2094E+00
     -5.438  0.1464E+00  0.2172E+00
     -5.384  0.1489E+00  0.2252E+00
     -5.331  0.1550E+00  0.2335E+00
     -5.277  0.1660E+00  0.2424E+00
     -5.223  0.1748E+00  0.2518E+00
     -5.170  0.1740E+00  0.2611E+00
     -5.116  0.1670E+00  0.2701E+00
     -5.063  0.1621E+00  0.2788E+00
     -5.009  0.1620E+00  0.2875E+00
     -4.955  0.1667E+00  0.2964E+00
     -4.902  0.1749E+00  0.3058E+00
     -4.848  0.1800E+00  0.3154E+00
     -4.794  0.1773E+00  0.3249E+00
     -4.741  0.1721E+00  0.3342E+00
     -4.687  0.1733E+00  0.3435E+00
     -4.634  0.1794E+00  0.3531E+00
     -4.580  0.1821E+00  0.3628E+00
     -4.526  0.1809E+00  0.3725E+00
     -4.473  0.1798E+00  0.3822E+00
     -4.419  0.1783E+00  0.3917E+00
     -4.366  0.1762E+00  0.4012E+00
     -4.312  0.1769E+00  0.4107E+00
     -4.258  0.1808E+00  0.4204E+00
     -4.205  0.1863E+00  0.4304E+00
     -4.151  0.1911E+00  0.4406E+00
     -4.097  0.1915E+00  0.4509E+00
     -4.044  0.1873E+00  0.4609E+00
     -3.990  0.1846E+00  0.4708E+00
     -3.937  0.1868E+00  0.4808E+00
     -3.883  0.1915E+00  0.4911E+00
     -3.829  0.1962E+00  0.5016E+00
     -3.776  0.1995E+00  0.5123E+00
     -3.722  0.2000E+00  0.5230E+00
     -3.669  0.2006E+00  0.5338E+00
     -3.615  0.2043E+00  0.5447E+00
     -3.561  0.2084E+00  0.5559E+00
     -3.508  0.2097E+00  0.5672E+00
     -3.454  0.2101E+00  0.5784E+00
     -3.400  0.2107E+00  0.5897E+00
     -3.347  0.2117E+00  0.6011E+00
     -3.293  0.2128E+00  0.6125E+00
     -3.240  0.2116E+00  0.6238E+00
     -3.186  0.2063E+00  0.6349E+00
     -3.132  0.1990E+00  0.6456E+00
     -3.079  0.1932E+00  0.6559E+00
     -3.025  0.1890E+00  0.6660E+00
     -2.972  0.1844E+00  0.6759E+00
     -2.918  0.1804E+00  0.6856E+00
     -2.864  0.1804E+00  0.6953E+00
     -2.811  0.1821E+00  0.7050E+00
     -2.757  0.1777E+00  0.7146E+00
     -2.703  0.1685E+00  0.7236E+00
     -2.650  0.1627E+00  0.7323E+00
     -2.596  0.1628E+00  0.7410E+00
     -2.543  0.1661E+00  0.7500E+00
     -2.489  0.1696E+00  0.7590E+00
     -2.435  0.1725E+00  0.7683E+00
     -2.382  0.1770E+00  0.7778E+00
     -2.328  0.1821E+00  0.7876E+00
     -2.275  0.1840E+00  0.7974E+00
     -2.221  0.1833E+00  0.8072E+00
     -2.167  0.1827E+00  0.8170E+00
     -2.114  0.1819E+00  0.8268E+00
     -2.060  0.1810E+00  0.8365E+00
     -2.006  0.1804E+00  0.8462E+00
     -1.953  0.1790E+00  0.8558E+00
     -1.899  0.1791E+00  0.8654E+00
     -1.846  0.1833E+00  0.8752E+00
     -1.792  0.1860E+00  0.8852E+00
     -1.738  0.1807E+00  0.8949E+00
     -1.685  0.1727E+00  0.9041E+00
     -1.631  0.1720E+00  0.9133E+00
     -1.578  0.1808E+00  0.9230E+00
     -1.524  0.1928E+00  0.9334E+00
     -1.470  0.2019E+00  0.9442E+00
     -1.417  0.2059E+00  0.9552E+00
     -1.363  0.2031E+00  0.9661E+00
     -1.309  0.1938E+00  0.9765E+00
     -1.256  0.1782E+00  0.9861E+00
     -1.202  0.1580E+00  0.9945E+00
     -1.149  0.1383E+00  0.1002E+01
     -1.095  0.1185E+00  0.1008E+01
     -1.041  0.9332E-01  0.1013E+01
     -0.988  0.6418E-01  0.1017E+01
     -0.934  0.3932E-01  0.1019E+01
     -0.881  0.2459E-01  0.1020E+01
     -0.827  0.1918E-01  0.1021E+01
     -0.773  0.1847E-01  0.1022E+01
     -0.720  0.1952E-01  0.1023E+01
     -0.666  0.2184E-01  0.1024E+01
     -0.612  0.2597E-01  0.1026E+01
     -0.559  0.3219E-01  0.1028E+01
     -0.505  0.3927E-01  0.1030E+01
     -0.452  0.4251E-01  0.1032E+01
     -0.398  0.3682E-01  0.1034E+01
     -0.344  0.2597E-01  0.1035E+01
     -0.291  0.2094E-01  0.1036E+01
     -0.237  0.2765E-01  0.1038E+01
     -0.184  0.3889E-01  0.1040E+01
     -0.130  0.4306E-01  0.1042E+01
     -0.076  0.3950E-01  0.1044E+01
     -0.023  0.3570E-01  0.1046E+01
      0.031  0.3646E-01  0.1048E+01
      0.085  0.4043E-01  0.1050E+01
      0.138  0.4204E-01  0.1053E+01
      0.192  0.3872E-01  0.1055E+01
      0.245  0.3435E-01  0.1057E+01
      0.299  0.3224E-01  0.1058E+01
      0.353  0.3243E-01  0.1060E+01
      0.406  0.3301E-01  0.1062E+01
      0.460  0.3139E-01  0.1064E+01
      0.513  0.2980E-01  0.1065E+01
      0.567  0.3385E-01  0.1067E+01
      0.621  0.4225E-01  0.1069E+01
      0.674  0.4648E-01  0.1072E+01
      0.728  0.4363E-01  0.1074E+01
      0.782  0.3604E-01  0.1076E+01
      0.835  0.2421E-01  0.1077E+01
      0.889  0.1356E-01  0.1078E+01
      0.942  0.1209E-01  0.1079E+01
      0.996  0.1893E-01  0.1080E+01
      1.050  0.2511E-01  0.1081E+01
      1.103  0.2529E-01  0.1082E+01
      1.157  0.2327E-01  0.1084E+01
      1.210  0.2193E-01  0.1085E+01
      1.264  0.1946E-01  0.1086E+01
      1.318  0.1769E-01  0.1087E+01
      1.371  0.1977E-01  0.1088E+01
      1.425  0.2408E-01  0.1089E+01
      1.479  0.2711E-01  0.1091E+01
      1.532  0.2735E-01  0.1092E+01
      1.586  0.2577E-01  0.1093E+01
      1.639  0.2539E-01  0.1095E+01
      1.693  0.2916E-01  0.1096E+01
      1.747  0.3615E-01  0.1098E+01
      1.800  0.4052E-01  0.1100E+01
      1.854  0.3660E-01  0.1102E+01
      1.907  0.2740E-01  0.1104E+01
      1.961  0.2199E-01  0.1105E+01
      2.015  0.2155E-01  0.1106E+01
      2.068  0.2060E-01  0.1107E+01
      2.122  0.1880E-01  0.1108E+01
      2.176  0.2151E-01  0.1109E+01
      2.229  0.3061E-01  0.1111E+01
      2.283  0.3938E-01  0.1113E+01
      2.336  0.4228E-01  0.1116E+01
      2.390  0.4236E-01  0.1118E+01
      2.444  0.4222E-01  0.1120E+01
      2.497  0.4099E-01  0.1122E+01
      2.551  0.4130E-01  0.1124E+01
      2.604  0.4565E-01  0.1127E+01
      2.658  0.5006E-01  0.1130E+01
      2.712  0.4945E-01  0.1132E+01
      2.765  0.4325E-01  0.1135E+01
      2.819  0.3425E-01  0.1136E+01
      2.873  0.2647E-01  0.1138E+01
      2.926  0.2055E-01  0.1139E+01
      2.980  0.1465E-01  0.1140E+01
      3.033  0.1123E-01  0.1140E+01
      3.087  0.1360E-01  0.1141E+01
      3.141  0.1952E-01  0.1142E+01
      3.194  0.2391E-01  0.1143E+01
      3.248  0.2333E-01  0.1145E+01
      3.301  0.1857E-01  0.1146E+01
      3.355  0.1453E-01  0.1146E+01
      3.409  0.1485E-01  0.1147E+01
      3.462  0.1940E-01  0.1148E+01
      3.516  0.2672E-01  0.1150E+01
      3.570  0.3345E-01  0.1151E+01
      3.623  0.3530E-01  0.1153E+01
      3.677  0.3266E-01  0.1155E+01
      3.730  0.3081E-01  0.1157E+01
      3.784  0.3161E-01  0.1158E+01
      3.838  0.3128E-01  0.1160E+01
      3.891  0.2692E-01  0.1162E+01
      3.945  0.2210E-01  0.1163E+01
      3.998  0.2300E-01  0.1164E+01
      4.052  0.2780E-01  0.1165E+01
      4.106  0.2978E-01  0.1167E+01
      4.159  0.2747E-01  0.1169E+01
      4.213  0.2348E-01  0.1170E+01
      4.267  0.1975E-01  0.1171E+01
      4.320  0.1734E-01  0.1172E+01
      4.374  0.1932E-01  0.1173E+01
      4.427  0.2633E-01  0.1174E+01
      4.481  0.3240E-01  0.1176E+01
      4.535  0.3631E-01  0.1178E+01
      4.588  0.4334E-01  0.1180E+01
      4.642  0.5112E-01  0.1183E+01
      4.696  0.5233E-01  0.1186E+01
      4.749  0.4976E-01  0.1188E+01
      4.803  0.5022E-01  0.1191E+01
      4.856  0.5243E-01  0.1194E+01
      4.910  0.5374E-01  0.1197E+01
      4.964  0.5695E-01  0.1200E+01
      5.017  0.6482E-01  0.1203E+01
      5.071  0.7261E-01  0.1207E+01
      5.124  0.7207E-01  0.1211E+01
      5.178  0.6488E-01  0.1215E+01
      5.232  0.5728E-01  0.1218E+01
      5.285  0.4807E-01  0.1220E+01
      5.339  0.3535E-01  0.1222E+01
      5.393  0.2131E-01  0.1223E+01
      5.446  0.9627E-02  0.1224E+01
      5.500  0.2954E-02  0.1224E+01
      5.553  0.5731E-03  0.1224E+01
      5.607  0.6748E-04  0.1224E+01
      5.661  0.4708E-05  0.1224E+01
      5.714  0.1921E-06  0.1224E+01
      5.768  0.4542E-08  0.1224E+01
      5.821  0.6190E-10  0.1224E+01
      5.875  0.4843E-12  0.1224E+01
      5.929  0.2165E-14  0.1224E+01
      5.982  0.5522E-17  0.1224E+01
      6.036  0.0000E+00  0.1224E+01
      6.090  0.0000E+00  0.1224E+01
      6.143  0.0000E+00  0.1224E+01
      6.197  0.0000E+00  0.1224E+01
      6.250  0.0000E+00  0.1224E+01
      6.304  0.0000E+00  0.1224E+01
      6.358  0.0000E+00  0.1224E+01
