<?xml version="1.0" encoding="ISO-8859-1"?>
<modeling>
 <generator>
  <i name="program" type="string">vasp </i>
  <i name="version" type="string">5.4.1  </i>
  <i name="subversion" type="string">24Jun15 (build Mar 14 2019 10:18:33) complex                          parallel </i>
  <i name="platform" type="string">INTEL-19.0.2+OPENMPI-3.1.3 </i>
  <i name="date" type="string">2022 07 11 </i>
  <i name="time" type="string">20:39:55 </i>
 </generator>
 <incar>
  <i type="int" name="ISTART">     0</i>
  <i type="string" name="PREC">normal</i>
  <i type="string" name="ALGO"> Fast</i>
  <i type="int" name="NELM">   500</i>
  <i type="int" name="IBRION">     2</i>
  <i type="int" name="NFREE">     2</i>
  <i name="EDIFF">      0.00000100</i>
  <i name="EDIFFG">     -0.02000000</i>
  <i type="int" name="NSW">   500</i>
  <i type="int" name="ISIF">     0</i>
  <i type="int" name="ISYM">     2</i>
  <i name="ENCUT">    400.00000000</i>
  <i name="POTIM">      0.35000000</i>
  <i type="string" name="LREAL"> Auto</i>
  <i type="logical" name="LPLANE"> T  </i>
  <i type="int" name="ISMEAR">     0</i>
  <i name="SIGMA">      0.10000000</i>
  <i type="int" name="NWRITE">     1</i>
  <i type="logical" name="LWAVE"> F  </i>
  <i type="logical" name="LCHARG"> F  </i>
  <i type="logical" name="LVTOT"> F  </i>
  <i type="logical" name="LORBIT"> F  </i>
  <i type="logical" name="LAECHG"> F  </i>
  <v type="int" name="KPOINT_BSE">    -1     0     0     0</v>
  <i type="int" name="NELM">   500</i>
  <i type="string" name="GGA"> PE          ! optPBE-vdW XC-functional</i>
  <i type="int" name="VOSKOWN">     1</i>
  <i type="logical" name="LDIPOL"> T  </i>
  <i type="logical" name="LMONO"> F  </i>
  <i type="int" name="IDIPOL">     3</i>
  <v name="DIPOL">      0.00000000      0.00000000      0.50000000</v>
 </incar>
 <kpoints>
  <generation param="Monkhorst-Pack">
   <v type="int" name="divisions">       2        2        1 </v>
   <v name="usershift">      0.00000000       0.00000000       0.00000000 </v>
   <v name="genvec1">      0.50000000      -0.00000000       0.00000000 </v>
   <v name="genvec2">      0.00000000       0.50000000       0.00000000 </v>
   <v name="genvec3">      0.00000000       0.00000000       1.00000000 </v>
   <v name="shift">      0.50000000       0.50000000       0.00000000 </v>
  </generation>
  <varray name="kpointlist" >
   <v>       0.25000000       0.25000000       0.00000000 </v>
   <v>       0.00000000       0.25000000       0.00000000 </v>
   <v>      -0.25000000       0.00000000       0.00000000 </v>
   <v>      -0.25000000       0.25000000       0.00000000 </v>
   <v>       0.50000000      -0.25000000       0.00000000 </v>
   <v>      -0.25000000       0.50000000       0.00000000 </v>
  </varray>
  <varray name="weights" >
   <v>       0.16666667 </v>
   <v>       0.16666667 </v>
   <v>       0.16666667 </v>
   <v>       0.16666667 </v>
   <v>       0.16666667 </v>
   <v>       0.16666667 </v>
  </varray>
 </kpoints>
 <parameters>
  <separator name="general" >
   <i type="string" name="SYSTEM">unknown system</i>
   <i type="logical" name="LCOMPAT"> F  </i>
  </separator>
  <separator name="electronic" >
   <i type="string" name="PREC">normal</i>
   <i name="ENMAX">    400.00000000</i>
   <i name="ENAUG">    416.23000000</i>
   <i name="EDIFF">      0.00000100</i>
   <i type="int" name="IALGO">    68</i>
   <i type="int" name="IWAVPR">    11</i>
   <i type="int" name="NBANDS">   306</i>
   <i name="NELECT">    504.00000000</i>
   <i type="int" name="TURBO">     0</i>
   <i type="int" name="IRESTART">     0</i>
   <i type="int" name="NREBOOT">     0</i>
   <i type="int" name="NMIN">     0</i>
   <i name="EREF">      0.00000000</i>
   <separator name="electronic smearing" >
    <i type="int" name="ISMEAR">     0</i>
    <i name="SIGMA">      0.10000000</i>
    <i name="KSPACING">      0.50000000</i>
    <i type="logical" name="KGAMMA"> T  </i>
   </separator>
   <separator name="electronic projectors" >
    <i type="logical" name="LREAL"> T  </i>
    <v name="ROPT">     -0.00050000     -0.00050000</v>
    <i type="int" name="LMAXPAW">  -100</i>
    <i type="int" name="LMAXMIX">     2</i>
    <i type="logical" name="NLSPLINE"> F  </i>
   </separator>
   <separator name="electronic startup" >
    <i type="int" name="ISTART">     0</i>
    <i type="int" name="ICHARG">     2</i>
    <i type="int" name="INIWAV">     1</i>
   </separator>
   <separator name="electronic spin" >
    <i type="int" name="ISPIN">     1</i>
    <i type="logical" name="LNONCOLLINEAR"> F  </i>
    <v name="MAGMOM">      1.00000000      1.00000000      1.00000000      1.00000000      1.00000000      1.00000000      1.00000000      1.00000000      1.00000000      1.00000000      1.00000000      1.00000000      1.00000000      1.00000000      1.00000000      1.00000000      1.00000000      1.00000000      1.00000000      1.00000000
      1.00000000      1.00000000      1.00000000      1.00000000      1.00000000      1.00000000      1.00000000      1.00000000      1.00000000      1.00000000      1.00000000      1.00000000      1.00000000      1.00000000      1.00000000      1.00000000      1.00000000      1.00000000      1.00000000      1.00000000
      1.00000000      1.00000000      1.00000000      1.00000000      1.00000000      1.00000000      1.00000000      1.00000000</v>
    <i name="NUPDOWN">     -1.00000000</i>
    <i type="logical" name="LSORBIT"> F  </i>
    <v name="SAXIS">      0.00000000      0.00000000      1.00000000</v>
    <i type="logical" name="LSPIRAL"> F  </i>
    <v name="QSPIRAL">      0.00000000      0.00000000      0.00000000</v>
    <i type="logical" name="LZEROZ"> F  </i>
   </separator>
   <separator name="electronic exchange-correlation" >
    <i type="logical" name="LASPH"> F  </i>
    <i type="logical" name="LMETAGGA"> F  </i>
   </separator>
   <separator name="electronic convergence" >
    <i type="int" name="NELM">   500</i>
    <i type="int" name="NELMDL">    -5</i>
    <i type="int" name="NELMIN">     2</i>
    <i name="ENINI">    400.00000000</i>
    <separator name="electronic convergence detail" >
     <i type="logical" name="LDIAG"> T  </i>
     <i type="logical" name="LSUBROT"> F  </i>
     <i name="WEIMIN">      0.00100000</i>
     <i name="EBREAK">      0.00000000</i>
     <i name="DEPER">      0.30000000</i>
     <i type="int" name="NRMM">     4</i>
     <i name="TIME">      0.40000000</i>
    </separator>
   </separator>
   <separator name="electronic mixer" >
    <i name="AMIX">      0.40000000</i>
    <i name="BMIX">      1.00000000</i>
    <i name="AMIN">      0.10000000</i>
    <i name="AMIX_MAG">      1.60000000</i>
    <i name="BMIX_MAG">      1.00000000</i>
    <separator name="electronic mixer details" >
     <i type="int" name="IMIX">     4</i>
     <i type="logical" name="MIXFIRST"> F  </i>
     <i type="int" name="MAXMIX">   -45</i>
     <i name="WC">    100.00000000</i>
     <i type="int" name="INIMIX">     1</i>
     <i type="int" name="MIXPRE">     1</i>
     <i type="int" name="MREMOVE">     5</i>
    </separator>
   </separator>
   <separator name="electronic dipolcorrection" >
    <i type="logical" name="LDIPOL"> T  </i>
    <i type="logical" name="LMONO"> F  </i>
    <i type="int" name="IDIPOL">     3</i>
    <i name="EPSILON">      1.00000000</i>
    <v name="DIPOL">      0.00000000      0.00000000      0.50000000</v>
    <i name="EFIELD">      0.00000000</i>
   </separator>
  </separator>
  <separator name="grids" >
   <i type="int" name="NGX">    54</i>
   <i type="int" name="NGY">    54</i>
   <i type="int" name="NGZ">   120</i>
   <i type="int" name="NGXF">   108</i>
   <i type="int" name="NGYF">   108</i>
   <i type="int" name="NGZF">   240</i>
   <i type="logical" name="ADDGRID"> F  </i>
  </separator>
  <separator name="ionic" >
   <i type="int" name="NSW">   500</i>
   <i type="int" name="IBRION">     2</i>
   <i type="int" name="ISIF">     0</i>
   <i name="PSTRESS">      0.00000000</i>
   <i name="EDIFFG">     -0.02000000</i>
   <i type="int" name="NFREE">     2</i>
   <i name="POTIM">      0.35000000</i>
   <i name="SMASS">     -3.00000000</i>
   <i name="SCALEE">      1.00000000</i>
  </separator>
  <separator name="ionic md" >
   <i name="TEBEG">      0.00010000</i>
   <i name="TEEND">      0.00010000</i>
   <i type="int" name="NBLOCK">     1</i>
   <i type="int" name="KBLOCK">   500</i>
   <i type="int" name="NPACO">   256</i>
   <i name="APACO">     16.00000000</i>
  </separator>
  <separator name="symmetry" >
   <i type="int" name="ISYM">     2</i>
   <i name="SYMPREC">      0.00001000</i>
  </separator>
  <separator name="dos" >
   <i type="logical" name="LORBIT"> F  </i>
   <v name="RWIGS">     -1.00000000     -1.00000000</v>
   <i type="int" name="NEDOS">   301</i>
   <i name="EMIN">     10.00000000</i>
   <i name="EMAX">    -10.00000000</i>
   <i name="EFERMI">      0.00000000</i>
  </separator>
  <separator name="writing" >
   <i type="int" name="NWRITE">     1</i>
   <i type="logical" name="LWAVE"> F  </i>
   <i type="logical" name="LCHARG"> F  </i>
   <i type="logical" name="LPARD"> F  </i>
   <i type="logical" name="LVTOT"> F  </i>
   <i type="logical" name="LVHAR"> F  </i>
   <i type="logical" name="LELF"> F  </i>
   <i type="logical" name="LOPTICS"> F  </i>
   <v name="STM">      0.00000000      0.00000000      0.00000000      0.00000000      0.00000000      0.00000000      0.00000000</v>
  </separator>
  <separator name="performance" >
   <i type="int" name="NPAR">     6</i>
   <i type="int" name="NSIM">     4</i>
   <i type="int" name="NBLK">    -1</i>
   <i type="logical" name="LPLANE"> T  </i>
   <i type="logical" name="LSCALAPACK"> T  </i>
   <i type="logical" name="LSCAAWARE"> F  </i>
   <i type="logical" name="LSCALU"> F  </i>
   <i type="logical" name="LASYNC"> F  </i>
   <i type="logical" name="LORBITALREAL"> F  </i>
  </separator>
  <separator name="miscellaneous" >
   <i type="int" name="IDIOT">     3</i>
   <i type="logical" name="LMUSIC"> F  </i>
   <v name="POMASS">    196.96600000    106.42000000</v>
   <v name="DARWINR">      0.00000000      0.00000000</v>
   <v name="DARWINV">      1.00000000      1.00000000</v>
   <i type="logical" name="LCORR"> T  </i>
  </separator>
  <i type="logical" name="GGA_COMPAT"> T  </i>
  <i type="logical" name="LBERRY"> F  </i>
  <i type="int" name="ICORELEVEL">     0</i>
  <i type="logical" name="LDAU"> F  </i>
  <i type="int" name="I_CONSTRAINED_M">     0</i>
  <separator name="electronic exchange-correlation" >
   <i type="string" name="GGA">PE</i>
   <i type="int" name="VOSKOWN">     1</i>
   <i type="logical" name="LHFCALC"> F  </i>
   <i type="string" name="PRECFOCK"></i>
   <i type="logical" name="LSYMGRAD"> F  </i>
   <i type="logical" name="LHFONE"> F  </i>
   <i type="logical" name="LRHFCALC"> F  </i>
   <i type="logical" name="LTHOMAS"> F  </i>
   <i type="logical" name="LMODELHF"> F  </i>
   <i name="ENCUT4O">     -1.00000000</i>
   <i type="int" name="EXXOEP">     0</i>
   <i type="int" name="FOURORBIT">     0</i>
   <i name="AEXX">      0.00000000</i>
   <i name="HFALPHA">      0.00000000</i>
   <i name="MCALPHA">      0.00000000</i>
   <i name="ALDAX">      1.00000000</i>
   <i name="AGGAX">      1.00000000</i>
   <i name="ALDAC">      1.00000000</i>
   <i name="AGGAC">      1.00000000</i>
   <i type="int" name="NKREDX">     1</i>
   <i type="int" name="NKREDY">     1</i>
   <i type="int" name="NKREDZ">     1</i>
   <i type="logical" name="SHIFTRED"> F  </i>
   <i type="logical" name="ODDONLY"> F  </i>
   <i type="logical" name="EVENONLY"> F  </i>
   <i type="int" name="LMAXFOCK">     0</i>
   <i type="int" name="NMAXFOCKAE">     0</i>
   <i type="logical" name="LFOCKAEDFT"> F  </i>
   <i name="HFSCREEN">      0.00000000</i>
   <i name="HFSCREENC">      0.00000000</i>
   <i type="int" name="NBANDSGWLOW">     0</i>
  </separator>
  <separator name="vdW DFT" >
   <i type="logical" name="LUSE_VDW"> F  </i>
   <i name="Zab_VDW">     -0.84910000</i>
   <i name="PARAM1">      0.12340000</i>
   <i name="PARAM2">      1.00000000</i>
   <i name="PARAM3">      0.00000000</i>
  </separator>
  <separator name="model GW" >
   <i type="int" name="MODEL_GW">     0</i>
   <i name="MODEL_EPS0">     32.09595293</i>
   <i name="MODEL_ALPHA">      1.00000000</i>
  </separator>
  <separator name="linear response parameters" >
   <i type="logical" name="LEPSILON"> F  </i>
   <i type="logical" name="LRPA"> F  </i>
   <i type="logical" name="LNABLA"> F  </i>
   <i type="logical" name="LVEL"> F  </i>
   <i type="int" name="KINTER">     0</i>
   <i name="CSHIFT">      0.10000000</i>
   <i name="OMEGAMAX">     -1.00000000</i>
   <i name="DEG_THRESHOLD">      0.00200000</i>
  </separator>
  <separator name="orbital magnetization" >
   <i type="logical" name="NUCIND"> F  </i>
   <v name="MAGPOS">      0.00000000      0.00000000      0.00000000</v>
   <i type="logical" name="LNICSALL"> T  </i>
   <i type="logical" name="ORBITALMAG"> F  </i>
   <i type="logical" name="LMAGBLOCH"> F  </i>
   <i type="logical" name="LCHIMAG"> F  </i>
   <i type="logical" name="LGAUGE"> T  </i>
   <i type="int" name="MAGATOM">     0</i>
   <v name="MAGDIPOL">      0.00000000      0.00000000      0.00000000</v>
   <v name="AVECCONST">      0.00000000      0.00000000      0.00000000</v>
  </separator>
  <separator name="response functions" >
   <i type="logical" name="LADDER"> F  </i>
   <i type="logical" name="LFXC"> F  </i>
   <i type="logical" name="LHARTREE"> T  </i>
   <i type="int" name="IBSE">     0</i>
   <v type="int" name="KPOINT">    -1     0     0     0</v>
   <i type="logical" name="LTCTE"> F  </i>
   <i type="logical" name="LTETE"> F  </i>
   <i type="logical" name="LTRIPLET"> F  </i>
   <i type="logical" name="LFXCEPS"> F  </i>
   <i type="logical" name="LFXHEG"> F  </i>
   <i type="int" name="NATURALO">     0</i>
   <i type="logical" name="L2ORDER"> F  </i>
   <i type="logical" name="LUSEW"> F  </i>
   <i name="ENCUTGW">     -2.00000000</i>
   <i name="ENCUTGWSOFT">     -2.00000000</i>
   <i name="ENCUTLF">     -1.00000000</i>
   <i type="int" name="LMAXMP2">    -1</i>
   <i name="SCISSOR">      0.00000000</i>
   <i type="int" name="NOMEGA">     0</i>
   <i type="int" name="NOMEGAR">     0</i>
   <i type="int" name="NBANDSGW">    -1</i>
   <i type="int" name="NBANDSO">    -1</i>
   <i type="int" name="NBANDSV">    -1</i>
   <i type="int" name="NELM">   500</i>
   <i type="int" name="NELMHF">     1</i>
   <i type="int" name="DIM">     3</i>
   <i type="int" name="ANTIRES">     0</i>
   <i name="OMEGAMAX">    -30.00000000</i>
   <i name="OMEGAMIN">    -30.00000000</i>
   <i name="OMEGATL">   -200.00000000</i>
   <i type="int" name="OMEGAGRID">     0</i>
   <i name="CSHIFT">     -0.10000000</i>
   <i type="logical" name="SELFENERGY"> F  </i>
   <i type="logical" name="LSPECTRAL"> F  </i>
   <i type="logical" name="LSPECTRALGW"> F  </i>
   <i type="logical" name="LSINGLES"> F  </i>
   <i type="logical" name="LFERMIGW"> F  </i>
   <i type="logical" name="ODDONLYGW"> F  </i>
   <i type="logical" name="EVENONLYGW"> F  </i>
   <i type="int" name="NKREDLFX">     1</i>
   <i type="int" name="NKREDLFY">     1</i>
   <i type="int" name="NKREDLFZ">     1</i>
   <i type="int" name="MAXMEM">  1800</i>
   <i type="int" name="TELESCOPE">     0</i>
   <i type="int" name="TAUPAR">     1</i>
   <i type="int" name="OMEGAPAR">    -1</i>
   <i name="LAMBDA">      1.00000000</i>
  </separator>
  <separator name="External order field" >
   <i name="OFIELD_KAPPA">      0.00000000</i>
   <v name="OFIELD_K">      0.00000000      0.00000000      0.00000000</v>
   <i name="OFIELD_Q6_NEAR">      0.00000000</i>
   <i name="OFIELD_Q6_FAR">      0.00000000</i>
   <i name="OFIELD_A">      0.00000000</i>
  </separator>
 </parameters>
 <atominfo>
  <atoms>      48 </atoms>
  <types>       2 </types>
  <array name="atoms" >
   <dimension dim="1">ion</dimension>
   <field type="string">element</field>
   <field type="int">atomtype</field>
   <set>
    <rc><c>Au</c><c>   1</c></rc>
    <rc><c>Au</c><c>   1</c></rc>
    <rc><c>Au</c><c>   1</c></rc>
    <rc><c>Au</c><c>   1</c></rc>
    <rc><c>Au</c><c>   1</c></rc>
    <rc><c>Au</c><c>   1</c></rc>
    <rc><c>Au</c><c>   1</c></rc>
    <rc><c>Au</c><c>   1</c></rc>
    <rc><c>Au</c><c>   1</c></rc>
    <rc><c>Au</c><c>   1</c></rc>
    <rc><c>Au</c><c>   1</c></rc>
    <rc><c>Au</c><c>   1</c></rc>
    <rc><c>Au</c><c>   1</c></rc>
    <rc><c>Au</c><c>   1</c></rc>
    <rc><c>Au</c><c>   1</c></rc>
    <rc><c>Au</c><c>   1</c></rc>
    <rc><c>Au</c><c>   1</c></rc>
    <rc><c>Au</c><c>   1</c></rc>
    <rc><c>Au</c><c>   1</c></rc>
    <rc><c>Au</c><c>   1</c></rc>
    <rc><c>Au</c><c>   1</c></rc>
    <rc><c>Au</c><c>   1</c></rc>
    <rc><c>Au</c><c>   1</c></rc>
    <rc><c>Au</c><c>   1</c></rc>
    <rc><c>Pd</c><c>   2</c></rc>
    <rc><c>Pd</c><c>   2</c></rc>
    <rc><c>Pd</c><c>   2</c></rc>
    <rc><c>Pd</c><c>   2</c></rc>
    <rc><c>Pd</c><c>   2</c></rc>
    <rc><c>Pd</c><c>   2</c></rc>
    <rc><c>Pd</c><c>   2</c></rc>
    <rc><c>Pd</c><c>   2</c></rc>
    <rc><c>Pd</c><c>   2</c></rc>
    <rc><c>Pd</c><c>   2</c></rc>
    <rc><c>Pd</c><c>   2</c></rc>
    <rc><c>Pd</c><c>   2</c></rc>
    <rc><c>Pd</c><c>   2</c></rc>
    <rc><c>Pd</c><c>   2</c></rc>
    <rc><c>Pd</c><c>   2</c></rc>
    <rc><c>Pd</c><c>   2</c></rc>
    <rc><c>Pd</c><c>   2</c></rc>
    <rc><c>Pd</c><c>   2</c></rc>
    <rc><c>Pd</c><c>   2</c></rc>
    <rc><c>Pd</c><c>   2</c></rc>
    <rc><c>Pd</c><c>   2</c></rc>
    <rc><c>Pd</c><c>   2</c></rc>
    <rc><c>Pd</c><c>   2</c></rc>
    <rc><c>Pd</c><c>   2</c></rc>
   </set>
  </array>
  <array name="atomtypes" >
   <dimension dim="1">type</dimension>
   <field type="int">atomspertype</field>
   <field type="string">element</field>
   <field>mass</field>
   <field>valence</field>
   <field type="string">pseudopotential</field>
   <set>
    <rc><c>  24</c><c>Au</c><c>    196.96600000</c><c>     11.00000000</c><c>  PAW_PBE Au 04Oct2007                  </c></rc>
    <rc><c>  24</c><c>Pd</c><c>    106.42000000</c><c>     10.00000000</c><c>  PAW_PBE Pd 04Jan2005                  </c></rc>
   </set>
  </array>
 </atominfo>
 <structure name="initialpos" >
  <crystal>
   <varray name="basis" >
    <v>      11.00258152       0.00000000       0.00000000 </v>
    <v>       5.50129076       9.52851510       0.00000000 </v>
    <v>       0.00000000       0.00000000      24.49178509 </v>
   </varray>
   <i name="volume">   2567.67623402 </i>
   <varray name="rec_basis" >
    <v>       0.09088776      -0.05247407       0.00000000 </v>
    <v>       0.00000000       0.10494815       0.00000000 </v>
    <v>       0.00000000       0.00000000       0.04083002 </v>
   </varray>
  </crystal>
  <varray name="positions" >
   <v>       0.08333333       0.08333333       0.40830017 </v>
   <v>       0.75000000       0.50000000       0.59169983 </v>
   <v>       0.66666667       0.66666667       0.50000000 </v>
   <v>       0.83333333       0.58333333       0.40830017 </v>
   <v>       0.75000000       0.25000000       0.59169983 </v>
   <v>       0.66666667       0.16666667       0.50000000 </v>
   <v>       0.83333333       0.08333333       0.40830017 </v>
   <v>       0.58333333       0.83333333       0.40830017 </v>
   <v>       0.50000000       0.50000000       0.59169983 </v>
   <v>       0.41666667       0.66666667       0.50000000 </v>
   <v>       0.33333333       0.83333333       0.40830017 </v>
   <v>       0.25000000       0.50000000       0.59169983 </v>
   <v>       0.16666667       0.66666667       0.50000000 </v>
   <v>       0.33333333       0.58333333       0.40830017 </v>
   <v>       0.16666667       0.41666667       0.50000000 </v>
   <v>       0.25000000       0.75000000       0.59169983 </v>
   <v>       0.08333333       0.83333333       0.40830017 </v>
   <v>       0.00000000       0.00000000       0.59169983 </v>
   <v>       0.00000000       0.25000000       0.59169983 </v>
   <v>       0.08333333       0.58333333       0.40830017 </v>
   <v>       0.91666667       0.66666667       0.50000000 </v>
   <v>       0.00000000       0.50000000       0.59169983 </v>
   <v>       0.33333333       0.33333333       0.40830017 </v>
   <v>       0.75000000       0.75000000       0.59169983 </v>
   <v>       0.58333333       0.08333333       0.40830017 </v>
   <v>       0.83333333       0.83333333       0.40830017 </v>
   <v>       0.91666667       0.16666667       0.50000000 </v>
   <v>       0.25000000       0.25000000       0.59169983 </v>
   <v>       0.08333333       0.33333333       0.40830017 </v>
   <v>       0.91666667       0.41666667       0.50000000 </v>
   <v>       0.66666667       0.41666667       0.50000000 </v>
   <v>       0.83333333       0.33333333       0.40830017 </v>
   <v>       0.75000000       0.00000000       0.59169983 </v>
   <v>       0.16666667       0.16666667       0.50000000 </v>
   <v>       0.33333333       0.08333333       0.40830017 </v>
   <v>       0.50000000       0.75000000       0.59169983 </v>
   <v>       0.41666667       0.91666667       0.50000000 </v>
   <v>       0.00000000       0.75000000       0.59169983 </v>
   <v>       0.91666667       0.91666667       0.50000000 </v>
   <v>       0.16666667       0.91666667       0.50000000 </v>
   <v>       0.58333333       0.58333333       0.40830017 </v>
   <v>       0.50000000       0.25000000       0.59169983 </v>
   <v>       0.41666667       0.41666667       0.50000000 </v>
   <v>       0.58333333       0.33333333       0.40830017 </v>
   <v>       0.50000000       0.00000000       0.59169983 </v>
   <v>       0.41666667       0.16666667       0.50000000 </v>
   <v>       0.66666667       0.91666667       0.50000000 </v>
   <v>       0.25000000       0.00000000       0.59169983 </v>
  </varray>
 </structure>
 <calculation>
  <scstep>
   <time name="dav">    9.18    9.25</time>
   <time name="total">    9.25    9.32</time>
   <dipole>
    <v name="dipole">      0.00000000       0.00000000       0.00000000 </v>
    <i name="Tr[quadrupol]"> -10292.45422614 </i>
    <i name="Echarged">      0.00000000 </i>
    <i name="Edipol_quadrupol">      0.00000000 </i>
    <i name="Eion">      0.00000000 </i>
   </dipole>
   <energy>
    <i name="alphaZ">    805.86936429 </i>
    <i name="ewald"> 199701.67865809 </i>
    <i name="hartreedc">-242114.48048868 </i>
    <i name="XCdc">   -327.75718262 </i>
    <i name="pawpsdc">  40340.05962942 </i>
    <i name="pawaedc"> -38292.62782345 </i>
    <i name="eentropy">     -0.13075937 </i>
    <i name="bandstr">   1428.32020155 </i>
    <i name="atom">  41659.78587232 </i>
    <i name="e_fr_energy">   3200.71747156 </i>
    <i name="e_wo_entrp">   3200.84823093 </i>
    <i name="e_0_energy">   3200.78285124 </i>
   </energy>
  </scstep>
  <scstep>
   <time name="dav">   10.60   11.61</time>
   <time name="total">   10.61   11.62</time>
   <dipole>
    <v name="dipole">      0.00000000       0.00000000       0.00000000 </v>
    <i name="Tr[quadrupol]"> -10292.45422614 </i>
    <i name="Echarged">      0.00000000 </i>
    <i name="Edipol_quadrupol">      0.00000000 </i>
    <i name="Eion">      0.00000000 </i>
   </dipole>
   <energy>
    <i name="e_fr_energy">     14.60695891 </i>
    <i name="e_wo_entrp">     14.73300025 </i>
    <i name="e_0_energy">     14.66997958 </i>
   </energy>
  </scstep>
  <scstep>
   <time name="dav">   10.54   10.55</time>
   <time name="total">   10.55   10.56</time>
   <dipole>
    <v name="dipole">      0.00000000       0.00000000       0.00000000 </v>
    <i name="Tr[quadrupol]"> -10292.45422614 </i>
    <i name="Echarged">      0.00000000 </i>
    <i name="Edipol_quadrupol">      0.00000000 </i>
    <i name="Eion">      0.00000000 </i>
   </dipole>
   <energy>
    <i name="e_fr_energy">   -201.89064741 </i>
    <i name="e_wo_entrp">   -201.71654977 </i>
    <i name="e_0_energy">   -201.80359859 </i>
   </energy>
  </scstep>
  <scstep>
   <time name="dav">   10.68   10.69</time>
   <time name="total">   10.68   10.69</time>
   <dipole>
    <v name="dipole">      0.00000000       0.00000000       0.00000000 </v>
    <i name="Tr[quadrupol]"> -10292.45422614 </i>
    <i name="Echarged">      0.00000000 </i>
    <i name="Edipol_quadrupol">      0.00000000 </i>
    <i name="Eion">      0.00000000 </i>
   </dipole>
   <energy>
    <i name="e_fr_energy">   -207.82338340 </i>
    <i name="e_wo_entrp">   -207.63794711 </i>
    <i name="e_0_energy">   -207.73066525 </i>
   </energy>
  </scstep>
  <scstep>
   <time name="dav">   11.12   11.20</time>
   <time name="total">   11.43   11.51</time>
   <dipole>
    <v name="dipole">      0.00000000       0.00000000       0.00000000 </v>
    <i name="Tr[quadrupol]"> -10292.45422614 </i>
    <i name="Echarged">      0.00000000 </i>
    <i name="Edipol_quadrupol">      0.00000000 </i>
    <i name="Eion">      0.00000000 </i>
   </dipole>
   <energy>
    <i name="e_fr_energy">   -208.02521599 </i>
    <i name="e_wo_entrp">   -207.83985291 </i>
    <i name="e_0_energy">   -207.93253445 </i>
   </energy>
  </scstep>
  <scstep>
   <time name="diag">    1.65    1.65</time>
   <time name="diis">    4.36    4.36</time>
   <time name="orth">    0.41    0.41</time>
   <time name="total">    6.79    6.80</time>
   <dipole>
    <v name="dipole">      0.00000000       0.00000000      -0.00441177 </v>
    <i name="Tr[quadrupol]"> -10295.20716560 </i>
    <i name="Echarged">      0.00000000 </i>
    <i name="Edipol_quadrupol">      0.00000000 </i>
    <i name="Eion">      0.00000000 </i>
   </dipole>
   <energy>
    <i name="e_fr_energy">   -203.36207679 </i>
    <i name="e_wo_entrp">   -203.09395787 </i>
    <i name="e_0_energy">   -203.22801733 </i>
   </energy>
  </scstep>
  <scstep>
   <time name="diag">    1.66    1.66</time>
   <time name="diis">    4.28    4.28</time>
   <time name="orth">    0.41    0.41</time>
   <time name="total">    6.72    6.73</time>
   <dipole>
    <v name="dipole">      0.00000000       0.00000000      -0.25022865 </v>
    <i name="Tr[quadrupol]"> -10292.25381095 </i>
    <i name="Echarged">      0.00000000 </i>
    <i name="Edipol_quadrupol">      0.00000000 </i>
    <i name="Eion">      0.00000000 </i>
   </dipole>
   <energy>
    <i name="e_fr_energy">   -201.19662518 </i>
    <i name="e_wo_entrp">   -200.98449961 </i>
    <i name="e_0_energy">   -201.09056240 </i>
   </energy>
  </scstep>
  <scstep>
   <time name="diag">    1.66    1.66</time>
   <time name="diis">    4.39    4.46</time>
   <time name="orth">    0.35    0.54</time>
   <time name="total">    6.77    7.20</time>
   <dipole>
    <v name="dipole">      0.00000000       0.00000000       1.12808351 </v>
    <i name="Tr[quadrupol]"> -10294.64971227 </i>
    <i name="Echarged">      0.00000000 </i>
    <i name="Edipol_quadrupol">      0.00000000 </i>
    <i name="Eion">      0.00000000 </i>
   </dipole>
   <energy>
    <i name="e_fr_energy">   -208.09812293 </i>
    <i name="e_wo_entrp">   -207.87395273 </i>
    <i name="e_0_energy">   -207.98603783 </i>
   </energy>
  </scstep>
  <scstep>
   <time name="diag">    2.00    2.00</time>
   <time name="diis">    4.37    4.37</time>
   <time name="orth">    0.42    0.42</time>
   <time name="total">    7.17    7.18</time>
   <dipole>
    <v name="dipole">      0.00000000       0.00000000      -1.21088824 </v>
    <i name="Tr[quadrupol]"> -10295.69655311 </i>
    <i name="Echarged">      0.00000000 </i>
    <i name="Edipol_quadrupol">      0.00000000 </i>
    <i name="Eion">      0.00000000 </i>
   </dipole>
   <energy>
    <i name="e_fr_energy">   -205.99015633 </i>
    <i name="e_wo_entrp">   -205.77395733 </i>
    <i name="e_0_energy">   -205.88205683 </i>
   </energy>
  </scstep>
  <scstep>
   <time name="diag">    1.64    1.65</time>
   <time name="diis">    4.42    4.42</time>
   <time name="orth">    0.40    0.40</time>
   <time name="total">    6.83    6.84</time>
   <dipole>
    <v name="dipole">      0.00000000       0.00000000       0.20233394 </v>
    <i name="Tr[quadrupol]"> -10295.52505412 </i>
    <i name="Echarged">      0.00000000 </i>
    <i name="Edipol_quadrupol">      0.00000000 </i>
    <i name="Eion">      0.00000000 </i>
   </dipole>
   <energy>
    <i name="e_fr_energy">   -194.52580106 </i>
    <i name="e_wo_entrp">   -194.30441090 </i>
    <i name="e_0_energy">   -194.41510598 </i>
   </energy>
  </scstep>
  <scstep>
   <time name="diag">    1.66    1.66</time>
   <time name="diis">    4.22    4.31</time>
   <time name="orth">    0.40    0.40</time>
   <time name="total">    6.65    6.74</time>
   <dipole>
    <v name="dipole">      0.00000000       0.00000000      -0.05360502 </v>
    <i name="Tr[quadrupol]"> -10295.18733089 </i>
    <i name="Echarged">      0.00000000 </i>
    <i name="Edipol_quadrupol">      0.00000000 </i>
    <i name="Eion">      0.00000000 </i>
   </dipole>
   <energy>
    <i name="e_fr_energy">   -190.02028242 </i>
    <i name="e_wo_entrp">   -189.76583963 </i>
    <i name="e_0_energy">   -189.89306102 </i>
   </energy>
  </scstep>
  <scstep>
   <time name="diag">    1.65    1.66</time>
   <time name="diis">    4.33    4.34</time>
   <time name="orth">    0.40    0.40</time>
   <time name="total">    6.75    6.76</time>
   <dipole>
    <v name="dipole">      0.00000000       0.00000000       0.10732811 </v>
    <i name="Tr[quadrupol]"> -10295.88645825 </i>
    <i name="Echarged">      0.00000000 </i>
    <i name="Edipol_quadrupol">      0.00000000 </i>
    <i name="Eion">      0.00000000 </i>
   </dipole>
   <energy>
    <i name="e_fr_energy">   -189.80609815 </i>
    <i name="e_wo_entrp">   -189.57225544 </i>
    <i name="e_0_energy">   -189.68917680 </i>
   </energy>
  </scstep>
  <scstep>
   <time name="diag">    1.66    1.66</time>
   <time name="diis">    4.44    4.44</time>
   <time name="orth">    0.40    0.40</time>
   <time name="total">    6.87    6.87</time>
   <dipole>
    <v name="dipole">      0.00000000       0.00000000      -0.01268252 </v>
    <i name="Tr[quadrupol]"> -10296.08906238 </i>
    <i name="Echarged">      0.00000000 </i>
    <i name="Edipol_quadrupol">      0.00000000 </i>
    <i name="Eion">      0.00000000 </i>
   </dipole>
   <energy>
    <i name="e_fr_energy">   -189.31896399 </i>
    <i name="e_wo_entrp">   -189.04244645 </i>
    <i name="e_0_energy">   -189.18070522 </i>
   </energy>
  </scstep>
  <scstep>
   <time name="diag">    1.63    1.63</time>
   <time name="diis">    4.43    4.43</time>
   <time name="orth">    0.40    0.40</time>
   <time name="total">    6.82    6.83</time>
   <dipole>
    <v name="dipole">      0.00000000       0.00000000      -0.03888499 </v>
    <i name="Tr[quadrupol]"> -10296.12936590 </i>
    <i name="Echarged">      0.00000000 </i>
    <i name="Edipol_quadrupol">      0.00000000 </i>
    <i name="Eion">      0.00000000 </i>
   </dipole>
   <energy>
    <i name="e_fr_energy">   -189.25013963 </i>
    <i name="e_wo_entrp">   -188.97158875 </i>
    <i name="e_0_energy">   -189.11086419 </i>
   </energy>
  </scstep>
  <scstep>
   <time name="diag">    1.66    1.67</time>
   <time name="diis">    4.44    4.45</time>
   <time name="orth">    0.40    0.40</time>
   <time name="total">    6.87    6.88</time>
   <dipole>
    <v name="dipole">      0.00000000       0.00000000      -0.04209255 </v>
    <i name="Tr[quadrupol]"> -10296.46568234 </i>
    <i name="Echarged">      0.00000000 </i>
    <i name="Edipol_quadrupol">      0.00000000 </i>
    <i name="Eion">      0.00000000 </i>
   </dipole>
   <energy>
    <i name="e_fr_energy">   -189.31297298 </i>
    <i name="e_wo_entrp">   -189.05147031 </i>
    <i name="e_0_energy">   -189.18222165 </i>
   </energy>
  </scstep>
  <scstep>
   <time name="diag">    1.65    1.65</time>
   <time name="diis">    4.40    4.40</time>
   <time name="orth">    0.40    0.40</time>
   <time name="total">    6.82    6.82</time>
   <dipole>
    <v name="dipole">      0.00000000       0.00000000      -0.01304903 </v>
    <i name="Tr[quadrupol]"> -10296.60531437 </i>
    <i name="Echarged">      0.00000000 </i>
    <i name="Edipol_quadrupol">      0.00000000 </i>
    <i name="Eion">      0.00000000 </i>
   </dipole>
   <energy>
    <i name="e_fr_energy">   -189.13778865 </i>
    <i name="e_wo_entrp">   -188.85762017 </i>
    <i name="e_0_energy">   -188.99770441 </i>
   </energy>
  </scstep>
  <scstep>
   <time name="diag">    1.64    1.67</time>
   <time name="diis">    4.77    4.84</time>
   <time name="orth">    0.51    0.51</time>
   <time name="total">    7.43    7.54</time>
   <dipole>
    <v name="dipole">      0.00000000       0.00000000      -0.00567322 </v>
    <i name="Tr[quadrupol]"> -10296.76257507 </i>
    <i name="Echarged">      0.00000000 </i>
    <i name="Edipol_quadrupol">      0.00000000 </i>
    <i name="Eion">      0.00000000 </i>
   </dipole>
   <energy>
    <i name="e_fr_energy">   -189.10664581 </i>
    <i name="e_wo_entrp">   -188.82559451 </i>
    <i name="e_0_energy">   -188.96612016 </i>
   </energy>
  </scstep>
  <scstep>
   <time name="diag">    1.72    1.73</time>
   <time name="diis">    4.42    4.42</time>
   <time name="orth">    0.40    0.40</time>
   <time name="total">    6.92    6.93</time>
   <dipole>
    <v name="dipole">      0.00000000       0.00000000      -0.00164602 </v>
    <i name="Tr[quadrupol]"> -10296.95936970 </i>
    <i name="Echarged">      0.00000000 </i>
    <i name="Edipol_quadrupol">      0.00000000 </i>
    <i name="Eion">      0.00000000 </i>
   </dipole>
   <energy>
    <i name="e_fr_energy">   -189.07760974 </i>
    <i name="e_wo_entrp">   -188.79255001 </i>
    <i name="e_0_energy">   -188.93507987 </i>
   </energy>
  </scstep>
  <scstep>
   <time name="diag">    1.64    1.64</time>
   <time name="diis">    4.40    4.41</time>
   <time name="orth">    0.40    0.40</time>
   <time name="total">    6.81    6.82</time>
   <dipole>
    <v name="dipole">      0.00000000       0.00000000      -0.01177513 </v>
    <i name="Tr[quadrupol]"> -10297.08045303 </i>
    <i name="Echarged">      0.00000000 </i>
    <i name="Edipol_quadrupol">      0.00000000 </i>
    <i name="Eion">      0.00000000 </i>
   </dipole>
   <energy>
    <i name="e_fr_energy">   -189.07061582 </i>
    <i name="e_wo_entrp">   -188.78506563 </i>
    <i name="e_0_energy">   -188.92784073 </i>
   </energy>
  </scstep>
  <scstep>
   <time name="diag">    1.64    1.65</time>
   <time name="diis">    4.27    4.27</time>
   <time name="orth">    0.40    0.40</time>
   <time name="total">    6.68    6.68</time>
   <dipole>
    <v name="dipole">      0.00000000       0.00000000      -0.01199627 </v>
    <i name="Tr[quadrupol]"> -10297.15466527 </i>
    <i name="Echarged">      0.00000000 </i>
    <i name="Edipol_quadrupol">      0.00000000 </i>
    <i name="Eion">      0.00000000 </i>
   </dipole>
   <energy>
    <i name="e_fr_energy">   -189.06919699 </i>
    <i name="e_wo_entrp">   -188.78225549 </i>
    <i name="e_0_energy">   -188.92572624 </i>
   </energy>
  </scstep>
  <scstep>
   <time name="diag">    1.64    1.65</time>
   <time name="diis">    4.35    4.36</time>
   <time name="orth">    0.40    0.40</time>
   <time name="total">    6.76    6.77</time>
   <dipole>
    <v name="dipole">      0.00000000       0.00000000      -0.01010028 </v>
    <i name="Tr[quadrupol]"> -10297.24865843 </i>
    <i name="Echarged">      0.00000000 </i>
    <i name="Edipol_quadrupol">      0.00000000 </i>
    <i name="Eion">      0.00000000 </i>
   </dipole>
   <energy>
    <i name="e_fr_energy">   -189.06944346 </i>
    <i name="e_wo_entrp">   -188.78291585 </i>
    <i name="e_0_energy">   -188.92617965 </i>
   </energy>
  </scstep>
  <scstep>
   <time name="diag">    1.62    1.62</time>
   <time name="diis">    4.42    4.43</time>
   <time name="orth">    0.40    0.40</time>
   <time name="total">    6.81    6.83</time>
   <dipole>
    <v name="dipole">      0.00000000       0.00000000      -0.00905515 </v>
    <i name="Tr[quadrupol]"> -10297.31451386 </i>
    <i name="Echarged">      0.00000000 </i>
    <i name="Edipol_quadrupol">      0.00000000 </i>
    <i name="Eion">      0.00000000 </i>
   </dipole>
   <energy>
    <i name="e_fr_energy">   -189.06860929 </i>
    <i name="e_wo_entrp">   -188.78159321 </i>
    <i name="e_0_energy">   -188.92510125 </i>
   </energy>
  </scstep>
  <scstep>
   <time name="diag">    1.61    1.66</time>
   <time name="diis">    4.43    4.43</time>
   <time name="orth">    0.40    0.40</time>
   <time name="total">    6.81    6.87</time>
   <dipole>
    <v name="dipole">      0.00000000       0.00000000      -0.00905995 </v>
    <i name="Tr[quadrupol]"> -10297.39826683 </i>
    <i name="Echarged">      0.00000000 </i>
    <i name="Edipol_quadrupol">      0.00000000 </i>
    <i name="Eion">      0.00000000 </i>
   </dipole>
   <energy>
    <i name="e_fr_energy">   -189.06853472 </i>
    <i name="e_wo_entrp">   -188.78163614 </i>
    <i name="e_0_energy">   -188.92508543 </i>
   </energy>
  </scstep>
  <scstep>
   <time name="diag">    1.63    1.63</time>
   <time name="diis">    4.44    4.44</time>
   <time name="orth">    0.40    0.40</time>
   <time name="total">    6.83    6.84</time>
   <dipole>
    <v name="dipole">      0.00000000       0.00000000      -0.00955981 </v>
    <i name="Tr[quadrupol]"> -10297.47791459 </i>
    <i name="Echarged">      0.00000000 </i>
    <i name="Edipol_quadrupol">      0.00000000 </i>
    <i name="Eion">      0.00000000 </i>
   </dipole>
   <energy>
    <i name="e_fr_energy">   -189.06884792 </i>
    <i name="e_wo_entrp">   -188.78238148 </i>
    <i name="e_0_energy">   -188.92561470 </i>
   </energy>
  </scstep>
  <scstep>
   <time name="diag">    1.63    1.63</time>
   <time name="diis">    4.31    4.32</time>
   <time name="orth">    0.40    0.40</time>
   <time name="total">    6.71    6.71</time>
   <dipole>
    <v name="dipole">      0.00000000       0.00000000      -0.00973083 </v>
    <i name="Tr[quadrupol]"> -10297.50390570 </i>
    <i name="Echarged">      0.00000000 </i>
    <i name="Edipol_quadrupol">      0.00000000 </i>
    <i name="Eion">      0.00000000 </i>
   </dipole>
   <energy>
    <i name="e_fr_energy">   -189.06903874 </i>
    <i name="e_wo_entrp">   -188.78224177 </i>
    <i name="e_0_energy">   -188.92564026 </i>
   </energy>
  </scstep>
  <scstep>
   <time name="diag">    1.61    1.61</time>
   <time name="diis">    5.00    5.04</time>
   <time name="orth">    0.39    0.39</time>
   <time name="total">    7.37    7.42</time>
   <dipole>
    <v name="dipole">      0.00000000       0.00000000      -0.00987160 </v>
    <i name="Tr[quadrupol]"> -10297.53983376 </i>
    <i name="Echarged">      0.00000000 </i>
    <i name="Edipol_quadrupol">      0.00000000 </i>
    <i name="Eion">      0.00000000 </i>
   </dipole>
   <energy>
    <i name="e_fr_energy">   -189.06933419 </i>
    <i name="e_wo_entrp">   -188.78255883 </i>
    <i name="e_0_energy">   -188.92594651 </i>
   </energy>
  </scstep>
  <scstep>
   <time name="diag">    1.63    1.63</time>
   <time name="diis">    4.42    4.44</time>
   <time name="orth">    0.39    0.39</time>
   <time name="total">    6.80    6.83</time>
   <dipole>
    <v name="dipole">      0.00000000       0.00000000      -0.00918739 </v>
    <i name="Tr[quadrupol]"> -10297.59214514 </i>
    <i name="Echarged">      0.00000000 </i>
    <i name="Edipol_quadrupol">      0.00000000 </i>
    <i name="Eion">      0.00000000 </i>
   </dipole>
   <energy>
    <i name="e_fr_energy">   -189.06981250 </i>
    <i name="e_wo_entrp">   -188.78297399 </i>
    <i name="e_0_energy">   -188.92639324 </i>
   </energy>
  </scstep>
  <scstep>
   <time name="diag">    1.63    1.63</time>
   <time name="diis">    4.33    4.40</time>
   <time name="orth">    0.39    0.39</time>
   <time name="total">    6.71    6.79</time>
   <dipole>
    <v name="dipole">      0.00000000       0.00000000      -0.00916661 </v>
    <i name="Tr[quadrupol]"> -10297.67422735 </i>
    <i name="Echarged">      0.00000000 </i>
    <i name="Edipol_quadrupol">      0.00000000 </i>
    <i name="Eion">      0.00000000 </i>
   </dipole>
   <energy>
    <i name="e_fr_energy">   -189.07066008 </i>
    <i name="e_wo_entrp">   -188.78414085 </i>
    <i name="e_0_energy">   -188.92740047 </i>
   </energy>
  </scstep>
  <scstep>
   <time name="diag">    1.64    1.64</time>
   <time name="diis">    4.13    4.13</time>
   <time name="orth">    0.39    0.39</time>
   <time name="total">    6.53    6.54</time>
   <dipole>
    <v name="dipole">      0.00000000       0.00000000      -0.00901644 </v>
    <i name="Tr[quadrupol]"> -10297.69410230 </i>
    <i name="Echarged">      0.00000000 </i>
    <i name="Edipol_quadrupol">      0.00000000 </i>
    <i name="Eion">      0.00000000 </i>
   </dipole>
   <energy>
    <i name="e_fr_energy">   -189.07094099 </i>
    <i name="e_wo_entrp">   -188.78435635 </i>
    <i name="e_0_energy">   -188.92764867 </i>
   </energy>
  </scstep>
  <scstep>
   <time name="diag">    1.61    1.61</time>
   <time name="diis">    3.74    3.74</time>
   <time name="orth">    0.40    0.40</time>
   <time name="total">    6.11    6.12</time>
   <dipole>
    <v name="dipole">      0.00000000       0.00000000      -0.00911484 </v>
    <i name="Tr[quadrupol]"> -10297.70567347 </i>
    <i name="Echarged">      0.00000000 </i>
    <i name="Edipol_quadrupol">      0.00000000 </i>
    <i name="Eion">      0.00000000 </i>
   </dipole>
   <energy>
    <i name="e_fr_energy">   -189.07114075 </i>
    <i name="e_wo_entrp">   -188.78454612 </i>
    <i name="e_0_energy">   -188.92784343 </i>
   </energy>
  </scstep>
  <scstep>
   <time name="diag">    1.63    1.64</time>
   <time name="diis">    4.21    4.23</time>
   <time name="orth">    0.39    0.39</time>
   <time name="total">    6.60    6.62</time>
   <dipole>
    <v name="dipole">      0.00000000       0.00000000      -0.00881165 </v>
    <i name="Tr[quadrupol]"> -10297.75381011 </i>
    <i name="Echarged">      0.00000000 </i>
    <i name="Edipol_quadrupol">      0.00000000 </i>
    <i name="Eion">      0.00000000 </i>
   </dipole>
   <energy>
    <i name="e_fr_energy">   -189.07167936 </i>
    <i name="e_wo_entrp">   -188.78500080 </i>
    <i name="e_0_energy">   -188.92834008 </i>
   </energy>
  </scstep>
  <scstep>
   <time name="diag">    1.62    1.62</time>
   <time name="diis">    3.42    3.42</time>
   <time name="orth">    0.39    0.39</time>
   <time name="total">    5.80    5.81</time>
   <dipole>
    <v name="dipole">      0.00000000       0.00000000      -0.00874183 </v>
    <i name="Tr[quadrupol]"> -10297.76860853 </i>
    <i name="Echarged">      0.00000000 </i>
    <i name="Edipol_quadrupol">      0.00000000 </i>
    <i name="Eion">      0.00000000 </i>
   </dipole>
   <energy>
    <i name="e_fr_energy">   -189.07180824 </i>
    <i name="e_wo_entrp">   -188.78514182 </i>
    <i name="e_0_energy">   -188.92847503 </i>
   </energy>
  </scstep>
  <scstep>
   <time name="diag">    1.63    1.63</time>
   <time name="diis">    3.21    3.21</time>
   <time name="orth">    0.39    0.39</time>
   <time name="total">    5.59    5.60</time>
   <dipole>
    <v name="dipole">      0.00000000       0.00000000      -0.00874151 </v>
    <i name="Tr[quadrupol]"> -10297.77995462 </i>
    <i name="Echarged">      0.00000000 </i>
    <i name="Edipol_quadrupol">      0.00000000 </i>
    <i name="Eion">      0.00000000 </i>
   </dipole>
   <energy>
    <i name="e_fr_energy">   -189.07192291 </i>
    <i name="e_wo_entrp">   -188.78522308 </i>
    <i name="e_0_energy">   -188.92857299 </i>
   </energy>
  </scstep>
  <scstep>
   <time name="diag">    1.61    1.61</time>
   <time name="diis">    2.78    2.78</time>
   <time name="orth">    0.39    0.39</time>
   <time name="total">    5.15    5.16</time>
   <dipole>
    <v name="dipole">      0.00000000       0.00000000      -0.00870675 </v>
    <i name="Tr[quadrupol]"> -10297.78589793 </i>
    <i name="Echarged">      0.00000000 </i>
    <i name="Edipol_quadrupol">      0.00000000 </i>
    <i name="Eion">      0.00000000 </i>
   </dipole>
   <energy>
    <i name="e_fr_energy">   -189.07197307 </i>
    <i name="e_wo_entrp">   -188.78527516 </i>
    <i name="e_0_energy">   -188.92862412 </i>
   </energy>
  </scstep>
  <scstep>
   <time name="diag">    1.63    1.63</time>
   <time name="diis">    2.64    2.72</time>
   <time name="orth">    0.39    0.39</time>
   <time name="total">    5.03    5.12</time>
   <dipole>
    <v name="dipole">      0.00000000       0.00000000      -0.00867961 </v>
    <i name="Tr[quadrupol]"> -10297.79191518 </i>
    <i name="Echarged">      0.00000000 </i>
    <i name="Edipol_quadrupol">      0.00000000 </i>
    <i name="Eion">      0.00000000 </i>
   </dipole>
   <energy>
    <i name="e_fr_energy">   -189.07202723 </i>
    <i name="e_wo_entrp">   -188.78531398 </i>
    <i name="e_0_energy">   -188.92867061 </i>
   </energy>
  </scstep>
  <scstep>
   <time name="diag">    1.81    1.82</time>
   <time name="diis">    3.17    3.18</time>
   <time name="orth">    0.38    0.38</time>
   <time name="total">    5.73    5.75</time>
   <dipole>
    <v name="dipole">      0.00000000       0.00000000      -0.00865134 </v>
    <i name="Tr[quadrupol]"> -10297.79655139 </i>
    <i name="Echarged">      0.00000000 </i>
    <i name="Edipol_quadrupol">      0.00000000 </i>
    <i name="Eion">      0.00000000 </i>
   </dipole>
   <energy>
    <i name="e_fr_energy">   -189.07206201 </i>
    <i name="e_wo_entrp">   -188.78534102 </i>
    <i name="e_0_energy">   -188.92870151 </i>
   </energy>
  </scstep>
  <scstep>
   <time name="diag">    1.62    1.62</time>
   <time name="diis">    2.37    2.38</time>
   <time name="orth">    0.38    0.38</time>
   <time name="total">    4.74    4.76</time>
   <dipole>
    <v name="dipole">      0.00000000       0.00000000      -0.00863565 </v>
    <i name="Tr[quadrupol]"> -10297.79864232 </i>
    <i name="Echarged">      0.00000000 </i>
    <i name="Edipol_quadrupol">      0.00000000 </i>
    <i name="Eion">      0.00000000 </i>
   </dipole>
   <energy>
    <i name="e_fr_energy">   -189.07207289 </i>
    <i name="e_wo_entrp">   -188.78535372 </i>
    <i name="e_0_energy">   -188.92871331 </i>
   </energy>
  </scstep>
  <scstep>
   <time name="diag">    1.60    1.60</time>
   <time name="diis">    2.45    2.45</time>
   <time name="orth">    0.38    0.38</time>
   <time name="total">    4.79    4.80</time>
   <dipole>
    <v name="dipole">      0.00000000       0.00000000      -0.00861378 </v>
    <i name="Tr[quadrupol]"> -10297.80086265 </i>
    <i name="Echarged">      0.00000000 </i>
    <i name="Edipol_quadrupol">      0.00000000 </i>
    <i name="Eion">      0.00000000 </i>
   </dipole>
   <energy>
    <i name="e_fr_energy">   -189.07208077 </i>
    <i name="e_wo_entrp">   -188.78536272 </i>
    <i name="e_0_energy">   -188.92872175 </i>
   </energy>
  </scstep>
  <scstep>
   <time name="diag">    1.62    1.62</time>
   <time name="diis">    2.24    2.24</time>
   <time name="orth">    0.38    0.38</time>
   <time name="total">    4.61    4.62</time>
   <dipole>
    <v name="dipole">      0.00000000       0.00000000      -0.00859079 </v>
    <i name="Tr[quadrupol]"> -10297.80280355 </i>
    <i name="Echarged">      0.00000000 </i>
    <i name="Edipol_quadrupol">      0.00000000 </i>
    <i name="Eion">      0.00000000 </i>
   </dipole>
   <energy>
    <i name="e_fr_energy">   -189.07208520 </i>
    <i name="e_wo_entrp">   -188.78536780 </i>
    <i name="e_0_energy">   -188.92872650 </i>
   </energy>
  </scstep>
  <scstep>
   <time name="diag">    1.61    1.61</time>
   <time name="diis">    2.06    2.06</time>
   <time name="orth">    0.38    0.38</time>
   <time name="total">    4.42    4.43</time>
   <dipole>
    <v name="dipole">      0.00000000       0.00000000      -0.00857844 </v>
    <i name="Tr[quadrupol]"> -10297.80428331 </i>
    <i name="Echarged">      0.00000000 </i>
    <i name="Edipol_quadrupol">      0.00000000 </i>
    <i name="Eion">      0.00000000 </i>
   </dipole>
   <energy>
    <i name="e_fr_energy">   -189.07208660 </i>
    <i name="e_wo_entrp">   -188.78537237 </i>
    <i name="e_0_energy">   -188.92872948 </i>
   </energy>
  </scstep>
  <scstep>
   <time name="diag">    1.62    1.62</time>
   <time name="diis">    1.95    1.95</time>
   <time name="orth">    0.38    0.38</time>
   <time name="total">    4.01    4.02</time>
   <dipole>
    <v name="dipole">      0.00000000       0.00000000      -0.00857019 </v>
    <i name="Tr[quadrupol]"> -10297.80533291 </i>
    <i name="Echarged">      0.00000000 </i>
    <i name="Edipol_quadrupol">      0.00000000 </i>
    <i name="Eion">      0.00000000 </i>
   </dipole>
   <energy>
    <i name="alphaZ">    805.86936170 </i>
    <i name="ewald"> 199701.67865809 </i>
    <i name="hartreedc">-241887.76923541 </i>
    <i name="XCdc">   -343.74491368 </i>
    <i name="pawpsdc">  49296.72777580 </i>
    <i name="pawaedc"> -47375.54803013 </i>
    <i name="eentropy">     -0.28671256 </i>
    <i name="bandstr">  -2045.78486317 </i>
    <i name="atom">  41659.78587232 </i>
    <i name="e_fr_energy">   -189.07208703 </i>
    <i name="e_wo_entrp">   -188.78537447 </i>
    <i name="e_0_energy">   -188.92873075 </i>
   </energy>
  </scstep>
  <structure>
   <crystal>
    <varray name="basis" >
     <v>      11.00258152       0.00000000       0.00000000 </v>
     <v>       5.50129076       9.52851510       0.00000000 </v>
     <v>       0.00000000       0.00000000      24.49178509 </v>
    </varray>
    <i name="volume">   2567.67623402 </i>
    <varray name="rec_basis" >
     <v>       0.09088776      -0.05247407       0.00000000 </v>
     <v>       0.00000000       0.10494815       0.00000000 </v>
     <v>       0.00000000       0.00000000       0.04083002 </v>
    </varray>
   </crystal>
   <varray name="positions" >
    <v>       0.08333333       0.08333333       0.40830017 </v>
    <v>       0.75000000       0.50000000       0.59169983 </v>
    <v>       0.66666667       0.66666667       0.50000000 </v>
    <v>       0.83333333       0.58333333       0.40830017 </v>
    <v>       0.75000000       0.25000000       0.59169983 </v>
    <v>       0.66666667       0.16666667       0.50000000 </v>
    <v>       0.83333333       0.08333333       0.40830017 </v>
    <v>       0.58333333       0.83333333       0.40830017 </v>
    <v>       0.50000000       0.50000000       0.59169983 </v>
    <v>       0.41666667       0.66666667       0.50000000 </v>
    <v>       0.33333333       0.83333333       0.40830017 </v>
    <v>       0.25000000       0.50000000       0.59169983 </v>
    <v>       0.16666667       0.66666667       0.50000000 </v>
    <v>       0.33333333       0.58333333       0.40830017 </v>
    <v>       0.16666667       0.41666667       0.50000000 </v>
    <v>       0.25000000       0.75000000       0.59169983 </v>
    <v>       0.08333333       0.83333333       0.40830017 </v>
    <v>       0.00000000       0.00000000       0.59169983 </v>
    <v>       0.00000000       0.25000000       0.59169983 </v>
    <v>       0.08333333       0.58333333       0.40830017 </v>
    <v>       0.91666667       0.66666667       0.50000000 </v>
    <v>       0.00000000       0.50000000       0.59169983 </v>
    <v>       0.33333333       0.33333333       0.40830017 </v>
    <v>       0.75000000       0.75000000       0.59169983 </v>
    <v>       0.58333333       0.08333333       0.40830017 </v>
    <v>       0.83333333       0.83333333       0.40830017 </v>
    <v>       0.91666667       0.16666667       0.50000000 </v>
    <v>       0.25000000       0.25000000       0.59169983 </v>
    <v>       0.08333333       0.33333333       0.40830017 </v>
    <v>       0.91666667       0.41666667       0.50000000 </v>
    <v>       0.66666667       0.41666667       0.50000000 </v>
    <v>       0.83333333       0.33333333       0.40830017 </v>
    <v>       0.75000000       0.00000000       0.59169983 </v>
    <v>       0.16666667       0.16666667       0.50000000 </v>
    <v>       0.33333333       0.08333333       0.40830017 </v>
    <v>       0.50000000       0.75000000       0.59169983 </v>
    <v>       0.41666667       0.91666667       0.50000000 </v>
    <v>       0.00000000       0.75000000       0.59169983 </v>
    <v>       0.91666667       0.91666667       0.50000000 </v>
    <v>       0.16666667       0.91666667       0.50000000 </v>
    <v>       0.58333333       0.58333333       0.40830017 </v>
    <v>       0.50000000       0.25000000       0.59169983 </v>
    <v>       0.41666667       0.41666667       0.50000000 </v>
    <v>       0.58333333       0.33333333       0.40830017 </v>
    <v>       0.50000000       0.00000000       0.59169983 </v>
    <v>       0.41666667       0.16666667       0.50000000 </v>
    <v>       0.66666667       0.91666667       0.50000000 </v>
    <v>       0.25000000       0.00000000       0.59169983 </v>
   </varray>
  </structure>
  <varray name="forces" >
   <v>       0.25698888       0.43047034      -1.07707430 </v>
   <v>      -0.12281041       0.03132878       1.38862190 </v>
   <v>      -0.37680379       0.00655684      -0.02944237 </v>
   <v>      -0.15232767      -0.38258877      -1.55876688 </v>
   <v>      -0.28019159      -0.15984588       1.32138827 </v>
   <v>      -0.37308956      -0.01765079      -0.00420208 </v>
   <v>      -0.25253624       0.15051609      -1.26872711 </v>
   <v>       0.13222754       0.39920159      -1.35359497 </v>
   <v>      -0.01785444      -0.16133303       1.40192634 </v>
   <v>       0.42391299       0.00230072      -0.00183940 </v>
   <v>       0.26391384       0.18123220      -1.37138140 </v>
   <v>       0.03735906      -0.35189309       1.60731235 </v>
   <v>      -0.08349570       0.40161035       0.27686815 </v>
   <v>       0.38867294      -0.38426018      -1.61510663 </v>
   <v>      -0.18556510      -0.91416786       0.03159488 </v>
   <v>       0.12868658       0.38345522       1.55785386 </v>
   <v>      -0.23556830       0.19346548      -1.40794634 </v>
   <v>      -0.09517895      -0.20291006       1.10515110 </v>
   <v>       0.38045529      -0.23664485       1.11169013 </v>
   <v>      -0.25785577      -0.00516860      -1.86758730 </v>
   <v>       0.04400063       0.61615811      -0.00373986 </v>
   <v>       0.10846337      -0.11759506       1.62001932 </v>
   <v>       0.10896050      -0.51342068      -1.33866901 </v>
   <v>      -0.00516195       0.62294145       1.53704308 </v>
   <v>      -0.13115263      -0.02272546      -0.60058122 </v>
   <v>      -0.10773254       0.19069444      -0.77793026 </v>
   <v>       0.26225573       0.17968738      -0.19464380 </v>
   <v>       0.21240122      -0.35594021       0.65622541 </v>
   <v>      -0.19049145      -0.21696110      -0.66871016 </v>
   <v>      -0.21568261      -0.54508298      -0.36884688 </v>
   <v>       0.07955207      -0.18658984      -0.49764654 </v>
   <v>      -0.04296346       0.14785700      -0.51811348 </v>
   <v>      -0.16454613      -0.05971361       0.65622631 </v>
   <v>       0.12820748      -0.17023379       0.02672939 </v>
   <v>       0.14519184       0.08688650      -0.51763246 </v>
   <v>       0.00502316       0.45494031       0.83315807 </v>
   <v>       0.05136202       0.58549115       0.32989665 </v>
   <v>      -0.07707729       0.25497016       0.88682330 </v>
   <v>      -0.19807886       0.06405639       0.18114505 </v>
   <v>       0.16254891       0.42773656       0.22608524 </v>
   <v>      -0.02312892      -0.40568699      -0.86518827 </v>
   <v>      -0.24988300      -0.27983593       0.66262665 </v>
   <v>       0.24679431      -0.53001375      -0.01579132 </v>
   <v>       0.18181770       0.07766839      -0.66077321 </v>
   <v>      -0.11889343       0.15755415       0.47361200 </v>
   <v>      -0.12637887      -0.31238649       0.17285175 </v>
   <v>      -0.00745141       0.44635871       0.05698494 </v>
   <v>       0.34310401       0.03951070       0.46210109 </v>
  </varray>
  <energy>
   <i name="e_fr_energy">   -189.07208703 </i>
   <i name="e_wo_entrp">   -188.92873075 </i>
   <i name="e_0_energy">     -0.28671256 </i>
  </energy>
  <time name="totalsc">  282.37  284.76</time>
 </calculation>
 <calculation>
  <scstep>
   <time name="dav">    9.25    9.34</time>
   <time name="total">    9.62    9.71</time>
   <dipole>
    <v name="dipole">      0.00000000       0.00000000      -0.00855732 </v>
    <i name="Tr[quadrupol]"> -10287.06957408 </i>
    <i name="Echarged">      0.00000000 </i>
    <i name="Edipol_quadrupol">      0.00000000 </i>
    <i name="Eion">      0.00000000 </i>
   </dipole>
   <energy>
    <i name="alphaZ">    805.86936296 </i>
    <i name="ewald"> 197066.46869765 </i>
    <i name="hartreedc">-239268.20686797 </i>
    <i name="XCdc">   -345.90407931 </i>
    <i name="pawpsdc">  49296.72580198 </i>
    <i name="pawaedc"> -47375.54625661 </i>
    <i name="eentropy">     -0.28589535 </i>
    <i name="bandstr">  -2029.06566437 </i>
    <i name="atom">  41659.78587232 </i>
    <i name="e_fr_energy">   -190.15902870 </i>
    <i name="e_wo_entrp">   -189.87313335 </i>
    <i name="e_0_energy">   -190.01608102 </i>
   </energy>
  </scstep>
  <scstep>
   <time name="diag">    1.61    1.61</time>
   <time name="diis">    4.31    4.32</time>
   <time name="orth">    0.38    0.38</time>
   <time name="total">    6.66    6.68</time>
   <dipole>
    <v name="dipole">      0.00000000       0.00000000      -0.01555409 </v>
    <i name="Tr[quadrupol]"> -10286.81490626 </i>
    <i name="Echarged">      0.00000000 </i>
    <i name="Edipol_quadrupol">      0.00000000 </i>
    <i name="Eion">      0.00000000 </i>
   </dipole>
   <energy>
    <i name="e_fr_energy">   -190.55685490 </i>
    <i name="e_wo_entrp">   -190.26837665 </i>
    <i name="e_0_energy">   -190.41261578 </i>
   </energy>
  </scstep>
  <scstep>
   <time name="diag">    1.65    1.65</time>
   <time name="diis">    4.41    4.42</time>
   <time name="orth">    0.38    0.38</time>
   <time name="total">    6.81    6.81</time>
   <dipole>
    <v name="dipole">      0.00000000       0.00000000       0.00928621 </v>
    <i name="Tr[quadrupol]"> -10287.31757211 </i>
    <i name="Echarged">      0.00000000 </i>
    <i name="Edipol_quadrupol">      0.00000000 </i>
    <i name="Eion">      0.00000000 </i>
   </dipole>
   <energy>
    <i name="e_fr_energy">   -190.70814886 </i>
    <i name="e_wo_entrp">   -190.44877744 </i>
    <i name="e_0_energy">   -190.57846315 </i>
   </energy>
  </scstep>
  <scstep>
   <time name="diag">    1.62    1.62</time>
   <time name="diis">    4.44    4.44</time>
   <time name="orth">    0.43    0.43</time>
   <time name="total">    7.00    7.01</time>
   <dipole>
    <v name="dipole">      0.00000000       0.00000000      -0.01038874 </v>
    <i name="Tr[quadrupol]"> -10287.20001943 </i>
    <i name="Echarged">      0.00000000 </i>
    <i name="Edipol_quadrupol">      0.00000000 </i>
    <i name="Eion">      0.00000000 </i>
   </dipole>
   <energy>
    <i name="e_fr_energy">   -190.52546029 </i>
    <i name="e_wo_entrp">   -190.23576699 </i>
    <i name="e_0_energy">   -190.38061364 </i>
   </energy>
  </scstep>
  <scstep>
   <time name="diag">    2.00    2.00</time>
   <time name="diis">    4.60    4.64</time>
   <time name="orth">    0.39    0.39</time>
   <time name="total">    7.36    7.40</time>
   <dipole>
    <v name="dipole">      0.00000000       0.00000000      -0.01685455 </v>
    <i name="Tr[quadrupol]"> -10287.16014175 </i>
    <i name="Echarged">      0.00000000 </i>
    <i name="Edipol_quadrupol">      0.00000000 </i>
    <i name="Eion">      0.00000000 </i>
   </dipole>
   <energy>
    <i name="e_fr_energy">   -190.57271638 </i>
    <i name="e_wo_entrp">   -190.29077295 </i>
    <i name="e_0_energy">   -190.43174466 </i>
   </energy>
  </scstep>
  <scstep>
   <time name="diag">    1.60    1.61</time>
   <time name="diis">    4.40    4.40</time>
   <time name="orth">    0.39    0.39</time>
   <time name="total">    6.76    6.76</time>
   <dipole>
    <v name="dipole">      0.00000000       0.00000000       0.00398873 </v>
    <i name="Tr[quadrupol]"> -10287.15338653 </i>
    <i name="Echarged">      0.00000000 </i>
    <i name="Edipol_quadrupol">      0.00000000 </i>
    <i name="Eion">      0.00000000 </i>
   </dipole>
   <energy>
    <i name="e_fr_energy">   -190.52118926 </i>
    <i name="e_wo_entrp">   -190.23211052 </i>
    <i name="e_0_energy">   -190.37664989 </i>
   </energy>
  </scstep>
  <scstep>
   <time name="diag">    1.64    1.64</time>
   <time name="diis">    4.30    4.37</time>
   <time name="orth">    0.38    0.38</time>
   <time name="total">    6.68    6.76</time>
   <dipole>
    <v name="dipole">      0.00000000       0.00000000      -0.02790443 </v>
    <i name="Tr[quadrupol]"> -10287.14146623 </i>
    <i name="Echarged">      0.00000000 </i>
    <i name="Edipol_quadrupol">      0.00000000 </i>
    <i name="Eion">      0.00000000 </i>
   </dipole>
   <energy>
    <i name="e_fr_energy">   -190.51871094 </i>
    <i name="e_wo_entrp">   -190.23264169 </i>
    <i name="e_0_energy">   -190.37567631 </i>
   </energy>
  </scstep>
  <scstep>
   <time name="diag">    1.62    1.62</time>
   <time name="diis">    4.31    4.31</time>
   <time name="orth">    0.38    0.38</time>
   <time name="total">    6.68    6.69</time>
   <dipole>
    <v name="dipole">      0.00000000       0.00000000      -0.00344635 </v>
    <i name="Tr[quadrupol]"> -10287.12147046 </i>
    <i name="Echarged">      0.00000000 </i>
    <i name="Edipol_quadrupol">      0.00000000 </i>
    <i name="Eion">      0.00000000 </i>
   </dipole>
   <energy>
    <i name="e_fr_energy">   -190.51410632 </i>
    <i name="e_wo_entrp">   -190.22487392 </i>
    <i name="e_0_energy">   -190.36949012 </i>
   </energy>
  </scstep>
  <scstep>
   <time name="diag">    1.62    1.63</time>
   <time name="diis">    4.43    4.43</time>
   <time name="orth">    0.38    0.38</time>
   <time name="total">    6.80    6.81</time>
   <dipole>
    <v name="dipole">      0.00000000       0.00000000      -0.01131126 </v>
    <i name="Tr[quadrupol]"> -10287.10776550 </i>
    <i name="Echarged">      0.00000000 </i>
    <i name="Edipol_quadrupol">      0.00000000 </i>
    <i name="Eion">      0.00000000 </i>
   </dipole>
   <energy>
    <i name="e_fr_energy">   -190.51305116 </i>
    <i name="e_wo_entrp">   -190.22523404 </i>
    <i name="e_0_energy">   -190.36914260 </i>
   </energy>
  </scstep>
  <scstep>
   <time name="diag">    1.60    1.61</time>
   <time name="diis">    4.42    4.42</time>
   <time name="orth">    0.38    0.38</time>
   <time name="total">    6.77    6.79</time>
   <dipole>
    <v name="dipole">      0.00000000       0.00000000      -0.00951841 </v>
    <i name="Tr[quadrupol]"> -10287.10261252 </i>
    <i name="Echarged">      0.00000000 </i>
    <i name="Edipol_quadrupol">      0.00000000 </i>
    <i name="Eion">      0.00000000 </i>
   </dipole>
   <energy>
    <i name="e_fr_energy">   -190.51278296 </i>
    <i name="e_wo_entrp">   -190.22420909 </i>
    <i name="e_0_energy">   -190.36849603 </i>
   </energy>
  </scstep>
  <scstep>
   <time name="diag">    1.65    1.66</time>
   <time name="diis">    4.35    4.35</time>
   <time name="orth">    0.38    0.38</time>
   <time name="total">    6.75    6.76</time>
   <dipole>
    <v name="dipole">      0.00000000       0.00000000      -0.01001546 </v>
    <i name="Tr[quadrupol]"> -10287.10088689 </i>
    <i name="Echarged">      0.00000000 </i>
    <i name="Edipol_quadrupol">      0.00000000 </i>
    <i name="Eion">      0.00000000 </i>
   </dipole>
   <energy>
    <i name="e_fr_energy">   -190.51264877 </i>
    <i name="e_wo_entrp">   -190.22451603 </i>
    <i name="e_0_energy">   -190.36858240 </i>
   </energy>
  </scstep>
  <scstep>
   <time name="diag">    1.62    1.62</time>
   <time name="diis">    4.35    4.35</time>
   <time name="orth">    0.38    0.38</time>
   <time name="total">    6.72    6.73</time>
   <dipole>
    <v name="dipole">      0.00000000       0.00000000      -0.00985303 </v>
    <i name="Tr[quadrupol]"> -10287.10405389 </i>
    <i name="Echarged">      0.00000000 </i>
    <i name="Edipol_quadrupol">      0.00000000 </i>
    <i name="Eion">      0.00000000 </i>
   </dipole>
   <energy>
    <i name="e_fr_energy">   -190.51264397 </i>
    <i name="e_wo_entrp">   -190.22449702 </i>
    <i name="e_0_energy">   -190.36857049 </i>
   </energy>
  </scstep>
  <scstep>
   <time name="diag">    1.61    1.66</time>
   <time name="diis">    4.63    4.67</time>
   <time name="orth">    0.49    0.49</time>
   <time name="total">    7.23    7.33</time>
   <dipole>
    <v name="dipole">      0.00000000       0.00000000      -0.00961761 </v>
    <i name="Tr[quadrupol]"> -10287.10686260 </i>
    <i name="Echarged">      0.00000000 </i>
    <i name="Edipol_quadrupol">      0.00000000 </i>
    <i name="Eion">      0.00000000 </i>
   </dipole>
   <energy>
    <i name="e_fr_energy">   -190.51263230 </i>
    <i name="e_wo_entrp">   -190.22437375 </i>
    <i name="e_0_energy">   -190.36850303 </i>
   </energy>
  </scstep>
  <scstep>
   <time name="diag">    1.95    1.97</time>
   <time name="diis">    4.34    4.35</time>
   <time name="orth">    0.38    0.38</time>
   <time name="total">    7.06    7.09</time>
   <dipole>
    <v name="dipole">      0.00000000       0.00000000      -0.00980502 </v>
    <i name="Tr[quadrupol]"> -10287.10997540 </i>
    <i name="Echarged">      0.00000000 </i>
    <i name="Edipol_quadrupol">      0.00000000 </i>
    <i name="Eion">      0.00000000 </i>
   </dipole>
   <energy>
    <i name="e_fr_energy">   -190.51263161 </i>
    <i name="e_wo_entrp">   -190.22436704 </i>
    <i name="e_0_energy">   -190.36849933 </i>
   </energy>
  </scstep>
  <scstep>
   <time name="diag">    1.66    1.66</time>
   <time name="diis">    3.62    3.62</time>
   <time name="orth">    0.38    0.38</time>
   <time name="total">    6.03    6.03</time>
   <dipole>
    <v name="dipole">      0.00000000       0.00000000      -0.00957775 </v>
    <i name="Tr[quadrupol]"> -10287.11169653 </i>
    <i name="Echarged">      0.00000000 </i>
    <i name="Edipol_quadrupol">      0.00000000 </i>
    <i name="Eion">      0.00000000 </i>
   </dipole>
   <energy>
    <i name="e_fr_energy">   -190.51262819 </i>
    <i name="e_wo_entrp">   -190.22437007 </i>
    <i name="e_0_energy">   -190.36849913 </i>
   </energy>
  </scstep>
  <scstep>
   <time name="diag">    1.61    1.62</time>
   <time name="diis">    2.57    2.57</time>
   <time name="orth">    0.39    0.39</time>
   <time name="total">    4.63    4.64</time>
   <dipole>
    <v name="dipole">      0.00000000       0.00000000      -0.00962749 </v>
    <i name="Tr[quadrupol]"> -10287.11281430 </i>
    <i name="Echarged">      0.00000000 </i>
    <i name="Edipol_quadrupol">      0.00000000 </i>
    <i name="Eion">      0.00000000 </i>
   </dipole>
   <energy>
    <i name="alphaZ">    805.86936243 </i>
    <i name="ewald"> 197066.46869765 </i>
    <i name="hartreedc">-239270.52633923 </i>
    <i name="XCdc">   -345.84874216 </i>
    <i name="pawpsdc">  48857.00033334 </i>
    <i name="pawaedc"> -46932.81954121 </i>
    <i name="eentropy">     -0.28826512 </i>
    <i name="bandstr">  -2030.15400654 </i>
    <i name="atom">  41659.78587232 </i>
    <i name="e_fr_energy">   -190.51262852 </i>
    <i name="e_wo_entrp">   -190.22436340 </i>
    <i name="e_0_energy">   -190.36849596 </i>
   </energy>
  </scstep>
  <structure>
   <crystal>
    <varray name="basis" >
     <v>      11.00258152       0.00000000       0.00000000 </v>
     <v>       5.50129076       9.52851510       0.00000000 </v>
     <v>       0.00000000       0.00000000      24.49178509 </v>
    </varray>
    <i name="volume">   2567.67623402 </i>
    <varray name="rec_basis" >
     <v>       0.09088776      -0.05247407       0.00000000 </v>
     <v>       0.00000000       0.10494815       0.00000000 </v>
     <v>       0.00000000       0.00000000       0.04083002 </v>
    </varray>
   </crystal>
   <varray name="positions" >
    <v>       0.08335929       0.08485896       0.40681507 </v>
    <v>       0.74956755       0.50011103       0.59361450 </v>
    <v>       0.66549854       0.66668990       0.49995940 </v>
    <v>       0.83354376       0.58197741       0.40615090 </v>
    <v>       0.74942327       0.24943349       0.59352179 </v>
    <v>       0.66555283       0.16660411       0.49999421 </v>
    <v>       0.83229151       0.08386678       0.40655082 </v>
    <v>       0.58303177       0.83474814       0.40643380 </v>
    <v>       0.50023109       0.49942822       0.59363284 </v>
    <v>       0.41796369       0.66667482       0.49999746 </v>
    <v>       0.33382220       0.83397564       0.40640928 </v>
    <v>       0.25073823       0.49875286       0.59391603 </v>
    <v>       0.16569873       0.66809001       0.50038175 </v>
    <v>       0.33520720       0.58197148       0.40607322 </v>
    <v>       0.16771706       0.41342678       0.50004356 </v>
    <v>       0.24971547       0.75135900       0.59384784 </v>
    <v>       0.08226748       0.83401899       0.40635886 </v>
    <v>       0.00006744      -0.00071913       0.59322364 </v>
    <v>       0.00158706       0.24916131       0.59323266 </v>
    <v>       0.08255106       0.58331502       0.40572510 </v>
    <v>       0.91570986       0.66885038       0.49999484 </v>
    <v>       0.00054129       0.49958323       0.59393355 </v>
    <v>       0.33457757       0.33151373       0.40645438 </v>
    <v>       0.74888028       0.75220776       0.59381914 </v>
    <v>       0.58297106       0.08325279       0.40747207 </v>
    <v>       0.83266475       0.83400917       0.40722754 </v>
    <v>       0.91715319       0.16730349       0.49973162 </v>
    <v>       0.25128266       0.24873852       0.59260465 </v>
    <v>       0.08313313       0.33256440       0.40737814 </v>
    <v>       0.91697059       0.41473485       0.49949143 </v>
    <v>       0.66724148       0.41600538       0.49931383 </v>
    <v>       0.83293946       0.33385735       0.40758578 </v>
    <v>       0.74960078      -0.00021163       0.59260465 </v>
    <v>       0.16736183       0.16606334       0.50003686 </v>
    <v>       0.33362500       0.08364127       0.40758645 </v>
    <v>       0.49920924       0.75161235       0.59284861 </v>
    <v>       0.41578680       0.91874170       0.50045487 </v>
    <v>      -0.00068839       0.75090364       0.59292260 </v>
    <v>       0.91594520       0.91689369       0.50024977 </v>
    <v>       0.16640761       0.91818260       0.50031173 </v>
    <v>       0.58398124       0.58189554       0.40710723 </v>
    <v>       0.49972892       0.24900824       0.59261348 </v>
    <v>       0.41836335       0.41478825       0.49997823 </v>
    <v>       0.58375375       0.33360860       0.40738908 </v>
    <v>       0.49935589       0.00055839       0.59235286 </v>
    <v>       0.41683234       0.16555954       0.50023833 </v>
    <v>       0.66585283       0.91824860       0.50007857 </v>
    <v>       0.25098306       0.00014003       0.59233699 </v>
   </varray>
  </structure>
  <varray name="forces" >
   <v>       0.12164398       0.22487181      -0.84294822 </v>
   <v>      -0.03198537       0.04158703       0.95576177 </v>
   <v>      -0.00643513       0.04055247      -0.02187818 </v>
   <v>      -0.11172106      -0.16165918      -1.07867868 </v>
   <v>      -0.14039217      -0.13269821       0.92258196 </v>
   <v>      -0.08208106      -0.01781181       0.00579039 </v>
   <v>      -0.14779577       0.12555321      -0.92078848 </v>
   <v>       0.09369094       0.16516287      -0.96129351 </v>
   <v>      -0.02215013      -0.04676777       0.98498767 </v>
   <v>       0.04486087       0.02613405       0.00384870 </v>
   <v>       0.12787449       0.07989912      -0.95005272 </v>
   <v>       0.02403124      -0.16563290       1.09203797 </v>
   <v>       0.06018166       0.03928278       0.06317092 </v>
   <v>       0.12806189      -0.17409455      -1.06166661 </v>
   <v>      -0.06265599      -0.27919249      -0.02068365 </v>
   <v>       0.11144588       0.15348274       1.12142200 </v>
   <v>      -0.06664468       0.09180186      -0.97269553 </v>
   <v>      -0.06883317      -0.03701357       0.83095225 </v>
   <v>       0.20000193      -0.15744881       0.83324318 </v>
   <v>      -0.08549056      -0.07189717      -1.22835773 </v>
   <v>      -0.09170854       0.12705906      -0.00514717 </v>
   <v>       0.03121834       0.00460053       1.05082872 </v>
   <v>       0.04622762      -0.25873532      -0.98306885 </v>
   <v>      -0.03982406       0.31492537       1.09533769 </v>
   <v>      -0.05757382       0.00723375      -0.51035951 </v>
   <v>      -0.10496098       0.08733617      -0.60406212 </v>
   <v>       0.08569349       0.04119692      -0.04323438 </v>
   <v>       0.15207962      -0.23976470       0.58763775 </v>
   <v>      -0.06137511      -0.10594550      -0.57205903 </v>
   <v>      -0.08648689      -0.17548846      -0.06487969 </v>
   <v>       0.04515015      -0.16864423      -0.10972960 </v>
   <v>      -0.05822168       0.05155895      -0.52562305 </v>
   <v>      -0.10775782       0.00946272       0.55512411 </v>
   <v>       0.02129481      -0.16083529       0.02402152 </v>
   <v>       0.09404972       0.06171013      -0.43594017 </v>
   <v>       0.01368175       0.27398247       0.66537606 </v>
   <v>       0.04887901       0.30224767       0.06634152 </v>
   <v>      -0.04658241       0.08267218       0.72859822 </v>
   <v>      -0.03618163       0.20440871       0.03822135 </v>
   <v>       0.08314746       0.21899960       0.02278083 </v>
   <v>       0.02545652      -0.18435920      -0.71786884 </v>
   <v>      -0.16840882      -0.21282497       0.55970078 </v>
   <v>       0.04106028      -0.17254751       0.00090694 </v>
   <v>       0.11964691      -0.01143000      -0.57609049 </v>
   <v>      -0.06561936       0.11763525       0.48051247 </v>
   <v>      -0.08163889      -0.17239460       0.05197137 </v>
   <v>      -0.09837804       0.17884599       0.01168840 </v>
   <v>       0.21152462       0.03498284       0.45426166 </v>
  </varray>
  <energy>
   <i name="e_fr_energy">   -190.51262852 </i>
   <i name="e_wo_entrp">   -190.36849596 </i>
   <i name="e_0_energy">     -0.28826512 </i>
  </energy>
  <time name="totalsc">  112.59  113.05</time>
 </calculation>
 <calculation>
  <scstep>
   <time name="dav">    9.30    9.31</time>
   <time name="total">    9.67    9.68</time>
   <dipole>
    <v name="dipole">      0.00000000       0.00000000      -0.00960966 </v>
    <i name="Tr[quadrupol]"> -10256.46698996 </i>
    <i name="Echarged">      0.00000000 </i>
    <i name="Edipol_quadrupol">      0.00000000 </i>
    <i name="Eion">      0.00000000 </i>
   </dipole>
   <energy>
    <i name="alphaZ">    805.86936665 </i>
    <i name="ewald"> 189303.12984457 </i>
    <i name="hartreedc">-231547.23122377 </i>
    <i name="XCdc">   -351.17816304 </i>
    <i name="pawpsdc">  48856.86077071 </i>
    <i name="pawaedc"> -46932.68012543 </i>
    <i name="eentropy">     -0.27262359 </i>
    <i name="bandstr">  -1983.18151282 </i>
    <i name="atom">  41659.78587232 </i>
    <i name="e_fr_energy">   -188.89779440 </i>
    <i name="e_wo_entrp">   -188.62517081 </i>
    <i name="e_0_energy">   -188.76148261 </i>
   </energy>
  </scstep>
  <scstep>
   <time name="diag">    1.63    1.63</time>
   <time name="diis">    4.28    4.38</time>
   <time name="orth">    0.38    0.38</time>
   <time name="total">    6.66    6.76</time>
   <dipole>
    <v name="dipole">      0.00000000       0.00000000      -0.02627981 </v>
    <i name="Tr[quadrupol]"> -10255.60475646 </i>
    <i name="Echarged">      0.00000000 </i>
    <i name="Edipol_quadrupol">      0.00000000 </i>
    <i name="Eion">      0.00000000 </i>
   </dipole>
   <energy>
    <i name="e_fr_energy">   -192.42999300 </i>
    <i name="e_wo_entrp">   -192.15698686 </i>
    <i name="e_0_energy">   -192.29348993 </i>
   </energy>
  </scstep>
  <scstep>
   <time name="diag">    1.62    1.62</time>
   <time name="diis">    4.37    4.37</time>
   <time name="orth">    0.38    0.38</time>
   <time name="total">    6.74    6.75</time>
   <dipole>
    <v name="dipole">      0.00000000       0.00000000       0.02856526 </v>
    <i name="Tr[quadrupol]"> -10256.86152892 </i>
    <i name="Echarged">      0.00000000 </i>
    <i name="Edipol_quadrupol">      0.00000000 </i>
    <i name="Eion">      0.00000000 </i>
   </dipole>
   <energy>
    <i name="e_fr_energy">   -193.17584409 </i>
    <i name="e_wo_entrp">   -192.96918862 </i>
    <i name="e_0_energy">   -193.07251636 </i>
   </energy>
  </scstep>
  <scstep>
   <time name="diag">    1.65    1.65</time>
   <time name="diis">    4.42    4.42</time>
   <time name="orth">    0.39    0.39</time>
   <time name="total">    6.82    6.83</time>
   <dipole>
    <v name="dipole">      0.00000000       0.00000000      -0.00259033 </v>
    <i name="Tr[quadrupol]"> -10256.59138268 </i>
    <i name="Echarged">      0.00000000 </i>
    <i name="Edipol_quadrupol">      0.00000000 </i>
    <i name="Eion">      0.00000000 </i>
   </dipole>
   <energy>
    <i name="e_fr_energy">   -192.10608370 </i>
    <i name="e_wo_entrp">   -191.82852108 </i>
    <i name="e_0_energy">   -191.96730239 </i>
   </energy>
  </scstep>
  <scstep>
   <time name="diag">    1.63    1.63</time>
   <time name="diis">    4.33    4.33</time>
   <time name="orth">    0.39    0.40</time>
   <time name="total">    6.83    6.85</time>
   <dipole>
    <v name="dipole">      0.00000000       0.00000000      -0.08321255 </v>
    <i name="Tr[quadrupol]"> -10256.66602993 </i>
    <i name="Echarged">      0.00000000 </i>
    <i name="Edipol_quadrupol">      0.00000000 </i>
    <i name="Eion">      0.00000000 </i>
   </dipole>
   <energy>
    <i name="e_fr_energy">   -192.39055221 </i>
    <i name="e_wo_entrp">   -192.12063322 </i>
    <i name="e_0_energy">   -192.25559272 </i>
   </energy>
  </scstep>
  <scstep>
   <time name="diag">    1.97    1.98</time>
   <time name="diis">    4.57    4.60</time>
   <time name="orth">    0.40    0.40</time>
   <time name="total">    7.32    7.37</time>
   <dipole>
    <v name="dipole">      0.00000000       0.00000000       0.07219414 </v>
    <i name="Tr[quadrupol]"> -10256.63999926 </i>
    <i name="Echarged">      0.00000000 </i>
    <i name="Edipol_quadrupol">      0.00000000 </i>
    <i name="Eion">      0.00000000 </i>
   </dipole>
   <energy>
    <i name="e_fr_energy">   -192.21383529 </i>
    <i name="e_wo_entrp">   -191.92608211 </i>
    <i name="e_0_energy">   -192.06995870 </i>
   </energy>
  </scstep>
  <scstep>
   <time name="diag">    1.62    1.62</time>
   <time name="diis">    4.40    4.41</time>
   <time name="orth">    0.39    0.39</time>
   <time name="total">    6.79    6.80</time>
   <dipole>
    <v name="dipole">      0.00000000       0.00000000      -0.05847959 </v>
    <i name="Tr[quadrupol]"> -10256.59509613 </i>
    <i name="Echarged">      0.00000000 </i>
    <i name="Edipol_quadrupol">      0.00000000 </i>
    <i name="Eion">      0.00000000 </i>
   </dipole>
   <energy>
    <i name="e_fr_energy">   -192.07845206 </i>
    <i name="e_wo_entrp">   -191.80196463 </i>
    <i name="e_0_energy">   -191.94020835 </i>
   </energy>
  </scstep>
  <scstep>
   <time name="diag">    1.66    1.66</time>
   <time name="diis">    4.26    4.34</time>
   <time name="orth">    0.39    0.39</time>
   <time name="total">    6.67    6.76</time>
   <dipole>
    <v name="dipole">      0.00000000       0.00000000       0.00549725 </v>
    <i name="Tr[quadrupol]"> -10256.51762618 </i>
    <i name="Echarged">      0.00000000 </i>
    <i name="Edipol_quadrupol">      0.00000000 </i>
    <i name="Eion">      0.00000000 </i>
[...]
       <r>    2.3052    0.0000 </r>
       <r>    2.4039    0.0000 </r>
       <r>    2.4960    0.0000 </r>
       <r>    2.6269    0.0000 </r>
       <r>    2.7263    0.0000 </r>
       <r>    2.9234    0.0000 </r>
       <r>    3.0963    0.0000 </r>
       <r>    3.2446    0.0000 </r>
       <r>    3.5165    0.0000 </r>
       <r>    3.5907    0.0000 </r>
       <r>    3.8154    0.0000 </r>
       <r>    4.0190    0.0000 </r>
       <r>    4.0877    0.0000 </r>
       <r>    4.1567    0.0000 </r>
       <r>    4.4315    0.0000 </r>
       <r>    4.5113    0.0000 </r>
       <r>    4.5772    0.0000 </r>
       <r>    4.6202    0.0000 </r>
       <r>    4.6627    0.0000 </r>
       <r>    4.8017    0.0000 </r>
       <r>    4.8562    0.0000 </r>
       <r>    4.8991    0.0000 </r>
       <r>    4.9792    0.0000 </r>
       <r>    5.0452    0.0000 </r>
       <r>    5.0664    0.0000 </r>
       <r>    5.0986    0.0000 </r>
       <r>    5.1764    0.0000 </r>
       <r>    5.2303    0.0000 </r>
      </set>
     </set>
    </set>
   </array>
  </eigenvalues>
  <separator name="orbital magnetization" >
   <v name="MAGDIPOLOUT">      0.00000000      0.00000000      0.00000000</v>
  </separator>
  <dos>
   <i name="efermi">     -1.09778780 </i>
   <total>
    <array>
     <dimension dim="1">gridpoints</dimension>
     <dimension dim="2">spin</dimension>
     <field>energy</field>
     <field>total</field>
     <field>integrated</field>
     <set>
      <set comment="spin 1">
       <r>    -9.7271     0.0000     0.0000 </r>
       <r>    -9.6735     0.0000     0.0000 </r>
       <r>    -9.6199     0.0000     0.0000 </r>
       <r>    -9.5663     0.0000     0.0000 </r>
       <r>    -9.5127     0.0000     0.0000 </r>
       <r>    -9.4591     0.0000     0.0000 </r>
       <r>    -9.4054     0.0000     0.0000 </r>
       <r>    -9.3518     0.0000     0.0000 </r>
       <r>    -9.2982     0.0000     0.0000 </r>
       <r>    -9.2446     0.0000     0.0000 </r>
       <r>    -9.1910     0.0000     0.0000 </r>
       <r>    -9.1374     0.0000     0.0000 </r>
       <r>    -9.0837     0.0000     0.0000 </r>
       <r>    -9.0301     0.0001     0.0000 </r>
       <r>    -8.9765     0.0016     0.0001 </r>
       <r>    -8.9229     0.0231     0.0013 </r>
       <r>    -8.8693     0.1933     0.0117 </r>
       <r>    -8.8157     0.9589     0.0631 </r>
       <r>    -8.7620     2.8375     0.2152 </r>
       <r>    -8.7084     5.0958     0.4885 </r>
       <r>    -8.6548     5.9273     0.8063 </r>
       <r>    -8.6012     5.4601     1.0990 </r>
       <r>    -8.5476     5.1768     1.3766 </r>
       <r>    -8.4940     4.7957     1.6337 </r>
       <r>    -8.4404     3.6351     1.8286 </r>
       <r>    -8.3867     2.1037     1.9414 </r>
       <r>    -8.3331     0.9390     1.9917 </r>
       <r>    -8.2795     0.6490     2.0265 </r>
       <r>    -8.2259     1.1928     2.0905 </r>
       <r>    -8.1723     1.8597     2.1902 </r>
       <r>    -8.1187     2.0381     2.2995 </r>
       <r>    -8.0650     2.5377     2.4355 </r>
       <r>    -8.0114     4.5313     2.6785 </r>
       <r>    -7.9578     7.2025     3.0646 </r>
       <r>    -7.9042     8.3959     3.5148 </r>
       <r>    -7.8506     7.8410     3.9352 </r>
       <r>    -7.7970     7.8989     4.3587 </r>
       <r>    -7.7433     9.1726     4.8505 </r>
       <r>    -7.6897     9.4391     5.3566 </r>
       <r>    -7.6361     8.6949     5.8227 </r>
       <r>    -7.5825     9.2221     6.3172 </r>
       <r>    -7.5289    10.7427     6.8932 </r>
       <r>    -7.4753    10.4982     7.4560 </r>
       <r>    -7.4217     8.7008     7.9225 </r>
       <r>    -7.3680     8.3002     8.3676 </r>
       <r>    -7.3144     9.7518     8.8904 </r>
       <r>    -7.2608    11.0314     9.4819 </r>
       <r>    -7.2072    11.7776    10.1133 </r>
       <r>    -7.1536    13.5276    10.8386 </r>
       <r>    -7.1000    16.0363    11.6984 </r>
       <r>    -7.0463    17.8976    12.6580 </r>
       <r>    -6.9927    20.1221    13.7369 </r>
       <r>    -6.9391    24.3037    15.0399 </r>
       <r>    -6.8855    29.3755    16.6149 </r>
       <r>    -6.8319    34.2928    18.4536 </r>
       <r>    -6.7783    39.7537    20.5850 </r>
       <r>    -6.7246    45.0013    22.9978 </r>
       <r>    -6.6710    48.1449    25.5791 </r>
       <r>    -6.6174    49.6754    28.2425 </r>
       <r>    -6.5638    51.3546    30.9959 </r>
       <r>    -6.5102    53.3906    33.8585 </r>
       <r>    -6.4566    54.9929    36.8070 </r>
       <r>    -6.4030    55.5348    39.7845 </r>
       <r>    -6.3493    55.3390    42.7515 </r>
       <r>    -6.2957    57.2258    45.8197 </r>
       <r>    -6.2421    62.5871    49.1754 </r>
       <r>    -6.1885    68.1463    52.8291 </r>
       <r>    -6.1349    71.5434    56.6650 </r>
       <r>    -6.0813    74.2140    60.6440 </r>
       <r>    -6.0276    77.3312    64.7902 </r>
       <r>    -5.9740    78.9546    69.0234 </r>
       <r>    -5.9204    77.5484    73.1812 </r>
       <r>    -5.8668    75.2849    77.2177 </r>
       <r>    -5.8132    74.3482    81.2039 </r>
       <r>    -5.7596    74.3517    85.1903 </r>
       <r>    -5.7060    73.9330    89.1543 </r>
       <r>    -5.6523    72.9224    93.0641 </r>
       <r>    -5.5987    72.3351    96.9424 </r>
       <r>    -5.5451    72.1678   100.8117 </r>
       <r>    -5.4915    72.3865   104.6928 </r>
       <r>    -5.4379    73.2135   108.6182 </r>
       <r>    -5.3843    74.4585   112.6103 </r>
       <r>    -5.3306    77.5056   116.7658 </r>
       <r>    -5.2770    83.0158   121.2168 </r>
       <r>    -5.2234    87.3959   125.9026 </r>
       <r>    -5.1698    86.9835   130.5663 </r>
       <r>    -5.1162    83.5179   135.0441 </r>
       <r>    -5.0626    81.0718   139.3909 </r>
       <r>    -5.0089    80.9930   143.7334 </r>
       <r>    -4.9553    83.3605   148.2028 </r>
       <r>    -4.9017    87.4597   152.8920 </r>
       <r>    -4.8481    89.9974   157.7173 </r>
       <r>    -4.7945    88.6281   162.4691 </r>
       <r>    -4.7409    86.0538   167.0830 </r>
       <r>    -4.6873    86.6381   171.7281 </r>
       <r>    -4.6336    89.6898   176.5369 </r>
       <r>    -4.5800    91.0644   181.4194 </r>
       <r>    -4.5264    90.4677   186.2699 </r>
       <r>    -4.4728    89.9199   191.0910 </r>
       <r>    -4.4192    89.1435   195.8705 </r>
       <r>    -4.3656    88.1121   200.5947 </r>
       <r>    -4.3119    88.4321   205.3361 </r>
       <r>    -4.2583    90.4235   210.1842 </r>
       <r>    -4.2047    93.1599   215.1790 </r>
       <r>    -4.1511    95.5574   220.3024 </r>
       <r>    -4.0975    95.7546   225.4364 </r>
       <r>    -4.0439    93.6657   230.4583 </r>
       <r>    -3.9902    92.3118   235.4077 </r>
       <r>    -3.9366    93.4066   240.4157 </r>
       <r>    -3.8830    95.7251   245.5481 </r>
       <r>    -3.8294    98.1054   250.8081 </r>
       <r>    -3.7758    99.7314   256.1553 </r>
       <r>    -3.7222    99.9990   261.5168 </r>
       <r>    -3.6686   100.3070   266.8948 </r>
       <r>    -3.6149   102.1524   272.3718 </r>
       <r>    -3.5613   104.1765   277.9573 </r>
       <r>    -3.5077   104.8697   283.5800 </r>
       <r>    -3.4541   105.0255   289.2110 </r>
       <r>    -3.4005   105.3273   294.8582 </r>
       <r>    -3.3469   105.8515   300.5335 </r>
       <r>    -3.2932   106.4023   306.2383 </r>
       <r>    -3.2396   105.8200   311.9120 </r>
       <r>    -3.1860   103.1391   317.4418 </r>
       <r>    -3.1324    99.4817   322.7756 </r>
       <r>    -3.0788    96.6152   327.9557 </r>
       <r>    -3.0252    94.4886   333.0218 </r>
       <r>    -2.9715    92.1923   337.9647 </r>
       <r>    -2.9179    90.1766   342.7996 </r>
       <r>    -2.8643    90.2128   347.6365 </r>
       <r>    -2.8107    91.0649   352.5190 </r>
       <r>    -2.7571    88.8564   357.2831 </r>
       <r>    -2.7035    84.2429   361.7998 </r>
       <r>    -2.6499    81.3445   366.1612 </r>
       <r>    -2.5962    81.3873   370.5248 </r>
       <r>    -2.5426    83.0541   374.9778 </r>
       <r>    -2.4890    84.7957   379.5242 </r>
       <r>    -2.4354    86.2468   384.1484 </r>
       <r>    -2.3818    88.5058   388.8937 </r>
       <r>    -2.3282    91.0601   393.7759 </r>
       <r>    -2.2745    91.9999   398.7086 </r>
       <r>    -2.2209    91.6564   403.6228 </r>
       <r>    -2.1673    91.3478   408.5205 </r>
       <r>    -2.1137    90.9489   413.3968 </r>
       <r>    -2.0601    90.5214   418.2501 </r>
       <r>    -2.0065    90.1926   423.0859 </r>
       <r>    -1.9528    89.4904   427.8840 </r>
       <r>    -1.8992    89.5513   432.6853 </r>
       <r>    -1.8456    91.6434   437.5989 </r>
       <r>    -1.7920    92.9765   442.5839 </r>
       <r>    -1.7384    90.3409   447.4276 </r>
       <r>    -1.6848    86.3585   452.0577 </r>
       <r>    -1.6312    86.0221   456.6699 </r>
       <r>    -1.5775    90.4153   461.5176 </r>
       <r>    -1.5239    96.3812   466.6851 </r>
       <r>    -1.4703   100.9454   472.0974 </r>
       <r>    -1.4167   102.9324   477.6162 </r>
       <r>    -1.3631   101.5525   483.0610 </r>
       <r>    -1.3095    96.8891   488.2558 </r>
       <r>    -1.2558    89.0794   493.0318 </r>
       <r>    -1.2022    78.9894   497.2669 </r>
       <r>    -1.1486    69.1279   500.9732 </r>
       <r>    -1.0950    59.2564   504.1503 </r>
       <r>    -1.0414    46.6582   506.6519 </r>
       <r>    -0.9878    32.0915   508.3725 </r>
       <r>    -0.9341    19.6625   509.4268 </r>
       <r>    -0.8805    12.2932   510.0859 </r>
       <r>    -0.8269     9.5901   510.6000 </r>
       <r>    -0.7733     9.2335   511.0951 </r>
       <r>    -0.7197     9.7576   511.6183 </r>
       <r>    -0.6661    10.9195   512.2037 </r>
       <r>    -0.6125    12.9829   512.8998 </r>
       <r>    -0.5588    16.0934   513.7627 </r>
       <r>    -0.5052    19.6353   514.8154 </r>
       <r>    -0.4516    21.2542   515.9550 </r>
       <r>    -0.3980    18.4104   516.9421 </r>
       <r>    -0.3444    12.9872   517.6384 </r>
       <r>    -0.2908    10.4680   518.1996 </r>
       <r>    -0.2371    13.8273   518.9410 </r>
       <r>    -0.1835    19.4446   519.9835 </r>
       <r>    -0.1299    21.5285   521.1378 </r>
       <r>    -0.0763    19.7491   522.1967 </r>
       <r>    -0.0227    17.8513   523.1538 </r>
       <r>     0.0309    18.2291   524.1312 </r>
       <r>     0.0845    20.2132   525.2149 </r>
       <r>     0.1382    21.0218   526.3420 </r>
       <r>     0.1918    19.3579   527.3799 </r>
       <r>     0.2454    17.1768   528.3008 </r>
       <r>     0.2990    16.1206   529.1652 </r>
       <r>     0.3526    16.2145   530.0345 </r>
       <r>     0.4062    16.5053   530.9194 </r>
       <r>     0.4599    15.6969   531.7611 </r>
       <r>     0.5135    14.9000   532.5599 </r>
       <r>     0.5671    16.9227   533.4672 </r>
       <r>     0.6207    21.1255   534.5999 </r>
       <r>     0.6743    23.2385   535.8459 </r>
       <r>     0.7279    21.8126   537.0154 </r>
       <r>     0.7816    18.0220   537.9816 </r>
       <r>     0.8352    12.1039   538.6306 </r>
       <r>     0.8888     6.7787   538.9940 </r>
       <r>     0.9424     6.0455   539.3182 </r>
       <r>     0.9960     9.4669   539.8257 </r>
       <r>     1.0496    12.5565   540.4990 </r>
       <r>     1.1032    12.6459   541.1770 </r>
       <r>     1.1569    11.6372   541.8009 </r>
       <r>     1.2105    10.9627   542.3887 </r>
       <r>     1.2641     9.7308   542.9104 </r>
       <r>     1.3177     8.8446   543.3846 </r>
       <r>     1.3713     9.8870   543.9147 </r>
       <r>     1.4249    12.0399   544.5602 </r>
       <r>     1.4786    13.5554   545.2870 </r>
       <r>     1.5322    13.6755   546.0202 </r>
       <r>     1.5858    12.8861   546.7111 </r>
       <r>     1.6394    12.6955   547.3918 </r>
       <r>     1.6930    14.5800   548.1735 </r>
       <r>     1.7466    18.0762   549.1427 </r>
       <r>     1.8003    20.2595   550.2289 </r>
       <r>     1.8539    18.3011   551.2102 </r>
       <r>     1.9075    13.6995   551.9447 </r>
       <r>     1.9611    10.9949   552.5342 </r>
       <r>     2.0147    10.7756   553.1119 </r>
       <r>     2.0683    10.2997   553.6641 </r>
       <r>     2.1219     9.4003   554.1681 </r>
       <r>     2.1756    10.7550   554.7448 </r>
       <r>     2.2292    15.3054   555.5654 </r>
       <r>     2.2828    19.6918   556.6212 </r>
       <r>     2.3364    21.1402   557.7546 </r>
       <r>     2.3900    21.1799   558.8902 </r>
       <r>     2.4436    21.1084   560.0219 </r>
       <r>     2.4973    20.4966   561.1209 </r>
       <r>     2.5509    20.6495   562.2280 </r>
       <r>     2.6045    22.8252   563.4518 </r>
       <r>     2.6581    25.0297   564.7938 </r>
       <r>     2.7117    24.7230   566.1193 </r>
       <r>     2.7653    21.6237   567.2787 </r>
       <r>     2.8190    17.1238   568.1968 </r>
       <r>     2.8726    13.2367   568.9065 </r>
       <r>     2.9262    10.2765   569.4575 </r>
       <r>     2.9798     7.3239   569.8502 </r>
       <r>     3.0334     5.6160   570.1513 </r>
       <r>     3.0870     6.8009   570.5159 </r>
       <r>     3.1406     9.7584   571.0391 </r>
       <r>     3.1943    11.9563   571.6802 </r>
       <r>     3.2479    11.6627   572.3055 </r>
       <r>     3.3015     9.2859   572.8033 </r>
       <r>     3.3551     7.2644   573.1928 </r>
       <r>     3.4087     7.4258   573.5910 </r>
       <r>     3.4623     9.7017   574.1111 </r>
       <r>     3.5160    13.3606   574.8275 </r>
       <r>     3.5696    16.7268   575.7243 </r>
       <r>     3.6232    17.6490   576.6705 </r>
       <r>     3.6768    16.3282   577.5460 </r>
       <r>     3.7304    15.4071   578.3721 </r>
       <r>     3.7840    15.8056   579.2195 </r>
       <r>     3.8377    15.6387   580.0580 </r>
       <r>     3.8913    13.4579   580.7795 </r>
       <r>     3.9449    11.0515   581.3720 </r>
       <r>     3.9985    11.5008   581.9887 </r>
       <r>     4.0521    13.9013   582.7340 </r>
       <r>     4.1057    14.8919   583.5324 </r>
       <r>     4.1593    13.7344   584.2688 </r>
       <r>     4.2130    11.7415   584.8983 </r>
       <r>     4.2666     9.8756   585.4278 </r>
       <r>     4.3202     8.6699   585.8927 </r>
       <r>     4.3738     9.6623   586.4107 </r>
       <r>     4.4274    13.1631   587.1165 </r>
       <r>     4.4810    16.1982   587.9849 </r>
       <r>     4.5347    18.1548   588.9583 </r>
       <r>     4.5883    21.6710   590.1202 </r>
       <r>     4.6419    25.5575   591.4905 </r>
       <r>     4.6955    26.1637   592.8933 </r>
       <r>     4.7491    24.8818   594.2274 </r>
       <r>     4.8027    25.1111   595.5737 </r>
       <r>     4.8563    26.2155   596.9793 </r>
       <r>     4.9100    26.8693   598.4199 </r>
       <r>     4.9636    28.4750   599.9466 </r>
       <r>     5.0172    32.4124   601.6844 </r>
       <r>     5.0708    36.3042   603.6309 </r>
       <r>     5.1244    36.0359   605.5630 </r>
       <r>     5.1780    32.4395   607.3023 </r>
       <r>     5.2317    28.6389   608.8378 </r>
       <r>     5.2853    24.0366   610.1265 </r>
       <r>     5.3389    17.6747   611.0741 </r>
       <r>     5.3925    10.6557   611.6454 </r>
       <r>     5.4461     4.8134   611.9035 </r>
       <r>     5.4997     1.4768   611.9827 </r>
       <r>     5.5534     0.2866   611.9981 </r>
       <r>     5.6070     0.0337   611.9999 </r>
       <r>     5.6606     0.0024   612.0000 </r>
       <r>     5.7142     0.0001   612.0000 </r>
       <r>     5.7678     0.0000   612.0000 </r>
       <r>     5.8214     0.0000   612.0000 </r>
       <r>     5.8750     0.0000   612.0000 </r>
       <r>     5.9287     0.0000   612.0000 </r>
       <r>     5.9823     0.0000   612.0000 </r>
       <r>     6.0359     0.0000   612.0000 </r>
       <r>     6.0895     0.0000   612.0000 </r>
       <r>     6.1431     0.0000   612.0000 </r>
       <r>     6.1967     0.0000   612.0000 </r>
       <r>     6.2504     0.0000   612.0000 </r>
       <r>     6.3040     0.0000   612.0000 </r>
       <r>     6.3576     0.0000   612.0000 </r>
      </set>
     </set>
    </array>
   </total>
  </dos>
 </calculation>
 <structure name="finalpos" >
  <crystal>
   <varray name="basis" >
    <v>      11.00258152       0.00000000       0.00000000 </v>
    <v>       5.50129076       9.52851510       0.00000000 </v>
    <v>       0.00000000       0.00000000      24.49178509 </v>
   </varray>
   <i name="volume">   2567.67623402 </i>
   <varray name="rec_basis" >
    <v>       0.09088776      -0.05247407       0.00000000 </v>
    <v>       0.00000000       0.10494815       0.00000000 </v>
    <v>       0.00000000       0.00000000       0.04083002 </v>
   </varray>
  </crystal>
  <varray name="positions" >
   <v>       0.08285582       0.08704395       0.39969613 </v>
   <v>       0.74884737       0.50176611       0.60531326 </v>
   <v>       0.66640478       0.66666703       0.50057234 </v>
   <v>       0.83382890       0.58011326       0.39772010 </v>
   <v>       0.74907475       0.24771260       0.60412277 </v>
   <v>       0.66592431       0.16668039       0.50071937 </v>
   <v>       0.83079295       0.08515873       0.39863786 </v>
   <v>       0.58431391       0.83483030       0.39613206 </v>
   <v>       0.49972556       0.49952350       0.60463572 </v>
   <v>       0.41638652       0.66683236       0.50021465 </v>
   <v>       0.33529677       0.83361397       0.39613968 </v>
   <v>       0.25123639       0.49793196       0.60415673 </v>
   <v>       0.16562865       0.66829274       0.49934829 </v>
   <v>       0.33644869       0.58024774       0.39662347 </v>
   <v>       0.16680686       0.41426510       0.50006980 </v>
   <v>       0.25029184       0.75204449       0.60317472 </v>
   <v>       0.08217531       0.83383313       0.39574867 </v>
   <v>       0.00046584      -0.00172448       0.59910424 </v>
   <v>       0.00450575       0.24769844       0.60220226 </v>
   <v>       0.08280943       0.58198934       0.39099400 </v>
   <v>       0.91534788       0.66858344       0.49932426 </v>
   <v>       0.00065805       0.50053772       0.60551412 </v>
   <v>       0.33614502       0.32960168       0.39730643 </v>
   <v>       0.74721048       0.75535432       0.60392134 </v>
   <v>       0.58364743       0.08315198       0.40323947 </v>
   <v>       0.83297297       0.83298898       0.40160945 </v>
   <v>       0.91761978       0.16731719       0.50142671 </v>
   <v>       0.25316223       0.24793912       0.59638530 </v>
   <v>       0.08291319       0.33306261       0.40441691 </v>
   <v>       0.91641554       0.41481807       0.50293417 </v>
   <v>       0.66735458       0.41536890       0.50400029 </v>
   <v>       0.83229167       0.33437749       0.40749456 </v>
   <v>       0.74902712      -0.00046202       0.59575768 </v>
   <v>       0.16601888       0.16539125       0.49998436 </v>
   <v>       0.33395924       0.08433415       0.40224870 </v>
   <v>       0.49843101       0.75407984       0.59663986 </v>
   <v>       0.41527960       0.91958625       0.49692939 </v>
   <v>      -0.00091770       0.75075744       0.59642329 </v>
   <v>       0.91578585       0.91890187       0.49833690 </v>
   <v>       0.16592344       0.91870211       0.49837512 </v>
   <v>       0.58500401       0.58034848       0.40418440 </v>
   <v>       0.49945342       0.24697157       0.59670232 </v>
   <v>       0.41699622       0.41514764       0.50089829 </v>
   <v>       0.58510222       0.33379275       0.40555310 </v>
   <v>       0.49798035       0.00157029       0.59381071 </v>
   <v>       0.41493320       0.16607005       0.49861813 </v>
   <v>       0.66439672       0.91765031       0.49889979 </v>
   <v>       0.25306720      -0.00046411       0.59373887 </v>
  </varray>
 </structure>
</modeling>
