unknown system                          
           1
    11.002582    0.000000    0.000000
     5.501291    9.528515    0.000000
     0.000000    0.000000   24.491785
   Au   Pd
  24  24
Direct configuration=     1
   0.08333333  0.08333333  0.40830017
   0.75000000  0.50000000  0.59169983
   0.66666667  0.66666667  0.50000000
   0.83333333  0.58333333  0.40830017
   0.75000000  0.25000000  0.59169983
   0.66666667  0.16666667  0.50000000
   0.83333333  0.08333333  0.40830017
   0.58333333  0.83333333  0.40830017
   0.50000000  0.50000000  0.59169983
   0.41666667  0.66666667  0.50000000
   0.33333333  0.83333333  0.40830017
   0.25000000  0.50000000  0.59169983
   0.16666667  0.66666667  0.50000000
   0.33333333  0.58333333  0.40830017
   0.16666667  0.41666667  0.50000000
   0.25000000  0.75000000  0.59169983
   0.08333333  0.83333333  0.40830017
   0.00000000  0.00000000  0.59169983
   0.00000000  0.25000000  0.59169983
   0.08333333  0.58333333  0.40830017
   0.91666667  0.66666667  0.50000000
   0.00000000  0.50000000  0.59169983
   0.33333333  0.33333333  0.40830017
   0.75000000  0.75000000  0.59169983
   0.58333333  0.08333333  0.40830017
   0.83333333  0.83333333  0.40830017
   0.91666667  0.16666667  0.50000000
   0.25000000  0.25000000  0.59169983
   0.08333333  0.33333333  0.40830017
   0.91666667  0.41666667  0.50000000
   0.66666667  0.41666667  0.50000000
   0.83333333  0.33333333  0.40830017
   0.75000000  0.00000000  0.59169983
   0.16666667  0.16666667  0.50000000
   0.33333333  0.08333333  0.40830017
   0.50000000  0.75000000  0.59169983
   0.41666667  0.91666667  0.50000000
   0.00000000  0.75000000  0.59169983
   0.91666667  0.91666667  0.50000000
   0.16666667  0.91666667  0.50000000
   0.58333333  0.58333333  0.40830017
   0.50000000  0.25000000  0.59169983
   0.41666667  0.41666667  0.50000000
   0.58333333  0.33333333  0.40830017
   0.50000000  0.00000000  0.59169983
   0.41666667  0.16666667  0.50000000
   0.66666667  0.91666667  0.50000000
   0.25000000  0.00000000  0.59169983
Direct configuration=     2
   0.08335929  0.08485896  0.40681507
   0.74956755  0.50011103  0.59361450
   0.66549854  0.66668990  0.49995940
   0.83354376  0.58197741  0.40615090
   0.74942327  0.24943349  0.59352179
   0.66555283  0.16660411  0.49999421
   0.83229151  0.08386678  0.40655082
   0.58303177  0.83474814  0.40643380
   0.50023109  0.49942822  0.59363284
   0.41796369  0.66667482  0.49999746
   0.33382220  0.83397564  0.40640928
   0.25073823  0.49875286  0.59391603
   0.16569873  0.66809001  0.50038175
   0.33520720  0.58197148  0.40607322
   0.16771706  0.41342678  0.50004356
   0.24971547  0.75135900  0.59384784
   0.08226748  0.83401899  0.40635886
   0.00006744 -0.00071913  0.59322364
   0.00158706  0.24916131  0.59323266
   0.08255106  0.58331502  0.40572510
   0.91570986  0.66885038  0.49999484
   0.00054129  0.49958323  0.59393355
   0.33457757  0.33151373  0.40645438
   0.74888028  0.75220776  0.59381914
   0.58297106  0.08325279  0.40747207
   0.83266475  0.83400917  0.40722754
   0.91715319  0.16730349  0.49973162
   0.25128266  0.24873852  0.59260465
   0.08313313  0.33256440  0.40737814
   0.91697059  0.41473485  0.49949143
   0.66724148  0.41600538  0.49931383
   0.83293946  0.33385735  0.40758578
   0.74960078 -0.00021163  0.59260465
   0.16736183  0.16606334  0.50003686
   0.33362500  0.08364127  0.40758645
   0.49920924  0.75161235  0.59284861
   0.41578680  0.91874170  0.50045487
  -0.00068839  0.75090364  0.59292260
   0.91594520  0.91689369  0.50024977
   0.16640761  0.91818260  0.50031173
   0.58398124  0.58189554  0.40710723
   0.49972892  0.24900824  0.59261348
   0.41836335  0.41478825  0.49997823
   0.58375375  0.33360860  0.40738908
   0.49935589  0.00055839  0.59235286
   0.41683234  0.16555954  0.50023833
   0.66585283  0.91824860  0.50007857
   0.25098306  0.00014003  0.59233699
Direct configuration=     3
   0.08343716  0.08943583  0.40235979
   0.74827018  0.50044413  0.59935849
   0.66199415  0.66675962  0.49983762
   0.83417505  0.57790963  0.39970311
   0.74769308  0.24773397  0.59898768
   0.66221133  0.16641644  0.49997682
   0.82916605  0.08546710  0.40130276
   0.58212709  0.83899255  0.40083469
   0.50092436  0.49771289  0.59943187
   0.42185477  0.66669928  0.49998986
   0.33528882  0.83590254  0.40073660
   0.25295294  0.49501145  0.60056463
   0.16279490  0.67236003  0.50152701
   0.34082880  0.57788593  0.39939238
   0.17086825  0.40370712  0.50017426
   0.24886190  0.75543599  0.60029186
   0.07906993  0.83607596  0.40053493
   0.00026974 -0.00287652  0.59779507
   0.00634825  0.24664524  0.59783113
   0.08020426  0.58326006  0.39799987
   0.91283943  0.67540153  0.49997937
   0.00216515  0.49833293  0.60063472
   0.33831026  0.32605491  0.40091701
   0.74552111  0.75883103  0.60017708
   0.58188425  0.08301117  0.40498779
   0.83065902  0.83603668  0.40400965
   0.91861274  0.16921398  0.49892648
   0.25513063  0.24495407  0.59531911
   0.08253251  0.33025762  0.40461204
   0.91788236  0.40893939  0.49796570
   0.66896591  0.41402151  0.49725533
   0.83175783  0.33542940  0.40544262
   0.74840312 -0.00084652  0.59531911
   0.16944732  0.16425338  0.50014742
   0.33450000  0.08456507  0.40544527
   0.49683698  0.75644939  0.59629494
   0.41314718  0.92496679  0.50181948
  -0.00275355  0.75361454  0.59659092
   0.91378080  0.91757475  0.50099907
   0.16563042  0.92273040  0.50124693
   0.58592496  0.57758218  0.40352840
   0.49891569  0.24603295  0.59535441
   0.42345340  0.40915301  0.49991291
   0.58501499  0.33443439  0.40465581
   0.49742357  0.00223354  0.59431194
   0.41732935  0.16223817  0.50095333
   0.66341132  0.92299440  0.50031429
   0.25393225  0.00056012  0.59424845
Direct configuration=     4
   0.08324941  0.08797523  0.40091429
   0.74881247  0.50092928  0.60062666
   0.66559540  0.66746325  0.49978533
   0.83318335  0.57955526  0.39823596
   0.74861583  0.24700135  0.60021908
   0.66523319  0.16613816  0.50002305
   0.82909512  0.08607435  0.39997543
   0.58323377  0.83712197  0.39945041
   0.50003104  0.49871008  0.60083721
   0.41777313  0.66721397  0.50001613
   0.33497185  0.83526209  0.39943528
   0.25250512  0.49598785  0.60198050
   0.16612784  0.66955390  0.50129970
   0.33832058  0.57909093  0.39807657
   0.16936850  0.40840510  0.50000208
   0.25019335  0.75370810  0.60195799
   0.08057099  0.83556227  0.39925813
  -0.00083512 -0.00094224  0.59912943
   0.00570736  0.24650047  0.59912313
   0.08172522  0.58228647  0.39637827
   0.91271522  0.67155863  0.49995227
   0.00113707  0.49953906  0.60194731
   0.33722854  0.32766956  0.39934089
   0.74568538  0.75720238  0.60182721
   0.58240033  0.08344864  0.40400035
   0.83036575  0.83538826  0.40304780
   0.91806143  0.16742840  0.49931211
   0.25509646  0.24525851  0.59665310
   0.08333317  0.33146140  0.40346114
   0.91730173  0.41180990  0.49873018
   0.66938226  0.41294092  0.49823262
   0.83188455  0.33410753  0.40395501
   0.74799073  0.00036993  0.59638353
   0.16843197  0.16319545  0.50014899
   0.33428946  0.08460257  0.40464531
   0.49739566  0.75581237  0.59739415
   0.41431506  0.92300587  0.50101818
  -0.00195570  0.75185927  0.59790546
   0.91351084  0.92113008  0.50063314
   0.16570788  0.92186826  0.50076902
   0.58581699  0.57934391  0.40218650
   0.49926085  0.24558776  0.59643459
   0.42010946  0.41212950  0.49998165
   0.58564315  0.33292528  0.40344452
   0.49782019  0.00228325  0.59565170
   0.41724249  0.16297503  0.50057982
   0.66298078  0.92076494  0.50015263
   0.25336991  0.00073547  0.59548622
Direct configuration=     5
   0.08316888  0.08734868  0.40029422
   0.74904510  0.50113739  0.60117066
   0.66714022  0.66776509  0.49976290
   0.83275795  0.58026117  0.39760660
   0.74901166  0.24668708  0.60074731
   0.66652946  0.16601878  0.50004288
   0.82906469  0.08633484  0.39940604
   0.58370849  0.83631956  0.39885660
   0.49964784  0.49913784  0.60144006
   0.41602224  0.66743476  0.50002740
   0.33483588  0.83498735  0.39887706
   0.25231302  0.49640670  0.60258785
   0.16755755  0.66835016  0.50120219
   0.33724463  0.57960783  0.39751213
   0.16872516  0.41042038  0.49992823
   0.25076450  0.75296690  0.60267270
   0.08121490  0.83534192  0.39871042
  -0.00130907 -0.00011250  0.59970182
   0.00543244  0.24643837  0.59967735
   0.08237766  0.58186884  0.39568266
   0.91266194  0.66991016  0.49994064
   0.00069606  0.50005645  0.60251036
   0.33676452  0.32836219  0.39866479
   0.74575585  0.75650375  0.60253506
   0.58262172  0.08363630  0.40357678
   0.83023994  0.83511011  0.40263520
   0.91782493  0.16666246  0.49947753
   0.25508181  0.24538910  0.59722534
   0.08367663  0.33197779  0.40296745
   0.91705266  0.41304125  0.49905811
   0.66956086  0.41247739  0.49865184
   0.83193890  0.33354050  0.40331688
   0.74781384  0.00089174  0.59684012
   0.16799642  0.16274164  0.50014966
   0.33419914  0.08461866  0.40430215
   0.49763532  0.75553911  0.59786567
   0.41481603  0.92216470  0.50067445
  -0.00161345  0.75110632  0.59846935
   0.91339504  0.92265520  0.50047617
   0.16574111  0.92149843  0.50056402
   0.58577068  0.58009963  0.40161087
   0.49940891  0.24539679  0.59689795
   0.41867502  0.41340631  0.50001114
   0.58591261  0.33227793  0.40292492
   0.49799033  0.00230457  0.59622642
   0.41720523  0.16329111  0.50041960
   0.66279609  0.91980858  0.50008328
   0.25312868  0.00081069  0.59601717
Direct configuration=     6
   0.08301083  0.08685701  0.39985076
   0.74904536  0.50095116  0.60143452
   0.66594733  0.66711977  0.49977093
   0.83309843  0.58057183  0.39716908
   0.74861038  0.24816176  0.60118105
   0.66590690  0.16672794  0.50009765
   0.83014805  0.08526308  0.39887432
   0.58357304  0.83553116  0.39835013
   0.50018820  0.49911691  0.60173522
   0.41717117  0.66719245  0.49995747
   0.33495896  0.83425895  0.39854234
   0.25172126  0.49698844  0.60298563
   0.16599985  0.66823716  0.50105537
   0.33643135  0.58028089  0.39721889
   0.16777168  0.41247712  0.49994977
   0.25034216  0.75277514  0.60317165
   0.08154631  0.83465464  0.39848996
  -0.00037435 -0.00099730  0.60008973
   0.00449985  0.24756764  0.60002223
   0.08257091  0.58235738  0.39524883
   0.91518191  0.66901042  0.49995775
   0.00059766  0.50009797  0.60279280
   0.33630060  0.32934386  0.39819720
   0.74645203  0.75561243  0.60306593
   0.58274674  0.08376371  0.40337120
   0.83150865  0.83423926  0.40258099
   0.91791924  0.16690530  0.49962612
   0.25397133  0.24669667  0.59748952
   0.08356389  0.33254449  0.40281491
   0.91709783  0.41360993  0.49946900
   0.66858333  0.41416932  0.49937307
   0.83234021  0.33352955  0.40298127
   0.74811614  0.00027511  0.59706902
   0.16690753  0.16415224  0.50014901
   0.33420309  0.08435852  0.40404764
   0.49821067  0.75453479  0.59790979
   0.41562207  0.91996140  0.50013551
  -0.00113444  0.75079193  0.59841108
   0.91508895  0.92046005  0.50022467
   0.16581698  0.92001190  0.50035819
   0.58499236  0.58090385  0.40162817
   0.49960381  0.24609940  0.59709720
   0.41798257  0.41399289  0.50000987
   0.58499376  0.33290393  0.40271301
   0.49834974  0.00190501  0.59668902
   0.41658498  0.16488348  0.50016700
   0.66353033  0.91887434  0.50007455
   0.25270032  0.00027512  0.59640094
Direct configuration=     7
   0.08297271  0.08673842  0.39974380
   0.74904542  0.50090624  0.60149816
   0.66565960  0.66696411  0.49977287
   0.83318056  0.58064677  0.39706355
   0.74851359  0.24851747  0.60128567
   0.66575673  0.16689900  0.50011086
   0.83040937  0.08500456  0.39874606
   0.58354037  0.83534099  0.39822796
   0.50031854  0.49911186  0.60180641
   0.41744830  0.66713400  0.49994060
   0.33498865  0.83408326  0.39846160
   0.25157852  0.49712876  0.60308158
   0.16562412  0.66820991  0.50101996
   0.33623518  0.58044324  0.39714816
   0.16754170  0.41297322  0.49995497
   0.25024028  0.75272889  0.60329200
   0.08162625  0.83448886  0.39843678
  -0.00014889 -0.00121073  0.60018330
   0.00427491  0.24784003  0.60010542
   0.08261753  0.58247522  0.39514418
   0.91578975  0.66879339  0.49996188
   0.00057393  0.50010799  0.60286093
   0.33618870  0.32958065  0.39808441
   0.74661996  0.75539744  0.60319398
   0.58277689  0.08379445  0.40332161
   0.83181468  0.83402920  0.40256791
   0.91794199  0.16696387  0.49966197
   0.25370347  0.24701207  0.59755325
   0.08353670  0.33268119  0.40277812
   0.91710872  0.41374711  0.49956812
   0.66834754  0.41457743  0.49954703
   0.83243701  0.33352691  0.40290032
   0.74818906  0.00012637  0.59712424
   0.16664488  0.16449249  0.50014886
   0.33420404  0.08429577  0.40398625
   0.49834945  0.75429253  0.59792043
   0.41581649  0.91942994  0.50000552
  -0.00101889  0.75071610  0.59839702
   0.91549754  0.91993055  0.50016401
   0.16583528  0.91965333  0.50030855
   0.58480463  0.58109784  0.40163235
   0.49965083  0.24626887  0.59714527
   0.41781555  0.41413437  0.50000957
   0.58477212  0.33305493  0.40266189
   0.49843644  0.00180863  0.59680060
   0.41643537  0.16526758  0.50010608
   0.66370744  0.91864899  0.50007245
   0.25259700  0.00014593  0.59649351
Direct configuration=     8
   0.08315879  0.08675649  0.39966557
   0.74906458  0.50108929  0.60166239
   0.66619638  0.66651682  0.49975658
   0.83346615  0.58051492  0.39697675
   0.74876723  0.24842575  0.60146831
   0.66568421  0.16688742  0.50012507
   0.83055713  0.08473359  0.39859858
   0.58363048  0.83541563  0.39800471
   0.49997381  0.49940216  0.60190670
   0.41720728  0.66675501  0.49995184
   0.33477214  0.83403956  0.39829397
   0.25161652  0.49736266  0.60327998
   0.16596802  0.66835592  0.50096120
   0.33628094  0.58065170  0.39708793
   0.16761141  0.41275101  0.49996748
   0.25027007  0.75234619  0.60343349
   0.08181477  0.83419295  0.39831548
  -0.00009054 -0.00134916  0.60022641
   0.00404978  0.24798932  0.60022395
   0.08249530  0.58268881  0.39480765
   0.91533031  0.66905713  0.49996536
   0.00054351  0.50016718  0.60300389
   0.33605508  0.32961954  0.39791885
   0.74704684  0.75505652  0.60335586
   0.58291717  0.08353526  0.40337904
   0.83216579  0.83371120  0.40266490
   0.91783611  0.16729946  0.49971421
   0.25335500  0.24736736  0.59743764
   0.08338553  0.33263962  0.40289685
   0.91682863  0.41398055  0.49967718
   0.66804855  0.41503818  0.49980519
   0.83233242  0.33394088  0.40307900
   0.74856006 -0.00013635  0.59701302
   0.16671020  0.16487456  0.50021051
   0.33419251  0.08422742  0.40398079
   0.49839875  0.75405712  0.59781592
   0.41547247  0.91967497  0.49981666
  -0.00101190  0.75086714  0.59825398
   0.91566518  0.91920398  0.50007130
   0.16609023  0.91911146  0.50023378
   0.58470519  0.58077809  0.40181263
   0.49959888  0.24668760  0.59710710
   0.41771211  0.41456453  0.50000289
   0.58466184  0.33353900  0.40281280
   0.49818708  0.00176093  0.59673801
   0.41581846  0.16559008  0.50005288
   0.66427500  0.91822788  0.50009798
   0.25262458  0.00003265  0.59636775
Direct configuration=     9
   0.08326005  0.08676632  0.39962300
   0.74907501  0.50118890  0.60175175
   0.66648849  0.66627341  0.49974772
   0.83362157  0.58044317  0.39692951
   0.74890526  0.24837584  0.60156771
   0.66564475  0.16688113  0.50013280
   0.83063754  0.08458613  0.39851833
   0.58367951  0.83545624  0.39788321
   0.49978621  0.49956013  0.60196128
   0.41707613  0.66654876  0.49995795
   0.33465432  0.83401578  0.39820275
   0.25163720  0.49748995  0.60338794
   0.16615516  0.66843537  0.50092923
   0.33630584  0.58076515  0.39705515
   0.16764935  0.41263008  0.49997429
   0.25028628  0.75213794  0.60351050
   0.08191736  0.83403192  0.39824947
  -0.00005878 -0.00142449  0.60024986
   0.00392727  0.24807056  0.60028845
   0.08242878  0.58280504  0.39462451
   0.91508028  0.66920066  0.49996725
   0.00052695  0.50019938  0.60308168
   0.33598237  0.32964071  0.39782875
   0.74727914  0.75487100  0.60344395
   0.58299350  0.08339422  0.40341029
   0.83235686  0.83353815  0.40271768
   0.91777850  0.16748208  0.49974264
   0.25316537  0.24756070  0.59737472
   0.08330326  0.33261699  0.40296146
   0.91667621  0.41410758  0.49973653
   0.66788584  0.41528892  0.49994568
   0.83227551  0.33416616  0.40317624
   0.74876194 -0.00027931  0.59695249
   0.16674574  0.16508247  0.50024406
   0.33418624  0.08419023  0.40397781
   0.49842557  0.75392900  0.59775905
   0.41528525  0.91980831  0.49971389
  -0.00100809  0.75094934  0.59817614
   0.91575641  0.91880859  0.50002085
   0.16622897  0.91881658  0.50019309
   0.58465108  0.58060408  0.40191075
   0.49957062  0.24691547  0.59708633
   0.41765582  0.41479862  0.49999926
   0.58460182  0.33380243  0.40289493
   0.49805138  0.00173498  0.59670395
   0.41548274  0.16576558  0.50002393
   0.66458386  0.91799872  0.50011187
   0.25263959 -0.00002899  0.59629931
Direct configuration=    10
   0.08324418  0.08685178  0.39962758
   0.74894965  0.50135017  0.60199825
   0.66644336  0.66636662  0.49968632
   0.83364933  0.58042429  0.39684414
   0.74903203  0.24820528  0.60174855
   0.66571035  0.16676604  0.50013069
   0.83063075  0.08467965  0.39844925
   0.58378537  0.83540019  0.39768194
   0.49984285  0.49959565  0.60212575
   0.41710790  0.66654597  0.49998511
   0.33467886  0.83409513  0.39802133
   0.25149792  0.49761112  0.60360751
   0.16624822  0.66817743  0.50085741
   0.33630330  0.58071726  0.39695137
   0.16745358  0.41299672  0.49996073
   0.25027922  0.75207096  0.60368553
   0.08195315  0.83403646  0.39807845
   0.00006359 -0.00145893  0.60019988
   0.00389821  0.24796862  0.60042906
   0.08251207  0.58263935  0.39422052
   0.91517009  0.66888782  0.49997345
   0.00069112  0.50026935  0.60324508
   0.33597306  0.32959198  0.39768674
   0.74733774  0.75489585  0.60363178
   0.58311833  0.08325943  0.40355837
   0.83244147  0.83337636  0.40276951
   0.91772919  0.16750593  0.49976880
   0.25303285  0.24773459  0.59723506
   0.08321604  0.33261112  0.40314024
   0.91654060  0.41422399  0.49987749
   0.66779454  0.41526671  0.50027597
   0.83215009  0.33434159  0.40350778
   0.74883475 -0.00030492  0.59675997
   0.16663839  0.16504621  0.50031936
   0.33420921  0.08414685  0.40395614
   0.49842168  0.75394673  0.59754644
   0.41520092  0.91991281  0.49950394
  -0.00095647  0.75097278  0.59800617
   0.91573760  0.91883983  0.49989752
   0.16623780  0.91892733  0.50011153
   0.58476222  0.58051451  0.40215123
   0.49960130  0.24704506  0.59695665
   0.41759118  0.41484431  0.49998764
   0.58477076  0.33381215  0.40317602
   0.49792554  0.00173853  0.59647800
   0.41549555  0.16564477  0.49998839
   0.66439553  0.91802496  0.50015806
   0.25265505 -0.00011638  0.59604332
Direct configuration=    11
   0.08321068  0.08703207  0.39963724
   0.74868519  0.50169038  0.60251827
   0.66634816  0.66656327  0.49955677
   0.83370791  0.58038446  0.39666404
   0.74929949  0.24784548  0.60213005
   0.66584876  0.16652326  0.50012622
   0.83061642  0.08487693  0.39830354
   0.58400869  0.83528194  0.39725731
   0.49996233  0.49967059  0.60247272
   0.41717493  0.66654009  0.50004240
   0.33473063  0.83426253  0.39763861
   0.25120410  0.49786674  0.60407071
   0.16644453  0.66763327  0.50070589
   0.33629794  0.58061625  0.39673243
   0.16704058  0.41377021  0.49993211
   0.25026434  0.75192965  0.60405478
   0.08202866  0.83404604  0.39771765
   0.00032175 -0.00153159  0.60009444
   0.00383689  0.24775355  0.60072569
   0.08268778  0.58228981  0.39336824
   0.91535955  0.66822783  0.49998651
   0.00103747  0.50041695  0.60358978
   0.33595342  0.32948919  0.39738717
   0.74746136  0.75494827  0.60402804
   0.58338169  0.08297505  0.40387077
   0.83261997  0.83303504  0.40287887
   0.91762515  0.16755626  0.49982400
   0.25275329  0.24810142  0.59694042
   0.08303205  0.33259872  0.40351741
   0.91625450  0.41446957  0.50017487
   0.66760193  0.41521987  0.50097277
   0.83188550  0.33471169  0.40420722
   0.74898833 -0.00035895  0.59635382
   0.16641193  0.16496971  0.50047819
   0.33425768  0.08405533  0.40391043
   0.49841347  0.75398412  0.59709791
   0.41502300  0.92013328  0.49906101
  -0.00084757  0.75102223  0.59764760
   0.91569793  0.91890573  0.49963734
   0.16625643  0.91916096  0.49993947
   0.58499669  0.58032556  0.40265856
   0.49966602  0.24731843  0.59668309
   0.41745479  0.41494068  0.49996313
   0.58512715  0.33383267  0.40376902
   0.49766004  0.00174601  0.59600132
   0.41552259  0.16538991  0.49991340
   0.66399820  0.91808029  0.50025550
   0.25268766 -0.00030074  0.59550328
Direct configuration=    12
   0.08319603  0.08711093  0.39964146
   0.74856951  0.50183920  0.60274574
   0.66630652  0.66664929  0.49950010
   0.83373353  0.58036704  0.39658526
   0.74941648  0.24768809  0.60229693
   0.66590930  0.16641706  0.50012427
   0.83061015  0.08496322  0.39823980
   0.58410637  0.83523022  0.39707158
   0.50001460  0.49970336  0.60262449
   0.41720425  0.66653751  0.50006746
   0.33475327  0.83433576  0.39747120
   0.25107558  0.49797855  0.60427332
   0.16653040  0.66739524  0.50063961
   0.33629560  0.58057206  0.39663666
   0.16685992  0.41410855  0.49991960
   0.25025783  0.75186784  0.60421630
   0.08206169  0.83405024  0.39755983
   0.00043467 -0.00156337  0.60004831
   0.00381007  0.24765948  0.60085545
   0.08276464  0.58213691  0.39299543
   0.91544243  0.66793914  0.49999223
   0.00118896  0.50048152  0.60374056
   0.33594482  0.32944423  0.39725613
   0.74751544  0.75497121  0.60420138
   0.58349689  0.08285066  0.40400742
   0.83269804  0.83288574  0.40292670
   0.91757964  0.16757827  0.49984814
   0.25263100  0.24826188  0.59681153
   0.08295156  0.33259330  0.40368239
   0.91612935  0.41457699  0.50030495
   0.66751768  0.41519938  0.50127756
   0.83176977  0.33487358  0.40451317
   0.74905552 -0.00038259  0.59617616
   0.16631286  0.16493624  0.50054767
   0.33427888  0.08401530  0.40389044
   0.49840988  0.75400048  0.59690171
   0.41494518  0.92022971  0.49886727
  -0.00079993  0.75104386  0.59749076
   0.91568058  0.91893456  0.49952353
   0.16626459  0.91926315  0.49986421
   0.58509925  0.58024290  0.40288048
   0.49969433  0.24743801  0.59656343
   0.41739513  0.41498284  0.49995241
   0.58528305  0.33384164  0.40402841
   0.49754391  0.00174929  0.59579280
   0.41553442  0.16527842  0.49988061
   0.66382440  0.91810450  0.50029812
   0.25270192 -0.00038138  0.59526706
Direct configuration=    13
   0.08305691  0.08714726  0.39966286
   0.74875124  0.50184034  0.60299767
   0.66622422  0.66685296  0.49949819
   0.83375220  0.58040050  0.39651885
   0.74936899  0.24767434  0.60246930
   0.66597474  0.16643372  0.50015421
   0.83067368  0.08498350  0.39821289
   0.58415356  0.83513755  0.39688626
   0.50001032  0.49960602  0.60279764
   0.41696512  0.66677013  0.50007817
   0.33491260  0.83419756  0.39730724
   0.25126633  0.49792569  0.60446167
   0.16643682  0.66763037  0.50054670
   0.33631129  0.58052152  0.39655460
   0.16700236  0.41393394  0.49987821
   0.25030993  0.75188993  0.60433000
   0.08205970  0.83405472  0.39740427
   0.00053901 -0.00168297  0.59995481
   0.00379250  0.24783137  0.60098648
   0.08283045  0.58201110  0.39259810
   0.91533819  0.66806230  0.49996939
   0.00104993  0.50045405  0.60392081
   0.33612237  0.32928642  0.39718053
   0.74739317  0.75511207  0.60434401
   0.58353139  0.08286379  0.40409103
   0.83280645  0.83279707  0.40294386
   0.91753581  0.16748408  0.49992071
   0.25267810  0.24827249  0.59670311
   0.08296204  0.33265605  0.40384537
   0.91608934  0.41456636  0.50054925
   0.66755155  0.41509063  0.50168152
   0.83179213  0.33481390  0.40487350
   0.74901191 -0.00036674  0.59604251
   0.16607592  0.16522404  0.50054913
   0.33427211  0.08410435  0.40382875
   0.49840344  0.75410834  0.59671359
   0.41503592  0.92002714  0.49861574
  -0.00081622  0.75109262  0.59732542
   0.91585456  0.91886423  0.49937319
   0.16620625  0.91909675  0.49973552
   0.58502698  0.58040499  0.40307766
   0.49960259  0.24747217  0.59643883
   0.41735200  0.41479517  0.49998344
   0.58523907  0.33376797  0.40427164
   0.49753827  0.00180576  0.59558142
   0.41534808  0.16556974  0.49978963
   0.66387066  0.91786830  0.50028240
   0.25273603 -0.00045357  0.59506993
Direct configuration=    14
   0.08288859  0.08719122  0.39968876
   0.74897112  0.50184172  0.60330248
   0.66612463  0.66709938  0.49949588
   0.83377478  0.58044098  0.39643851
   0.74931152  0.24765770  0.60267786
   0.66605391  0.16645388  0.50019043
   0.83075054  0.08500803  0.39818033
   0.58421064  0.83502542  0.39666204
   0.50000515  0.49948825  0.60300715
   0.41667578  0.66705158  0.50009112
   0.33510537  0.83403035  0.39710886
   0.25149712  0.49786173  0.60468956
   0.16632360  0.66791486  0.50043430
   0.33633027  0.58046036  0.39645531
   0.16717469  0.41372267  0.49982814
   0.25037298  0.75191665  0.60446758
   0.08205729  0.83406015  0.39721606
   0.00066526 -0.00182767  0.59984169
   0.00377124  0.24803935  0.60114502
   0.08291008  0.58185889  0.39211736
   0.91521207  0.66821132  0.49994175
   0.00088171  0.50042081  0.60413891
   0.33633720  0.32909548  0.39708907
   0.74724524  0.75528251  0.60451659
   0.58357314  0.08287967  0.40419220
   0.83293761  0.83268978  0.40296461
   0.91748277  0.16737011  0.50000851
   0.25273509  0.24828532  0.59657193
   0.08297471  0.33273199  0.40404256
   0.91604093  0.41455349  0.50084484
   0.66759253  0.41495905  0.50217029
   0.83181920  0.33474168  0.40530948
   0.74895914 -0.00034756  0.59588080
   0.16578924  0.16557225  0.50055089
   0.33426392  0.08421209  0.40375411
   0.49839564  0.75423884  0.59648596
   0.41514571  0.91978204  0.49831141
  -0.00083592  0.75115162  0.59712536
   0.91606506  0.91877915  0.49919128
   0.16613567  0.91889541  0.49957981
   0.58493954  0.58060110  0.40331624
   0.49949159  0.24751351  0.59628807
   0.41729981  0.41456811  0.50002098
   0.58518585  0.33367884  0.40456594
   0.49753145  0.00187409  0.59532566
   0.41512263  0.16592221  0.49967955
   0.66392663  0.91758251  0.50026338
   0.25277730 -0.00054092  0.59483141
Direct configuration=    15
   0.08283937  0.08720408  0.39969633
   0.74903541  0.50184213  0.60339161
   0.66609551  0.66717144  0.49949520
   0.83378138  0.58045281  0.39641501
   0.74929472  0.24765284  0.60273885
   0.66607706  0.16645978  0.50020102
   0.83077302  0.08501520  0.39817081
   0.58422734  0.83499264  0.39659647
   0.50000364  0.49945381  0.60306841
   0.41659117  0.66713388  0.50009491
   0.33516174  0.83398146  0.39705085
   0.25156461  0.49784303  0.60475619
   0.16629049  0.66799805  0.50040143
   0.33633582  0.58044248  0.39642627
   0.16722509  0.41366089  0.49981350
   0.25039141  0.75192447  0.60450780
   0.08205659  0.83406173  0.39716102
   0.00070218 -0.00186998  0.59980861
   0.00376502  0.24810017  0.60119137
   0.08293336  0.58181438  0.39197679
   0.91517519  0.66825489  0.49993367
   0.00083252  0.50041110  0.60420268
   0.33640002  0.32903964  0.39706233
   0.74720198  0.75533234  0.60456705
   0.58358535  0.08288431  0.40422178
   0.83297596  0.83265841  0.40297068
   0.91746726  0.16733679  0.50003418
   0.25275175  0.24828908  0.59653357
   0.08297842  0.33275419  0.40410022
   0.91602678  0.41454973  0.50093127
   0.66760452  0.41492057  0.50231321
   0.83182711  0.33472056  0.40543696
   0.74894372 -0.00034196  0.59583352
   0.16570541  0.16567407  0.50055141
   0.33426153  0.08424359  0.40373228
   0.49839336  0.75427700  0.59641941
   0.41517782  0.91971037  0.49822242
  -0.00084168  0.75116887  0.59706687
   0.91612661  0.91875427  0.49913809
   0.16611503  0.91883654  0.49953428
   0.58491397  0.58065845  0.40338601
   0.49945913  0.24752560  0.59624399
   0.41728455  0.41450172  0.50003196
   0.58517029  0.33365278  0.40465200
   0.49752946  0.00189408  0.59525087
   0.41505670  0.16602527  0.49964736
   0.66394299  0.91749895  0.50025781
   0.25278937 -0.00056646  0.59476167
Direct configuration=    16
   0.08291352  0.08709385  0.39972315
   0.74905356  0.50182927  0.60356138
   0.66621860  0.66692117  0.49957870
   0.83385326  0.58036940  0.39644304
   0.74926926  0.24769530  0.60285548
   0.66619386  0.16631701  0.50027554
   0.83075568  0.08493617  0.39819276
   0.58422691  0.83505809  0.39649126
   0.50002327  0.49947757  0.60317435
   0.41643105  0.66700190  0.50010505
   0.33513952  0.83389408  0.39694886
   0.25156889  0.49781104  0.60478677
   0.16617637  0.66807936  0.50031073
   0.33634985  0.58039602  0.39642172
   0.16718749  0.41378846  0.49980786
   0.25051857  0.75191260  0.60448728
   0.08212442  0.83394912  0.39703798
   0.00062173 -0.00177919  0.59970290
   0.00387950  0.24808280  0.60127502
   0.08299048  0.58181774  0.39176892
   0.91530150  0.66832930  0.49989633
   0.00075985  0.50052660  0.60432576
   0.33650366  0.32906378  0.39704851
   0.74708194  0.75544691  0.60460095
   0.58363916  0.08284594  0.40418438
   0.83299800  0.83271993  0.40289303
   0.91756261  0.16716919  0.50019307
   0.25287973  0.24819115  0.59654530
   0.08300489  0.33285700  0.40412358
   0.91598410  0.41467506  0.50119048
   0.66747874  0.41516622  0.50258331
   0.83188239  0.33464668  0.40568938
   0.74888361 -0.00029672  0.59582829
   0.16564709  0.16564957  0.50047941
   0.33415867  0.08428707  0.40364079
   0.49849541  0.75419660  0.59637881
   0.41510742  0.91975443  0.49802092
  -0.00083445  0.75100618  0.59699515
   0.91614473  0.91874233  0.49901750
   0.16602384  0.91880602  0.49939239
   0.58484944  0.58067936  0.40347947
   0.49937543  0.24737037  0.59622997
   0.41716331  0.41466120  0.50010908
   0.58500862  0.33370965  0.40474152
   0.49757685  0.00198159  0.59512262
   0.41500100  0.16609857  0.49951332
   0.66407627  0.91750449  0.50014329
   0.25275042 -0.00044025  0.59468464
Direct configuration=    17
   0.08300117  0.08696355  0.39975486
   0.74907502  0.50181408  0.60376206
   0.66636409  0.66662535  0.49967739
   0.83393822  0.58027080  0.39647618