  48  48   0   0
  0.5349325E+02  0.1100258E-08  0.1100258E-08  0.2449179E-08  0.3500000E-15
  1.000000000000000E-004
  CAR 
 unknown system                          
      6.36431834     -9.64612117  301     -1.09087361      1.00000000
     -9.646  0.0000E+00  0.0000E+00
     -9.593  0.0000E+00  0.0000E+00
     -9.539  0.0000E+00  0.0000E+00
     -9.486  0.0000E+00  0.0000E+00
     -9.433  0.0000E+00  0.0000E+00
     -9.379  0.0000E+00  0.0000E+00
     -9.326  0.0000E+00  0.0000E+00
     -9.273  0.0000E+00  0.0000E+00
     -9.219  0.4854E-17  0.2591E-18
     -9.166  0.1875E-14  0.1003E-15
     -9.112  0.4200E-12  0.2251E-13
     -9.059  0.5397E-10  0.2903E-11
     -9.006  0.3987E-08  0.2157E-09
     -8.952  0.1696E-06  0.9267E-08
     -8.899  0.4164E-05  0.2315E-06
     -8.846  0.5914E-04  0.3388E-05
     -8.792  0.4870E-03  0.2938E-04
     -8.739  0.2330E-02  0.1537E-03
     -8.685  0.6495E-02  0.5003E-03
     -8.632  0.1062E-01  0.1067E-02
     -8.579  0.1064E-01  0.1635E-02
     -8.525  0.8312E-02  0.2079E-02
     -8.472  0.8683E-02  0.2542E-02
     -8.419  0.1059E-01  0.3107E-02
     -8.365  0.9328E-02  0.3605E-02
     -8.312  0.5221E-02  0.3884E-02
     -8.259  0.2034E-02  0.3992E-02
     -8.205  0.1435E-02  0.4069E-02
     -8.152  0.2741E-02  0.4215E-02
     -8.098  0.4485E-02  0.4454E-02
     -8.045  0.6303E-02  0.4791E-02
     -7.992  0.9794E-02  0.5313E-02
     -7.938  0.1533E-01  0.6131E-02
     -7.885  0.2069E-01  0.7235E-02
     -7.832  0.2315E-01  0.8471E-02
     -7.778  0.2196E-01  0.9642E-02
     -7.725  0.1914E-01  0.1066E-01
     -7.672  0.1714E-01  0.1158E-01
     -7.618  0.1760E-01  0.1252E-01
     -7.565  0.1948E-01  0.1356E-01
     -7.511  0.1919E-01  0.1458E-01
     -7.458  0.1543E-01  0.1541E-01
     -7.405  0.1094E-01  0.1599E-01
     -7.351  0.9289E-02  0.1649E-01
     -7.298  0.1217E-01  0.1713E-01
     -7.245  0.1867E-01  0.1813E-01
     -7.191  0.2529E-01  0.1948E-01
     -7.138  0.2975E-01  0.2107E-01
     -7.084  0.3336E-01  0.2285E-01
     -7.031  0.3827E-01  0.2489E-01
     -6.978  0.4612E-01  0.2735E-01
     -6.924  0.5723E-01  0.3041E-01
     -6.871  0.6737E-01  0.3400E-01
     -6.818  0.7268E-01  0.3788E-01
     -6.764  0.7572E-01  0.4192E-01
     -6.711  0.8048E-01  0.4622E-01
     -6.658  0.8727E-01  0.5088E-01
     -6.604  0.9318E-01  0.5585E-01
     -6.551  0.9585E-01  0.6096E-01
     -6.497  0.9820E-01  0.6620E-01
     -6.444  0.1060E+00  0.7186E-01
     -6.391  0.1186E+00  0.7819E-01
     -6.337  0.1284E+00  0.8504E-01
     -6.284  0.1319E+00  0.9208E-01
     -6.231  0.1333E+00  0.9919E-01
     -6.177  0.1371E+00  0.1065E+00
     -6.124  0.1416E+00  0.1141E+00
     -6.070  0.1457E+00  0.1218E+00
     -6.017  0.1523E+00  0.1300E+00
     -5.964  0.1606E+00  0.1385E+00
     -5.910  0.1653E+00  0.1474E+00
     -5.857  0.1641E+00  0.1561E+00
     -5.804  0.1590E+00  0.1646E+00
     -5.750  0.1525E+00  0.1728E+00
     -5.697  0.1488E+00  0.1807E+00
     -5.644  0.1490E+00  0.1886E+00
     -5.590  0.1483E+00  0.1966E+00
     -5.537  0.1456E+00  0.2043E+00
     -5.483  0.1460E+00  0.2121E+00
     -5.430  0.1522E+00  0.2202E+00
     -5.377  0.1585E+00  0.2287E+00
     -5.323  0.1595E+00  0.2372E+00
     -5.270  0.1586E+00  0.2457E+00
     -5.217  0.1593E+00  0.2542E+00
     -5.163  0.1606E+00  0.2627E+00
     -5.110  0.1608E+00  0.2713E+00
     -5.056  0.1593E+00  0.2798E+00
     -5.003  0.1586E+00  0.2883E+00
     -4.950  0.1637E+00  0.2970E+00
     -4.896  0.1738E+00  0.3063E+00
     -4.843  0.1822E+00  0.3160E+00
     -4.790  0.1845E+00  0.3259E+00
     -4.736  0.1809E+00  0.3355E+00
     -4.683  0.1755E+00  0.3449E+00
     -4.630  0.1728E+00  0.3541E+00
     -4.576  0.1737E+00  0.3634E+00
     -4.523  0.1771E+00  0.3728E+00
     -4.469  0.1805E+00  0.3825E+00
     -4.416  0.1819E+00  0.3922E+00
     -4.363  0.1832E+00  0.4020E+00
     -4.309  0.1849E+00  0.4118E+00
     -4.256  0.1857E+00  0.4217E+00
     -4.203  0.1849E+00  0.4316E+00
     -4.149  0.1826E+00  0.4413E+00
     -4.096  0.1812E+00  0.4510E+00
     -4.042  0.1826E+00  0.4608E+00
     -3.989  0.1847E+00  0.4706E+00
     -3.936  0.1841E+00  0.4804E+00
     -3.882  0.1826E+00  0.4902E+00
     -3.829  0.1848E+00  0.5000E+00
     -3.776  0.1903E+00  0.5102E+00
     -3.722  0.1957E+00  0.5206E+00
     -3.669  0.1997E+00  0.5313E+00
     -3.616  0.2041E+00  0.5422E+00
     -3.562  0.2108E+00  0.5534E+00
     -3.509  0.2172E+00  0.5650E+00
     -3.455  0.2181E+00  0.5767E+00
     -3.402  0.2129E+00  0.5880E+00
     -3.349  0.2043E+00  0.5989E+00
     -3.295  0.1944E+00  0.6093E+00
     -3.242  0.1849E+00  0.6192E+00
     -3.189  0.1782E+00  0.6287E+00
     -3.135  0.1764E+00  0.6381E+00
     -3.082  0.1785E+00  0.6476E+00
     -3.028  0.1815E+00  0.6573E+00
     -2.975  0.1835E+00  0.6671E+00
     -2.922  0.1821E+00  0.6768E+00
     -2.868  0.1783E+00  0.6864E+00
     -2.815  0.1751E+00  0.6957E+00
     -2.762  0.1724E+00  0.7049E+00
     -2.708  0.1697E+00  0.7140E+00
     -2.655  0.1702E+00  0.7230E+00
     -2.602  0.1745E+00  0.7324E+00
     -2.548  0.1796E+00  0.7419E+00
     -2.495  0.1831E+00  0.7517E+00
     -2.441  0.1840E+00  0.7615E+00
     -2.388  0.1842E+00  0.7714E+00
     -2.335  0.1844E+00  0.7812E+00
     -2.281  0.1835E+00  0.7910E+00
     -2.228  0.1841E+00  0.8008E+00
     -2.175  0.1868E+00  0.8108E+00
     -2.121  0.1890E+00  0.8209E+00
     -2.068  0.1895E+00  0.8310E+00
     -2.014  0.1898E+00  0.8411E+00
     -1.961  0.1905E+00  0.8513E+00
     -1.908  0.1899E+00  0.8614E+00
     -1.854  0.1872E+00  0.8714E+00
     -1.801  0.1850E+00  0.8813E+00
     -1.748  0.1862E+00  0.8912E+00
     -1.694  0.1893E+00  0.9013E+00
     -1.641  0.1909E+00  0.9115E+00
     -1.588  0.1918E+00  0.9217E+00
     -1.534  0.1949E+00  0.9321E+00
     -1.481  0.1986E+00  0.9427E+00
     -1.427  0.1971E+00  0.9533E+00
     -1.374  0.1904E+00  0.9634E+00
     -1.321  0.1830E+00  0.9732E+00
     -1.267  0.1763E+00  0.9826E+00
     -1.214  0.1667E+00  0.9915E+00
     -1.161  0.1497E+00  0.9995E+00
     -1.107  0.1261E+00  0.1006E+01
     -1.054  0.1006E+00  0.1012E+01
     -1.000  0.7387E-01  0.1016E+01
     -0.947  0.4756E-01  0.1018E+01
     -0.894  0.2847E-01  0.1020E+01
     -0.840  0.1942E-01  0.1021E+01
     -0.787  0.1689E-01  0.1022E+01
     -0.734  0.1636E-01  0.1022E+01
     -0.680  0.1669E-01  0.1023E+01
     -0.627  0.1888E-01  0.1024E+01
     -0.574  0.2372E-01  0.1026E+01
     -0.520  0.3061E-01  0.1027E+01
     -0.467  0.3752E-01  0.1029E+01
     -0.413  0.4182E-01  0.1031E+01
     -0.360  0.4196E-01  0.1034E+01
     -0.307  0.4091E-01  0.1036E+01
     -0.253  0.4270E-01  0.1038E+01
     -0.200  0.4384E-01  0.1040E+01
     -0.147  0.3836E-01  0.1043E+01
     -0.093  0.2901E-01  0.1044E+01
     -0.040  0.2360E-01  0.1045E+01
      0.014  0.2593E-01  0.1047E+01
      0.067  0.3366E-01  0.1048E+01
      0.120  0.3941E-01  0.1051E+01
      0.174  0.3708E-01  0.1053E+01
      0.227  0.3031E-01  0.1054E+01
      0.280  0.2877E-01  0.1056E+01
      0.334  0.3403E-01  0.1058E+01
      0.387  0.3796E-01  0.1060E+01
      0.440  0.3667E-01  0.1062E+01
      0.494  0.3503E-01  0.1063E+01
      0.547  0.3634E-01  0.1065E+01
      0.601  0.3946E-01  0.1067E+01
      0.654  0.4396E-01  0.1070E+01
      0.707  0.4710E-01  0.1072E+01
      0.761  0.4405E-01  0.1075E+01
      0.814  0.3429E-01  0.1076E+01
      0.867  0.2325E-01  0.1078E+01
      0.921  0.1796E-01  0.1079E+01
      0.974  0.1958E-01  0.1080E+01
      1.028  0.2279E-01  0.1081E+01
      1.081  0.2385E-01  0.1082E+01
      1.134  0.2304E-01  0.1083E+01
      1.188  0.1995E-01  0.1085E+01
      1.241  0.1548E-01  0.1085E+01
      1.294  0.1246E-01  0.1086E+01
      1.348  0.1153E-01  0.1087E+01
      1.401  0.1378E-01  0.1087E+01
      1.454  0.2060E-01  0.1088E+01
      1.508  0.2946E-01  0.1090E+01
      1.561  0.3471E-01  0.1092E+01
      1.615  0.3381E-01  0.1094E+01
      1.668  0.3260E-01  0.1095E+01
      1.721  0.3692E-01  0.1097E+01
      1.775  0.4148E-01  0.1100E+01
      1.828  0.3774E-01  0.1102E+01
      1.881  0.2685E-01  0.1103E+01
      1.935  0.1680E-01  0.1104E+01
      1.988  0.1346E-01  0.1105E+01
      2.041  0.1479E-01  0.1105E+01
      2.095  0.1604E-01  0.1106E+01
      2.148  0.1817E-01  0.1107E+01
      2.202  0.2486E-01  0.1109E+01
      2.255  0.3579E-01  0.1111E+01
      2.308  0.4558E-01  0.1113E+01
      2.362  0.4976E-01  0.1116E+01
      2.415  0.4842E-01  0.1118E+01
      2.468  0.4518E-01  0.1121E+01
      2.522  0.4422E-01  0.1123E+01
      2.575  0.4573E-01  0.1125E+01
      2.629  0.4768E-01  0.1128E+01
      2.682  0.4959E-01  0.1131E+01
      2.735  0.4837E-01  0.1133E+01
      2.789  0.3993E-01  0.1135E+01
      2.842  0.2757E-01  0.1137E+01
      2.895  0.1815E-01  0.1138E+01
      2.949  0.1450E-01  0.1139E+01
      3.002  0.1441E-01  0.1139E+01
      3.055  0.1539E-01  0.1140E+01
      3.109  0.1959E-01  0.1141E+01
      3.162  0.2638E-01  0.1143E+01
      3.216  0.2911E-01  0.1144E+01
      3.269  0.2536E-01  0.1145E+01
      3.322  0.1907E-01  0.1146E+01
      3.376  0.1374E-01  0.1147E+01
      3.429  0.1100E-01  0.1148E+01
      3.482  0.1265E-01  0.1148E+01
      3.536  0.1926E-01  0.1150E+01
      3.589  0.2799E-01  0.1151E+01
      3.643  0.3437E-01  0.1153E+01
      3.696  0.3635E-01  0.1155E+01
      3.749  0.3579E-01  0.1157E+01
      3.803  0.3420E-01  0.1159E+01
      3.856  0.3040E-01  0.1160E+01
      3.909  0.2551E-01  0.1161E+01
      3.963  0.2398E-01  0.1163E+01
      4.016  0.2647E-01  0.1164E+01
      4.069  0.2777E-01  0.1166E+01
      4.123  0.2609E-01  0.1167E+01
      4.176  0.2536E-01  0.1168E+01
      4.230  0.2579E-01  0.1170E+01
      4.283  0.2297E-01  0.1171E+01
      4.336  0.1774E-01  0.1172E+01
      4.390  0.1709E-01  0.1173E+01
      4.443  0.2281E-01  0.1174E+01
      4.496  0.3112E-01  0.1176E+01
      4.550  0.4082E-01  0.1178E+01
      4.603  0.5076E-01  0.1181E+01
      4.657  0.5529E-01  0.1184E+01
      4.710  0.5175E-01  0.1186E+01
      4.763  0.4700E-01  0.1189E+01
      4.817  0.4823E-01  0.1191E+01
      4.870  0.5368E-01  0.1194E+01
      4.923  0.5803E-01  0.1197E+01
      4.977  0.6103E-01  0.1201E+01
      5.030  0.6536E-01  0.1204E+01
      5.083  0.6912E-01  0.1208E+01
      5.137  0.6798E-01  0.1211E+01
      5.190  0.6297E-01  0.1215E+01
      5.244  0.5686E-01  0.1218E+01
      5.297  0.4804E-01  0.1220E+01
      5.350  0.3495E-01  0.1222E+01
      5.404  0.2028E-01  0.1223E+01
      5.457  0.8698E-02  0.1224E+01
      5.510  0.2552E-02  0.1224E+01
      5.564  0.4807E-03  0.1224E+01
      5.617  0.5570E-04  0.1224E+01
      5.671  0.3863E-05  0.1224E+01
      5.724  0.1578E-06  0.1224E+01
      5.777  0.3752E-08  0.1224E+01
      5.831  0.5164E-10  0.1224E+01
      5.884  0.4092E-12  0.1224E+01
      5.937  0.1860E-14  0.1224E+01
      5.991  0.4161E-17  0.1224E+01
      6.044  0.0000E+00  0.1224E+01
      6.097  0.0000E+00  0.1224E+01
      6.151  0.0000E+00  0.1224E+01
      6.204  0.0000E+00  0.1224E+01
      6.258  0.0000E+00  0.1224E+01
      6.311  0.0000E+00  0.1224E+01
      6.364  0.0000E+00  0.1224E+01
