<?xml version="1.0" encoding="ISO-8859-1"?>
<modeling>
 <generator>
  <i name="program" type="string">vasp </i>
  <i name="version" type="string">5.4.1  </i>
  <i name="subversion" type="string">24Jun15 (build Mar 14 2019 10:18:33) complex                          parallel </i>
  <i name="platform" type="string">INTEL-19.0.2+OPENMPI-3.1.3 </i>
  <i name="date" type="string">2022 06 20 </i>
  <i name="time" type="string">18:30:35 </i>
 </generator>
 <incar>
  <i type="int" name="ISTART">     0</i>
  <i type="string" name="PREC">normal</i>
  <i type="string" name="ALGO"> Fast</i>
  <i type="int" name="NELM">   500</i>
  <i type="int" name="IBRION">     2</i>
  <i type="int" name="NFREE">     2</i>
  <i name="EDIFF">      0.00000100</i>
  <i name="EDIFFG">     -0.02000000</i>
  <i type="int" name="NSW">   500</i>
  <i type="int" name="ISIF">     0</i>
  <i type="int" name="ISYM">     2</i>
  <i name="ENCUT">    400.00000000</i>
  <i name="POTIM">      0.35000000</i>
  <i type="string" name="LREAL"> Auto</i>
  <i type="logical" name="LPLANE"> T  </i>
  <i type="int" name="ISMEAR">     0</i>
  <i name="SIGMA">      0.10000000</i>
  <i type="int" name="NWRITE">     1</i>
  <i type="logical" name="LWAVE"> F  </i>
  <i type="logical" name="LCHARG"> F  </i>
  <i type="logical" name="LVTOT"> F  </i>
  <i type="logical" name="LORBIT"> F  </i>
  <i type="logical" name="LAECHG"> F  </i>
  <v type="int" name="KPOINT_BSE">    -1     0     0     0</v>
  <i type="int" name="NELM">   500</i>
  <i type="string" name="GGA"> PE          ! optPBE-vdW XC-functional</i>
  <i type="int" name="VOSKOWN">     1</i>
  <i type="logical" name="LDIPOL"> T  </i>
  <i type="logical" name="LMONO"> F  </i>
  <i type="int" name="IDIPOL">     3</i>
  <v name="DIPOL">      0.00000000      0.00000000      0.50000000</v>
 </incar>
 <kpoints>
  <generation param="Monkhorst-Pack">
   <v type="int" name="divisions">       2        2        1 </v>
   <v name="usershift">      0.00000000       0.00000000       0.00000000 </v>
   <v name="genvec1">      0.50000000      -0.00000000       0.00000000 </v>
   <v name="genvec2">      0.00000000       0.50000000       0.00000000 </v>
   <v name="genvec3">      0.00000000       0.00000000       1.00000000 </v>
   <v name="shift">      0.50000000       0.50000000       0.00000000 </v>
  </generation>
  <varray name="kpointlist" >
   <v>       0.25000000       0.25000000       0.00000000 </v>
   <v>       0.00000000       0.25000000       0.00000000 </v>
   <v>      -0.25000000       0.00000000       0.00000000 </v>
   <v>      -0.25000000       0.25000000       0.00000000 </v>
   <v>       0.50000000      -0.25000000       0.00000000 </v>
   <v>      -0.25000000       0.50000000       0.00000000 </v>
  </varray>
  <varray name="weights" >
   <v>       0.16666667 </v>
   <v>       0.16666667 </v>
   <v>       0.16666667 </v>
   <v>       0.16666667 </v>
   <v>       0.16666667 </v>
   <v>       0.16666667 </v>
  </varray>
 </kpoints>
 <parameters>
  <separator name="general" >
   <i type="string" name="SYSTEM">unknown system</i>
   <i type="logical" name="LCOMPAT"> F  </i>
  </separator>
  <separator name="electronic" >
   <i type="string" name="PREC">normal</i>
   <i name="ENMAX">    400.00000000</i>
   <i name="ENAUG">    416.23000000</i>
   <i name="EDIFF">      0.00000100</i>
   <i type="int" name="IALGO">    68</i>
   <i type="int" name="IWAVPR">    11</i>
   <i type="int" name="NBANDS">   306</i>
   <i name="NELECT">    504.00000000</i>
   <i type="int" name="TURBO">     0</i>
   <i type="int" name="IRESTART">     0</i>
   <i type="int" name="NREBOOT">     0</i>
   <i type="int" name="NMIN">     0</i>
   <i name="EREF">      0.00000000</i>
   <separator name="electronic smearing" >
    <i type="int" name="ISMEAR">     0</i>
    <i name="SIGMA">      0.10000000</i>
    <i name="KSPACING">      0.50000000</i>
    <i type="logical" name="KGAMMA"> T  </i>
   </separator>
   <separator name="electronic projectors" >
    <i type="logical" name="LREAL"> T  </i>
    <v name="ROPT">     -0.00050000     -0.00050000</v>
    <i type="int" name="LMAXPAW">  -100</i>
    <i type="int" name="LMAXMIX">     2</i>
    <i type="logical" name="NLSPLINE"> F  </i>
   </separator>
   <separator name="electronic startup" >
    <i type="int" name="ISTART">     0</i>
    <i type="int" name="ICHARG">     2</i>
    <i type="int" name="INIWAV">     1</i>
   </separator>
   <separator name="electronic spin" >
    <i type="int" name="ISPIN">     1</i>
    <i type="logical" name="LNONCOLLINEAR"> F  </i>
    <v name="MAGMOM">      1.00000000      1.00000000      1.00000000      1.00000000      1.00000000      1.00000000      1.00000000      1.00000000      1.00000000      1.00000000      1.00000000      1.00000000      1.00000000      1.00000000      1.00000000      1.00000000      1.00000000      1.00000000      1.00000000      1.00000000
      1.00000000      1.00000000      1.00000000      1.00000000      1.00000000      1.00000000      1.00000000      1.00000000      1.00000000      1.00000000      1.00000000      1.00000000      1.00000000      1.00000000      1.00000000      1.00000000      1.00000000      1.00000000      1.00000000      1.00000000
      1.00000000      1.00000000      1.00000000      1.00000000      1.00000000      1.00000000      1.00000000      1.00000000</v>
    <i name="NUPDOWN">     -1.00000000</i>
    <i type="logical" name="LSORBIT"> F  </i>
    <v name="SAXIS">      0.00000000      0.00000000      1.00000000</v>
    <i type="logical" name="LSPIRAL"> F  </i>
    <v name="QSPIRAL">      0.00000000      0.00000000      0.00000000</v>
    <i type="logical" name="LZEROZ"> F  </i>
   </separator>
   <separator name="electronic exchange-correlation" >
    <i type="logical" name="LASPH"> F  </i>
    <i type="logical" name="LMETAGGA"> F  </i>
   </separator>
   <separator name="electronic convergence" >
    <i type="int" name="NELM">   500</i>
    <i type="int" name="NELMDL">    -5</i>
    <i type="int" name="NELMIN">     2</i>
    <i name="ENINI">    400.00000000</i>
    <separator name="electronic convergence detail" >
     <i type="logical" name="LDIAG"> T  </i>
     <i type="logical" name="LSUBROT"> F  </i>
     <i name="WEIMIN">      0.00100000</i>
     <i name="EBREAK">      0.00000000</i>
     <i name="DEPER">      0.30000000</i>
     <i type="int" name="NRMM">     4</i>
     <i name="TIME">      0.40000000</i>
    </separator>
   </separator>
   <separator name="electronic mixer" >
    <i name="AMIX">      0.40000000</i>
    <i name="BMIX">      1.00000000</i>
    <i name="AMIN">      0.10000000</i>
    <i name="AMIX_MAG">      1.60000000</i>
    <i name="BMIX_MAG">      1.00000000</i>
    <separator name="electronic mixer details" >
     <i type="int" name="IMIX">     4</i>
     <i type="logical" name="MIXFIRST"> F  </i>
     <i type="int" name="MAXMIX">   -45</i>
     <i name="WC">    100.00000000</i>
     <i type="int" name="INIMIX">     1</i>
     <i type="int" name="MIXPRE">     1</i>
     <i type="int" name="MREMOVE">     5</i>
    </separator>
   </separator>
   <separator name="electronic dipolcorrection" >
    <i type="logical" name="LDIPOL"> T  </i>
    <i type="logical" name="LMONO"> F  </i>
    <i type="int" name="IDIPOL">     3</i>
    <i name="EPSILON">      1.00000000</i>
    <v name="DIPOL">      0.00000000      0.00000000      0.50000000</v>
    <i name="EFIELD">      0.00000000</i>
   </separator>
  </separator>
  <separator name="grids" >
   <i type="int" name="NGX">    54</i>
   <i type="int" name="NGY">    54</i>
   <i type="int" name="NGZ">   120</i>
   <i type="int" name="NGXF">   108</i>
   <i type="int" name="NGYF">   108</i>
   <i type="int" name="NGZF">   240</i>
   <i type="logical" name="ADDGRID"> F  </i>
  </separator>
  <separator name="ionic" >
   <i type="int" name="NSW">   500</i>
   <i type="int" name="IBRION">     2</i>
   <i type="int" name="ISIF">     0</i>
   <i name="PSTRESS">      0.00000000</i>
   <i name="EDIFFG">     -0.02000000</i>
   <i type="int" name="NFREE">     2</i>
   <i name="POTIM">      0.35000000</i>
   <i name="SMASS">     -3.00000000</i>
   <i name="SCALEE">      1.00000000</i>
  </separator>
  <separator name="ionic md" >
   <i name="TEBEG">      0.00010000</i>
   <i name="TEEND">      0.00010000</i>
   <i type="int" name="NBLOCK">     1</i>
   <i type="int" name="KBLOCK">   500</i>
   <i type="int" name="NPACO">   256</i>
   <i name="APACO">     16.00000000</i>
  </separator>
  <separator name="symmetry" >
   <i type="int" name="ISYM">     2</i>
   <i name="SYMPREC">      0.00001000</i>
  </separator>
  <separator name="dos" >
   <i type="logical" name="LORBIT"> F  </i>
   <v name="RWIGS">     -1.00000000     -1.00000000</v>
   <i type="int" name="NEDOS">   301</i>
   <i name="EMIN">     10.00000000</i>
   <i name="EMAX">    -10.00000000</i>
   <i name="EFERMI">      0.00000000</i>
  </separator>
  <separator name="writing" >
   <i type="int" name="NWRITE">     1</i>
   <i type="logical" name="LWAVE"> F  </i>
   <i type="logical" name="LCHARG"> F  </i>
   <i type="logical" name="LPARD"> F  </i>
   <i type="logical" name="LVTOT"> F  </i>
   <i type="logical" name="LVHAR"> F  </i>
   <i type="logical" name="LELF"> F  </i>
   <i type="logical" name="LOPTICS"> F  </i>
   <v name="STM">      0.00000000      0.00000000      0.00000000      0.00000000      0.00000000      0.00000000      0.00000000</v>
  </separator>
  <separator name="performance" >
   <i type="int" name="NPAR">     6</i>
   <i type="int" name="NSIM">     4</i>
   <i type="int" name="NBLK">    -1</i>
   <i type="logical" name="LPLANE"> T  </i>
   <i type="logical" name="LSCALAPACK"> T  </i>
   <i type="logical" name="LSCAAWARE"> F  </i>
   <i type="logical" name="LSCALU"> F  </i>
   <i type="logical" name="LASYNC"> F  </i>
   <i type="logical" name="LORBITALREAL"> F  </i>
  </separator>
  <separator name="miscellaneous" >
   <i type="int" name="IDIOT">     3</i>
   <i type="logical" name="LMUSIC"> F  </i>
   <v name="POMASS">    196.96600000    106.42000000</v>
   <v name="DARWINR">      0.00000000      0.00000000</v>
   <v name="DARWINV">      1.00000000      1.00000000</v>
   <i type="logical" name="LCORR"> T  </i>
  </separator>
  <i type="logical" name="GGA_COMPAT"> T  </i>
  <i type="logical" name="LBERRY"> F  </i>
  <i type="int" name="ICORELEVEL">     0</i>
  <i type="logical" name="LDAU"> F  </i>
  <i type="int" name="I_CONSTRAINED_M">     0</i>
  <separator name="electronic exchange-correlation" >
   <i type="string" name="GGA">PE</i>
   <i type="int" name="VOSKOWN">     1</i>
   <i type="logical" name="LHFCALC"> F  </i>
   <i type="string" name="PRECFOCK"></i>
   <i type="logical" name="LSYMGRAD"> F  </i>
   <i type="logical" name="LHFONE"> F  </i>
   <i type="logical" name="LRHFCALC"> F  </i>
   <i type="logical" name="LTHOMAS"> F  </i>
   <i type="logical" name="LMODELHF"> F  </i>
   <i name="ENCUT4O">     -1.00000000</i>
   <i type="int" name="EXXOEP">     0</i>
   <i type="int" name="FOURORBIT">     0</i>
   <i name="AEXX">      0.00000000</i>
   <i name="HFALPHA">      0.00000000</i>
   <i name="MCALPHA">      0.00000000</i>
   <i name="ALDAX">      1.00000000</i>
   <i name="AGGAX">      1.00000000</i>
   <i name="ALDAC">      1.00000000</i>
   <i name="AGGAC">      1.00000000</i>
   <i type="int" name="NKREDX">     1</i>
   <i type="int" name="NKREDY">     1</i>
   <i type="int" name="NKREDZ">     1</i>
   <i type="logical" name="SHIFTRED"> F  </i>
   <i type="logical" name="ODDONLY"> F  </i>
   <i type="logical" name="EVENONLY"> F  </i>
   <i type="int" name="LMAXFOCK">     0</i>
   <i type="int" name="NMAXFOCKAE">     0</i>
   <i type="logical" name="LFOCKAEDFT"> F  </i>
   <i name="HFSCREEN">      0.00000000</i>
   <i name="HFSCREENC">      0.00000000</i>
   <i type="int" name="NBANDSGWLOW">     0</i>
  </separator>
  <separator name="vdW DFT" >
   <i type="logical" name="LUSE_VDW"> F  </i>
   <i name="Zab_VDW">     -0.84910000</i>
   <i name="PARAM1">      0.12340000</i>
   <i name="PARAM2">      1.00000000</i>
   <i name="PARAM3">      0.00000000</i>
  </separator>
  <separator name="model GW" >
   <i type="int" name="MODEL_GW">     0</i>
   <i name="MODEL_EPS0">     32.09595293</i>
   <i name="MODEL_ALPHA">      1.00000000</i>
  </separator>
  <separator name="linear response parameters" >
   <i type="logical" name="LEPSILON"> F  </i>
   <i type="logical" name="LRPA"> F  </i>
   <i type="logical" name="LNABLA"> F  </i>
   <i type="logical" name="LVEL"> F  </i>
   <i type="int" name="KINTER">     0</i>
   <i name="CSHIFT">      0.10000000</i>
   <i name="OMEGAMAX">     -1.00000000</i>
   <i name="DEG_THRESHOLD">      0.00200000</i>
  </separator>
  <separator name="orbital magnetization" >
   <i type="logical" name="NUCIND"> F  </i>
   <v name="MAGPOS">      0.00000000      0.00000000      0.00000000</v>
   <i type="logical" name="LNICSALL"> T  </i>
   <i type="logical" name="ORBITALMAG"> F  </i>
   <i type="logical" name="LMAGBLOCH"> F  </i>
   <i type="logical" name="LCHIMAG"> F  </i>
   <i type="logical" name="LGAUGE"> T  </i>
   <i type="int" name="MAGATOM">     0</i>
   <v name="MAGDIPOL">      0.00000000      0.00000000      0.00000000</v>
   <v name="AVECCONST">      0.00000000      0.00000000      0.00000000</v>
  </separator>
  <separator name="response functions" >
   <i type="logical" name="LADDER"> F  </i>
   <i type="logical" name="LFXC"> F  </i>
   <i type="logical" name="LHARTREE"> T  </i>
   <i type="int" name="IBSE">     0</i>
   <v type="int" name="KPOINT">    -1     0     0     0</v>
   <i type="logical" name="LTCTE"> F  </i>
   <i type="logical" name="LTETE"> F  </i>
   <i type="logical" name="LTRIPLET"> F  </i>
   <i type="logical" name="LFXCEPS"> F  </i>
   <i type="logical" name="LFXHEG"> F  </i>
   <i type="int" name="NATURALO">     0</i>
   <i type="logical" name="L2ORDER"> F  </i>
   <i type="logical" name="LUSEW"> F  </i>
   <i name="ENCUTGW">     -2.00000000</i>
   <i name="ENCUTGWSOFT">     -2.00000000</i>
   <i name="ENCUTLF">     -1.00000000</i>
   <i type="int" name="LMAXMP2">    -1</i>
   <i name="SCISSOR">      0.00000000</i>
   <i type="int" name="NOMEGA">     0</i>
   <i type="int" name="NOMEGAR">     0</i>
   <i type="int" name="NBANDSGW">    -1</i>
   <i type="int" name="NBANDSO">    -1</i>
   <i type="int" name="NBANDSV">    -1</i>
   <i type="int" name="NELM">   500</i>
   <i type="int" name="NELMHF">     1</i>
   <i type="int" name="DIM">     3</i>
   <i type="int" name="ANTIRES">     0</i>
   <i name="OMEGAMAX">    -30.00000000</i>
   <i name="OMEGAMIN">    -30.00000000</i>
   <i name="OMEGATL">   -200.00000000</i>
   <i type="int" name="OMEGAGRID">     0</i>
   <i name="CSHIFT">     -0.10000000</i>
   <i type="logical" name="SELFENERGY"> F  </i>
   <i type="logical" name="LSPECTRAL"> F  </i>
   <i type="logical" name="LSPECTRALGW"> F  </i>
   <i type="logical" name="LSINGLES"> F  </i>
   <i type="logical" name="LFERMIGW"> F  </i>
   <i type="logical" name="ODDONLYGW"> F  </i>
   <i type="logical" name="EVENONLYGW"> F  </i>
   <i type="int" name="NKREDLFX">     1</i>
   <i type="int" name="NKREDLFY">     1</i>
   <i type="int" name="NKREDLFZ">     1</i>
   <i type="int" name="MAXMEM">  1800</i>
   <i type="int" name="TELESCOPE">     0</i>
   <i type="int" name="TAUPAR">     1</i>
   <i type="int" name="OMEGAPAR">    -1</i>
   <i name="LAMBDA">      1.00000000</i>
  </separator>
  <separator name="External order field" >
   <i name="OFIELD_KAPPA">      0.00000000</i>
   <v name="OFIELD_K">      0.00000000      0.00000000      0.00000000</v>
   <i name="OFIELD_Q6_NEAR">      0.00000000</i>
   <i name="OFIELD_Q6_FAR">      0.00000000</i>
   <i name="OFIELD_A">      0.00000000</i>
  </separator>
 </parameters>
 <atominfo>
  <atoms>      48 </atoms>
  <types>       2 </types>
  <array name="atoms" >
   <dimension dim="1">ion</dimension>
   <field type="string">element</field>
   <field type="int">atomtype</field>
   <set>
    <rc><c>Au</c><c>   1</c></rc>
    <rc><c>Au</c><c>   1</c></rc>
    <rc><c>Au</c><c>   1</c></rc>
    <rc><c>Au</c><c>   1</c></rc>
    <rc><c>Au</c><c>   1</c></rc>
    <rc><c>Au</c><c>   1</c></rc>
    <rc><c>Au</c><c>   1</c></rc>
    <rc><c>Au</c><c>   1</c></rc>
    <rc><c>Au</c><c>   1</c></rc>
    <rc><c>Au</c><c>   1</c></rc>
    <rc><c>Au</c><c>   1</c></rc>
    <rc><c>Au</c><c>   1</c></rc>
    <rc><c>Au</c><c>   1</c></rc>
    <rc><c>Au</c><c>   1</c></rc>
    <rc><c>Au</c><c>   1</c></rc>
    <rc><c>Au</c><c>   1</c></rc>
    <rc><c>Au</c><c>   1</c></rc>
    <rc><c>Au</c><c>   1</c></rc>
    <rc><c>Au</c><c>   1</c></rc>
    <rc><c>Au</c><c>   1</c></rc>
    <rc><c>Au</c><c>   1</c></rc>
    <rc><c>Au</c><c>   1</c></rc>
    <rc><c>Au</c><c>   1</c></rc>
    <rc><c>Au</c><c>   1</c></rc>
    <rc><c>Pd</c><c>   2</c></rc>
    <rc><c>Pd</c><c>   2</c></rc>
    <rc><c>Pd</c><c>   2</c></rc>
    <rc><c>Pd</c><c>   2</c></rc>
    <rc><c>Pd</c><c>   2</c></rc>
    <rc><c>Pd</c><c>   2</c></rc>
    <rc><c>Pd</c><c>   2</c></rc>
    <rc><c>Pd</c><c>   2</c></rc>
    <rc><c>Pd</c><c>   2</c></rc>
    <rc><c>Pd</c><c>   2</c></rc>
    <rc><c>Pd</c><c>   2</c></rc>
    <rc><c>Pd</c><c>   2</c></rc>
    <rc><c>Pd</c><c>   2</c></rc>
    <rc><c>Pd</c><c>   2</c></rc>
    <rc><c>Pd</c><c>   2</c></rc>
    <rc><c>Pd</c><c>   2</c></rc>
    <rc><c>Pd</c><c>   2</c></rc>
    <rc><c>Pd</c><c>   2</c></rc>
    <rc><c>Pd</c><c>   2</c></rc>
    <rc><c>Pd</c><c>   2</c></rc>
    <rc><c>Pd</c><c>   2</c></rc>
    <rc><c>Pd</c><c>   2</c></rc>
    <rc><c>Pd</c><c>   2</c></rc>
    <rc><c>Pd</c><c>   2</c></rc>
   </set>
  </array>
  <array name="atomtypes" >
   <dimension dim="1">type</dimension>
   <field type="int">atomspertype</field>
   <field type="string">element</field>
   <field>mass</field>
   <field>valence</field>
   <field type="string">pseudopotential</field>
   <set>
    <rc><c>  24</c><c>Au</c><c>    196.96600000</c><c>     11.00000000</c><c>  PAW_PBE Au 04Oct2007                  </c></rc>
    <rc><c>  24</c><c>Pd</c><c>    106.42000000</c><c>     10.00000000</c><c>  PAW_PBE Pd 04Jan2005                  </c></rc>
   </set>
  </array>
 </atominfo>
 <structure name="initialpos" >
  <crystal>
   <varray name="basis" >
    <v>      11.00258152       0.00000000       0.00000000 </v>
    <v>       5.50129076       9.52851510       0.00000000 </v>
    <v>       0.00000000       0.00000000      24.49178509 </v>
   </varray>
   <i name="volume">   2567.67623402 </i>
   <varray name="rec_basis" >
    <v>       0.09088776      -0.05247407       0.00000000 </v>
    <v>       0.00000000       0.10494815       0.00000000 </v>
    <v>       0.00000000       0.00000000       0.04083002 </v>
   </varray>
  </crystal>
  <varray name="positions" >
   <v>       0.25000000       0.75000000       0.59169983 </v>
   <v>       0.50000000       0.50000000       0.59169983 </v>
   <v>       0.58333333       0.83333333       0.40830017 </v>
   <v>       0.50000000       0.00000000       0.59169983 </v>
   <v>       0.41666667       0.91666667       0.50000000 </v>
   <v>       0.58333333       0.08333333       0.40830017 </v>
   <v>       0.50000000       0.75000000       0.59169983 </v>
   <v>       0.16666667       0.91666667       0.50000000 </v>
   <v>       0.66666667       0.16666667       0.50000000 </v>
   <v>       0.83333333       0.33333333       0.40830017 </v>
   <v>       0.25000000       0.25000000       0.59169983 </v>
   <v>       0.50000000       0.25000000       0.59169983 </v>
   <v>       0.25000000       0.00000000       0.59169983 </v>
   <v>       0.33333333       0.33333333       0.40830017 </v>
   <v>       0.33333333       0.08333333       0.40830017 </v>
   <v>       0.08333333       0.33333333       0.40830017 </v>
   <v>       0.91666667       0.41666667       0.50000000 </v>
   <v>       0.00000000       0.25000000       0.59169983 </v>
   <v>       0.08333333       0.58333333       0.40830017 </v>
   <v>       0.75000000       0.25000000       0.59169983 </v>
   <v>       0.91666667       0.66666667       0.50000000 </v>
   <v>       0.08333333       0.83333333       0.40830017 </v>
   <v>       0.66666667       0.66666667       0.50000000 </v>
   <v>       0.00000000       0.50000000       0.59169983 </v>
   <v>       0.83333333       0.08333333       0.40830017 </v>
   <v>       0.75000000       0.00000000       0.59169983 </v>
   <v>       0.66666667       0.41666667       0.50000000 </v>
   <v>       0.83333333       0.58333333       0.40830017 </v>
   <v>       0.75000000       0.50000000       0.59169983 </v>
   <v>       0.83333333       0.83333333       0.40830017 </v>
   <v>       0.41666667       0.66666667       0.50000000 </v>
   <v>       0.08333333       0.08333333       0.40830017 </v>
   <v>       0.41666667       0.41666667       0.50000000 </v>
   <v>       0.58333333       0.33333333       0.40830017 </v>
   <v>       0.41666667       0.16666667       0.50000000 </v>
   <v>       0.66666667       0.91666667       0.50000000 </v>
   <v>       0.33333333       0.83333333       0.40830017 </v>
   <v>       0.25000000       0.50000000       0.59169983 </v>
   <v>       0.16666667       0.66666667       0.50000000 </v>
   <v>       0.33333333       0.58333333       0.40830017 </v>
   <v>       0.16666667       0.41666667       0.50000000 </v>
   <v>       0.16666667       0.16666667       0.50000000 </v>
   <v>       0.00000000       0.75000000       0.59169983 </v>
   <v>       0.91666667       0.91666667       0.50000000 </v>
   <v>       0.00000000       0.00000000       0.59169983 </v>
   <v>       0.91666667       0.16666667       0.50000000 </v>
   <v>       0.58333333       0.58333333       0.40830017 </v>
   <v>       0.75000000       0.75000000       0.59169983 </v>
  </varray>
 </structure>
 <calculation>
  <scstep>
   <time name="dav">    9.38    9.39</time>
   <time name="total">    9.45    9.46</time>
   <dipole>
    <v name="dipole">      0.00000000       0.00000000      -0.00000148 </v>
    <i name="Tr[quadrupol]"> -10288.25086503 </i>
    <i name="Echarged">      0.00000000 </i>
    <i name="Edipol_quadrupol">      0.00000000 </i>
    <i name="Eion">      0.00000000 </i>
   </dipole>
   <energy>
    <i name="alphaZ">    805.86936475 </i>
    <i name="ewald"> 199693.00345983 </i>
    <i name="hartreedc">-242105.28537867 </i>
    <i name="XCdc">   -327.75807839 </i>
    <i name="pawpsdc">  40340.05962942 </i>
    <i name="pawaedc"> -38292.62782345 </i>
    <i name="eentropy">     -0.13495447 </i>
    <i name="bandstr">   1428.13928836 </i>
    <i name="atom">  41659.78587232 </i>
    <i name="e_fr_energy">   3201.05137970 </i>
    <i name="e_wo_entrp">   3201.18633417 </i>
    <i name="e_0_energy">   3201.11885693 </i>
   </energy>
  </scstep>
  <scstep>
   <time name="dav">   11.18   11.22</time>
   <time name="total">   11.18   11.22</time>
   <dipole>
    <v name="dipole">      0.00000000       0.00000000      -0.00000148 </v>
    <i name="Tr[quadrupol]"> -10288.25086503 </i>
    <i name="Echarged">      0.00000000 </i>
    <i name="Edipol_quadrupol">      0.00000000 </i>
    <i name="Eion">      0.00000000 </i>
   </dipole>
   <energy>
    <i name="e_fr_energy">     14.27738216 </i>
    <i name="e_wo_entrp">     14.39885671 </i>
    <i name="e_0_energy">     14.33811944 </i>
   </energy>
  </scstep>
  <scstep>
   <time name="dav">   11.60   11.64</time>
   <time name="total">   11.60   11.64</time>
   <dipole>
    <v name="dipole">      0.00000000       0.00000000      -0.00000148 </v>
    <i name="Tr[quadrupol]"> -10288.25086503 </i>
    <i name="Echarged">      0.00000000 </i>
    <i name="Edipol_quadrupol">      0.00000000 </i>
    <i name="Eion">      0.00000000 </i>
   </dipole>
   <energy>
    <i name="e_fr_energy">   -201.68629310 </i>
    <i name="e_wo_entrp">   -201.51331721 </i>
    <i name="e_0_energy">   -201.59980515 </i>
   </energy>
  </scstep>
  <scstep>
   <time name="dav">   11.03   11.09</time>
   <time name="total">   11.03   11.10</time>
   <dipole>
    <v name="dipole">      0.00000000       0.00000000      -0.00000148 </v>
    <i name="Tr[quadrupol]"> -10288.25086503 </i>
    <i name="Echarged">      0.00000000 </i>
    <i name="Edipol_quadrupol">      0.00000000 </i>
    <i name="Eion">      0.00000000 </i>
   </dipole>
   <energy>
    <i name="e_fr_energy">   -207.46804443 </i>
    <i name="e_wo_entrp">   -207.28662660 </i>
    <i name="e_0_energy">   -207.37733552 </i>
   </energy>
  </scstep>
  <scstep>
   <time name="dav">   11.54   11.55</time>
   <time name="total">   11.86   11.87</time>
   <dipole>
    <v name="dipole">      0.00000000       0.00000000      -0.00000148 </v>
    <i name="Tr[quadrupol]"> -10288.25086503 </i>
    <i name="Echarged">      0.00000000 </i>
    <i name="Edipol_quadrupol">      0.00000000 </i>
    <i name="Eion">      0.00000000 </i>
   </dipole>
   <energy>
    <i name="e_fr_energy">   -207.66109878 </i>
    <i name="e_wo_entrp">   -207.47921865 </i>
    <i name="e_0_energy">   -207.57015872 </i>
   </energy>
  </scstep>
  <scstep>
   <time name="diag">    1.68    1.68</time>
   <time name="diis">    4.52    4.53</time>
   <time name="orth">    0.42    0.42</time>
   <time name="total">    6.99    7.00</time>
   <dipole>
    <v name="dipole">      0.00000000       0.00000000      -0.67484476 </v>
    <i name="Tr[quadrupol]"> -10291.04089360 </i>
    <i name="Echarged">      0.00000000 </i>
    <i name="Edipol_quadrupol">      0.00000000 </i>
    <i name="Eion">      0.00000000 </i>
   </dipole>
   <energy>
    <i name="e_fr_energy">   -202.80620742 </i>
    <i name="e_wo_entrp">   -202.55193527 </i>
    <i name="e_0_energy">   -202.67907134 </i>
   </energy>
  </scstep>
  <scstep>
   <time name="diag">    1.69    1.69</time>
   <time name="diis">    4.57    4.58</time>
   <time name="orth">    0.42    0.42</time>
   <time name="total">    7.05    7.05</time>
   <dipole>
    <v name="dipole">      0.00000000       0.00000000       0.94211996 </v>
    <i name="Tr[quadrupol]"> -10288.30746050 </i>
    <i name="Echarged">      0.00000000 </i>
    <i name="Edipol_quadrupol">      0.00000000 </i>
    <i name="Eion">      0.00000000 </i>
   </dipole>
   <energy>
    <i name="e_fr_energy">   -208.35175120 </i>
    <i name="e_wo_entrp">   -208.16482649 </i>
    <i name="e_0_energy">   -208.25828884 </i>
   </energy>
  </scstep>
  <scstep>
   <time name="diag">    1.69    1.69</time>
   <time name="diis">    4.48    4.56</time>
   <time name="orth">    0.42    0.42</time>
   <time name="total">    6.95    7.03</time>
   <dipole>
    <v name="dipole">      0.00000000       0.00000000      -1.80462212 </v>
    <i name="Tr[quadrupol]"> -10289.84825877 </i>
    <i name="Echarged">      0.00000000 </i>
    <i name="Edipol_quadrupol">      0.00000000 </i>
    <i name="Eion">      0.00000000 </i>
   </dipole>
   <energy>
    <i name="e_fr_energy">   -225.14540923 </i>
    <i name="e_wo_entrp">   -224.89236333 </i>
    <i name="e_0_energy">   -225.01888628 </i>
   </energy>
  </scstep>
  <scstep>
   <time name="diag">    1.69    1.69</time>
   <time name="diis">    4.44    4.44</time>
   <time name="orth">    0.42    0.42</time>
   <time name="total">    6.92    6.93</time>
   <dipole>
    <v name="dipole">      0.00000000       0.00000000       0.54353286 </v>
    <i name="Tr[quadrupol]"> -10291.33448465 </i>
    <i name="Echarged">      0.00000000 </i>
    <i name="Edipol_quadrupol">      0.00000000 </i>
    <i name="Eion">      0.00000000 </i>
   </dipole>
   <energy>
    <i name="e_fr_energy">   -213.50694091 </i>
    <i name="e_wo_entrp">   -213.27970379 </i>
    <i name="e_0_energy">   -213.39332235 </i>
   </energy>
  </scstep>
  <scstep>
   <time name="diag">    1.93    1.94</time>
   <time name="diis">    4.73    4.75</time>
   <time name="orth">    0.41    0.41</time>
   <time name="total">    7.43    7.47</time>
   <dipole>
    <v name="dipole">      0.00000000       0.00000000      -0.44045840 </v>
    <i name="Tr[quadrupol]"> -10289.98404897 </i>
    <i name="Echarged">      0.00000000 </i>
    <i name="Edipol_quadrupol">      0.00000000 </i>
    <i name="Eion">      0.00000000 </i>
   </dipole>
   <energy>
    <i name="e_fr_energy">   -198.77046556 </i>
    <i name="e_wo_entrp">   -198.58843532 </i>
    <i name="e_0_energy">   -198.67945044 </i>
   </energy>
  </scstep>
  <scstep>
   <time name="diag">    1.67    1.67</time>
   <time name="diis">    4.53    4.53</time>
   <time name="orth">    0.40    0.40</time>
   <time name="total">    6.96    6.96</time>
   <dipole>
    <v name="dipole">      0.00000000       0.00000000      -0.12022228 </v>
    <i name="Tr[quadrupol]"> -10291.17474931 </i>
    <i name="Echarged">      0.00000000 </i>
    <i name="Edipol_quadrupol">      0.00000000 </i>
    <i name="Eion">      0.00000000 </i>
   </dipole>
   <energy>
    <i name="e_fr_energy">   -194.15196851 </i>
    <i name="e_wo_entrp">   -193.91907474 </i>
    <i name="e_0_energy">   -194.03552163 </i>
   </energy>
  </scstep>
  <scstep>
   <time name="diag">    1.67    1.67</time>
   <time name="diis">    4.57    4.57</time>
   <time name="orth">    0.40    0.40</time>
   <time name="total">    7.00    7.00</time>
   <dipole>
    <v name="dipole">      0.00000000       0.00000000      -0.11661163 </v>
    <i name="Tr[quadrupol]"> -10291.17133159 </i>
    <i name="Echarged">      0.00000000 </i>
    <i name="Edipol_quadrupol">      0.00000000 </i>
    <i name="Eion">      0.00000000 </i>
   </dipole>
   <energy>
    <i name="e_fr_energy">   -190.30606913 </i>
    <i name="e_wo_entrp">   -190.05957888 </i>
    <i name="e_0_energy">   -190.18282401 </i>
   </energy>
  </scstep>
  <scstep>
   <time name="diag">    1.66    1.66</time>
   <time name="diis">    4.57    4.57</time>
   <time name="orth">    0.40    0.40</time>
   <time name="total">    6.99    7.00</time>
   <dipole>
    <v name="dipole">      0.00000000       0.00000000      -0.08181389 </v>
    <i name="Tr[quadrupol]"> -10291.57891193 </i>
    <i name="Echarged">      0.00000000 </i>
    <i name="Edipol_quadrupol">      0.00000000 </i>
    <i name="Eion">      0.00000000 </i>
   </dipole>
   <energy>
    <i name="e_fr_energy">   -189.93417873 </i>
    <i name="e_wo_entrp">   -189.67990039 </i>
    <i name="e_0_energy">   -189.80703956 </i>
   </energy>
  </scstep>
  <scstep>
   <time name="diag">    1.66    1.66</time>
   <time name="diis">    4.40    4.47</time>
   <time name="orth">    0.40    0.40</time>
   <time name="total">    6.83    6.90</time>
   <dipole>
    <v name="dipole">      0.00000000       0.00000000      -0.06436276 </v>
    <i name="Tr[quadrupol]"> -10291.77043763 </i>
    <i name="Echarged">      0.00000000 </i>
    <i name="Edipol_quadrupol">      0.00000000 </i>
    <i name="Eion">      0.00000000 </i>
   </dipole>
   <energy>
    <i name="e_fr_energy">   -190.04708028 </i>
    <i name="e_wo_entrp">   -189.80536781 </i>
    <i name="e_0_energy">   -189.92622405 </i>
   </energy>
  </scstep>
  <scstep>
   <time name="diag">    1.66    1.66</time>
   <time name="diis">    4.52    4.52</time>
   <time name="orth">    0.40    0.40</time>
   <time name="total">    6.95    6.95</time>
   <dipole>
    <v name="dipole">      0.00000000       0.00000000      -0.02702194 </v>
    <i name="Tr[quadrupol]"> -10291.87999983 </i>
    <i name="Echarged">      0.00000000 </i>
    <i name="Edipol_quadrupol">      0.00000000 </i>
    <i name="Eion">      0.00000000 </i>
   </dipole>
   <energy>
    <i name="e_fr_energy">   -189.72902955 </i>
    <i name="e_wo_entrp">   -189.46763658 </i>
    <i name="e_0_energy">   -189.59833307 </i>
   </energy>
  </scstep>
  <scstep>
   <time name="diag">    1.67    1.67</time>
   <time name="diis">    4.42    4.43</time>
   <time name="orth">    0.40    0.40</time>
   <time name="total">    6.86    6.87</time>
   <dipole>
    <v name="dipole">      0.00000000       0.00000000      -0.02961908 </v>
    <i name="Tr[quadrupol]"> -10292.31415487 </i>
    <i name="Echarged">      0.00000000 </i>
    <i name="Edipol_quadrupol">      0.00000000 </i>
    <i name="Eion">      0.00000000 </i>
   </dipole>
   <energy>
    <i name="e_fr_energy">   -189.64464554 </i>
    <i name="e_wo_entrp">   -189.38636013 </i>
    <i name="e_0_energy">   -189.51550284 </i>
   </energy>
  </scstep>
  <scstep>
   <time name="diag">    1.66    1.66</time>
   <time name="diis">    4.56    4.56</time>
   <time name="orth">    0.39    0.39</time>
   <time name="total">    6.98    6.98</time>
   <dipole>
    <v name="dipole">      0.00000000       0.00000000      -0.05215405 </v>
    <i name="Tr[quadrupol]"> -10292.56418480 </i>
    <i name="Echarged">      0.00000000 </i>
    <i name="Edipol_quadrupol">      0.00000000 </i>
    <i name="Eion">      0.00000000 </i>
   </dipole>
   <energy>
    <i name="e_fr_energy">   -189.53589645 </i>
    <i name="e_wo_entrp">   -189.27221685 </i>
    <i name="e_0_energy">   -189.40405665 </i>
   </energy>
  </scstep>
  <scstep>
   <time name="diag">    1.66    1.66</time>
   <time name="diis">    4.81    4.84</time>
   <time name="orth">    0.47    0.47</time>
   <time name="total">    7.42    7.45</time>
   <dipole>
    <v name="dipole">      0.00000000       0.00000000      -0.05878231 </v>
    <i name="Tr[quadrupol]"> -10292.75942089 </i>
    <i name="Echarged">      0.00000000 </i>
    <i name="Edipol_quadrupol">      0.00000000 </i>
    <i name="Eion">      0.00000000 </i>
   </dipole>
   <energy>
    <i name="e_fr_energy">   -189.45502414 </i>
    <i name="e_wo_entrp">   -189.18464237 </i>
    <i name="e_0_energy">   -189.31983326 </i>
   </energy>
  </scstep>
  <scstep>
   <time name="diag">    1.67    1.67</time>
   <time name="diis">    4.46    4.46</time>
   <time name="orth">    0.39    0.39</time>
   <time name="total">    6.89    6.89</time>
   <dipole>
    <v name="dipole">      0.00000000       0.00000000      -0.04749217 </v>
    <i name="Tr[quadrupol]"> -10292.85822572 </i>
    <i name="Echarged">      0.00000000 </i>
    <i name="Edipol_quadrupol">      0.00000000 </i>
    <i name="Eion">      0.00000000 </i>
   </dipole>
   <energy>
    <i name="e_fr_energy">   -189.43882293 </i>
    <i name="e_wo_entrp">   -189.16733742 </i>
    <i name="e_0_energy">   -189.30308017 </i>
   </energy>
  </scstep>
  <scstep>
   <time name="diag">    1.62    1.68</time>
   <time name="diis">    4.55    4.55</time>
   <time name="orth">    0.39    0.39</time>
   <time name="total">    6.92    6.99</time>
   <dipole>
    <v name="dipole">      0.00000000       0.00000000      -0.03402429 </v>
    <i name="Tr[quadrupol]"> -10292.92931175 </i>
    <i name="Echarged">      0.00000000 </i>
    <i name="Edipol_quadrupol">      0.00000000 </i>
    <i name="Eion">      0.00000000 </i>
   </dipole>
   <energy>
    <i name="e_fr_energy">   -189.42954384 </i>
    <i name="e_wo_entrp">   -189.15425142 </i>
    <i name="e_0_energy">   -189.29189763 </i>
   </energy>
  </scstep>
  <scstep>
   <time name="diag">    1.65    1.65</time>
   <time name="diis">    4.55    4.55</time>
   <time name="orth">    0.39    0.39</time>
   <time name="total">    6.95    6.95</time>
   <dipole>
    <v name="dipole">      0.00000000       0.00000000      -0.03086760 </v>
    <i name="Tr[quadrupol]"> -10292.99679696 </i>
    <i name="Echarged">      0.00000000 </i>
    <i name="Edipol_quadrupol">      0.00000000 </i>
    <i name="Eion">      0.00000000 </i>
   </dipole>
   <energy>
    <i name="e_fr_energy">   -189.42679248 </i>
    <i name="e_wo_entrp">   -189.15056478 </i>
    <i name="e_0_energy">   -189.28867863 </i>
   </energy>
  </scstep>
  <scstep>
   <time name="diag">    1.65    1.65</time>
   <time name="diis">    4.53    4.53</time>
   <time name="orth">    0.39    0.39</time>
   <time name="total">    6.94    6.95</time>
   <dipole>
    <v name="dipole">      0.00000000       0.00000000      -0.03268000 </v>
    <i name="Tr[quadrupol]"> -10293.10756062 </i>
    <i name="Echarged">      0.00000000 </i>
    <i name="Edipol_quadrupol">      0.00000000 </i>
    <i name="Eion">      0.00000000 </i>
   </dipole>
   <energy>
    <i name="e_fr_energy">   -189.42410721 </i>
    <i name="e_wo_entrp">   -189.14790175 </i>
    <i name="e_0_energy">   -189.28600448 </i>
   </energy>
  </scstep>
  <scstep>
   <time name="diag">    1.66    1.66</time>
   <time name="diis">    4.51    4.51</time>
   <time name="orth">    0.39    0.39</time>
   <time name="total">    6.91    6.92</time>
   <dipole>
    <v name="dipole">      0.00000000       0.00000000      -0.03291237 </v>
    <i name="Tr[quadrupol]"> -10293.22504688 </i>
    <i name="Echarged">      0.00000000 </i>
    <i name="Edipol_quadrupol">      0.00000000 </i>
    <i name="Eion">      0.00000000 </i>
   </dipole>
   <energy>
    <i name="e_fr_energy">   -189.42282060 </i>
    <i name="e_wo_entrp">   -189.14531861 </i>
    <i name="e_0_energy">   -189.28406960 </i>
   </energy>
  </scstep>
  <scstep>
   <time name="diag">    1.65    1.65</time>
   <time name="diis">    4.51    4.52</time>
   <time name="orth">    0.39    0.39</time>
   <time name="total">    6.92    6.93</time>
   <dipole>
    <v name="dipole">      0.00000000       0.00000000      -0.03053005 </v>
    <i name="Tr[quadrupol]"> -10293.33163012 </i>
    <i name="Echarged">      0.00000000 </i>
    <i name="Edipol_quadrupol">      0.00000000 </i>
    <i name="Eion">      0.00000000 </i>
   </dipole>
   <energy>
    <i name="e_fr_energy">   -189.42246056 </i>
    <i name="e_wo_entrp">   -189.14463415 </i>
    <i name="e_0_energy">   -189.28354735 </i>
   </energy>
  </scstep>
  <scstep>
   <time name="diag">    1.65    1.65</time>
   <time name="diis">    4.52    4.58</time>
   <time name="orth">    0.38    0.39</time>
   <time name="total">    6.92    6.99</time>
   <dipole>
    <v name="dipole">      0.00000000       0.00000000      -0.02899517 </v>
    <i name="Tr[quadrupol]"> -10293.39074358 </i>
    <i name="Echarged">      0.00000000 </i>
    <i name="Edipol_quadrupol">      0.00000000 </i>
    <i name="Eion">      0.00000000 </i>
   </dipole>
   <energy>
    <i name="e_fr_energy">   -189.42257509 </i>
    <i name="e_wo_entrp">   -189.14479428 </i>
    <i name="e_0_energy">   -189.28368469 </i>
   </energy>
  </scstep>
  <scstep>
   <time name="diag">    1.65    1.65</time>
   <time name="diis">    4.64    4.65</time>
   <time name="orth">    0.39    0.39</time>
   <time name="total">    7.06    7.06</time>
   <dipole>
    <v name="dipole">      0.00000000       0.00000000      -0.02660252 </v>
    <i name="Tr[quadrupol]"> -10293.46338540 </i>
    <i name="Echarged">      0.00000000 </i>
    <i name="Edipol_quadrupol">      0.00000000 </i>
    <i name="Eion">      0.00000000 </i>
   </dipole>
   <energy>
    <i name="e_fr_energy">   -189.42293378 </i>
    <i name="e_wo_entrp">   -189.14497167 </i>
    <i name="e_0_energy">   -189.28395272 </i>
   </energy>
  </scstep>
  <scstep>
   <time name="diag">    1.75    1.75</time>
   <time name="diis">    4.87    4.90</time>
   <time name="orth">    0.39    0.39</time>
   <time name="total">    7.37    7.41</time>
   <dipole>
    <v name="dipole">      0.00000000       0.00000000      -0.02514716 </v>
    <i name="Tr[quadrupol]"> -10293.52417150 </i>
    <i name="Echarged">      0.00000000 </i>
    <i name="Edipol_quadrupol">      0.00000000 </i>
    <i name="Eion">      0.00000000 </i>
   </dipole>
   <energy>
    <i name="e_fr_energy">   -189.42334707 </i>
    <i name="e_wo_entrp">   -189.14543161 </i>
    <i name="e_0_energy">   -189.28438934 </i>
   </energy>
  </scstep>
  <scstep>
   <time name="diag">    1.65    1.66</time>
   <time name="diis">    4.54    4.54</time>
   <time name="orth">    0.39    0.39</time>
   <time name="total">    6.95    6.96</time>
   <dipole>
    <v name="dipole">      0.00000000       0.00000000      -0.02398946 </v>
    <i name="Tr[quadrupol]"> -10293.56078342 </i>
    <i name="Echarged">      0.00000000 </i>
    <i name="Edipol_quadrupol">      0.00000000 </i>
    <i name="Eion">      0.00000000 </i>
   </dipole>
   <energy>
    <i name="e_fr_energy">   -189.42369871 </i>
    <i name="e_wo_entrp">   -189.14570410 </i>
    <i name="e_0_energy">   -189.28470140 </i>
   </energy>
  </scstep>
  <scstep>
   <time name="diag">    1.64    1.64</time>
   <time name="diis">    4.54    4.54</time>
   <time name="orth">    0.39    0.39</time>
   <time name="total">    6.94    6.95</time>
   <dipole>
    <v name="dipole">      0.00000000       0.00000000      -0.02262592 </v>
    <i name="Tr[quadrupol]"> -10293.60387586 </i>
    <i name="Echarged">      0.00000000 </i>
    <i name="Edipol_quadrupol">      0.00000000 </i>
    <i name="Eion">      0.00000000 </i>
   </dipole>
   <energy>
    <i name="e_fr_energy">   -189.42422546 </i>
    <i name="e_wo_entrp">   -189.14633775 </i>
    <i name="e_0_energy">   -189.28528160 </i>
   </energy>
  </scstep>
  <scstep>
   <time name="diag">    1.65    1.65</time>
   <time name="diis">    4.24    4.24</time>
   <time name="orth">    0.39    0.39</time>
   <time name="total">    6.65    6.66</time>
   <dipole>
    <v name="dipole">      0.00000000       0.00000000      -0.02152597 </v>
    <i name="Tr[quadrupol]"> -10293.63596345 </i>
    <i name="Echarged">      0.00000000 </i>
    <i name="Edipol_quadrupol">      0.00000000 </i>
    <i name="Eion">      0.00000000 </i>
   </dipole>
   <energy>
    <i name="e_fr_energy">   -189.42460593 </i>
    <i name="e_wo_entrp">   -189.14674656 </i>
    <i name="e_0_energy">   -189.28567625 </i>
   </energy>
  </scstep>
  <scstep>
   <time name="diag">    1.66    1.66</time>
   <time name="diis">    4.37    4.44</time>
   <time name="orth">    0.39    0.39</time>
   <time name="total">    6.78    6.85</time>
   <dipole>
    <v name="dipole">      0.00000000       0.00000000      -0.01875592 </v>
    <i name="Tr[quadrupol]"> -10293.70691230 </i>
    <i name="Echarged">      0.00000000 </i>
    <i name="Edipol_quadrupol">      0.00000000 </i>
    <i name="Eion">      0.00000000 </i>
   </dipole>
   <energy>
    <i name="e_fr_energy">   -189.42535639 </i>
    <i name="e_wo_entrp">   -189.14740164 </i>
    <i name="e_0_energy">   -189.28637902 </i>
   </energy>
  </scstep>
  <scstep>
   <time name="diag">    1.66    1.67</time>
   <time name="diis">    3.83    3.83</time>
   <time name="orth">    0.39    0.39</time>
   <time name="total">    6.25    6.26</time>
   <dipole>
    <v name="dipole">      0.00000000       0.00000000      -0.01797212 </v>
    <i name="Tr[quadrupol]"> -10293.73050458 </i>
    <i name="Echarged">      0.00000000 </i>
    <i name="Edipol_quadrupol">      0.00000000 </i>
    <i name="Eion">      0.00000000 </i>
   </dipole>
   <energy>
    <i name="e_fr_energy">   -189.42558022 </i>
    <i name="e_wo_entrp">   -189.14765906 </i>
    <i name="e_0_energy">   -189.28661964 </i>
   </energy>
  </scstep>
  <scstep>
   <time name="diag">    1.65    1.65</time>
   <time name="diis">    3.39    3.39</time>
   <time name="orth">    0.39    0.39</time>
   <time name="total">    5.80    5.81</time>
   <dipole>
    <v name="dipole">      0.00000000       0.00000000      -0.01713715 </v>
    <i name="Tr[quadrupol]"> -10293.74849190 </i>
    <i name="Echarged">      0.00000000 </i>
    <i name="Edipol_quadrupol">      0.00000000 </i>
    <i name="Eion">      0.00000000 </i>
   </dipole>
   <energy>
    <i name="e_fr_energy">   -189.42575119 </i>
    <i name="e_wo_entrp">   -189.14781627 </i>
    <i name="e_0_energy">   -189.28678373 </i>
   </energy>
  </scstep>
  <scstep>
   <time name="diag">    1.65    1.65</time>
   <time name="diis">    3.07    3.07</time>
   <time name="orth">    0.40    0.40</time>
   <time name="total">    5.49    5.50</time>
   <dipole>
    <v name="dipole">      0.00000000       0.00000000      -0.01678559 </v>
    <i name="Tr[quadrupol]"> -10293.75520206 </i>
    <i name="Echarged">      0.00000000 </i>
    <i name="Edipol_quadrupol">      0.00000000 </i>
    <i name="Eion">      0.00000000 </i>
   </dipole>
   <energy>
    <i name="e_fr_energy">   -189.42582080 </i>
    <i name="e_wo_entrp">   -189.14790014 </i>
    <i name="e_0_energy">   -189.28686047 </i>
   </energy>
  </scstep>
  <scstep>
   <time name="diag">    1.66    1.67</time>
   <time name="diis">    2.86    2.87</time>
   <time name="orth">    0.39    0.39</time>
   <time name="total">    5.28    5.29</time>
   <dipole>
    <v name="dipole">      0.00000000       0.00000000      -0.01618272 </v>
    <i name="Tr[quadrupol]"> -10293.76357384 </i>
    <i name="Echarged">      0.00000000 </i>
    <i name="Edipol_quadrupol">      0.00000000 </i>
    <i name="Eion">      0.00000000 </i>
   </dipole>
   <energy>
    <i name="e_fr_energy">   -189.42590345 </i>
    <i name="e_wo_entrp">   -189.14797343 </i>
    <i name="e_0_energy">   -189.28693844 </i>
   </energy>
  </scstep>
  <scstep>
   <time name="diag">    1.67    1.67</time>
   <time name="diis">    2.88    2.89</time>
   <time name="orth">    0.49    0.49</time>
   <time name="total">    5.54    5.56</time>
   <dipole>
    <v name="dipole">      0.00000000       0.00000000      -0.01583460 </v>
    <i name="Tr[quadrupol]"> -10293.76795783 </i>
    <i name="Echarged">      0.00000000 </i>
    <i name="Edipol_quadrupol">      0.00000000 </i>
    <i name="Eion">      0.00000000 </i>
   </dipole>
   <energy>
    <i name="e_fr_energy">   -189.42594189 </i>
    <i name="e_wo_entrp">   -189.14800965 </i>
    <i name="e_0_energy">   -189.28697577 </i>
   </energy>
  </scstep>
  <scstep>
   <time name="diag">    1.87    1.88</time>
   <time name="diis">    2.74    2.74</time>
   <time name="orth">    0.39    0.39</time>
   <time name="total">    5.38    5.39</time>
   <dipole>
    <v name="dipole">      0.00000000       0.00000000      -0.01555468 </v>
    <i name="Tr[quadrupol]"> -10293.77118930 </i>
    <i name="Echarged">      0.00000000 </i>
    <i name="Edipol_quadrupol">      0.00000000 </i>
    <i name="Eion">      0.00000000 </i>
   </dipole>
   <energy>
    <i name="e_fr_energy">   -189.42596622 </i>
    <i name="e_wo_entrp">   -189.14803377 </i>
    <i name="e_0_energy">   -189.28700000 </i>
   </energy>
  </scstep>
  <scstep>
   <time name="diag">    1.65    1.65</time>
   <time name="diis">    2.75    2.75</time>
   <time name="orth">    0.38    0.40</time>
   <time name="total">    5.16    5.20</time>
   <dipole>
    <v name="dipole">      0.00000000       0.00000000      -0.01522451 </v>
    <i name="Tr[quadrupol]"> -10293.77504975 </i>
    <i name="Echarged">      0.00000000 </i>
    <i name="Edipol_quadrupol">      0.00000000 </i>
    <i name="Eion">      0.00000000 </i>
   </dipole>
   <energy>
    <i name="e_fr_energy">   -189.42598554 </i>
    <i name="e_wo_entrp">   -189.14805387 </i>
    <i name="e_0_energy">   -189.28701970 </i>
   </energy>
  </scstep>
  <scstep>
   <time name="diag">    1.64    1.66</time>
   <time name="diis">    2.23    2.23</time>
   <time name="orth">    0.39    0.39</time>
   <time name="total">    4.63    4.65</time>
   <dipole>
    <v name="dipole">      0.00000000       0.00000000      -0.01506488 </v>
    <i name="Tr[quadrupol]"> -10293.77691516 </i>
    <i name="Echarged">      0.00000000 </i>
    <i name="Edipol_quadrupol">      0.00000000 </i>
    <i name="Eion">      0.00000000 </i>
   </dipole>
   <energy>
    <i name="e_fr_energy">   -189.42599031 </i>
    <i name="e_wo_entrp">   -189.14806047 </i>
    <i name="e_0_energy">   -189.28702539 </i>
   </energy>
  </scstep>
  <scstep>
   <time name="diag">    1.66    1.66</time>
   <time name="diis">    2.14    2.14</time>
   <time name="orth">    0.39    0.39</time>
   <time name="total">    4.56    4.57</time>
   <dipole>
    <v name="dipole">      0.00000000       0.00000000      -0.01493013 </v>
    <i name="Tr[quadrupol]"> -10293.77867436 </i>
    <i name="Echarged">      0.00000000 </i>
    <i name="Edipol_quadrupol">      0.00000000 </i>
    <i name="Eion">      0.00000000 </i>
   </dipole>
   <energy>
    <i name="e_fr_energy">   -189.42599218 </i>
    <i name="e_wo_entrp">   -189.14806238 </i>
    <i name="e_0_energy">   -189.28702728 </i>
   </energy>
  </scstep>
  <scstep>
   <time name="diag">    1.65    1.65</time>
   <time name="diis">    1.99    1.99</time>
   <time name="orth">    0.39    0.39</time>
   <time name="total">    4.09    4.09</time>
   <dipole>
    <v name="dipole">      0.00000000       0.00000000      -0.01485635 </v>
    <i name="Tr[quadrupol]"> -10293.77973827 </i>
    <i name="Echarged">      0.00000000 </i>
    <i name="Edipol_quadrupol">      0.00000000 </i>
    <i name="Eion">      0.00000000 </i>
   </dipole>
   <energy>
    <i name="alphaZ">    805.87405939 </i>
    <i name="ewald"> 199693.00345983 </i>
    <i name="hartreedc">-241889.65141344 </i>
    <i name="XCdc">   -343.70328309 </i>
    <i name="pawpsdc">  49275.40945657 </i>
    <i name="pawaedc"> -47353.71610080 </i>
    <i name="eentropy">     -0.27793010 </i>
    <i name="bandstr">  -2036.15011343 </i>
    <i name="atom">  41659.78587232 </i>
    <i name="e_fr_energy">   -189.42599277 </i>
    <i name="e_wo_entrp">   -189.14806267 </i>
    <i name="e_0_energy">   -189.28702772 </i>
   </energy>
  </scstep>
  <structure>
   <crystal>
    <varray name="basis" >
     <v>      11.00258152       0.00000000       0.00000000 </v>
     <v>       5.50129076       9.52851510       0.00000000 </v>
     <v>       0.00000000       0.00000000      24.49178509 </v>
    </varray>
    <i name="volume">   2567.67623402 </i>
    <varray name="rec_basis" >
     <v>       0.09088776      -0.05247407       0.00000000 </v>
     <v>       0.00000000       0.10494815       0.00000000 </v>
     <v>       0.00000000       0.00000000       0.04083002 </v>
    </varray>
   </crystal>
   <varray name="positions" >
    <v>       0.25000000       0.75000000       0.59169983 </v>
    <v>       0.50000000       0.50000000       0.59169983 </v>
    <v>       0.58333333       0.83333333       0.40830017 </v>
    <v>       0.50000000       0.00000000       0.59169983 </v>
    <v>       0.41666667       0.91666667       0.50000000 </v>
    <v>       0.58333333       0.08333333       0.40830017 </v>
    <v>       0.50000000       0.75000000       0.59169983 </v>
    <v>       0.16666667       0.91666667       0.50000000 </v>
    <v>       0.66666667       0.16666667       0.50000000 </v>
    <v>       0.83333333       0.33333333       0.40830017 </v>
    <v>       0.25000000       0.25000000       0.59169983 </v>
    <v>       0.50000000       0.25000000       0.59169983 </v>
    <v>       0.25000000       0.00000000       0.59169983 </v>
    <v>       0.33333333       0.33333333       0.40830017 </v>
    <v>       0.33333333       0.08333333       0.40830017 </v>
    <v>       0.08333333       0.33333333       0.40830017 </v>
    <v>       0.91666667       0.41666667       0.50000000 </v>
    <v>       0.00000000       0.25000000       0.59169983 </v>
    <v>       0.08333333       0.58333333       0.40830017 </v>
    <v>       0.75000000       0.25000000       0.59169983 </v>
    <v>       0.91666667       0.66666667       0.50000000 </v>
    <v>       0.08333333       0.83333333       0.40830017 </v>
    <v>       0.66666667       0.66666667       0.50000000 </v>
    <v>       0.00000000       0.50000000       0.59169983 </v>
    <v>       0.83333333       0.08333333       0.40830017 </v>
    <v>       0.75000000       0.00000000       0.59169983 </v>
    <v>       0.66666667       0.41666667       0.50000000 </v>
    <v>       0.83333333       0.58333333       0.40830017 </v>
    <v>       0.75000000       0.50000000       0.59169983 </v>
    <v>       0.83333333       0.83333333       0.40830017 </v>
    <v>       0.41666667       0.66666667       0.50000000 </v>
    <v>       0.08333333       0.08333333       0.40830017 </v>
    <v>       0.41666667       0.41666667       0.50000000 </v>
    <v>       0.58333333       0.33333333       0.40830017 </v>
    <v>       0.41666667       0.16666667       0.50000000 </v>
    <v>       0.66666667       0.91666667       0.50000000 </v>
    <v>       0.33333333       0.83333333       0.40830017 </v>
    <v>       0.25000000       0.50000000       0.59169983 </v>
    <v>       0.16666667       0.66666667       0.50000000 </v>
    <v>       0.33333333       0.58333333       0.40830017 </v>
    <v>       0.16666667       0.41666667       0.50000000 </v>
    <v>       0.16666667       0.16666667       0.50000000 </v>
    <v>       0.00000000       0.75000000       0.59169983 </v>
    <v>       0.91666667       0.91666667       0.50000000 </v>
    <v>       0.00000000       0.00000000       0.59169983 </v>
    <v>       0.91666667       0.16666667       0.50000000 </v>
    <v>       0.58333333       0.58333333       0.40830017 </v>
    <v>       0.75000000       0.75000000       0.59169983 </v>
   </varray>
  </structure>
  <varray name="forces" >
   <v>      -0.51231657      -0.17794033       1.31680630 </v>
   <v>      -0.02514557       0.01419444       1.15614813 </v>
   <v>       0.11642946      -0.33076280      -1.57455139 </v>
   <v>       0.51994491      -0.14395044       1.36624650 </v>
   <v>      -0.04821215       0.11724130      -0.34699152 </v>
   <v>       0.38112323      -0.06501174      -1.31440649 </v>
   <v>       0.27256402      -0.32274049       1.62083291 </v>
   <v>      -0.37164574       0.18496421      -0.34308856 </v>
   <v>       0.20056715      -0.15877838      -0.28296138 </v>
   <v>      -0.34047300      -0.10914468      -1.32295472 </v>
   <v>       0.13099832       0.24924626       1.12815253 </v>
   <v>      -0.11453095       0.08579384       1.32636012 </v>
   <v>      -0.27983738       0.15913915       1.63008649 </v>
   <v>       0.35006158       0.23787341      -1.10394670 </v>
   <v>      -0.36454583      -0.03624703      -1.38354646 </v>
   <v>      -0.11351136      -0.11128139      -1.37994487 </v>
   <v>      -0.22975891      -0.14993101      -0.04311054 </v>
   <v>      -0.25760604      -0.12158684       1.35652027 </v>
   <v>       0.02676692       0.15826226      -1.34119547 </v>
   <v>       0.24278107      -0.13141884       1.33360407 </v>
   <v>       0.27494965       0.58398747       0.08210981 </v>
   <v>       0.00098361       0.14788691      -1.31358231 </v>
   <v>      -0.12399872      -0.28757484      -0.04884471 </v>
   <v>       0.16933763       0.34491346       1.54582570 </v>
   <v>       0.04063847      -0.04581794      -0.60688948 </v>
   <v>       0.15771445      -0.37921193       0.66752079 </v>
   <v>      -0.19962205       0.12112511      -0.27389622 </v>
   <v>      -0.08161526       0.14354483      -1.02295580 </v>
   <v>      -0.03008834       0.06426294       0.89458520 </v>
   <v>       0.03588989       0.08659012      -0.73787433 </v>
   <v>      -0.20744300      -0.44305823      -0.54804745 </v>
   <v>      -0.05932515      -0.03760732      -0.70882399 </v>
   <v>      -0.11510613       0.35651213      -0.21552132 </v>
   <v>       0.08523033       0.21104606      -0.62810335 </v>
   <v>      -0.04293464       0.21979271       0.04770493 </v>
   <v>       0.41853538       0.02909837       0.18348145 </v>
   <v>      -0.08833338      -0.21693819      -0.83127405 </v>
   <v>      -0.04269451       0.11535012       0.54199863 </v>
   <v>       0.09036101      -0.27411665       0.21656013 </v>
   <v>       0.35040163      -0.04134773      -0.46921509 </v>
   <v>       0.48515417      -0.04249013       0.16655858 </v>
   <v>      -0.04846768       0.04457415      -0.18190159 </v>
   <v>       0.02534807       0.22482008       0.59413082 </v>
   <v>      -0.11985160       0.03759200       0.17590306 </v>
   <v>      -0.31896810      -0.12793873       0.67989511 </v>
   <v>      -0.08240275      -0.26705246      -0.19046851 </v>
   <v>      -0.29640453      -0.03016903      -0.68587254 </v>
   <v>       0.13905840       0.11430583       0.86893732 </v>
  </varray>
  <energy>
   <i name="e_fr_energy">   -189.42599277 </i>
   <i name="e_wo_entrp">   -189.28702772 </i>
   <i name="e_0_energy">     -0.27793010 </i>
  </energy>
  <time name="totalsc">  291.94  292.83</time>
 </calculation>
 <calculation>
  <scstep>
   <time name="dav">    9.47    9.48</time>
   <time name="total">    9.84    9.85</time>
   <dipole>
    <v name="dipole">      0.00000000       0.00000000      -0.01477800 </v>
    <i name="Tr[quadrupol]"> -10282.25825417 </i>
    <i name="Echarged">      0.00000000 </i>
    <i name="Edipol_quadrupol">      0.00000000 </i>
    <i name="Eion">      0.00000000 </i>
   </dipole>
   <energy>
    <i name="alphaZ">    805.87410725 </i>
    <i name="ewald"> 197093.30972617 </i>
    <i name="hartreedc">-239304.88668568 </i>
    <i name="XCdc">   -345.80996173 </i>
    <i name="pawpsdc">  49275.40260934 </i>
    <i name="pawaedc"> -47353.70928680 </i>
    <i name="eentropy">     -0.27404368 </i>
    <i name="bandstr">  -2020.12345561 </i>
    <i name="atom">  41659.78587232 </i>
    <i name="e_fr_energy">   -190.43111843 </i>
    <i name="e_wo_entrp">   -190.15707474 </i>
    <i name="e_0_energy">   -190.29409659 </i>
   </energy>
  </scstep>
  <scstep>
   <time name="diag">    1.65    1.65</time>
   <time name="diis">    4.46    4.47</time>
   <time name="orth">    0.39    0.39</time>
   <time name="total">    6.87    6.87</time>
   <dipole>
    <v name="dipole">      0.00000000       0.00000000      -0.00989835 </v>
    <i name="Tr[quadrupol]"> -10281.98617177 </i>
    <i name="Echarged">      0.00000000 </i>
    <i name="Edipol_quadrupol">      0.00000000 </i>
    <i name="Eion">      0.00000000 </i>
   </dipole>
   <energy>
    <i name="e_fr_energy">   -190.79957452 </i>
    <i name="e_wo_entrp">   -190.52617904 </i>
    <i name="e_0_energy">   -190.66287678 </i>
   </energy>
  </scstep>
  <scstep>
   <time name="diag">    1.64    1.64</time>
   <time name="diis">    4.54    4.55</time>
   <time name="orth">    0.38    0.41</time>
   <time name="total">    6.93    6.98</time>
   <dipole>
    <v name="dipole">      0.00000000       0.00000000      -0.01785115 </v>
    <i name="Tr[quadrupol]"> -10282.43807484 </i>
    <i name="Echarged">      0.00000000 </i>
    <i name="Edipol_quadrupol">      0.00000000 </i>
    <i name="Eion">      0.00000000 </i>
   </dipole>
   <energy>
    <i name="e_fr_energy">   -190.93740543 </i>
    <i name="e_wo_entrp">   -190.68333404 </i>
    <i name="e_0_energy">   -190.81036973 </i>
   </energy>
  </scstep>
  <scstep>
   <time name="diag">    1.66    1.67</time>
   <time name="diis">    4.46    4.46</time>
   <time name="orth">    0.39    0.39</time>
   <time name="total">    6.88    6.90</time>
   <dipole>
    <v name="dipole">      0.00000000       0.00000000      -0.02661546 </v>
    <i name="Tr[quadrupol]"> -10282.37162469 </i>
    <i name="Echarged">      0.00000000 </i>
    <i name="Edipol_quadrupol">      0.00000000 </i>
    <i name="Eion">      0.00000000 </i>
   </dipole>
   <energy>
    <i name="e_fr_energy">   -190.76973662 </i>
    <i name="e_wo_entrp">   -190.49411427 </i>
    <i name="e_0_energy">   -190.63192545 </i>
   </energy>
  </scstep>
  <scstep>
   <time name="diag">    1.72    1.72</time>
   <time name="diis">    4.96    4.98</time>
   <time name="orth">    0.39    0.39</time>
   <time name="total">    7.43    7.47</time>
   <dipole>
    <v name="dipole">      0.00000000       0.00000000       0.01336970 </v>
    <i name="Tr[quadrupol]"> -10282.33786964 </i>
    <i name="Echarged">      0.00000000 </i>
    <i name="Edipol_quadrupol">      0.00000000 </i>
    <i name="Eion">      0.00000000 </i>
   </dipole>
   <energy>
    <i name="e_fr_energy">   -190.80249615 </i>
    <i name="e_wo_entrp">   -190.52829521 </i>
    <i name="e_0_energy">   -190.66539568 </i>
   </energy>
  </scstep>
  <scstep>
   <time name="diag">    1.65    1.65</time>
   <time name="diis">    4.45    4.45</time>
   <time name="orth">    0.39    0.39</time>
   <time name="total">    6.85    6.86</time>
   <dipole>
    <v name="dipole">      0.00000000       0.00000000      -0.02491399 </v>
    <i name="Tr[quadrupol]"> -10282.32941016 </i>
    <i name="Echarged">      0.00000000 </i>
    <i name="Edipol_quadrupol">      0.00000000 </i>
    <i name="Eion">      0.00000000 </i>
   </dipole>
   <energy>
    <i name="e_fr_energy">   -190.76186722 </i>
    <i name="e_wo_entrp">   -190.48722214 </i>
    <i name="e_0_energy">   -190.62454468 </i>
   </energy>
  </scstep>
  <scstep>
   <time name="diag">    1.64    1.65</time>
   <time name="diis">    4.44    4.45</time>
   <time name="orth">    0.39    0.39</time>
   <time name="total">    6.84    6.85</time>
   <dipole>
    <v name="dipole">      0.00000000       0.00000000       0.00329763 </v>
    <i name="Tr[quadrupol]"> -10282.31253623 </i>
    <i name="Echarged">      0.00000000 </i>
    <i name="Edipol_quadrupol">      0.00000000 </i>
    <i name="Eion">      0.00000000 </i>
   </dipole>
   <energy>
    <i name="e_fr_energy">   -190.75890314 </i>
    <i name="e_wo_entrp">   -190.48107780 </i>
    <i name="e_0_energy">   -190.61999047 </i>
   </energy>
  </scstep>
  <scstep>
   <time name="diag">    1.66    1.66</time>
   <time name="diis">    4.51    4.51</time>
   <time name="orth">    0.39    0.39</time>
   <time name="total">    6.93    6.94</time>
   <dipole>
    <v name="dipole">      0.00000000       0.00000000      -0.02053077 </v>
    <i name="Tr[quadrupol]"> -10282.29131864 </i>
    <i name="Echarged">      0.00000000 </i>
    <i name="Edipol_quadrupol">      0.00000000 </i>
    <i name="Eion">      0.00000000 </i>
   </dipole>
   <energy>
    <i name="e_fr_energy">   -190.75556564 </i>
    <i name="e_wo_entrp">   -190.48143074 </i>
    <i name="e_0_energy">   -190.61849819 </i>
   </energy>
  </scstep>
  <scstep>
   <time name="diag">    1.65    1.65</time>
   <time name="diis">    4.44    4.51</time>
   <time name="orth">    0.39    0.39</time>
   <time name="total">    6.85    6.93</time>
   <dipole>
    <v name="dipole">      0.00000000       0.00000000      -0.01251707 </v>
    <i name="Tr[quadrupol]"> -10282.28234371 </i>
    <i name="Echarged">      0.00000000 </i>
    <i name="Edipol_quadrupol">      0.00000000 </i>
    <i name="Eion">      0.00000000 </i>
   </dipole>
   <energy>
    <i name="e_fr_energy">   -190.75364892 </i>
    <i name="e_wo_entrp">   -190.47682671 </i>
    <i name="e_0_energy">   -190.61523781 </i>
   </energy>
  </scstep>
  <scstep>
   <time name="diag">    1.65    1.65</time>
   <time name="diis">    4.53    4.53</time>
   <time name="orth">    0.39    0.39</time>
   <time name="total">    6.94    6.94</time>
   <dipole>
    <v name="dipole">      0.00000000       0.00000000      -0.01344893 </v>
    <i name="Tr[quadrupol]"> -10282.27233847 </i>
    <i name="Echarged">      0.00000000 </i>
    <i name="Edipol_quadrupol">      0.00000000 </i>
    <i name="Eion">      0.00000000 </i>
   </dipole>
   <energy>
    <i name="e_fr_energy">   -190.75344262 </i>
    <i name="e_wo_entrp">   -190.47745759 </i>
    <i name="e_0_energy">   -190.61545010 </i>
   </energy>
  </scstep>
  <scstep>
   <time name="diag">    1.64    1.64</time>
   <time name="diis">    4.50    4.50</time>
   <time name="orth">    0.39    0.39</time>
   <time name="total">    6.89    6.90</time>
   <dipole>
    <v name="dipole">      0.00000000       0.00000000      -0.01282242 </v>
    <i name="Tr[quadrupol]"> -10282.27219923 </i>
    <i name="Echarged">      0.00000000 </i>
    <i name="Edipol_quadrupol">      0.00000000 </i>
    <i name="Eion">      0.00000000 </i>
   </dipole>
   <energy>
    <i name="e_fr_energy">   -190.75337153 </i>
    <i name="e_wo_entrp">   -190.47718904 </i>
    <i name="e_0_energy">   -190.61528028 </i>
   </energy>
  </scstep>
  <scstep>
   <time name="diag">    1.66    1.66</time>
   <time name="diis">    4.48    4.48</time>
   <time name="orth">    0.39    0.39</time>
   <time name="total">    6.90    6.91</time>
   <dipole>
    <v name="dipole">      0.00000000       0.00000000      -0.01315919 </v>
    <i name="Tr[quadrupol]"> -10282.27387379 </i>
    <i name="Echarged">      0.00000000 </i>
    <i name="Edipol_quadrupol">      0.00000000 </i>
    <i name="Eion">      0.00000000 </i>
   </dipole>
   <energy>
    <i name="e_fr_energy">   -190.75336304 </i>
    <i name="e_wo_entrp">   -190.47717862 </i>
    <i name="e_0_energy">   -190.61527083 </i>
   </energy>
  </scstep>
  <scstep>
   <time name="diag">    1.66    1.66</time>
   <time name="diis">    4.57    4.58</time>
   <time name="orth">    0.47    0.48</time>
   <time name="total">    7.19    7.21</time>
   <dipole>
    <v name="dipole">      0.00000000       0.00000000      -0.01301033 </v>
    <i name="Tr[quadrupol]"> -10282.27698709 </i>
    <i name="Echarged">      0.00000000 </i>
    <i name="Edipol_quadrupol">      0.00000000 </i>
    <i name="Eion">      0.00000000 </i>
   </dipole>
   <energy>
    <i name="e_fr_energy">   -190.75335389 </i>
    <i name="e_wo_entrp">   -190.47715309 </i>
    <i name="e_0_energy">   -190.61525349 </i>
   </energy>
  </scstep>
  <scstep>
   <time name="diag">    1.89    1.90</time>
   <time name="diis">    4.44    4.44</time>
   <time name="orth">    0.39    0.39</time>
   <time name="total">    7.10    7.11</time>
   <dipole>
    <v name="dipole">      0.00000000       0.00000000      -0.01322393 </v>
    <i name="Tr[quadrupol]"> -10282.28006078 </i>
    <i name="Echarged">      0.00000000 </i>
    <i name="Edipol_quadrupol">      0.00000000 </i>
    <i name="Eion">      0.00000000 </i>
   </dipole>
   <energy>
    <i name="e_fr_energy">   -190.75335132 </i>
    <i name="e_wo_entrp">   -190.47716632 </i>
    <i name="e_0_energy">   -190.61525882 </i>
   </energy>
  </scstep>
  <scstep>
   <time name="diag">    1.64    1.64</time>
   <time name="diis">    3.52    3.60</time>
   <time name="orth">    0.40    0.40</time>
   <time name="total">    5.93    6.00</time>
   <dipole>
    <v name="dipole">      0.00000000       0.00000000      -0.01308280 </v>
    <i name="Tr[quadrupol]"> -10282.28147564 </i>
    <i name="Echarged">      0.00000000 </i>
    <i name="Edipol_quadrupol">      0.00000000 </i>
    <i name="Eion">      0.00000000 </i>
   </dipole>
   <energy>
    <i name="e_fr_energy">   -190.75334896 </i>
    <i name="e_wo_entrp">   -190.47718137 </i>
    <i name="e_0_energy">   -190.61526517 </i>
   </energy>
  </scstep>
  <scstep>
   <time name="diag">    1.67    1.67</time>
   <time name="diis">    2.64    2.64</time>
   <time name="orth">    0.40    0.40</time>
   <time name="total">    4.76    4.77</time>
   <dipole>
    <v name="dipole">      0.00000000       0.00000000      -0.01311942 </v>
    <i name="Tr[quadrupol]"> -10282.28270169 </i>
    <i name="Echarged">      0.00000000 </i>
    <i name="Edipol_quadrupol">      0.00000000 </i>
    <i name="Eion">      0.00000000 </i>
   </dipole>
   <energy>
    <i name="alphaZ">    805.87357570 </i>
    <i name="ewald"> 197093.30972617 </i>
    <i name="hartreedc">-239306.21789906 </i>
    <i name="XCdc">   -345.76397183 </i>
    <i name="pawpsdc">  48853.81042638 </i>
    <i name="pawaedc"> -46929.12164603 </i>
    <i name="eentropy">     -0.27618036 </i>
    <i name="bandstr">  -2022.15325245 </i>
    <i name="atom">  41659.78587232 </i>
    <i name="e_fr_energy">   -190.75334918 </i>
    <i name="e_wo_entrp">   -190.47716882 </i>
    <i name="e_0_energy">   -190.61525900 </i>
   </energy>
  </scstep>
  <structure>
   <crystal>
    <varray name="basis" >
     <v>      11.00258152       0.00000000       0.00000000 </v>
     <v>       5.50129076       9.52851510       0.00000000 </v>
     <v>       0.00000000       0.00000000      24.49178509 </v>
    </varray>
    <i name="volume">   2567.67623402 </i>
    <varray name="rec_basis" >
     <v>       0.09088776      -0.05247407       0.00000000 </v>
     <v>       0.00000000       0.10494815       0.00000000 </v>
     <v>       0.00000000       0.00000000       0.04083002 </v>
    </varray>
   </crystal>
   <varray name="positions" >
    <v>       0.24874288       0.74936936       0.59351547 </v>
    <v>       0.49989767       0.50005031       0.59329396 </v>
    <v>       0.58427681       0.83216108       0.40612914 </v>
    <v>       0.50185094      -0.00051017       0.59358364 </v>
    <v>       0.41631093       0.91708218       0.49952156 </v>
    <v>       0.58461831       0.08310293       0.40648783 </v>
    <v>       0.50140848       0.74885618       0.59393467 </v>
    <v>       0.16519822       0.91732220       0.49952694 </v>
    <v>       0.66756362       0.16610394       0.49960985 </v>
    <v>       0.83248174       0.33294652       0.40647605 </v>
    <v>       0.24996039       0.25088335       0.59325535 </v>
    <v>       0.49949644       0.25030406       0.59352865 </v>
    <v>       0.24885910       0.00056400       0.59394743 </v>
    <v>       0.33398624       0.33417638       0.40677802 </v>
    <v>       0.33227868       0.08320487       0.40639250 </v>
    <v>       0.08318213       0.33293894       0.40639747 </v>
    <v>       0.91622716       0.41613530       0.49994056 </v>
    <v>      -0.00057520       0.24956909       0.59357023 </v>
    <v>       0.08313504       0.58389423       0.40645090 </v>
    <v>       0.75097804       0.24953424       0.59353864 </v>
    <v>       0.91647571       0.66873637       0.50011321 </v>
    <v>       0.08307429       0.83385746       0.40648897 </v>
    <v>       0.66679568       0.66564748       0.49993265 </v>
    <v>      -0.00009146       0.50122240       0.59383125 </v>
    <v>       0.83353925       0.08317095       0.40746338 </v>
    <v>       0.75115605      -0.00134396       0.59262022 </v>
    <v>       0.66583933       0.41709594       0.49962235 </v>
    <v>       0.83282847       0.58384207       0.40688969 </v>
    <v>       0.74979377       0.50022775       0.59293331 </v>
    <v>       0.83329005       0.83364022       0.40728277 </v>
    <v>       0.41681509       0.66509643       0.49924434 </v>
    <v>       0.08321789       0.08320005       0.40732283 </v>
    <v>       0.41568162       0.41793018       0.49970283 </v>
    <v>       0.58322095       0.33408130       0.40743413 </v>
    <v>       0.41614541       0.16744563       0.50006578 </v>
    <v>       0.66789970       0.91676979       0.50025299 </v>
    <v>       0.33344664       0.83256449       0.40715399 </v>
    <v>       0.24966455       0.50040881       0.59244715 </v>
    <v>       0.16742975       0.66569517       0.50029860 </v>
    <v>       0.33448208       0.58318679       0.40765320 </v>
    <v>       0.16823103       0.41651608       0.50022965 </v>
    <v>       0.16643892       0.16682464       0.49974919 </v>
    <v>      -0.00032059       0.75079678       0.59251903 </v>
    <v>       0.91623220       0.91679990       0.50024254 </v>
    <v>      -0.00075229      -0.00045343       0.59263729 </v>
    <v>       0.91688698       0.16572021       0.49973738 </v>
    <v>       0.58247705       0.58322641       0.40735447 </v>
    <v>       0.75022425       0.75040511       0.59289794 </v>
   </varray>
  </structure>
  <varray name="forces" >
   <v>      -0.20714572      -0.03382413       0.92028377 </v>
   <v>      -0.01065748      -0.01059688       0.83214242 </v>
   <v>       0.07364898      -0.16812179      -1.12585774 </v>
   <v>       0.21616839      -0.11186884       0.94364417 </v>
   <v>       0.00873241       0.01760320      -0.05582586 </v>
   <v>       0.14643215      -0.05476436      -0.97438256 </v>
   <v>       0.07749044      -0.09533582       1.08633839 </v>
   <v>      -0.15817516      -0.00281616      -0.07704678 </v>
   <v>       0.04713476       0.02083584      -0.03430739 </v>
   <v>      -0.19464443      -0.04607731      -1.00742316 </v>
   <v>       0.00803983       0.10558209       0.84604679 </v>
   <v>       0.04797472       0.04487594       0.91903328 </v>
   <v>      -0.11122114      -0.01300276       1.10704537 </v>
   <v>       0.18715668       0.09879284      -0.84991291 </v>
   <v>      -0.12556805      -0.04022765      -1.05065814 </v>
   <v>      -0.07111303       0.01720877      -0.98496815 </v>
   <v>       0.00048347      -0.09186146      -0.00515819 </v>
   <v>      -0.11046996      -0.02078902       0.97090408 </v>
   <v>       0.00461333       0.09557977      -0.95779022 </v>
   <v>       0.06386575      -0.08439478       0.93981501 </v>
   <v>       0.15700480       0.15271175       0.01656962 </v>
   <v>      -0.01839234       0.04802192      -0.99318039 </v>
   <v>      -0.09041485      -0.05238063      -0.01539973 </v>
   <v>       0.04209041       0.21994880       1.05713647 </v>
   <v>       0.04441662      -0.04511740      -0.53546288 </v>
   <v>       0.12891487      -0.17819189       0.55627832 </v>
   <v>      -0.14599963      -0.03362039      -0.07369640 </v>
   <v>      -0.02982459       0.04452676      -0.71957016 </v>
   <v>       0.03125864       0.01029314       0.67289969 </v>
   <v>       0.03381217       0.05095315      -0.59960345 </v>
   <v>      -0.12344019      -0.13911900      -0.12302960 </v>
   <v>      -0.05774394      -0.01154216      -0.61380836 </v>
   <v>      -0.02306632       0.11242986      -0.03100962 </v>
   <v>       0.05146334       0.10906720      -0.53440149 </v>
   <v>       0.01460078       0.09134563      -0.01262567 </v>
   <v>       0.08391303       0.06196482       0.02854941 </v>
   <v>      -0.05186642      -0.13341209      -0.66085316 </v>
   <v>      -0.02174120       0.07123021       0.48200424 </v>
   <v>       0.05530808      -0.09390217       0.04387110 </v>
   <v>       0.18595204       0.02060371      -0.46165673 </v>
   <v>       0.14903927       0.00831281       0.01602967 </v>
   <v>      -0.01011217       0.07326707      -0.02945682 </v>
   <v>      -0.00002978       0.14895798       0.53394162 </v>
   <v>       0.01669018      -0.00288870       0.03734282 </v>
   <v>      -0.18691508      -0.10511596       0.53387422 </v>
   <v>      -0.05562426      -0.06096912      -0.07326774 </v>
   <v>      -0.15499306      -0.01157675      -0.61389161 </v>
   <v>       0.08295362       0.01740396       0.67049443 </v>
  </varray>
  <energy>
   <i name="e_fr_energy">   -190.75334918 </i>
   <i name="e_wo_entrp">   -190.61525900 </i>
   <i name="e_0_energy">     -0.27618036 </i>
  </energy>
  <time name="totalsc">  114.23  114.58</time>
 </calculation>
 <calculation>
  <scstep>
   <time name="dav">    9.58    9.59</time>
   <time name="total">    9.95    9.96</time>
   <dipole>
    <v name="dipole">      0.00000000       0.00000000      -0.01315386 </v>
    <i name="Tr[quadrupol]"> -10248.57029315 </i>
    <i name="Echarged">      0.00000000 </i>
    <i name="Edipol_quadrupol">      0.00000000 </i>
    <i name="Eion">      0.00000000 </i>
   </dipole>
   <energy>
    <i name="alphaZ">    805.87378054 </i>
    <i name="ewald"> 189409.86692980 </i>
    <i name="hartreedc">-231661.77251946 </i>
    <i name="XCdc">   -351.08136574 </i>
    <i name="pawpsdc">  48853.67693991 </i>
    <i name="pawaedc"> -46928.98821307 </i>
    <i name="eentropy">     -0.24867406 </i>
    <i name="bandstr">  -1976.59551899 </i>
    <i name="atom">  41659.78587232 </i>
    <i name="e_fr_energy">   -189.48276876 </i>
    <i name="e_wo_entrp">   -189.23409470 </i>
    <i name="e_0_energy">   -189.35843173 </i>
   </energy>
  </scstep>
  <scstep>
   <time name="diag">    1.66    1.66</time>
   <time name="diis">    4.55    4.55</time>
   <time name="orth">    0.40    0.40</time>
   <time name="total">    6.98    6.98</time>
   <dipole>
    <v name="dipole">      0.00000000       0.00000000      -0.00167640 </v>
    <i name="Tr[quadrupol]"> -10247.69911518 </i>
    <i name="Echarged">      0.00000000 </i>
    <i name="Edipol_quadrupol">      0.00000000 </i>
    <i name="Eion">      0.00000000 </i>
   </dipole>
   <energy>
    <i name="e_fr_energy">   -192.71342193 </i>
    <i name="e_wo_entrp">   -192.46608805 </i>
    <i name="e_0_energy">   -192.58975499 </i>
   </energy>
  </scstep>
  <scstep>
   <time name="diag">    1.66    1.66</time>
   <time name="diis">    4.45    4.46</time>
   <time name="orth">    0.39    0.39</time>
   <time name="total">    6.87    6.87</time>
   <dipole>
    <v name="dipole">      0.00000000       0.00000000      -0.01081452 </v>
    <i name="Tr[quadrupol]"> -10248.85609774 </i>
    <i name="Echarged">      0.00000000 </i>
    <i name="Edipol_quadrupol">      0.00000000 </i>
    <i name="Eion">      0.00000000 </i>
   </dipole>
   <energy>
    <i name="e_fr_energy">   -193.40513866 </i>
    <i name="e_wo_entrp">   -193.21469988 </i>
    <i name="e_0_energy">   -193.30991927 </i>
   </energy>
  </scstep>
  <scstep>
   <time name="diag">    1.65    1.65</time>
   <time name="diis">    4.53    4.56</time>
   <time name="orth">    0.38    0.41</time>
   <time name="total">    6.91    6.98</time>
   <dipole>
    <v name="dipole">      0.00000000       0.00000000      -0.03274676 </v>
    <i name="Tr[quadrupol]"> -10248.68700462 </i>
    <i name="Echarged">      0.00000000 </i>
    <i name="Edipol_quadrupol">      0.00000000 </i>
    <i name="Eion">      0.00000000 </i>
   </dipole>
   <energy>
    <i name="e_fr_energy">   -192.42001196 </i>
    <i name="e_wo_entrp">   -192.17157407 </i>
    <i name="e_0_energy">   -192.29579302 </i>
   </energy>
  </scstep>
  <scstep>
   <time name="diag">    1.67    1.67</time>
   <time name="diis">    4.57    4.57</time>
   <time name="orth">    0.40    0.40</time>
   <time name="total">    7.13    7.15</time>
   <dipole>
    <v name="dipole">      0.00000000       0.00000000       0.06406868 </v>
    <i name="Tr[quadrupol]"> -10248.72136799 </i>
    <i name="Echarged">      0.00000000 </i>
    <i name="Edipol_quadrupol">      0.00000000 </i>
    <i name="Eion">      0.00000000 </i>
   </dipole>
   <energy>
    <i name="e_fr_energy">   -192.54281483 </i>
    <i name="e_wo_entrp">   -192.27385611 </i>
    <i name="e_0_energy">   -192.40833547 </i>
   </energy>
  </scstep>
  <scstep>
   <time name="diag">    1.98    1.99</time>
   <time name="diis">    4.55    4.56</time>
   <time name="orth">    0.39    0.39</time>
   <time name="total">    7.31    7.33</time>
   <dipole>
    <v name="dipole">      0.00000000       0.00000000      -0.12848333 </v>
    <i name="Tr[quadrupol]"> -10248.74124099 </i>
    <i name="Echarged">      0.00000000 </i>
    <i name="Edipol_quadrupol">      0.00000000 </i>
    <i name="Eion">      0.00000000 </i>
   </dipole>
   <energy>
    <i name="e_fr_energy">   -192.60756295 </i>
    <i name="e_wo_entrp">   -192.37308268 </i>
    <i name="e_0_energy">   -192.49032282 </i>
   </energy>
  </scstep>
  <scstep>
   <time name="diag">    1.65    1.65</time>
   <time name="diis">    4.55    4.56</time>
   <time name="orth">    0.39    0.39</time>
   <time name="total">    6.96    6.96</time>
   <dipole>
    <v name="dipole">      0.00000000       0.00000000       0.02869329 </v>
    <i name="Tr[quadrupol]"> -10248.72461005 </i>
    <i name="Echarged">      0.00000000 </i>
    <i name="Edipol_quadrupol">      0.00000000 </i>
    <i name="Eion">      0.00000000 </i>
   </dipole>
   <energy>
    <i name="e_fr_energy">   -192.35064431 </i>
    <i name="e_wo_entrp">   -192.08280197 </i>
    <i name="e_0_energy">   -192.21672314 </i>
   </energy>
  </scstep>
  <scstep>
   <time name="diag">    1.64    1.64</time>
   <time name="diis">    4.54    4.55</time>
   <time name="orth">    0.39    0.39</time>
   <time name="total">    6.94    6.94</time>
   <dipole>
    <v name="dipole">      0.00000000       0.00000000      -0.01648598 </v>
    <i name="Tr[quadrupol]"> -10248.61381770 </i>
    <i name="Echarged">      0.00000000 </i>
    <i name="Edipol_quadrupol">      0.00000000 </i>
    <i name="Eion">      0.00000000 </i>
[...]
       <r>    2.3007    0.0000 </r>
       <r>    2.4297    0.0000 </r>
       <r>    2.5418    0.0000 </r>
       <r>    2.6297    0.0000 </r>
       <r>    2.7406    0.0000 </r>
       <r>    2.9890    0.0000 </r>
       <r>    3.1172    0.0000 </r>
       <r>    3.1906    0.0000 </r>
       <r>    3.5168    0.0000 </r>
       <r>    3.6355    0.0000 </r>
       <r>    3.8056    0.0000 </r>
       <r>    4.0136    0.0000 </r>
       <r>    4.0831    0.0000 </r>
       <r>    4.2130    0.0000 </r>
       <r>    4.5058    0.0000 </r>
       <r>    4.5557    0.0000 </r>
       <r>    4.5970    0.0000 </r>
       <r>    4.6239    0.0000 </r>
       <r>    4.7227    0.0000 </r>
       <r>    4.8080    0.0000 </r>
       <r>    4.8459    0.0000 </r>
       <r>    4.8891    0.0000 </r>
       <r>    4.9930    0.0000 </r>
       <r>    5.0304    0.0000 </r>
       <r>    5.0615    0.0000 </r>
       <r>    5.0882    0.0000 </r>
       <r>    5.1345    0.0000 </r>
       <r>    5.2118    0.0000 </r>
      </set>
     </set>
    </set>
   </array>
  </eigenvalues>
  <separator name="orbital magnetization" >
   <v name="MAGDIPOLOUT">      0.00000000      0.00000000      0.00000000</v>
  </separator>
  <dos>
   <i name="efermi">     -1.09087361 </i>
   <total>
    <array>
     <dimension dim="1">gridpoints</dimension>
     <dimension dim="2">spin</dimension>
     <field>energy</field>
     <field>total</field>
     <field>integrated</field>
     <set>
      <set comment="spin 1">
       <r>    -9.6461     0.0000     0.0000 </r>
       <r>    -9.5928     0.0000     0.0000 </r>
       <r>    -9.5394     0.0000     0.0000 </r>
       <r>    -9.4860     0.0000     0.0000 </r>
       <r>    -9.4326     0.0000     0.0000 </r>
       <r>    -9.3793     0.0000     0.0000 </r>
       <r>    -9.3259     0.0000     0.0000 </r>
       <r>    -9.2725     0.0000     0.0000 </r>
       <r>    -9.2192     0.0000     0.0000 </r>
       <r>    -9.1658     0.0000     0.0000 </r>
       <r>    -9.1124     0.0000     0.0000 </r>
       <r>    -9.0591     0.0000     0.0000 </r>
       <r>    -9.0057     0.0000     0.0000 </r>
       <r>    -8.9523     0.0001     0.0000 </r>
       <r>    -8.8990     0.0021     0.0001 </r>
       <r>    -8.8456     0.0296     0.0017 </r>
       <r>    -8.7922     0.2435     0.0147 </r>
       <r>    -8.7389     1.1650     0.0769 </r>
       <r>    -8.6855     3.2473     0.2502 </r>
       <r>    -8.6321     5.3117     0.5336 </r>
       <r>    -8.5788     5.3220     0.8177 </r>
       <r>    -8.5254     4.1559     1.0395 </r>
       <r>    -8.4720     4.3415     1.2712 </r>
       <r>    -8.4187     5.2927     1.5536 </r>
       <r>    -8.3653     4.6642     1.8025 </r>
       <r>    -8.3119     2.6104     1.9418 </r>
       <r>    -8.2585     1.0170     1.9961 </r>
       <r>    -8.2052     0.7176     2.0344 </r>
       <r>    -8.1518     1.3704     2.1076 </r>
       <r>    -8.0984     2.2425     2.2272 </r>
       <r>    -8.0451     3.1513     2.3954 </r>
       <r>    -7.9917     4.8969     2.6567 </r>
       <r>    -7.9383     7.6625     3.0657 </r>
       <r>    -7.8850    10.3431     3.6177 </r>
       <r>    -7.8316    11.5738     4.2353 </r>
       <r>    -7.7782    10.9781     4.8212 </r>
       <r>    -7.7249     9.5703     5.3320 </r>
       <r>    -7.6715     8.5695     5.7893 </r>
       <r>    -7.6181     8.8018     6.2591 </r>
       <r>    -7.5648     9.7422     6.7790 </r>
       <r>    -7.5114     9.5963     7.2911 </r>
       <r>    -7.4580     7.7157     7.7029 </r>
       <r>    -7.4047     5.4697     7.9948 </r>
       <r>    -7.3513     4.6447     8.2427 </r>
       <r>    -7.2979     6.0861     8.5675 </r>
       <r>    -7.2446     9.3348     9.0657 </r>
       <r>    -7.1912    12.6449     9.7405 </r>
       <r>    -7.1378    14.8742    10.5343 </r>
       <r>    -7.0845    16.6816    11.4246 </r>
       <r>    -7.0311    19.1370    12.4459 </r>
       <r>    -6.9777    23.0599    13.6765 </r>
       <r>    -6.9243    28.6156    15.2037 </r>
       <r>    -6.8710    33.6832    17.0013 </r>
       <r>    -6.8176    36.3403    18.9407 </r>
       <r>    -6.7642    37.8605    20.9613 </r>
       <r>    -6.7109    40.2388    23.1087 </r>
       <r>    -6.6575    43.6370    25.4376 </r>
       <r>    -6.6041    46.5901    27.9240 </r>
       <r>    -6.5508    47.9225    30.4815 </r>
       <r>    -6.4974    49.1011    33.1020 </r>
       <r>    -6.4440    53.0076    35.9309 </r>
       <r>    -6.3907    59.2875    39.0949 </r>
       <r>    -6.3373    64.2115    42.5218 </r>
       <r>    -6.2839    65.9268    46.0402 </r>
       <r>    -6.2306    66.6470    49.5970 </r>
       <r>    -6.1772    68.5517    53.2555 </r>
       <r>    -6.1238    70.7833    57.0331 </r>
       <r>    -6.0705    72.8559    60.9212 </r>
       <r>    -6.0171    76.1719    64.9864 </r>
       <r>    -5.9637    80.3113    69.2725 </r>
       <r>    -5.9104    82.6417    73.6829 </r>
       <r>    -5.8570    82.0635    78.0625 </r>
       <r>    -5.8036    79.4957    82.3050 </r>
       <r>    -5.7502    76.2737    86.3756 </r>
       <r>    -5.6969    74.4060    90.3465 </r>
       <r>    -5.6435    74.4852    94.3216 </r>
       <r>    -5.5901    74.1677    98.2798 </r>
       <r>    -5.5368    72.7793   102.1639 </r>
       <r>    -5.4834    72.9891   106.0592 </r>
       <r>    -5.4300    76.1055   110.1208 </r>
       <r>    -5.3767    79.2380   114.3496 </r>
       <r>    -5.3233    79.7608   118.6063 </r>
       <r>    -5.2699    79.2976   122.8383 </r>
       <r>    -5.2166    79.6543   127.0893 </r>
       <r>    -5.1632    80.2826   131.3738 </r>
       <r>    -5.1098    80.3858   135.6638 </r>
       <r>    -5.0565    79.6272   139.9134 </r>
       <r>    -5.0031    79.3032   144.1457 </r>
       <r>    -4.9497    81.8574   148.5142 </r>
       <r>    -4.8964    86.8882   153.1513 </r>
       <r>    -4.8430    91.0870   158.0124 </r>
       <r>    -4.7896    92.2742   162.9369 </r>
       <r>    -4.7363    90.4557   167.7644 </r>
       <r>    -4.6829    87.7358   172.4467 </r>
       <r>    -4.6295    86.4175   177.0586 </r>
       <r>    -4.5761    86.8275   181.6925 </r>
       <r>    -4.5228    88.5489   186.4181 </r>
       <r>    -4.4694    90.2352   191.2338 </r>
       <r>    -4.4160    90.9679   196.0886 </r>
       <r>    -4.3627    91.6145   200.9779 </r>
       <r>    -4.3093    92.4336   205.9109 </r>
       <r>    -4.2559    92.8297   210.8651 </r>
       <r>    -4.2026    92.4290   215.7978 </r>
       <r>    -4.1492    91.2811   220.6693 </r>
       <r>    -4.0958    90.5838   225.5036 </r>
       <r>    -4.0425    91.3241   230.3774 </r>
       <r>    -3.9891    92.3547   235.3062 </r>
       <r>    -3.9357    92.0600   240.2193 </r>
       <r>    -3.8824    91.3250   245.0931 </r>
       <r>    -3.8290    92.3937   250.0240 </r>
       <r>    -3.7756    95.1593   255.1025 </r>
       <r>    -3.7223    97.8349   260.3237 </r>
       <r>    -3.6689    99.8724   265.6537 </r>
       <r>    -3.6155   102.0599   271.1005 </r>
       <r>    -3.5622   105.3900   276.7250 </r>
       <r>    -3.5088   108.5911   282.5203 </r>
       <r>    -3.4554   109.0404   288.3395 </r>
       <r>    -3.4020   106.4570   294.0210 </r>
       <r>    -3.3487   102.1517   299.4726 </r>
       <r>    -3.2953    97.2077   304.6604 </r>
       <r>    -3.2419    92.4716   309.5954 </r>
       <r>    -3.1886    89.0967   314.3504 </r>
       <r>    -3.1352    88.1844   319.0566 </r>
       <r>    -3.0818    89.2308   323.8187 </r>
       <r>    -3.0285    90.7697   328.6629 </r>
       <r>    -2.9751    91.7431   333.5590 </r>
       <r>    -2.9217    91.0654   338.4190 </r>
       <r>    -2.8684    89.1252   343.1755 </r>
       <r>    -2.8150    87.5328   347.8469 </r>
       <r>    -2.7616    86.1959   352.4471 </r>
       <r>    -2.7083    84.8666   356.9762 </r>
       <r>    -2.6549    85.1113   361.5185 </r>
       <r>    -2.6015    87.2695   366.1759 </r>
       <r>    -2.5482    89.7987   370.9683 </r>
       <r>    -2.4948    91.5425   375.8537 </r>
       <r>    -2.4414    92.0035   380.7638 </r>
       <r>    -2.3881    92.1186   385.6800 </r>
       <r>    -2.3347    92.1930   390.6001 </r>
       <r>    -2.2813    91.7572   395.4970 </r>
       <r>    -2.2280    92.0560   400.4099 </r>
       <r>    -2.1746    93.3935   405.3941 </r>
       <r>    -2.1212    94.4759   410.4361 </r>
       <r>    -2.0678    94.7630   415.4935 </r>
       <r>    -2.0145    94.8836   420.5572 </r>
       <r>    -1.9611    95.2263   425.6393 </r>
       <r>    -1.9077    94.9500   430.7066 </r>
       <r>    -1.8544    93.5891   435.7013 </r>
       <r>    -1.8010    92.4859   440.6371 </r>
       <r>    -1.7476    93.1064   445.6060 </r>
       <r>    -1.6943    94.6584   450.6577 </r>
       <r>    -1.6409    95.4532   455.7519 </r>
       <r>    -1.5875    95.8767   460.8686 </r>
       <r>    -1.5342    97.4719   466.0705 </r>
       <r>    -1.4808    99.2875   471.3693 </r>
       <r>    -1.4274    98.5267   476.6275 </r>
       <r>    -1.3741    95.1990   481.7081 </r>
       <r>    -1.3207    91.5220   486.5924 </r>
       <r>    -1.2673    88.1461   491.2966 </r>
       <r>    -1.2140    83.3648   495.7457 </r>
       <r>    -1.1606    74.8691   499.7413 </r>
       <r>    -1.1072    63.0298   503.1051 </r>
       <r>    -1.0539    50.2907   505.7890 </r>
       <r>    -1.0005    36.9332   507.7601 </r>
       <r>    -0.9471    23.7788   509.0291 </r>
       <r>    -0.8937    14.2336   509.7887 </r>
       <r>    -0.8404     9.7113   510.3070 </r>
       <r>    -0.7870     8.4449   510.7577 </r>
       <r>    -0.7336     8.1778   511.1941 </r>
       <r>    -0.6803     8.3440   511.6394 </r>
       <r>    -0.6269     9.4383   512.1431 </r>
       <r>    -0.5735    11.8578   512.7759 </r>
       <r>    -0.5202    15.3058   513.5928 </r>
       <r>    -0.4668    18.7589   514.5939 </r>
       <r>    -0.4134    20.9123   515.7100 </r>
       <r>    -0.3601    20.9788   516.8296 </r>
       <r>    -0.3067    20.4547   517.9212 </r>
       <r>    -0.2533    21.3517   519.0607 </r>
       <r>    -0.2000    21.9183   520.2304 </r>
       <r>    -0.1466    19.1815   521.2541 </r>
       <r>    -0.0932    14.5052   522.0282 </r>
       <r>    -0.0399    11.7993   522.6579 </r>
       <r>     0.0135    12.9657   523.3499 </r>
       <r>     0.0669    16.8310   524.2481 </r>
       <r>     0.1202    19.7047   525.2997 </r>
       <r>     0.1736    18.5406   526.2892 </r>
       <r>     0.2270    15.1573   527.0981 </r>
       <r>     0.2804    14.3828   527.8657 </r>
       <r>     0.3337    17.0143   528.7737 </r>
       <r>     0.3871    18.9779   529.7865 </r>
       <r>     0.4405    18.3331   530.7649 </r>
       <r>     0.4938    17.5155   531.6997 </r>
       <r>     0.5472    18.1680   532.6693 </r>
       <r>     0.6006    19.7316   533.7223 </r>
       <r>     0.6539    21.9804   534.8954 </r>
       <r>     0.7073    23.5490   536.1522 </r>
       <r>     0.7607    22.0269   537.3277 </r>
       <r>     0.8140    17.1440   538.2426 </r>
       <r>     0.8674    11.6238   538.8630 </r>
       <r>     0.9208     8.9809   539.3423 </r>
       <r>     0.9741     9.7885   539.8647 </r>
       <r>     1.0275    11.3953   540.4728 </r>
       <r>     1.0809    11.9256   541.1093 </r>
       <r>     1.1342    11.5216   541.7241 </r>
       <r>     1.1876     9.9729   542.2564 </r>
       <r>     1.2410     7.7414   542.6695 </r>
       <r>     1.2943     6.2287   543.0019 </r>
       <r>     1.3477     5.7631   543.3095 </r>
       <r>     1.4011     6.8898   543.6772 </r>
       <r>     1.4545    10.2996   544.2269 </r>
       <r>     1.5078    14.7286   545.0129 </r>
       <r>     1.5612    17.3534   545.9390 </r>
       <r>     1.6146    16.9035   546.8411 </r>
       <r>     1.6679    16.2996   547.7110 </r>
       <r>     1.7213    18.4586   548.6961 </r>
       <r>     1.7747    20.7379   549.8028 </r>
       <r>     1.8280    18.8712   550.8100 </r>
       <r>     1.8814    13.4248   551.5264 </r>
       <r>     1.9348     8.4023   551.9748 </r>
       <r>     1.9881     6.7277   552.3339 </r>
       <r>     2.0415     7.3928   552.7284 </r>
       <r>     2.0949     8.0224   553.1566 </r>
       <r>     2.1482     9.0852   553.6414 </r>
       <r>     2.2016    12.4292   554.3048 </r>
       <r>     2.2550    17.8951   555.2598 </r>
       <r>     2.3083    22.7911   556.4761 </r>
       <r>     2.3617    24.8786   557.8038 </r>
       <r>     2.4151    24.2106   559.0959 </r>
       <r>     2.4684    22.5880   560.3014 </r>
       <r>     2.5218    22.1108   561.4814 </r>
       <r>     2.5752    22.8665   562.7017 </r>
       <r>     2.6285    23.8385   563.9739 </r>
       <r>     2.6819    24.7936   565.2971 </r>
       <r>     2.7353    24.1851   566.5878 </r>
       <r>     2.7887    19.9659   567.6534 </r>
       <r>     2.8420    13.7836   568.3890 </r>
       <r>     2.8954     9.0731   568.8732 </r>
       <r>     2.9488     7.2488   569.2601 </r>
       <r>     3.0021     7.2053   569.6446 </r>
       <r>     3.0555     7.6965   570.0553 </r>
       <r>     3.1089     9.7973   570.5782 </r>
       <r>     3.1622    13.1908   571.2822 </r>
       <r>     3.2156    14.5549   572.0589 </r>
       <r>     3.2690    12.6787   572.7356 </r>
       <r>     3.3223     9.5355   573.2445 </r>
       <r>     3.3757     6.8706   573.6111 </r>
       <r>     3.4291     5.4995   573.9046 </r>
       <r>     3.4824     6.3254   574.2422 </r>
       <r>     3.5358     9.6296   574.7561 </r>
       <r>     3.5892    13.9939   575.5030 </r>
       <r>     3.6425    17.1842   576.4200 </r>
       <r>     3.6959    18.1744   577.3900 </r>
       <r>     3.7493    17.8973   578.3451 </r>
       <r>     3.8026    17.0987   579.2577 </r>
       <r>     3.8560    15.1992   580.0688 </r>
       <r>     3.9094    12.7562   580.7496 </r>
       <r>     3.9628    11.9902   581.3895 </r>
       <r>     4.0161    13.2375   582.0959 </r>
       <r>     4.0695    13.8828   582.8368 </r>
       <r>     4.1229    13.0474   583.5331 </r>
       <r>     4.1762    12.6793   584.2098 </r>
       <r>     4.2296    12.8951   584.8980 </r>
       <r>     4.2830    11.4852   585.5109 </r>
       <r>     4.3363     8.8677   585.9842 </r>
       <r>     4.3897     8.5430   586.4401 </r>
       <r>     4.4431    11.4029   587.0487 </r>
       <r>     4.4964    15.5582   587.8790 </r>
       <r>     4.5498    20.4124   588.9684 </r>
       <r>     4.6032    25.3817   590.3229 </r>
       <r>     4.6565    27.6450   591.7983 </r>
       <r>     4.7099    25.8745   593.1792 </r>
       <r>     4.7633    23.4995   594.4333 </r>
       <r>     4.8166    24.1155   595.7203 </r>
       <r>     4.8700    26.8395   597.1527 </r>
       <r>     4.9234    29.0169   598.7012 </r>
       <r>     4.9767    30.5155   600.3298 </r>
       <r>     5.0301    32.6810   602.0739 </r>
       <r>     5.0835    34.5623   603.9184 </r>
       <r>     5.1369    33.9885   605.7323 </r>
       <r>     5.1902    31.4830   607.4125 </r>
       <r>     5.2436    28.4277   608.9297 </r>
       <r>     5.2970    24.0205   610.2116 </r>
       <r>     5.3503    17.4748   611.1442 </r>
       <r>     5.4037    10.1410   611.6854 </r>
       <r>     5.4571     4.3489   611.9175 </r>
       <r>     5.5104     1.2758   611.9856 </r>
       <r>     5.5638     0.2404   611.9984 </r>
       <r>     5.6172     0.0279   611.9999 </r>
       <r>     5.6705     0.0019   612.0000 </r>
       <r>     5.7239     0.0001   612.0000 </r>
       <r>     5.7773     0.0000   612.0000 </r>
       <r>     5.8306     0.0000   612.0000 </r>
       <r>     5.8840     0.0000   612.0000 </r>
       <r>     5.9374     0.0000   612.0000 </r>
       <r>     5.9907     0.0000   612.0000 </r>
       <r>     6.0441     0.0000   612.0000 </r>
       <r>     6.0975     0.0000   612.0000 </r>
       <r>     6.1508     0.0000   612.0000 </r>
       <r>     6.2042     0.0000   612.0000 </r>
       <r>     6.2576     0.0000   612.0000 </r>
       <r>     6.3110     0.0000   612.0000 </r>
       <r>     6.3643     0.0000   612.0000 </r>
      </set>
     </set>
    </array>
   </total>
  </dos>
 </calculation>
 <structure name="finalpos" >
  <crystal>
   <varray name="basis" >
    <v>      11.00258152       0.00000000       0.00000000 </v>
    <v>       5.50129076       9.52851510       0.00000000 </v>
    <v>       0.00000000       0.00000000      24.49178509 </v>
   </varray>
   <i name="volume">   2567.67623402 </i>
   <varray name="rec_basis" >
    <v>       0.09088776      -0.05247407       0.00000000 </v>
    <v>       0.00000000       0.10494815       0.00000000 </v>
    <v>       0.00000000       0.00000000       0.04083002 </v>
   </varray>
  </crystal>
  <varray name="positions" >
   <v>       0.24709051       0.74926770       0.60281504 </v>
   <v>       0.50048335       0.49945352       0.60248053 </v>
   <v>       0.58528019       0.82988660       0.39519300 </v>
   <v>       0.50382306      -0.00183602       0.60004111 </v>
   <v>       0.41538856       0.91855693       0.49985988 </v>
   <v>       0.58603704       0.08236084       0.39658487 </v>
   <v>       0.50297383       0.74791999       0.60610241 </v>
   <v>       0.16467453       0.91717668       0.49998681 </v>
   <v>       0.66643993       0.16651842       0.49938284 </v>
   <v>       0.83036807       0.33302295       0.39848911 </v>
   <v>       0.24952508       0.25158217       0.59896574 </v>
   <v>       0.50043229       0.24967637       0.60144337 </v>
   <v>       0.24880264      -0.00049685       0.60621652 </v>
   <v>       0.33517621       0.33528054       0.39891666 </v>
   <v>       0.33201543       0.08192440       0.39709022 </v>
   <v>       0.08204539       0.33338417       0.39785516 </v>
   <v>       0.91716891       0.41515205       0.49999772 </v>
   <v>      -0.00067821       0.24940095       0.60205435 </v>
   <v>       0.08303107       0.58517070       0.39666930 </v>
   <v>       0.75228201       0.24767797       0.60288834 </v>
   <v>       0.91781492       0.66872648       0.49878147 </v>
   <v>       0.08366284       0.83464331       0.39620783 </v>
   <v>       0.66421818       0.66706774       0.50032322 </v>
   <v>      -0.00108272       0.50422953       0.60286210 </v>
   <v>       0.83399435       0.08277641       0.40290826 </v>
   <v>       0.75347207      -0.00330850       0.59452380 </v>
   <v>       0.66502569       0.41605271       0.50118195 </v>
   <v>       0.83226252       0.58350432       0.40194330 </v>
   <v>       0.75109143       0.49997734       0.59803978 </v>
   <v>       0.83352421       0.83330509       0.40082428 </v>
   <v>       0.41611913       0.66443884       0.50283705 </v>
   <v>       0.08260345       0.08344058       0.40373608 </v>
   <v>       0.41537890       0.41797472       0.50051689 </v>
   <v>       0.58328576       0.33436797       0.40385559 </v>
   <v>       0.41505098       0.16885807       0.49869774 </v>
   <v>       0.66634171       0.91801220       0.49778833 </v>
   <v>       0.33432771       0.83089969       0.40405356 </v>
   <v>       0.24879740       0.50118704       0.59494855 </v>
   <v>       0.16780733       0.66636647       0.49916452 </v>
   <v>       0.33612480       0.58412168       0.40530041 </v>
   <v>       0.16873306       0.41678484       0.49851421 </v>
   <v>       0.16627750       0.16766820       0.49998968 </v>
   <v>      -0.00133203       0.75238647       0.59500432 </v>
   <v>       0.91735278       0.91661029       0.49750632 </v>
   <v>      -0.00085090      -0.00185728       0.59606985 </v>
   <v>       0.91540212       0.16730398       0.50028433 </v>
   <v>       0.58133724       0.58315897       0.40483660 </v>
   <v>       0.75089966       0.75022274       0.59626703 </v>
  </varray>
 </structure>
</modeling>
