unknown system                          
           1
    11.002582    0.000000    0.000000
     5.501291    9.528515    0.000000
     0.000000    0.000000   24.491785
   Au   Pd
  24  24
Direct configuration=     1
   0.25000000  0.75000000  0.59169983
   0.50000000  0.50000000  0.59169983
   0.58333333  0.83333333  0.40830017
   0.50000000  0.00000000  0.59169983
   0.41666667  0.91666667  0.50000000
   0.58333333  0.08333333  0.40830017
   0.50000000  0.75000000  0.59169983
   0.16666667  0.91666667  0.50000000
   0.66666667  0.16666667  0.50000000
   0.83333333  0.33333333  0.40830017
   0.25000000  0.25000000  0.59169983
   0.50000000  0.25000000  0.59169983
   0.25000000  0.00000000  0.59169983
   0.33333333  0.33333333  0.40830017
   0.33333333  0.08333333  0.40830017
   0.08333333  0.33333333  0.40830017
   0.91666667  0.41666667  0.50000000
   0.00000000  0.25000000  0.59169983
   0.08333333  0.58333333  0.40830017
   0.75000000  0.25000000  0.59169983
   0.91666667  0.66666667  0.50000000
   0.08333333  0.83333333  0.40830017
   0.66666667  0.66666667  0.50000000
   0.00000000  0.50000000  0.59169983
   0.83333333  0.08333333  0.40830017
   0.75000000  0.00000000  0.59169983
   0.66666667  0.41666667  0.50000000
   0.83333333  0.58333333  0.40830017
   0.75000000  0.50000000  0.59169983
   0.83333333  0.83333333  0.40830017
   0.41666667  0.66666667  0.50000000
   0.08333333  0.08333333  0.40830017
   0.41666667  0.41666667  0.50000000
   0.58333333  0.33333333  0.40830017
   0.41666667  0.16666667  0.50000000
   0.66666667  0.91666667  0.50000000
   0.33333333  0.83333333  0.40830017
   0.25000000  0.50000000  0.59169983
   0.16666667  0.66666667  0.50000000
   0.33333333  0.58333333  0.40830017
   0.16666667  0.41666667  0.50000000
   0.16666667  0.16666667  0.50000000
   0.00000000  0.75000000  0.59169983
   0.91666667  0.91666667  0.50000000
   0.00000000  0.00000000  0.59169983
   0.91666667  0.16666667  0.50000000
   0.58333333  0.58333333  0.40830017
   0.75000000  0.75000000  0.59169983
Direct configuration=     2
   0.24874288  0.74936936  0.59351547
   0.49989767  0.50005031  0.59329396
   0.58427681  0.83216108  0.40612914
   0.50185094 -0.00051017  0.59358364
   0.41631093  0.91708218  0.49952156
   0.58461831  0.08310293  0.40648783
   0.50140848  0.74885618  0.59393467
   0.16519822  0.91732220  0.49952694
   0.66756362  0.16610394  0.49960985
   0.83248174  0.33294652  0.40647605
   0.24996039  0.25088335  0.59325535
   0.49949644  0.25030406  0.59352865
   0.24885910  0.00056400  0.59394743
   0.33398624  0.33417638  0.40677802
   0.33227868  0.08320487  0.40639250
   0.08318213  0.33293894  0.40639747
   0.91622716  0.41613530  0.49994056
  -0.00057520  0.24956909  0.59357023
   0.08313504  0.58389423  0.40645090
   0.75097804  0.24953424  0.59353864
   0.91647571  0.66873637  0.50011321
   0.08307429  0.83385746  0.40648897
   0.66679568  0.66564748  0.49993265
  -0.00009146  0.50122240  0.59383125
   0.83353925  0.08317095  0.40746338
   0.75115605 -0.00134396  0.59262022
   0.66583933  0.41709594  0.49962235
   0.83282847  0.58384207  0.40688969
   0.74979377  0.50022775  0.59293331
   0.83329005  0.83364022  0.40728277
   0.41681509  0.66509643  0.49924434
   0.08321789  0.08320005  0.40732283
   0.41568162  0.41793018  0.49970283
   0.58322095  0.33408130  0.40743413
   0.41614541  0.16744563  0.50006578
   0.66789970  0.91676979  0.50025299
   0.33344664  0.83256449  0.40715399
   0.24966455  0.50040881  0.59244715
   0.16742975  0.66569517  0.50029860
   0.33448208  0.58318679  0.40765320
   0.16823103  0.41651608  0.50022965
   0.16643892  0.16682464  0.49974919
  -0.00032059  0.75079678  0.59251903
   0.91623220  0.91679990  0.50024254
  -0.00075229 -0.00045343  0.59263729
   0.91688698  0.16572021  0.49973738
   0.58247705  0.58322641  0.40735447
   0.75022425  0.75040511  0.59289794
Direct configuration=     3
   0.24497153  0.74747746  0.59896241
   0.49959067  0.50020123  0.59807633
   0.58710725  0.82864433  0.39961605
   0.50740374 -0.00204069  0.59923508
   0.41524374  0.91832872  0.49808624
   0.58847322  0.08241171  0.40105083
   0.50563393  0.74542472  0.60063920
   0.16079289  0.91928878  0.49810777
   0.67025449  0.16441577  0.49843938
   0.82992696  0.33178606  0.40100368
   0.24984158  0.25353340  0.59792193
   0.49798577  0.25121624  0.59901510
   0.24543641  0.00225601  0.60069024
   0.33594498  0.33670551  0.40221158
   0.32911470  0.08281948  0.40066950
   0.08272853  0.33175577  0.40068937
   0.91490864  0.41454119  0.49976223
  -0.00230082  0.24827634  0.59918144
   0.08254016  0.58557691  0.40090308
   0.75391216  0.24813696  0.59905505
   0.91590284  0.67494547  0.50045286
   0.08229716  0.83542983  0.40105537
   0.66718270  0.66258991  0.49973061
  -0.00036584  0.50488961  0.60022552
   0.83415702  0.08268380  0.40495299
   0.75462419 -0.00537584  0.59538141
   0.66335734  0.41838378  0.49848938
   0.83131387  0.58536827  0.40265827
   0.74917510  0.50091101  0.59663373
   0.83316019  0.83456086  0.40423057
   0.41726035  0.66038572  0.49697736
   0.08287156  0.08280020  0.40439080
   0.41272648  0.42172070  0.49881134
   0.58288378  0.33632519  0.40483599
   0.41458163  0.16978252  0.50026311
   0.67159880  0.91707917  0.50101195
   0.33378655  0.83025794  0.40371545
   0.24865822  0.50163524  0.59468911
   0.16971902  0.66278070  0.50119439
   0.33792832  0.58274717  0.40571231
   0.17292411  0.41606431  0.50091862
   0.16575568  0.16729856  0.49899676
  -0.00128236  0.75318712  0.59497664
   0.91492878  0.91719958  0.50097016
  -0.00300914 -0.00181370  0.59544965
   0.91754792  0.16288084  0.49894951
   0.57990820  0.58290565  0.40451738
   0.75089701  0.75162044  0.59649228
Direct configuration=     4
   0.24629402  0.74902721  0.60003473
   0.49986256  0.49975542  0.59907834
   0.58613624  0.82980488  0.39828993
   0.50551081 -0.00210496  0.60021927
   0.41631152  0.91737156  0.49859489
   0.58682114  0.08240468  0.39978704
   0.50315619  0.74765909  0.60176231
   0.16318496  0.91683017  0.49868665
   0.66760379  0.16679796  0.49913301
   0.83029073  0.33228850  0.39956782
   0.24900025  0.25243930  0.59898328
   0.50007370  0.25099024  0.59994833
   0.24753552  0.00024852  0.60181808
   0.33573973  0.33564619  0.40096579
   0.33124200  0.08228330  0.39924184
   0.08177291  0.33348912  0.39959520
   0.91694605  0.41446728  0.49981161
  -0.00165987  0.24951451  0.60025804
   0.08255204  0.58534111  0.39984721
   0.75189996  0.24820538  0.60007281
   0.91762939  0.67057941  0.50018682
   0.08257973  0.83450750  0.39966985
   0.66600879  0.66516632  0.49984705
  -0.00133868  0.50485308  0.60137993
   0.83465397  0.08242540  0.40387440
   0.75418614 -0.00372353  0.59635124
   0.66421972  0.41610310  0.49903901
   0.83230935  0.58405143  0.40204379
   0.75065750  0.50013790  0.59735520
   0.83344725  0.83432795  0.40333491
   0.41599511  0.66340843  0.49814791
   0.08231533  0.08307385  0.40325880
   0.41492256  0.41897315  0.49938846
   0.58319145  0.33543886  0.40387065
   0.41584553  0.16886977  0.50008329
   0.66790968  0.91808981  0.50062330
   0.33379972  0.83047432  0.40273595
   0.24881341  0.50142130  0.59562220
   0.16872952  0.66476653  0.50072884
   0.33617286  0.58379271  0.40439801
   0.17006214  0.41649162  0.50046237
   0.16573195  0.16811518  0.49940217
  -0.00158034  0.75280416  0.59606823
   0.91684103  0.91708348  0.50049569
  -0.00224307 -0.00215509  0.59616382
   0.91641877  0.16509549  0.49922451
   0.58092885  0.58313479  0.40322019
   0.75151810  0.75023365  0.59732725
Direct configuration=     5
   0.24690952  0.74974847  0.60053380
   0.49998909  0.49954794  0.59954468
   0.58568434  0.83034500  0.39767275
   0.50462983 -0.00213487  0.60067732
   0.41680847  0.91692610  0.49883162
   0.58605225  0.08240140  0.39919886
   0.50200304  0.74869897  0.60228500
   0.16429824  0.91568592  0.49895606
   0.66637014  0.16790663  0.49945583
   0.83046003  0.33252234  0.39889956
   0.24860869  0.25193010  0.59947724
   0.50104542  0.25088506  0.60038266
   0.24851245 -0.00068578  0.60234299
   0.33564421  0.33515317  0.40038599
   0.33223206  0.08203375  0.39857740
   0.08132816  0.33429583  0.39908597
   0.91789428  0.41443288  0.49983459
  -0.00136156  0.25009075  0.60075909
   0.08255756  0.58523137  0.39935581
   0.75096348  0.24823722  0.60054647
   0.91843293  0.66854743  0.50006301
   0.08271124  0.83407824  0.39902502
   0.66546245  0.66636540  0.49990124
  -0.00179145  0.50483607  0.60191719
   0.83488525  0.08230514  0.40337242
   0.75398227 -0.00295455  0.59680260
   0.66462108  0.41504167  0.49929482
   0.83277265  0.58343857  0.40175782
   0.75134742  0.49977810  0.59769098
   0.83358084  0.83421956  0.40291806
   0.41540626  0.66481521  0.49869268
   0.08205646  0.08320120  0.40273196
   0.41594463  0.41769443  0.49965705
   0.58333464  0.33502636  0.40342137
   0.41643375  0.16844497  0.49999960
   0.66619275  0.91856016  0.50044241
   0.33380585  0.83057502  0.40228009
   0.24888563  0.50132173  0.59605646
   0.16826900  0.66569075  0.50051217
   0.33535586  0.58427931  0.40378634
   0.16873017  0.41669049  0.50025002
   0.16572090  0.16849524  0.49959084
  -0.00171902  0.75262592  0.59657626
   0.91773100  0.91702945  0.50027488
  -0.00188654 -0.00231398  0.59649620
   0.91589327  0.16612620  0.49935249
   0.58140386  0.58324143  0.40261647
   0.75180716  0.74958823  0.59771585
Direct configuration=     6
   0.24750395  0.74957736  0.60097103
   0.49999969  0.50047758  0.59987550
   0.58568122  0.83033306  0.39713050
   0.50389805 -0.00154835  0.60094573
   0.41590349  0.91774801  0.49900711
   0.58599326  0.08237842  0.39876244
   0.50204520  0.74842384  0.60272003
   0.16515714  0.91640800  0.49910014
   0.66653354  0.16678927  0.49958019
   0.83057527  0.33289332  0.39839476
   0.24922256  0.25147664  0.59971018
   0.50043929  0.25014886  0.60080514
   0.24862795 -0.00050194  0.60276062
   0.33508594  0.33496534  0.40001156
   0.33206820  0.08226534  0.39815458
   0.08190257  0.33385723  0.39869770
   0.91728694  0.41492767  0.49984410
  -0.00121887  0.24975371  0.60112075
   0.08282884  0.58493065  0.39892909
   0.75173180  0.24824948  0.60102113
   0.91807503  0.66833119  0.49997161
   0.08297693  0.83401850  0.39840626
   0.66553947  0.66603607  0.49992738
  -0.00145302  0.50437567  0.60243147
   0.83433463  0.08241920  0.40314859
   0.75332476 -0.00279807  0.59689146
   0.66523728  0.41589374  0.49953930
   0.83250192  0.58349435  0.40172906
   0.75102501  0.49988398  0.59771396
   0.83334586  0.83403590  0.40274412
   0.41598425  0.66475075  0.49934357
   0.08256567  0.08329427  0.40258943
   0.41535359  0.41788608  0.49984669
   0.58330697  0.33463442  0.40303777
   0.41581816  0.16833728  0.49998334
   0.66630242  0.91847132  0.50023682
   0.33369922  0.83122985  0.40202105
   0.24882963  0.50114058  0.59617059
   0.16823958  0.66551236  0.50030928
   0.33514934  0.58418909  0.40352678
   0.16876678  0.41647963  0.50001272
   0.16662680  0.16740710  0.49964225
  -0.00160413  0.75227740  0.59685073
   0.91702695  0.91696959  0.49989558
  -0.00134791 -0.00163984  0.59666534
   0.91603155  0.16676562  0.49955930
   0.58175977  0.58324394  0.40247611
   0.75131744  0.74980653  0.59778718
Direct configuration=     7
   0.24773265  0.74951152  0.60113925
   0.50000377  0.50083524  0.60000278
   0.58568001  0.83032846  0.39692188
   0.50361652 -0.00132270  0.60104900
   0.41555533  0.91806422  0.49907463
   0.58597057  0.08236958  0.39859454
   0.50206142  0.74831800  0.60288739
   0.16548757  0.91668581  0.49915557
   0.66659640  0.16635940  0.49962803
   0.83061961  0.33303605  0.39820055
   0.24945873  0.25130219  0.59979980
   0.50020609  0.24986563  0.60096768
   0.24867238 -0.00043121  0.60292130
   0.33487117  0.33489307  0.39986751
   0.33200516  0.08235444  0.39799191
   0.08212356  0.33368849  0.39854833
   0.91705329  0.41511803  0.49984776
  -0.00116397  0.24962404  0.60125989
   0.08293321  0.58481495  0.39876492
   0.75202740  0.24825420  0.60120374
   0.91793734  0.66824799  0.49993644
   0.08307915  0.83399551  0.39816820
   0.66556911  0.66590938  0.49993744
  -0.00132281  0.50419855  0.60262932
   0.83412279  0.08246308  0.40306247
   0.75307180 -0.00273787  0.59692565
   0.66547435  0.41622155  0.49963336
   0.83239777  0.58351581  0.40171799
   0.75090098  0.49992471  0.59772280
   0.83325545  0.83396524  0.40267720
   0.41620661  0.66472595  0.49959398
   0.08276158  0.08333008  0.40253460
   0.41512620  0.41795981  0.49991964
   0.58329633  0.33448363  0.40289018
   0.41558132  0.16829584  0.49997708
   0.66634461  0.91843714  0.50015772
   0.33365820  0.83148178  0.40192139
   0.24880809  0.50107088  0.59621450
   0.16822827  0.66544373  0.50023123
   0.33506989  0.58415438  0.40342692
   0.16878087  0.41639851  0.49992142
   0.16697532  0.16698846  0.49966203
  -0.00155993  0.75214332  0.59695632
   0.91675608  0.91694656  0.49974965
  -0.00114068 -0.00138049  0.59673041
   0.91608475  0.16701162  0.49963886
   0.58189669  0.58324491  0.40242211
   0.75112902  0.74989051  0.59781463
Direct configuration=     8
   0.24728411  0.74938935  0.60139561
   0.50019413  0.50036094  0.60023263
   0.58559098  0.83026028  0.39661460
   0.50366866 -0.00163269  0.60116394
   0.41590138  0.91809999  0.49909452
   0.58600349  0.08239865  0.39832527
   0.50256725  0.74833420  0.60325282
   0.16491372  0.91705159  0.49915606
   0.66678435  0.16627351  0.49962922
   0.83070518  0.33290809  0.39795457
   0.24935841  0.25149260  0.59986892
   0.50004276  0.25012302  0.60122446
   0.24857862 -0.00014350  0.60334372
   0.33492646  0.33487917  0.39970567
   0.33194463  0.08235683  0.39772635
   0.08226637  0.33333358  0.39835668
   0.91731273  0.41485978  0.49983579
  -0.00091562  0.24959594  0.60146785
   0.08285833  0.58484429  0.39847793
   0.75199130  0.24834511  0.60148745
   0.91767452  0.66869771  0.49997047
   0.08312504  0.83435215  0.39784553
   0.66511017  0.66635131  0.49990344
  -0.00102425  0.50380588  0.60290358
   0.83393917  0.08266875  0.40308156
   0.75305336 -0.00294657  0.59681849
   0.66538230  0.41637584  0.49965848
   0.83232400  0.58363872  0.40175374
   0.75080457  0.50007703  0.59772097
   0.83322274  0.83368276  0.40257292
   0.41654232  0.66427764  0.49984418
   0.08277929  0.08340026  0.40261681
   0.41496798  0.41821858  0.49995751
   0.58314038  0.33450811  0.40290146
   0.41511195  0.16850073  0.49989127
   0.66656477  0.91793206  0.50001174
   0.33380286  0.83157562  0.40193741
   0.24883489  0.50099209  0.59613125
   0.16816775  0.66561183  0.50012175
   0.33558699  0.58392393  0.40353902
   0.16898774  0.41608207  0.49979397
   0.16686207  0.16713867  0.49964801
  -0.00144580  0.75224352  0.59690686
   0.91687338  0.91672457  0.49952868
  -0.00089682 -0.00145626  0.59668084
   0.91621732  0.16697046  0.49966611
   0.58161824  0.58325291  0.40258204
   0.75069583  0.75026890  0.59769786
Direct configuration=     9
   0.24694842  0.74929792  0.60158747
   0.50033659  0.50000596  0.60040466
   0.58552434  0.83020925  0.39638462
   0.50370769 -0.00186469  0.60124996
   0.41616038  0.91812676  0.49910941
   0.58602813  0.08242040  0.39812374
   0.50294583  0.74834633  0.60352631
   0.16448424  0.91732535  0.49915644
   0.66692502  0.16620923  0.49963011
   0.83076923  0.33281233  0.39777048
   0.24928332  0.25163511  0.59992065
   0.49992053  0.25031566  0.60141664
   0.24850845  0.00007183  0.60365986
   0.33496783  0.33486877  0.39958455
   0.33189932  0.08235861  0.39752760
   0.08237324  0.33306796  0.39821325
   0.91750690  0.41466650  0.49982683
  -0.00072975  0.24957491  0.60162349
   0.08280229  0.58486624  0.39826315
   0.75196429  0.24841314  0.60169977
   0.91747782  0.66903428  0.49999593
   0.08315938  0.83461906  0.39760405
   0.66476669  0.66668206  0.49987800
  -0.00080081  0.50351200  0.60310884
   0.83380175  0.08282267  0.40309585
   0.75303956 -0.00310275  0.59673830
   0.66531340  0.41649131  0.49967728
   0.83226879  0.58373071  0.40178050
   0.75073241  0.50019103  0.59771959
   0.83319826  0.83347135  0.40249487
   0.41679357  0.66394212  0.50003144
   0.08279255  0.08345279  0.40267833
   0.41484957  0.41841225  0.49998584
   0.58302366  0.33452642  0.40290989
   0.41476066  0.16865407  0.49982704
   0.66672954  0.91755405  0.49990249
   0.33391113  0.83164586  0.40194941
   0.24885496  0.50093312  0.59606894
   0.16812246  0.66573764  0.50003982
   0.33597399  0.58375146  0.40362292
   0.16914256  0.41584523  0.49969859
   0.16677732  0.16725108  0.49963751
  -0.00136038  0.75231851  0.59686983
   0.91696117  0.91655842  0.49936330
  -0.00071432 -0.00151297  0.59664374
   0.91631654  0.16693966  0.49968650
   0.58140983  0.58325890  0.40270173
   0.75037163  0.75055209  0.59761047
Direct configuration=    10
   0.24703067  0.74921869  0.60182001
   0.50034765  0.49976436  0.60072771
   0.58533198  0.83023409  0.39600599
   0.50365781 -0.00166933  0.60130856
   0.41602805  0.91814202  0.49911235
   0.58605623  0.08233972  0.39787817
   0.50274310  0.74827825  0.60398376
   0.16450032  0.91711238  0.49916224
   0.66677652  0.16640796  0.49966061
   0.83061772  0.33278017  0.39759219
   0.24941587  0.25169948  0.59995806
   0.50006929  0.25025755  0.60162167
   0.24872643 -0.00022101  0.60415796
   0.33507430  0.33497109  0.39942659
   0.33208376  0.08216785  0.39723940
   0.08221456  0.33310098  0.39801682
   0.91759531  0.41478012  0.49981002
  -0.00083075  0.24969079  0.60183065
   0.08277204  0.58501421  0.39800093
   0.75202920  0.24821239  0.60196672
   0.91775100  0.66877405  0.50007994
   0.08321543  0.83477386  0.39725514
   0.66472455  0.66670168  0.49981920
  -0.00101140  0.50381133  0.60332505
   0.83374933  0.08295209  0.40316973
   0.75315992 -0.00306572  0.59649246
   0.66536602  0.41617634  0.49968240
   0.83236285  0.58355553  0.40188702
   0.75095373  0.50020155  0.59765531
   0.83330137  0.83331829  0.40231495
   0.41649192  0.66410639  0.50034458
   0.08267121  0.08349846  0.40281822
   0.41500160  0.41830149  0.50000212
   0.58305921  0.33453186  0.40306007
   0.41489681  0.16873764  0.49971718
   0.66663086  0.91767531  0.49967421
   0.33402422  0.83154083  0.40217281
   0.24877649  0.50099711  0.59587978
   0.16802954  0.66594811  0.49987104
   0.33615830  0.58383746  0.40386536
   0.16894841  0.41606478  0.49954963
   0.16662297  0.16739037  0.49963831
  -0.00150056  0.75234136  0.59668907
   0.91715930  0.91651740  0.49913456
  -0.00080615 -0.00157753  0.59650722
   0.91606958  0.16698787  0.49971934
   0.58124224  0.58318233  0.40296660
   0.75071119  0.75043801  0.59742827
Direct configuration=    11
   0.24713706  0.74911621  0.60212077
   0.50036195  0.49945187  0.60114552
   0.58508319  0.83026623  0.39551629
   0.50359331 -0.00141666  0.60138434
   0.41585689  0.91816176  0.49911616
   0.58609257  0.08223537  0.39756056
   0.50248091  0.74819020  0.60457541
   0.16452111  0.91683694  0.49916976
   0.66658446  0.16666497  0.49970006
   0.83042177  0.33273859  0.39736159
   0.24958729  0.25178273  0.60000644
   0.50026170  0.25018239  0.60188685
   0.24900836 -0.00059975  0.60480218
   0.33521200  0.33510342  0.39922230
   0.33232231  0.08192114  0.39686666
   0.08200933  0.33314368  0.39776277
   0.91770965  0.41492706  0.49978828
  -0.00096137  0.24984067  0.60209858
   0.08273291  0.58520559  0.39766178
   0.75211315  0.24795275  0.60231198
   0.91810431  0.66843749  0.50018860
   0.08328792  0.83497407  0.39680388
   0.66467004  0.66672705  0.49974315
  -0.00128377  0.50419845  0.60360469
   0.83368152  0.08311947  0.40326528
   0.75331559 -0.00301782  0.59617451
   0.66543407  0.41576898  0.49968902
   0.83248450  0.58332895  0.40202478
   0.75123997  0.50021516  0.59757217
   0.83343473  0.83312033  0.40208225
   0.41610178  0.66431884  0.50074958
   0.08251426  0.08355754  0.40299915
   0.41519823  0.41815824  0.50002318
   0.58310518  0.33453889  0.40325431
   0.41507290  0.16884572  0.49957509
   0.66650324  0.91783214  0.49937896
   0.33417049  0.83140499  0.40246174
   0.24867499  0.50107988  0.59563512
   0.16790935  0.66622032  0.49965276
   0.33639668  0.58394869  0.40417893
   0.16869729  0.41634872  0.49935696
   0.16642335  0.16757052  0.49963934
  -0.00168187  0.75237090  0.59645529
   0.91741556  0.91646435  0.49883871
  -0.00092492 -0.00166102  0.59633064
   0.91575017  0.16705022  0.49976182
   0.58102548  0.58308330  0.40330917
   0.75115037  0.75029047  0.59719263
Direct configuration=    12
   0.24721669  0.74909512  0.60231001
   0.50050144  0.49959761  0.60142611
   0.58539268  0.82993035  0.39518927
   0.50387011 -0.00158290  0.60125445
   0.41545073  0.91843214  0.49923338
   0.58627522  0.08212249  0.39737142
   0.50260014  0.74794291  0.60497435
   0.16490089  0.91683205  0.49930194
   0.66634043  0.16651656  0.49975788
   0.83022219  0.33291782  0.39731346
   0.24938235  0.25173461  0.59989855
   0.50047516  0.24990933  0.60199125
   0.24882628 -0.00055056  0.60523275
   0.33502932  0.33521147  0.39911926
   0.33214513  0.08212828  0.39665690
   0.08211783  0.33324038  0.39763034
   0.91746003  0.41485792  0.49979209
  -0.00073570  0.24962969  0.60219358
   0.08296722  0.58520583  0.39747019
   0.75230155  0.24793346  0.60252383
   0.91828094  0.66829891  0.50003551
   0.08334006  0.83477087  0.39644818
   0.66457621  0.66664629  0.49978706
  -0.00116307  0.50425743  0.60378388
   0.83372272  0.08288827  0.40329880
   0.75325767 -0.00289496  0.59580373
   0.66554798  0.41578370  0.49989746
   0.83235602  0.58330559  0.40213752
   0.75106007  0.50017327  0.59743396
   0.83344457  0.83318582  0.40194771
   0.41597554  0.66457823  0.50126910
   0.08255796  0.08366489  0.40316150
   0.41519304  0.41801375  0.50013900
   0.58322757  0.33432407  0.40339168
   0.41526603  0.16874385  0.49945155
   0.66632318  0.91815759  0.49906739
   0.33405338  0.83135951  0.40277446
   0.24856137  0.50120418  0.59533970
   0.16794024  0.66609163  0.49946376
   0.33585294  0.58427922  0.40444744
   0.16879396  0.41651615  0.49915796
   0.16651029  0.16741450  0.49972994
  -0.00149110  0.75240875  0.59622396
   0.91722276  0.91651007  0.49854213
  -0.00082008 -0.00171606  0.59614780
   0.91560305  0.16733181  0.49989179
   0.58130234  0.58314870  0.40359769
   0.75076464  0.75044942  0.59698834
Direct configuration=    13
   0.24723885  0.74908925  0.60236265
   0.50054024  0.49963815  0.60150417
   0.58547878  0.82983691  0.39509829
   0.50394712 -0.00162914  0.60121831
   0.41533774  0.91850735  0.49926599
   0.58632603  0.08209108  0.39731880
   0.50263331  0.74787412  0.60508534
   0.16500654  0.91683069  0.49933872
   0.66627254  0.16647528  0.49977396
   0.83016667  0.33296768  0.39730007
   0.24932534  0.25172122  0.59986853
   0.50053454  0.24983336  0.60202029
   0.24877563 -0.00053688  0.60535253
   0.33497850  0.33524152  0.39909059
   0.33209584  0.08218590  0.39659855
   0.08214802  0.33326728  0.39759350
   0.91739058  0.41483869  0.49979315
  -0.00067292  0.24957100  0.60222001
   0.08303241  0.58520590  0.39741690
   0.75235396  0.24792809  0.60258277
   0.91833007  0.66826036  0.49999292
   0.08335457  0.83471434  0.39634922
   0.66455011  0.66662383  0.49979927
  -0.00112949  0.50427384  0.60383373
   0.83373418  0.08282396  0.40330813
   0.75324156 -0.00286078  0.59570058
   0.66557967  0.41578780  0.49995545
   0.83232028  0.58329909  0.40216889
   0.75101002  0.50016162  0.59739551
   0.83344731  0.83320404  0.40191028
   0.41594043  0.66465039  0.50141363
   0.08257012  0.08369476  0.40320666
   0.41519160  0.41797356  0.50017122
   0.58326162  0.33426431  0.40342990
   0.41531975  0.16871551  0.49941718
   0.66627309  0.91824813  0.49898071
   0.33402079  0.83134686  0.40286145
   0.24852977  0.50123876  0.59525751
   0.16794883  0.66605583  0.49941118
   0.33570168  0.58437117  0.40452214
   0.16882085  0.41656272  0.49910259
   0.16653448  0.16737110  0.49975515
  -0.00143802  0.75241928  0.59615960
   0.91716913  0.91652279  0.49845962
  -0.00079092 -0.00173137  0.59609694
   0.91556212  0.16741015  0.49992794
   0.58137936  0.58316690  0.40367795
   0.75065733  0.75049364  0.59693151
Direct configuration=    14
   0.24716906  0.74916646  0.60245878
   0.50050885  0.49957100  0.60165841
   0.58557221  0.82975199  0.39498749
   0.50391213 -0.00187093  0.60097555
   0.41557745  0.91863269  0.49940699
   0.58619582  0.08211955  0.39719055
   0.50276414  0.74804727  0.60532381
   0.16476861  0.91698874  0.49950895
   0.66623564  0.16655622  0.49979152
   0.83025848  0.33292864  0.39740226
   0.24933850  0.25161049  0.59965731
   0.50041884  0.24991905  0.60199597
   0.24876989 -0.00049184  0.60559787
   0.33508769  0.33510254  0.39905188
   0.33212144  0.08219341  0.39658554
   0.08207492  0.33343371  0.39760258
   0.91755185  0.41462688  0.49981996
  -0.00056640  0.24953120  0.60218932
   0.08295070  0.58513769  0.39729801
   0.75244280  0.24800625  0.60267500
   0.91803758  0.66836029  0.49974359
   0.08325831  0.83478432  0.39617167
   0.66422189  0.66713889  0.49992448
  -0.00115582  0.50427935  0.60385857
   0.83396445  0.08261451  0.40330132
   0.75334227 -0.00292376  0.59539938
   0.66529503  0.41593444  0.50022622
   0.83242235  0.58336992  0.40220766
   0.75101537  0.50000280  0.59734137
   0.83350498  0.83314125  0.40181128
   0.41619376  0.66452566  0.50183382
   0.08254038  0.08377412  0.40334651
   0.41532689  0.41793071  0.50029773
   0.58315650  0.33423014  0.40354751
   0.41511452  0.16862577  0.49931035
   0.66615150  0.91798595  0.49870637
   0.33403610  0.83134653  0.40308860
   0.24873459  0.50107657  0.59506425
   0.16792735  0.66620606  0.49930661
   0.33557503  0.58442418  0.40474207
   0.16892671  0.41632132  0.49894421
   0.16656030  0.16757480  0.49983324
  -0.00129213  0.75251520  0.59593464
   0.91725126  0.91650953  0.49824750
  -0.00066517 -0.00181623  0.59594739
   0.91558818  0.16734453  0.50003461
   0.58140037  0.58325289  0.40391382
   0.75041483  0.75050924  0.59673745
Direct configuration=    15
   0.24715424  0.74918285  0.60247919
   0.50050219  0.49955674  0.60169115
   0.58559204  0.82973396  0.39496396
   0.50390471 -0.00192226  0.60092402
   0.41562834  0.91865930  0.49943693
   0.58616818  0.08212560  0.39716333
   0.50279191  0.74808403  0.60537444
   0.16471810  0.91702230  0.49954509
   0.66622781  0.16657340  0.49979525
   0.83027797  0.33292035  0.39742396
   0.24934130  0.25158698  0.59961247
   0.50039427  0.24993724  0.60199081
   0.24876867 -0.00048228  0.60564996
   0.33511087  0.33507303  0.39904367
   0.33212688  0.08219500  0.39658278
   0.08205940  0.33346905  0.39760451
   0.91758609  0.41458191  0.49982565
  -0.00054379  0.24952275  0.60218280
   0.08293335  0.58512321  0.39727278
   0.75246166  0.24802284  0.60269458
   0.91797548  0.66838151  0.49969066
   0.08323788  0.83479918  0.39613398
   0.66415221  0.66724823  0.49995106
  -0.00116141  0.50428052  0.60386385
   0.83401334  0.08257004  0.40329988
   0.75336365 -0.00293713  0.59533544
   0.66523460  0.41596557  0.50028370
   0.83244402  0.58338495  0.40221589
   0.75101651  0.49996908  0.59732987
   0.83351723  0.83312792  0.40179026
   0.41624754  0.66449918  0.50192303
   0.08253407  0.08379097  0.40337620
   0.41535562  0.41792161  0.50032458
   0.58313418  0.33422288  0.40357248
   0.41507095  0.16860672  0.49928766
   0.66612569  0.91793029  0.49864813
   0.33403935  0.83134646  0.40313682
   0.24877807  0.50104214  0.59502322
   0.16792279  0.66623795  0.49928441
   0.33554814  0.58443543  0.40478876
   0.16894919  0.41627007  0.49891059
   0.16656579  0.16761805  0.49984982
  -0.00126115  0.75253557  0.59588688
   0.91726869  0.91650672  0.49820246
  -0.00063847 -0.00183425  0.59591564
   0.91559371  0.16733060  0.50005725
   0.58140482  0.58327115  0.40396389
   0.75036334  0.75051256  0.59669625
Direct configuration=    16
   0.24722606  0.74916155  0.60253970
   0.50042221  0.49957222  0.60183800
   0.58540776  0.82986204  0.39495648
   0.50375704 -0.00174058  0.60068931
   0.41542933  0.91872280  0.49950461
   0.58611542  0.08215835  0.39708578
   0.50275428  0.74810530  0.60555884
   0.16476023  0.91707060  0.49963116
   0.66627719  0.16655253  0.49973848
   0.83027155  0.33286365  0.39765282
   0.24952433  0.25155416  0.59941204
   0.50033424  0.24985293  0.60189947
   0.24884387 -0.00055060  0.60580944
   0.33524089  0.33503128  0.39903496
   0.33216013  0.08199989  0.39668408
   0.08200709  0.33341908  0.39766483
   0.91750443  0.41471795  0.49986024
  -0.00057879  0.24959535  0.60213183
   0.08288154  0.58508320  0.39717227
   0.75243844  0.24789958  0.60273902
   0.91794283  0.66831874  0.49951727
   0.08332826  0.83486211  0.39609773
   0.66416591  0.66723409  0.50004692
  -0.00126986  0.50445329  0.60373392
   0.83402253  0.08264369  0.40327162
   0.75337463 -0.00301458  0.59508776
   0.66515461  0.41603757  0.50047806
   0.83247242  0.58342083  0.40220520
   0.75111066  0.49994330  0.59736090
   0.83350244  0.83313371  0.40161846
   0.41631073  0.66455752  0.50217184
   0.08256109  0.08380867  0.40350287
   0.41542615  0.41788993  0.50037092
   0.58312226  0.33433871  0.40368228
   0.41501303  0.16866124  0.49918385
   0.66622124  0.91786311  0.49840557
   0.33408865  0.83136179  0.40336530
   0.24880023  0.50096908  0.59493778
   0.16778471  0.66638643  0.49924388
   0.33581139  0.58429532  0.40496573
   0.16884758  0.41635228  0.49881018
   0.16660130  0.16758587  0.49988689
  -0.00132940  0.75240942  0.59564188
   0.91733057  0.91647049  0.49806847
  -0.00067430 -0.00176145  0.59587405
   0.91551543  0.16727834  0.50010344
   0.58128047  0.58322551  0.40419800
   0.75070722  0.75034370  0.59656588
Direct configuration=    17
   0.24726440  0.74915018  0.60257201
   0.50037951  0.49958049  0.60191640
   0.58530936  0.82993043  0.39495248
   0.50367819 -0.00164357  0.60056398