  56  56   0   0
  0.4903395E+02  0.1100258E-08  0.1100258E-08  0.2619179E-08  0.3500000E-15
  1.000000000000000E-004
  CAR 
 unknown system                          
      6.54704235    -21.85403140  301     -1.31972492      1.00000000
    -21.854  0.0000E+00  0.0000E+00
    -21.759  0.0000E+00  0.0000E+00
    -21.665  0.0000E+00  0.0000E+00
    -21.570  0.0000E+00  0.0000E+00
    -21.475  0.0000E+00  0.0000E+00
    -21.381  0.0000E+00  0.0000E+00
    -21.286  0.0000E+00  0.0000E+00
    -21.191  0.0000E+00  0.0000E+00
    -21.097  0.8999E-15  0.8519E-16
    -21.002  0.1091E-10  0.1033E-11
    -20.907  0.2295E-07  0.2174E-08
    -20.813  0.8547E-05  0.8113E-06
    -20.718  0.5825E-03  0.5596E-04
    -20.623  0.7658E-02  0.7810E-03
    -20.529  0.2067E-01  0.2738E-02
    -20.434  0.1190E-01  0.3864E-02
    -20.339  0.2373E-02  0.4089E-02
    -20.245  0.1015E-01  0.5050E-02
    -20.150  0.2659E-01  0.7567E-02
    -20.055  0.3062E-01  0.1047E-01
    -19.961  0.2959E-01  0.1327E-01
    -19.866  0.3745E-01  0.1681E-01
    -19.771  0.4525E-01  0.2110E-01
    -19.677  0.4174E-01  0.2505E-01
    -19.582  0.2764E-01  0.2766E-01
    -19.487  0.2088E-01  0.2964E-01
    -19.393  0.1947E-01  0.3148E-01
    -19.298  0.5165E-02  0.3197E-01
    -19.203  0.2822E-03  0.3200E-01
    -19.109  0.2939E-05  0.3200E-01
    -19.014  0.5557E-08  0.3200E-01
    -18.919  0.1850E-11  0.3200E-01
    -18.825  0.1040E-15  0.3200E-01
    -18.730  0.0000E+00  0.3200E-01
    -18.635  0.0000E+00  0.3200E-01
    -18.541  0.0000E+00  0.3200E-01
    -18.446  0.0000E+00  0.3200E-01
    -18.351  0.0000E+00  0.3200E-01
    -18.257  0.0000E+00  0.3200E-01
    -18.162  0.0000E+00  0.3200E-01
    -18.067  0.0000E+00  0.3200E-01
    -17.973  0.0000E+00  0.3200E-01
    -17.878  0.0000E+00  0.3200E-01
    -17.783  0.0000E+00  0.3200E-01
    -17.689  0.0000E+00  0.3200E-01
    -17.594  0.0000E+00  0.3200E-01
    -17.499  0.0000E+00  0.3200E-01
    -17.405  0.0000E+00  0.3200E-01
    -17.310  0.0000E+00  0.3200E-01
    -17.215  0.0000E+00  0.3200E-01
    -17.121  0.0000E+00  0.3200E-01
    -17.026  0.0000E+00  0.3200E-01
    -16.931  0.0000E+00  0.3200E-01
    -16.837  0.0000E+00  0.3200E-01
    -16.742  0.0000E+00  0.3200E-01
    -16.647  0.0000E+00  0.3200E-01
    -16.552  0.0000E+00  0.3200E-01
    -16.458  0.0000E+00  0.3200E-01
    -16.363  0.0000E+00  0.3200E-01
    -16.268  0.0000E+00  0.3200E-01
    -16.174  0.0000E+00  0.3200E-01
    -16.079  0.0000E+00  0.3200E-01
    -15.984  0.0000E+00  0.3200E-01
    -15.890  0.0000E+00  0.3200E-01
    -15.795  0.0000E+00  0.3200E-01
    -15.700  0.0000E+00  0.3200E-01
    -15.606  0.0000E+00  0.3200E-01
    -15.511  0.0000E+00  0.3200E-01
    -15.416  0.0000E+00  0.3200E-01
    -15.322  0.0000E+00  0.3200E-01
    -15.227  0.0000E+00  0.3200E-01
    -15.132  0.0000E+00  0.3200E-01
    -15.038  0.0000E+00  0.3200E-01
    -14.943  0.0000E+00  0.3200E-01
    -14.848  0.0000E+00  0.3200E-01
    -14.754  0.0000E+00  0.3200E-01
    -14.659  0.0000E+00  0.3200E-01
    -14.564  0.0000E+00  0.3200E-01
    -14.470  0.0000E+00  0.3200E-01
    -14.375  0.0000E+00  0.3200E-01
    -14.280  0.0000E+00  0.3200E-01
    -14.186  0.0000E+00  0.3200E-01
    -14.091  0.0000E+00  0.3200E-01
    -13.996  0.0000E+00  0.3200E-01
    -13.902  0.0000E+00  0.3200E-01
    -13.807  0.0000E+00  0.3200E-01
    -13.712  0.0000E+00  0.3200E-01
    -13.618  0.0000E+00  0.3200E-01
    -13.523  0.0000E+00  0.3200E-01
    -13.428  0.0000E+00  0.3200E-01
    -13.334  0.0000E+00  0.3200E-01
    -13.239  0.0000E+00  0.3200E-01
    -13.144  0.0000E+00  0.3200E-01
    -13.050  0.0000E+00  0.3200E-01
    -12.955  0.0000E+00  0.3200E-01
    -12.860  0.0000E+00  0.3200E-01
    -12.766  0.0000E+00  0.3200E-01
    -12.671  0.0000E+00  0.3200E-01
    -12.576  0.0000E+00  0.3200E-01
    -12.482  0.0000E+00  0.3200E-01
    -12.387  0.0000E+00  0.3200E-01
    -12.292  0.0000E+00  0.3200E-01
    -12.198  0.0000E+00  0.3200E-01
    -12.103  0.0000E+00  0.3200E-01
    -12.008  0.0000E+00  0.3200E-01
    -11.914  0.0000E+00  0.3200E-01
    -11.819  0.0000E+00  0.3200E-01
    -11.724  0.0000E+00  0.3200E-01
    -11.630  0.0000E+00  0.3200E-01
    -11.535  0.0000E+00  0.3200E-01
    -11.440  0.0000E+00  0.3200E-01
    -11.346  0.0000E+00  0.3200E-01
    -11.251  0.0000E+00  0.3200E-01
    -11.156  0.0000E+00  0.3200E-01
    -11.062  0.0000E+00  0.3200E-01
    -10.967  0.0000E+00  0.3200E-01
    -10.872  0.0000E+00  0.3200E-01
    -10.778  0.0000E+00  0.3200E-01
    -10.683  0.0000E+00  0.3200E-01
    -10.588  0.0000E+00  0.3200E-01
    -10.494  0.0000E+00  0.3200E-01
    -10.399  0.0000E+00  0.3200E-01
    -10.304  0.0000E+00  0.3200E-01
    -10.210  0.0000E+00  0.3200E-01
    -10.115  0.0000E+00  0.3200E-01
    -10.020  0.0000E+00  0.3200E-01
     -9.926  0.0000E+00  0.3200E-01
     -9.831  0.0000E+00  0.3200E-01
     -9.736  0.0000E+00  0.3200E-01
     -9.642  0.1290E-16  0.3200E-01
     -9.547  0.2845E-12  0.3200E-01
     -9.452  0.1065E-08  0.3200E-01
     -9.358  0.7022E-06  0.3200E-01
     -9.263  0.8402E-04  0.3201E-01
     -9.168  0.1909E-02  0.3219E-01
     -9.074  0.8807E-02  0.3302E-01
     -8.979  0.9848E-02  0.3395E-01
     -8.884  0.9290E-02  0.3483E-01
     -8.790  0.9545E-02  0.3574E-01
     -8.695  0.3095E-02  0.3603E-01
     -8.600  0.5338E-02  0.3654E-01
     -8.506  0.1839E-01  0.3828E-01
     -8.411  0.3115E-01  0.4123E-01
     -8.316  0.3719E-01  0.4475E-01
     -8.222  0.4230E-01  0.4875E-01
     -8.127  0.4363E-01  0.5288E-01
     -8.032  0.4709E-01  0.5734E-01
     -7.938  0.4717E-01  0.6181E-01
     -7.843  0.4629E-01  0.6619E-01
     -7.748  0.4956E-01  0.7088E-01
     -7.653  0.5546E-01  0.7613E-01
     -7.559  0.6341E-01  0.8213E-01
     -7.464  0.7589E-01  0.8932E-01
     -7.369  0.8530E-01  0.9739E-01
     -7.275  0.1008E+00  0.1069E+00
     -7.180  0.1186E+00  0.1182E+00
     -7.085  0.1307E+00  0.1305E+00
     -6.991  0.1333E+00  0.1432E+00
     -6.896  0.1394E+00  0.1563E+00
     -6.801  0.1489E+00  0.1704E+00
     -6.707  0.1413E+00  0.1838E+00
     -6.612  0.1407E+00  0.1971E+00
     -6.517  0.1523E+00  0.2116E+00
     -6.423  0.1688E+00  0.2275E+00
     -6.328  0.1799E+00  0.2446E+00
     -6.233  0.1694E+00  0.2606E+00
     -6.139  0.1595E+00  0.2757E+00
     -6.044  0.1622E+00  0.2911E+00
     -5.949  0.1580E+00  0.3060E+00
     -5.855  0.1600E+00  0.3212E+00
     -5.760  0.1577E+00  0.3361E+00
     -5.665  0.1587E+00  0.3511E+00
     -5.571  0.1661E+00  0.3668E+00
     -5.476  0.1654E+00  0.3825E+00
     -5.381  0.1660E+00  0.3982E+00
     -5.287  0.1738E+00  0.4147E+00
     -5.192  0.1775E+00  0.4315E+00
     -5.097  0.1758E+00  0.4481E+00
     -5.003  0.1757E+00  0.4648E+00
     -4.908  0.1788E+00  0.4817E+00
     -4.813  0.1816E+00  0.4989E+00
     -4.719  0.1783E+00  0.5158E+00
     -4.624  0.1768E+00  0.5325E+00
     -4.529  0.1760E+00  0.5492E+00
     -4.435  0.1772E+00  0.5659E+00
     -4.340  0.1842E+00  0.5834E+00
     -4.245  0.1903E+00  0.6014E+00
     -4.151  0.1969E+00  0.6200E+00
     -4.056  0.2027E+00  0.6392E+00
     -3.961  0.1969E+00  0.6579E+00
     -3.867  0.1897E+00  0.6758E+00
     -3.772  0.1874E+00  0.6936E+00
     -3.677  0.1879E+00  0.7113E+00
     -3.583  0.1861E+00  0.7290E+00
     -3.488  0.1820E+00  0.7462E+00
     -3.393  0.1757E+00  0.7628E+00
     -3.299  0.1727E+00  0.7792E+00
     -3.204  0.1733E+00  0.7956E+00
     -3.109  0.1785E+00  0.8125E+00
     -3.015  0.1802E+00  0.8295E+00
     -2.920  0.1763E+00  0.8462E+00
     -2.825  0.1855E+00  0.8638E+00
     -2.731  0.1905E+00  0.8818E+00
     -2.636  0.1894E+00  0.8998E+00
     -2.541  0.1884E+00  0.9176E+00
     -2.447  0.1863E+00  0.9352E+00
     -2.352  0.1833E+00  0.9526E+00
     -2.257  0.1910E+00  0.9707E+00
     -2.163  0.2007E+00  0.9897E+00
     -2.068  0.1963E+00  0.1008E+01
     -1.973  0.1804E+00  0.1025E+01
     -1.879  0.1674E+00  0.1041E+01
     -1.784  0.1532E+00  0.1056E+01
     -1.689  0.1358E+00  0.1069E+01
     -1.595  0.1151E+00  0.1079E+01
     -1.500  0.1017E+00  0.1089E+01
     -1.405  0.8766E-01  0.1097E+01
     -1.311  0.7784E-01  0.1105E+01
     -1.216  0.7841E-01  0.1112E+01
     -1.121  0.7066E-01  0.1119E+01
     -1.027  0.6242E-01  0.1125E+01
     -0.932  0.5891E-01  0.1130E+01
     -0.837  0.5171E-01  0.1135E+01
     -0.743  0.5116E-01  0.1140E+01
     -0.648  0.5782E-01  0.1146E+01
     -0.553  0.6240E-01  0.1151E+01
     -0.459  0.5551E-01  0.1157E+01
     -0.364  0.4260E-01  0.1161E+01
     -0.269  0.2514E-01  0.1163E+01
     -0.175  0.1915E-01  0.1165E+01
     -0.080  0.2620E-01  0.1167E+01
      0.015  0.2185E-01  0.1169E+01
      0.109  0.1922E-01  0.1171E+01
      0.204  0.2344E-01  0.1174E+01
      0.299  0.2803E-01  0.1176E+01
      0.393  0.3696E-01  0.1180E+01
      0.488  0.4078E-01  0.1184E+01
      0.583  0.4214E-01  0.1188E+01
      0.677  0.3357E-01  0.1191E+01
      0.772  0.2910E-01  0.1193E+01
      0.867  0.2800E-01  0.1196E+01
      0.961  0.3161E-01  0.1199E+01
      1.056  0.2683E-01  0.1202E+01
      1.151  0.2235E-01  0.1204E+01
      1.246  0.2322E-01  0.1206E+01
      1.340  0.2202E-01  0.1208E+01
      1.435  0.2236E-01  0.1210E+01
      1.530  0.2798E-01  0.1213E+01
      1.624  0.3125E-01  0.1216E+01
      1.719  0.3640E-01  0.1219E+01
      1.814  0.3226E-01  0.1222E+01
      1.908  0.3069E-01  0.1225E+01
      2.003  0.2894E-01  0.1228E+01
      2.098  0.3153E-01  0.1231E+01
      2.192  0.2773E-01  0.1233E+01
      2.287  0.2962E-01  0.1236E+01
      2.382  0.3235E-01  0.1239E+01
      2.476  0.2541E-01  0.1242E+01
      2.571  0.1627E-01  0.1243E+01
      2.666  0.2047E-01  0.1245E+01
      2.760  0.2326E-01  0.1247E+01
      2.855  0.2506E-01  0.1250E+01
      2.950  0.2778E-01  0.1252E+01
      3.044  0.2309E-01  0.1255E+01
      3.139  0.2642E-01  0.1257E+01
      3.234  0.3214E-01  0.1260E+01
      3.328  0.3585E-01  0.1264E+01
      3.423  0.3272E-01  0.1267E+01
      3.518  0.3085E-01  0.1270E+01
      3.612  0.3203E-01  0.1273E+01
      3.707  0.3173E-01  0.1276E+01
      3.802  0.2602E-01  0.1278E+01
      3.896  0.2922E-01  0.1281E+01
      3.991  0.3678E-01  0.1284E+01
      4.086  0.4580E-01  0.1289E+01
      4.180  0.4097E-01  0.1293E+01
      4.275  0.3403E-01  0.1296E+01
      4.370  0.3185E-01  0.1299E+01
      4.464  0.4080E-01  0.1303E+01
      4.559  0.5052E-01  0.1307E+01
      4.654  0.5370E-01  0.1313E+01
      4.748  0.5359E-01  0.1318E+01
      4.843  0.5653E-01  0.1323E+01
      4.938  0.6315E-01  0.1329E+01
      5.032  0.6134E-01  0.1335E+01
      5.127  0.4811E-01  0.1339E+01
      5.222  0.3263E-01  0.1342E+01
      5.316  0.1423E-01  0.1344E+01
      5.411  0.2742E-02  0.1344E+01
      5.506  0.1539E-03  0.1344E+01
      5.600  0.1921E-05  0.1344E+01
      5.695  0.4700E-08  0.1344E+01
      5.790  0.2115E-11  0.1344E+01
      5.884  0.1689E-15  0.1344E+01
      5.979  0.0000E+00  0.1344E+01
      6.074  0.0000E+00  0.1344E+01
      6.168  0.0000E+00  0.1344E+01
      6.263  0.0000E+00  0.1344E+01
      6.358  0.0000E+00  0.1344E+01
      6.452  0.0000E+00  0.1344E+01
      6.547  0.0000E+00  0.1344E+01
