  56  56   0   0
  0.4903395E+02  0.1100258E-08  0.1100258E-08  0.2619179E-08  0.3500000E-15
  1.000000000000000E-004
  CAR 
 unknown system                          
      6.40857966    -21.59183543  301     -1.46285687      1.00000000
    -21.592  0.0000E+00  0.0000E+00
    -21.499  0.0000E+00  0.0000E+00
    -21.405  0.0000E+00  0.0000E+00
    -21.312  0.0000E+00  0.0000E+00
    -21.218  0.0000E+00  0.0000E+00
    -21.125  0.0000E+00  0.0000E+00
    -21.032  0.0000E+00  0.0000E+00
    -20.938  0.0000E+00  0.0000E+00
    -20.845  0.1816E-14  0.1695E-15
    -20.752  0.1735E-10  0.1620E-11
    -20.658  0.3026E-07  0.2826E-08
    -20.565  0.9815E-05  0.9189E-06
    -20.472  0.6115E-03  0.5799E-04
    -20.378  0.7692E-02  0.7759E-03
    -20.285  0.2107E-01  0.2742E-02
    -20.192  0.1983E-01  0.4593E-02
    -20.098  0.3623E-01  0.7974E-02
    -20.005  0.5015E-01  0.1266E-01
    -19.912  0.2926E-01  0.1539E-01
    -19.818  0.6747E-02  0.1602E-01
    -19.725  0.7370E-02  0.1670E-01
    -19.632  0.2051E-01  0.1862E-01
    -19.538  0.1667E-01  0.2017E-01
    -19.445  0.2523E-01  0.2253E-01
    -19.352  0.3931E-01  0.2620E-01
    -19.258  0.2087E-01  0.2815E-01
    -19.165  0.1875E-01  0.2990E-01
    -19.072  0.1807E-01  0.3158E-01
    -18.978  0.4254E-02  0.3198E-01
    -18.885  0.2110E-03  0.3200E-01
    -18.792  0.2077E-05  0.3200E-01
    -18.698  0.3882E-08  0.3200E-01
    -18.605  0.1340E-11  0.3200E-01
    -18.512  0.8564E-16  0.3200E-01
    -18.418  0.0000E+00  0.3200E-01
    -18.325  0.0000E+00  0.3200E-01
    -18.232  0.0000E+00  0.3200E-01
    -18.138  0.0000E+00  0.3200E-01
    -18.045  0.0000E+00  0.3200E-01
    -17.952  0.0000E+00  0.3200E-01
    -17.858  0.0000E+00  0.3200E-01
    -17.765  0.0000E+00  0.3200E-01
    -17.672  0.0000E+00  0.3200E-01
    -17.578  0.0000E+00  0.3200E-01
    -17.485  0.0000E+00  0.3200E-01
    -17.392  0.0000E+00  0.3200E-01
    -17.298  0.0000E+00  0.3200E-01
    -17.205  0.0000E+00  0.3200E-01
    -17.112  0.0000E+00  0.3200E-01
    -17.018  0.0000E+00  0.3200E-01
    -16.925  0.0000E+00  0.3200E-01
    -16.832  0.0000E+00  0.3200E-01
    -16.738  0.0000E+00  0.3200E-01
    -16.645  0.0000E+00  0.3200E-01
    -16.552  0.0000E+00  0.3200E-01
    -16.458  0.0000E+00  0.3200E-01
    -16.365  0.0000E+00  0.3200E-01
    -16.272  0.0000E+00  0.3200E-01
    -16.178  0.0000E+00  0.3200E-01
    -16.085  0.0000E+00  0.3200E-01
    -15.992  0.0000E+00  0.3200E-01
    -15.898  0.0000E+00  0.3200E-01
    -15.805  0.0000E+00  0.3200E-01
    -15.712  0.0000E+00  0.3200E-01
    -15.618  0.0000E+00  0.3200E-01
    -15.525  0.0000E+00  0.3200E-01
    -15.432  0.0000E+00  0.3200E-01
    -15.338  0.0000E+00  0.3200E-01
    -15.245  0.0000E+00  0.3200E-01
    -15.152  0.0000E+00  0.3200E-01
    -15.058  0.0000E+00  0.3200E-01
    -14.965  0.0000E+00  0.3200E-01
    -14.872  0.0000E+00  0.3200E-01
    -14.778  0.0000E+00  0.3200E-01
    -14.685  0.0000E+00  0.3200E-01
    -14.592  0.0000E+00  0.3200E-01
    -14.498  0.0000E+00  0.3200E-01
    -14.405  0.0000E+00  0.3200E-01
    -14.312  0.0000E+00  0.3200E-01
    -14.218  0.0000E+00  0.3200E-01
    -14.125  0.0000E+00  0.3200E-01
    -14.032  0.0000E+00  0.3200E-01
    -13.938  0.0000E+00  0.3200E-01
    -13.845  0.0000E+00  0.3200E-01
    -13.752  0.0000E+00  0.3200E-01
    -13.658  0.0000E+00  0.3200E-01
    -13.565  0.0000E+00  0.3200E-01
    -13.472  0.0000E+00  0.3200E-01
    -13.378  0.0000E+00  0.3200E-01
    -13.285  0.0000E+00  0.3200E-01
    -13.192  0.0000E+00  0.3200E-01
    -13.098  0.0000E+00  0.3200E-01
    -13.005  0.0000E+00  0.3200E-01
    -12.912  0.0000E+00  0.3200E-01
    -12.818  0.0000E+00  0.3200E-01
    -12.725  0.0000E+00  0.3200E-01
    -12.632  0.0000E+00  0.3200E-01
    -12.538  0.0000E+00  0.3200E-01
    -12.445  0.0000E+00  0.3200E-01
    -12.352  0.0000E+00  0.3200E-01
    -12.258  0.0000E+00  0.3200E-01
    -12.165  0.0000E+00  0.3200E-01
    -12.072  0.0000E+00  0.3200E-01
    -11.978  0.0000E+00  0.3200E-01
    -11.885  0.0000E+00  0.3200E-01
    -11.792  0.0000E+00  0.3200E-01
    -11.698  0.0000E+00  0.3200E-01
    -11.605  0.0000E+00  0.3200E-01
    -11.512  0.0000E+00  0.3200E-01
    -11.418  0.0000E+00  0.3200E-01
    -11.325  0.0000E+00  0.3200E-01
    -11.232  0.0000E+00  0.3200E-01
    -11.138  0.0000E+00  0.3200E-01
    -11.045  0.0000E+00  0.3200E-01
    -10.952  0.0000E+00  0.3200E-01
    -10.858  0.0000E+00  0.3200E-01
    -10.765  0.0000E+00  0.3200E-01
    -10.672  0.0000E+00  0.3200E-01
    -10.578  0.0000E+00  0.3200E-01
    -10.485  0.0000E+00  0.3200E-01
    -10.392  0.0000E+00  0.3200E-01
    -10.298  0.0000E+00  0.3200E-01
    -10.205  0.0000E+00  0.3200E-01
    -10.112  0.0000E+00  0.3200E-01
    -10.018  0.0000E+00  0.3200E-01
     -9.925  0.0000E+00  0.3200E-01
     -9.832  0.0000E+00  0.3200E-01
     -9.738  0.0000E+00  0.3200E-01
     -9.645  0.1011E-15  0.3200E-01
     -9.552  0.1380E-11  0.3200E-01
     -9.458  0.3448E-08  0.3200E-01
     -9.365  0.1600E-05  0.3200E-01
     -9.272  0.1418E-03  0.3201E-01
     -9.178  0.2518E-02  0.3225E-01
     -9.085  0.9634E-02  0.3315E-01
     -8.992  0.1066E-01  0.3414E-01
     -8.898  0.1093E-01  0.3516E-01
     -8.805  0.8092E-02  0.3592E-01
     -8.712  0.6456E-02  0.3652E-01
     -8.618  0.1684E-01  0.3809E-01
     -8.525  0.2299E-01  0.4024E-01
     -8.432  0.2861E-01  0.4291E-01
     -8.338  0.4445E-01  0.4706E-01
     -8.245  0.4295E-01  0.5106E-01
     -8.152  0.3323E-01  0.5417E-01
     -8.058  0.2532E-01  0.5653E-01
     -7.965  0.3335E-01  0.5964E-01
     -7.872  0.4843E-01  0.6416E-01
     -7.778  0.5764E-01  0.6954E-01
     -7.685  0.5855E-01  0.7501E-01
     -7.592  0.6139E-01  0.8074E-01
     -7.498  0.7047E-01  0.8731E-01
     -7.405  0.9176E-01  0.9588E-01
     -7.312  0.1039E+00  0.1056E+00
     -7.218  0.1117E+00  0.1160E+00
     -7.125  0.1215E+00  0.1273E+00
     -7.032  0.1182E+00  0.1384E+00
     -6.938  0.1103E+00  0.1487E+00
     -6.845  0.1152E+00  0.1594E+00
     -6.752  0.1270E+00  0.1713E+00
     -6.658  0.1397E+00  0.1843E+00
     -6.565  0.1513E+00  0.1984E+00
     -6.472  0.1609E+00  0.2134E+00
     -6.378  0.1655E+00  0.2289E+00
     -6.285  0.1688E+00  0.2446E+00
     -6.192  0.1637E+00  0.2599E+00
     -6.098  0.1564E+00  0.2745E+00
     -6.005  0.1508E+00  0.2886E+00
     -5.912  0.1498E+00  0.3026E+00
     -5.818  0.1553E+00  0.3171E+00
     -5.725  0.1578E+00  0.3318E+00
     -5.632  0.1627E+00  0.3470E+00
     -5.538  0.1652E+00  0.3624E+00
     -5.445  0.1669E+00  0.3780E+00
     -5.352  0.1658E+00  0.3935E+00
     -5.258  0.1636E+00  0.4087E+00
     -5.165  0.1640E+00  0.4240E+00
     -5.072  0.1652E+00  0.4395E+00
     -4.978  0.1776E+00  0.4560E+00
     -4.885  0.1823E+00  0.4730E+00
     -4.792  0.1698E+00  0.4889E+00
     -4.698  0.1660E+00  0.5044E+00
     -4.605  0.1764E+00  0.5209E+00
     -4.512  0.1807E+00  0.5377E+00
     -4.418  0.1812E+00  0.5546E+00
     -4.325  0.1909E+00  0.5724E+00
     -4.232  0.2002E+00  0.5911E+00
     -4.138  0.2080E+00  0.6106E+00
     -4.045  0.2048E+00  0.6297E+00
     -3.952  0.1929E+00  0.6477E+00
     -3.858  0.1887E+00  0.6653E+00
     -3.765  0.1913E+00  0.6831E+00
     -3.672  0.1891E+00  0.7008E+00
     -3.578  0.1897E+00  0.7185E+00
     -3.485  0.1922E+00  0.7364E+00
     -3.392  0.1918E+00  0.7543E+00
     -3.298  0.1945E+00  0.7725E+00
     -3.205  0.1969E+00  0.7909E+00
     -3.112  0.1994E+00  0.8095E+00
     -3.018  0.1932E+00  0.8275E+00
     -2.925  0.1901E+00  0.8452E+00
     -2.832  0.1927E+00  0.8632E+00
     -2.738  0.1889E+00  0.8809E+00
     -2.645  0.1847E+00  0.8981E+00
     -2.552  0.1842E+00  0.9153E+00
     -2.458  0.1857E+00  0.9326E+00
     -2.365  0.1790E+00  0.9493E+00
     -2.272  0.1836E+00  0.9665E+00
     -2.178  0.1938E+00  0.9846E+00
     -2.085  0.1966E+00  0.1003E+01
     -1.992  0.2054E+00  0.1022E+01
     -1.898  0.2018E+00  0.1041E+01
     -1.805  0.1808E+00  0.1058E+01
     -1.712  0.1683E+00  0.1073E+01
     -1.618  0.1436E+00  0.1087E+01
     -1.525  0.1164E+00  0.1098E+01
     -1.432  0.9717E-01  0.1107E+01
     -1.338  0.7798E-01  0.1114E+01
     -1.245  0.5997E-01  0.1120E+01
     -1.152  0.4289E-01  0.1124E+01
     -1.058  0.4318E-01  0.1128E+01
     -0.965  0.4868E-01  0.1132E+01
     -0.872  0.4649E-01  0.1137E+01
     -0.778  0.4699E-01  0.1141E+01
     -0.685  0.4904E-01  0.1146E+01
     -0.592  0.5189E-01  0.1150E+01
     -0.498  0.5279E-01  0.1155E+01
     -0.405  0.4181E-01  0.1159E+01
     -0.312  0.3328E-01  0.1162E+01
     -0.218  0.3262E-01  0.1165E+01
     -0.125  0.3415E-01  0.1169E+01
     -0.032  0.2721E-01  0.1171E+01
      0.062  0.1164E-01  0.1172E+01
      0.155  0.1166E-01  0.1173E+01
      0.248  0.2194E-01  0.1175E+01
      0.342  0.3040E-01  0.1178E+01
      0.435  0.3438E-01  0.1181E+01
      0.528  0.3548E-01  0.1185E+01
      0.622  0.3402E-01  0.1188E+01
      0.715  0.3400E-01  0.1191E+01
      0.808  0.3246E-01  0.1194E+01
      0.902  0.3252E-01  0.1197E+01
      0.995  0.3504E-01  0.1200E+01
      1.089  0.2769E-01  0.1203E+01
      1.182  0.1799E-01  0.1205E+01
      1.275  0.2460E-01  0.1207E+01
      1.369  0.2461E-01  0.1209E+01
      1.462  0.1955E-01  0.1211E+01
      1.555  0.2350E-01  0.1213E+01
      1.649  0.3326E-01  0.1216E+01
      1.742  0.3422E-01  0.1220E+01
      1.835  0.3328E-01  0.1223E+01
      1.929  0.3506E-01  0.1226E+01
      2.022  0.3885E-01  0.1230E+01
      2.115  0.3766E-01  0.1233E+01
      2.209  0.3246E-01  0.1236E+01
      2.302  0.2998E-01  0.1239E+01
      2.395  0.3004E-01  0.1242E+01
      2.489  0.2509E-01  0.1244E+01
      2.582  0.2420E-01  0.1246E+01
      2.675  0.2594E-01  0.1249E+01
      2.769  0.2263E-01  0.1251E+01
      2.862  0.2109E-01  0.1253E+01
      2.955  0.2428E-01  0.1255E+01
      3.049  0.2721E-01  0.1258E+01
      3.142  0.2965E-01  0.1260E+01
      3.235  0.3162E-01  0.1263E+01
      3.329  0.3856E-01  0.1267E+01
      3.422  0.3623E-01  0.1270E+01
      3.515  0.3275E-01  0.1273E+01
      3.609  0.4425E-01  0.1278E+01
      3.702  0.4546E-01  0.1282E+01
      3.795  0.3905E-01  0.1285E+01
      3.889  0.3688E-01  0.1289E+01
      3.982  0.4103E-01  0.1293E+01
      4.075  0.4192E-01  0.1297E+01
      4.169  0.3754E-01  0.1300E+01
      4.262  0.3332E-01  0.1303E+01
      4.355  0.3245E-01  0.1306E+01
      4.449  0.3335E-01  0.1309E+01
      4.542  0.3995E-01  0.1313E+01
      4.635  0.5173E-01  0.1318E+01
      4.729  0.5492E-01  0.1323E+01
      4.822  0.5291E-01  0.1328E+01
      4.915  0.5228E-01  0.1333E+01
      5.009  0.5045E-01  0.1338E+01
      5.102  0.4139E-01  0.1341E+01
      5.195  0.2253E-01  0.1344E+01
      5.289  0.4812E-02  0.1344E+01
      5.382  0.2725E-03  0.1344E+01
      5.475  0.3455E-05  0.1344E+01
      5.569  0.9035E-08  0.1344E+01
      5.662  0.4639E-11  0.1344E+01
      5.755  0.4512E-15  0.1344E+01
      5.849  0.0000E+00  0.1344E+01
      5.942  0.0000E+00  0.1344E+01
      6.035  0.0000E+00  0.1344E+01
      6.129  0.0000E+00  0.1344E+01
      6.222  0.0000E+00  0.1344E+01
      6.315  0.0000E+00  0.1344E+01
      6.409  0.0000E+00  0.1344E+01
