unknown system                          
           1
    11.002582    0.000000    0.000000
     5.501291    9.528515    0.000000
     0.000000    0.000000   26.191785
   Au   O    Pd
  24   8  24
Direct configuration=     1
   0.08333333  0.08333333  0.38179910
   0.25000000  0.50000000  0.55329505
   0.08333333  0.83333333  0.38179910
   0.66666667  0.91666667  0.46754708
   0.00000000  0.00000000  0.55329505
   0.75000000  0.50000000  0.55329505
   0.66666667  0.66666667  0.46754708
   0.91666667  0.41666667  0.46754708
   0.75000000  0.25000000  0.55329505
   0.66666667  0.41666667  0.46754708
   0.75000000  0.00000000  0.55329505
   0.91666667  0.91666667  0.46754708
   0.58333333  0.83333333  0.38179910
   0.00000000  0.75000000  0.55329505
   0.50000000  0.25000000  0.55329505
   0.41666667  0.41666667  0.46754708
   0.25000000  0.00000000  0.55329505
   0.50000000  0.00000000  0.55329505
   0.41666667  0.16666667  0.46754708
   0.16666667  0.41666667  0.46754708
   0.25000000  0.25000000  0.55329505
   0.58333333  0.08333333  0.38179910
   0.75000000  0.75000000  0.55329505
   0.16666667  0.66666667  0.46754708
   0.33333333  0.33333333  0.61820090
   0.33333333  0.58333333  0.61820090
   0.33333333  0.08333333  0.61820090
   0.83333333  0.83333333  0.61820090
   0.33333333  0.83333333  0.61820090
   0.83333333  0.33333333  0.61820090
   0.58333333  0.08333333  0.61820090
   0.58333333  0.83333333  0.61820090
   0.16666667  0.16666667  0.46754708
   0.58333333  0.33333333  0.38179910
   0.33333333  0.08333333  0.38179910
   0.25000000  0.75000000  0.55329505
   0.16666667  0.91666667  0.46754708
   0.58333333  0.58333333  0.38179910
   0.41666667  0.66666667  0.46754708
   0.50000000  0.50000000  0.55329505
   0.41666667  0.91666667  0.46754708
   0.33333333  0.83333333  0.38179910
   0.50000000  0.75000000  0.55329505
   0.00000000  0.50000000  0.55329505
   0.83333333  0.08333333  0.38179910
   0.66666667  0.16666667  0.46754708
   0.91666667  0.66666667  0.46754708
   0.83333333  0.33333333  0.38179910
   0.08333333  0.58333333  0.38179910
   0.00000000  0.25000000  0.55329505
   0.83333333  0.58333333  0.38179910
   0.08333333  0.33333333  0.38179910
   0.83333333  0.83333333  0.38179910
   0.91666667  0.16666667  0.46754708
   0.33333333  0.33333333  0.38179910
   0.33333333  0.58333333  0.38179910
Direct configuration=     2
   0.08333333  0.08333333  0.38179910
   0.24858826  0.50194099  0.55671743
   0.08333333  0.83333333  0.38179910
   0.66681861  0.91661178  0.46716840
   0.00094484  0.00051419  0.55473613
   0.75036863  0.49986896  0.55624657
   0.66560138  0.66689140  0.46778453
   0.91821424  0.41554112  0.46705309
   0.75079631  0.24999904  0.55572304
   0.66575474  0.41622558  0.46691547
   0.75093568  0.00142792  0.55636531
   0.91569663  0.91800547  0.46698819
   0.58333333  0.83333333  0.38179910
   0.00092986  0.74882642  0.55603248
   0.50177219  0.25123707  0.55645428
   0.41812044  0.41689541  0.46683983
   0.24799609 -0.00001288  0.55578558
   0.49997279 -0.00111839  0.55614617
   0.41618600  0.16575817  0.46682180
   0.16511826  0.41689787  0.46719601
   0.24622178  0.25157741  0.55641672
   0.58333333  0.08333333  0.38179910
   0.75100023  0.74721415  0.55643439
   0.16732937  0.66711430  0.46781480
   0.33283575  0.33359173  0.61607192
   0.33424933  0.58411046  0.61477043
   0.33125019  0.08410800  0.61622589
   0.83532267  0.83227409  0.61585328
   0.33376128  0.83197974  0.61479978
   0.83436337  0.33292604  0.61490247
   0.58404115  0.08423211  0.61631983
   0.58348749  0.83040439  0.61552199
   0.16647468  0.16587817  0.46804354
   0.58333333  0.33333333  0.38179910
   0.33333333  0.08333333  0.38179910
   0.25185180  0.74884120  0.55651490
   0.16863984  0.91649748  0.46801039
   0.58333333  0.58333333  0.38179910
   0.41622961  0.66782754  0.46761747
   0.49798230  0.50236210  0.55547598
   0.41552983  0.91648293  0.46731544
   0.33333333  0.83333333  0.38179910
   0.49915943  0.74978772  0.55671434
  -0.00022420  0.49978903  0.55430697
   0.83333333  0.08333333  0.38179910
   0.66745695  0.16720436  0.46780364
   0.91686675  0.66598886  0.46724852
   0.83333333  0.33333333  0.38179910
   0.08333333  0.58333333  0.38179910
  -0.00134399  0.25073372  0.55536560
   0.83333333  0.58333333  0.38179910
   0.08333333  0.33333333  0.38179910
   0.83333333  0.83333333  0.38179910
   0.91718140  0.16652412  0.46709340
   0.33333333  0.33333333  0.38179910
   0.33333333  0.58333333  0.38179910
Direct configuration=     3
   0.08333333  0.08333333  0.38179910
   0.24648997  0.50482592  0.56180418
   0.08333333  0.83333333  0.38179910
   0.66704445  0.91653020  0.46660556
   0.00234917  0.00127845  0.55687803
   0.75091653  0.49967419  0.56063349
   0.66401802  0.66722543  0.46813746
   0.92051443  0.41386820  0.46631886
   0.75197989  0.24999761  0.55933181
   0.66439933  0.41556998  0.46597670
   0.75232640  0.00355028  0.56092872
   0.91425483  0.91999536  0.46615749
   0.58333333  0.83333333  0.38179910
   0.00231194  0.74708211  0.56010119
   0.50440624  0.25307576  0.56114990
   0.42028123  0.41723539  0.46578864
   0.24501763 -0.00003203  0.55948732
   0.49993234 -0.00278067  0.56038386
   0.41547158  0.16440785  0.46574382
   0.16281682  0.41724150  0.46667422
   0.24060612  0.25392195  0.56105652
   0.58333333  0.08333333  0.38179910
   0.75248690  0.74307347  0.56110046
   0.16831436  0.66777963  0.46821271
   0.33209618  0.33397578  0.61290758
   0.33561080  0.58526551  0.60967165
   0.32815398  0.08525939  0.61329040
   0.83827946  0.83069972  0.61236397
   0.33439736  0.82996786  0.60974463
   0.83589433  0.33232068  0.60999995
   0.58509320  0.08556799  0.61352395
   0.58371661  0.82605103  0.61154027
   0.16618931  0.16470620  0.46878144
   0.58333333  0.33333333  0.38179910
   0.33333333  0.08333333  0.38179910
   0.25460417  0.74711884  0.56130063
   0.17157262  0.91624602  0.46869903
   0.58333333  0.58333333  0.38179910
   0.41558000  0.66955298  0.46772210
   0.49498334  0.50587295  0.55871754
   0.41384011  0.91620983  0.46697115
   0.33333333  0.83333333  0.38179910
   0.49791006  0.74947221  0.56179650
  -0.00055743  0.49947546  0.55581100
   0.83333333  0.08333333  0.38179910
   0.66863156  0.16800355  0.46818497
   0.91716414  0.66498142  0.46680476
   0.83333333  0.33333333  0.38179910
   0.08333333  0.58333333  0.38179910
  -0.00334158  0.25182425  0.55844311
   0.83333333  0.58333333  0.38179910
   0.08333333  0.33333333  0.38179910
   0.83333333  0.83333333  0.38179910
   0.91794647  0.16631226  0.46641908
   0.33333333  0.33333333  0.38179910
   0.33333333  0.58333333  0.38179910
Direct configuration=     4
   0.08333333  0.08333333  0.38179910
   0.23965497  0.50642447  0.56336622
   0.08333333  0.83333333  0.38179910
   0.66729109  0.91616748  0.46881027
   0.00253189  0.00037277  0.55773521
   0.74723080  0.50565839  0.56203066
   0.66421998  0.66608020  0.47029922
   0.91873923  0.41359436  0.46723364
   0.74918903  0.24852685  0.56024174
   0.66562803  0.41603450  0.46726299
   0.75654315  0.00527198  0.56247617
   0.91411574  0.92014766  0.46772584
   0.58333333  0.83333333  0.38179910
   0.00691119  0.74540100  0.56150407
   0.50637374  0.25695955  0.56291178
   0.41907167  0.41695612  0.46727859
   0.23887476  0.00443867  0.56074183
   0.49938706 -0.00104270  0.55928503
   0.41460761  0.16476590  0.46778557
   0.16492907  0.41677631  0.46811842
   0.23451166  0.25741640  0.56324857
   0.58333333  0.08333333  0.38179910
   0.75590421  0.73637137  0.56239873
   0.16834158  0.66779907  0.47033618
   0.33073149  0.33419167  0.61174242
   0.33814605  0.58659506  0.60814176
   0.32326558  0.08761914  0.61271982
   0.84143542  0.82905300  0.61166407
   0.33471326  0.82733599  0.60744312
   0.83893536  0.33097366  0.60927533
   0.58604193  0.08749103  0.61352154
   0.58421162  0.81944356  0.61090600
   0.16660596  0.16379960  0.47066166
   0.58333333  0.33333333  0.38179910
   0.33333333  0.08333333  0.38179910
   0.24977083  0.74978036  0.56341113
   0.17272958  0.91586022  0.47019347
   0.58333333  0.58333333  0.38179910
   0.41529208  0.67062304  0.46877011
   0.49979994  0.50377772  0.55963630
   0.41344367  0.91616810  0.46827196
   0.33333333  0.83333333  0.38179910
   0.50181565  0.74493925  0.56453121
  -0.00026003  0.49915047  0.55646904
   0.83333333  0.08333333  0.38179910
   0.66858439  0.16819277  0.47012048
   0.91657282  0.66596995  0.46782808
   0.83333333  0.33333333  0.38179910
   0.08333333  0.58333333  0.38179910
  -0.00058724  0.25064227  0.55961432
   0.83333333  0.58333333  0.38179910
   0.08333333  0.33333333  0.38179910
   0.83333333  0.83333333  0.38179910
   0.91824980  0.16634271  0.46710624
   0.33333333  0.33333333  0.38179910
   0.33333333  0.58333333  0.38179910
Direct configuration=     5
   0.08333333  0.08333333  0.38179910
   0.23697179  0.50705200  0.56397943
   0.08333333  0.83333333  0.38179910
   0.66738791  0.91602509  0.46967577
   0.00260362  0.00001723  0.55807171
   0.74578390  0.50800758  0.56257914
   0.66429926  0.66563062  0.47114785
   0.91804234  0.41348686  0.46759275
   0.74809343  0.24794948  0.56059895
   0.66611038  0.41621686  0.46776794
   0.75819850  0.00594786  0.56308364
   0.91406113  0.92020745  0.46834152
   0.58333333  0.83333333  0.38179910
   0.00871670  0.74474105  0.56205479
   0.50714612  0.25848420  0.56360343
   0.41859684  0.41684649  0.46786349
   0.23646328  0.00619371  0.56123430
   0.49917301 -0.00036043  0.55885367
   0.41426844  0.16490647  0.46858709
   0.16575826  0.41659370  0.46868536
   0.23211919  0.25878820  0.56410910
   0.58333333  0.08333333  0.38179910
   0.75724573  0.73374035  0.56290838
   0.16835227  0.66780670  0.47116978
   0.33019576  0.33427642  0.61128501
   0.33914131  0.58711699  0.60754118
   0.32134656  0.08854549  0.61249584
   0.84267434  0.82840655  0.61138931
   0.33483727  0.82630280  0.60653963
   0.84012916  0.33044487  0.60899088
   0.58641437  0.08824595  0.61352060
   0.58440595  0.81684970  0.61065700
   0.16676953  0.16344371  0.47139976
   0.58333333  0.33333333  0.38179910
   0.33333333  0.08333333  0.38179910
   0.24787342  0.75082518  0.56423963
   0.17318376  0.91570876  0.47078014
   0.58333333  0.58333333  0.38179910
   0.41517905  0.67104311  0.46918152
   0.50169077  0.50295521  0.55999697
   0.41328803  0.91615172  0.46878261
   0.33333333  0.83333333  0.38179910
   0.50334885  0.74315977  0.56560477
  -0.00014329  0.49902288  0.55672736
   0.83333333  0.08333333  0.38179910
   0.66856587  0.16826705  0.47088030
   0.91634069  0.66635801  0.46822981
   0.83333333  0.33333333  0.38179910
   0.08333333  0.58333333  0.38179910
   0.00049402  0.25017826  0.56007409
   0.83333333  0.58333333  0.38179910
   0.08333333  0.33333333  0.38179910
   0.83333333  0.83333333  0.38179910
   0.91836888  0.16635466  0.46737599
   0.33333333  0.33333333  0.38179910
   0.33333333  0.58333333  0.38179910
Direct configuration=     6
   0.08333333  0.08333333  0.38179910
   0.23529545  0.50730371  0.56443724
   0.08333333  0.83333333  0.38179910
   0.66727580  0.91581047  0.47160995
   0.00134128  0.00014775  0.55824672
   0.74685621  0.50424687  0.56328699
   0.66436977  0.66591688  0.47220166
   0.91767262  0.41366321  0.46862498
   0.74952417  0.24978800  0.56075761
   0.66638912  0.41635967  0.46900981
   0.76049024  0.00377924  0.56382076
   0.91467153  0.91954635  0.46964250
   0.58333333  0.83333333  0.38179910
   0.00909871  0.74575536  0.56218117
   0.50547825  0.26160639  0.56430058
   0.41804800  0.41686840  0.46950055
   0.23530742  0.00688695  0.56163234
   0.49945513  0.00097499  0.55652935
   0.41429526  0.16549404  0.47050956
   0.16639418  0.41625880  0.46971078
   0.22969056  0.26027955  0.56510869
   0.58333333  0.08333333  0.38179910
   0.75999288  0.73508610  0.56337601
   0.16799469  0.66801722  0.47248752
   0.33003994  0.33378283  0.61182091
   0.34233462  0.58443087  0.60854024
   0.31849467  0.08997055  0.61322127
   0.84350617  0.82753193  0.61203224
   0.33402202  0.82829315  0.60791423
   0.84109332  0.33034793  0.60975332
   0.58682877  0.08909683  0.61431571
   0.58705910  0.81485540  0.61296320
   0.16662876  0.16415374  0.47239993
   0.58333333  0.33333333  0.38179910
   0.33333333  0.08333333  0.38179910
   0.24200599  0.75326683  0.56288612
   0.17258601  0.91557540  0.47175374
   0.58333333  0.58333333  0.38179910
   0.41522425  0.67055087  0.47027202
   0.50502464  0.50136282  0.55967416
   0.41410190  0.91579790  0.47015863
   0.33333333  0.83333333  0.38179910
   0.50375680  0.73820387  0.56455374
  -0.00111755  0.49893155  0.55676209
   0.83333333  0.08333333  0.38179910
   0.66765088  0.16835125  0.47205748
   0.91625502  0.66678301  0.46927030
   0.83333333  0.33333333  0.38179910
   0.08333333  0.58333333  0.38179910
  -0.00050171  0.25070039  0.56001709
   0.83333333  0.58333333  0.38179910
   0.08333333  0.33333333  0.38179910
   0.83333333  0.83333333  0.38179910
   0.91850649  0.16602392  0.46833955
   0.33333333  0.33333333  0.38179910
   0.33333333  0.58333333  0.38179910
Direct configuration=     7
   0.08333333  0.08333333  0.38179910
   0.23528485  0.50730531  0.56444014
   0.08333333  0.83333333  0.38179910
   0.66727509  0.91580911  0.47162219
   0.00133330  0.00014858  0.55824782
   0.74686300  0.50422309  0.56329146
   0.66437022  0.66591869  0.47220833
   0.91767028  0.41366433  0.46863151
   0.74953322  0.24979962  0.56075861
   0.66639088  0.41636057  0.46901767
   0.76050473  0.00376552  0.56382542
   0.91467539  0.91954217  0.46965073
   0.58333333  0.83333333  0.38179910
   0.00910113  0.74576178  0.56218197
   0.50546770  0.26162614  0.56430498
   0.41804453  0.41686854  0.46951091
   0.23530011  0.00689134  0.56163486
   0.49945692  0.00098343  0.55651465
   0.41429543  0.16549776  0.47052172
   0.16639821  0.41625669  0.46971727
   0.22967520  0.26028898  0.56511501
   0.58333333  0.08333333  0.38179910
   0.76001026  0.73509461  0.56337897
   0.16799243  0.66801855  0.47249585
   0.33003896  0.33377971  0.61182430
   0.34235482  0.58441388  0.60854655
   0.31847663  0.08997957  0.61322586
   0.84351143  0.82752640  0.61203630
   0.33401687  0.82830574  0.60792292
   0.84109942  0.33034732  0.60975814
   0.58683139  0.08910222  0.61432074
   0.58707588  0.81484279  0.61297779
   0.16662787  0.16415823  0.47240626
   0.58333333  0.33333333  0.38179910
   0.33333333  0.08333333  0.38179910
   0.24196888  0.75328228  0.56287756
   0.17258223  0.91557455  0.47175990
   0.58333333  0.58333333  0.38179910
   0.41522454  0.67054776  0.47027892
   0.50504572  0.50135275  0.55967212
   0.41410705  0.91579566  0.47016733
   0.33333333  0.83333333  0.38179910
   0.50375938  0.73817253  0.56454709
  -0.00112371  0.49893097  0.55676231
   0.83333333  0.08333333  0.38179910
   0.66764509  0.16835179  0.47206492
   0.91625448  0.66678569  0.46927688
   0.83333333  0.33333333  0.38179910
   0.08333333  0.58333333  0.38179910
  -0.00050801  0.25070369  0.56001673
   0.83333333  0.58333333  0.38179910
   0.08333333  0.33333333  0.38179910
   0.83333333  0.83333333  0.38179910
   0.91850736  0.16602183  0.46834565
   0.33333333  0.33333333  0.38179910
   0.33333333  0.58333333  0.38179910
Direct configuration=     8
   0.08333333  0.08333333  0.38179910
   0.23620546  0.50730918  0.56512747
   0.08333333  0.83333333  0.38179910
   0.66791077  0.91550596  0.47240185
  -0.00000483  0.00169922  0.55854322
   0.74866314  0.50326850  0.56371232
   0.66462570  0.66624618  0.47282401
   0.91786151  0.41402235  0.46911901
   0.75083804  0.24942010  0.56072766
   0.66622598  0.41625466  0.46951173
   0.75908684  0.00433699  0.56467962
   0.91476222  0.91918304  0.47012315
   0.58333333  0.83333333  0.38179910
   0.00746835  0.74686026  0.56226806
   0.50568158  0.26162051  0.56510997
   0.41785882  0.41718448  0.47049652
   0.23685433  0.00568180  0.56231448
   0.49973408  0.00046414  0.55598591
   0.41418898  0.16651480  0.47136889
   0.16615945  0.41622078  0.47013045
   0.22924416  0.25995547  0.56618394
   0.58333333  0.08333333  0.38179910
   0.75830111  0.73695655  0.56412521
   0.16779981  0.66797399  0.47291575
   0.32979456  0.33362306  0.61283083
   0.34448004  0.58337045  0.60861229
   0.31691242  0.09062406  0.61369728
   0.84425529  0.82666847  0.61341636
   0.33301613  0.82840207  0.60815679
   0.84222978  0.32990129  0.61144982
   0.58689948  0.08979318  0.61450000
   0.58846007  0.81232280  0.61338337
   0.16654708  0.16475097  0.47285323
   0.58333333  0.33333333  0.38179910
   0.33333333  0.08333333  0.38179910
   0.24360499  0.75279371  0.56305185
   0.17197589  0.91574988  0.47215597
   0.58333333  0.58333333  0.38179910
   0.41530016  0.66977275  0.47094512
   0.50397522  0.50170796  0.55978999
   0.41446648  0.91537257  0.47097293
   0.33333333  0.83333333  0.38179910
   0.50327493  0.73939529  0.56488805
  -0.00249959  0.49909989  0.55684498
   0.83333333  0.08333333  0.38179910
   0.66703803  0.16831429  0.47288109
   0.91646071  0.66677473  0.46992501
   0.83333333  0.33333333  0.38179910
   0.08333333  0.58333333  0.38179910
  -0.00149525  0.25088837  0.55974402
   0.83333333  0.58333333  0.38179910
   0.08333333  0.33333333  0.38179910
   0.83333333  0.83333333  0.38179910
   0.91852506  0.16565369  0.46891016
   0.33333333  0.33333333  0.38179910
   0.33333333  0.58333333  0.38179910
Direct configuration=     9
   0.08333333  0.08333333  0.38179910
   0.23726766  0.50731365  0.56592051
   0.08333333  0.83333333  0.38179910
   0.66864421  0.91515618  0.47330143
  -0.00154875  0.00348835  0.55888405
   0.75074012  0.50216710  0.56419790
   0.66492047  0.66662403  0.47353437
   0.91808214  0.41443542  0.46968148
   0.75234354  0.24898221  0.56069195
   0.66603572  0.41613245  0.47008177
   0.75745089  0.00499635  0.56566518
   0.91486240  0.91876869  0.47066824
   0.58333333  0.83333333  0.38179910
   0.00558446  0.74812767  0.56236738
   0.50592835  0.26161402  0.56603877
   0.41764455  0.41754901  0.47163371
   0.23864758  0.00428623  0.56309862
   0.50005387 -0.00013502  0.55537586
   0.41406616  0.16768825  0.47234635
   0.16588398  0.41617935  0.47060718
   0.22874684  0.25957066  0.56741726
   0.58333333  0.08333333  0.38179910
   0.75632911  0.73910483  0.56498622
   0.16757757  0.66792259  0.47340023
   0.32951257  0.33344231  0.61399215
   0.34693210  0.58216655  0.60868813
   0.31510764  0.09136767  0.61424120
   0.84511355  0.82567859  0.61500867
   0.33186149  0.82851322  0.60842662
   0.84353399  0.32938667  0.61340166
   0.58697805  0.09059041  0.61470683
   0.59005714  0.80941526  0.61385133
   0.16645387  0.16543487  0.47336894
   0.58333333  0.33333333  0.38179910
   0.33333333  0.08333333  0.38179910
   0.24549271  0.75223001  0.56325295
   0.17127629  0.91595218  0.47261296
   0.58333333  0.58333333  0.38179910
   0.41538742  0.66887854  0.47171379
   0.50274007  0.50211780  0.55992599
   0.41488119  0.91488441  0.47190243
   0.33333333  0.83333333  0.38179910
   0.50271598  0.74080611  0.56528145
  -0.00408707  0.49929480  0.55694037
   0.83333333  0.08333333  0.38179910
   0.66633761  0.16827103  0.47382277
   0.91669866  0.66676208  0.47067283
   0.83333333  0.33333333  0.38179910
   0.08333333  0.58333333  0.38179910
  -0.00263432  0.25110144  0.55942938
   0.83333333  0.58333333  0.38179910
   0.08333333  0.33333333  0.38179910
   0.83333333  0.83333333  0.38179910
   0.91854548  0.16522893  0.46956148
   0.33333333  0.33333333  0.38179910
   0.33333333  0.58333333  0.38179910
Direct configuration=    10
   0.08333333  0.08333333  0.38179910
   0.23597668  0.50773515  0.56682890
   0.08333333  0.83333333  0.38179910
   0.66978455  0.91491732  0.47312642
  -0.00108901  0.00362547  0.55959967
   0.75095998  0.50202298  0.56517766
   0.66517326  0.66645172  0.47411962
   0.91772097  0.41475643  0.46956706
   0.75252016  0.25011005  0.56127870
   0.66621547  0.41605522  0.47021226
   0.75708988  0.00467256  0.56710395
   0.91450468  0.91895194  0.47082609
   0.58333333  0.83333333  0.38179910
   0.00482142  0.74864976  0.56267754
   0.50605516  0.26181578  0.56743901
   0.41721646  0.41784434  0.47222513
   0.23807070  0.00472177  0.56350347
   0.49923863 -0.00000574  0.55607072
   0.41367832  0.16888272  0.47252223
   0.16567832  0.41643197  0.47095880
   0.22773458  0.26086935  0.56901903
   0.58333333  0.08333333  0.38179910
   0.75534639  0.74002124  0.56603226
   0.16740204  0.66776066  0.47374804
   0.32891666  0.33342805  0.61546083
   0.34844963  0.58212973  0.60933111
   0.31413844  0.09139489  0.61535797
   0.84611751  0.82481952  0.61691852
   0.33145797  0.82763176  0.60931841
   0.84519710  0.32857138  0.61492326
   0.58610243  0.09115040  0.61539892
   0.59073490  0.80644083  0.61477449
   0.16683954  0.16520376  0.47387095
   0.58333333  0.33333333  0.38179910
   0.33333333  0.08333333  0.38179910
   0.24615738  0.75109633  0.56356735
   0.17112553  0.91622974  0.47296909
   0.58333333  0.58333333  0.38179910
   0.41562981  0.66849400  0.47210211
   0.50433697  0.50162878  0.55992174
   0.41450547  0.91454572  0.47212972
   0.33333333  0.83333333  0.38179910
   0.50329926  0.74183156  0.56597178
  -0.00390809  0.49970705  0.55745443
   0.83333333  0.08333333  0.38179910
   0.66602423  0.16800982  0.47457018
   0.91677433  0.66674753  0.47116046
   0.83333333  0.33333333  0.38179910
   0.08333333  0.58333333  0.38179910
  -0.00288847  0.25064924  0.55969447
   0.83333333  0.58333333  0.38179910
   0.08333333  0.33333333  0.38179910
   0.83333333  0.83333333  0.38179910
   0.91835617  0.16519682  0.46963283
   0.33333333  0.33333333  0.38179910
   0.33333333  0.58333333  0.38179910
Direct configuration=    11
   0.08333333  0.08333333  0.38179910
   0.23404165  0.50836693  0.56819047
   0.08333333  0.83333333  0.38179910
   0.67149378  0.91455928  0.47286410
  -0.00039991  0.00383100  0.56067230
   0.75128951  0.50180695  0.56664621
   0.66555216  0.66619343  0.47499683
   0.91717963  0.41523759  0.46939557
   0.75278489  0.25180056  0.56215817
   0.66648489  0.41593946  0.47040785
   0.75654878  0.00418723  0.56926050
   0.91396851  0.91922662  0.47106270
   0.58333333  0.83333333  0.38179910
   0.00367770  0.74943231  0.56314243
   0.50624524  0.26211819  0.56953782
   0.41657479  0.41828701  0.47311161
   0.23720603  0.00537458  0.56411031
   0.49801670  0.00018804  0.55711223
   0.41309700  0.17067309  0.47278586
   0.16537006  0.41681061  0.47148582
   0.22621733  0.26281593  0.57141989
   0.58333333  0.08333333  0.38179910
   0.75387341  0.74139482  0.56760015
   0.16713895  0.66751795  0.47426935
   0.32802347  0.33340667  0.61766221
   0.35072423  0.58207455  0.61029486
   0.31268571  0.09143569  0.61703188
   0.84762232  0.82353188  0.61978116
   0.33085313  0.82631054  0.61065511
   0.84768991  0.32734937  0.61720396
   0.58478997  0.09198977  0.61643628
   0.59175078  0.80198249  0.61615820
   0.16741762  0.16485737  0.47462341
   0.58333333  0.33333333  0.38179910
   0.33333333  0.08333333  0.38179910
   0.24715364  0.74939709  0.56403859
   0.17089955  0.91664577  0.47350290
   0.58333333  0.58333333  0.38179910
   0.41599312  0.66791762  0.47268417
   0.50673054  0.50089578  0.55991535
   0.41394232  0.91403807  0.47247039
   0.33333333  0.83333333  0.38179910
   0.50417353  0.74336860  0.56700649
  -0.00363982  0.50032498  0.55822495
   0.83333333  0.08333333  0.38179910
   0.66555450  0.16761830  0.47569047
   0.91688776  0.66672571  0.47189135
   0.83333333  0.33333333  0.38179910
   0.08333333  0.58333333  0.38179910
  -0.00326941  0.24997143  0.56009182
   0.83333333  0.58333333  0.38179910
   0.08333333  0.33333333  0.38179910
   0.83333333  0.83333333  0.38179910
   0.91807241  0.16514869  0.46973977
   0.33333333  0.33333333  0.38179910
   0.33333333  0.58333333  0.38179910
Direct configuration=    12
   0.08333333  0.08333333  0.38179910
   0.23383358  0.50848572  0.56939636
   0.08333333  0.83333333  0.38179910
   0.67063647  0.91501381  0.47270682
  -0.00036242  0.00271010  0.56129093
   0.75166755  0.50168268  0.56784001
   0.66560514  0.66615210  0.47539438
   0.91711734  0.41512922  0.46927305
   0.75253865  0.25189986  0.56301216
   0.66677285  0.41561139  0.47025234
   0.75828023  0.00314717  0.57066088
   0.91412206  0.91977436  0.47119928
   0.58333333  0.83333333  0.38179910
   0.00235875  0.75059809  0.56370712
   0.50570946  0.26362100  0.57078973
   0.41648588  0.41830714  0.47327809
   0.23714439  0.00546939  0.56461002
   0.49679158  0.00131491  0.55768247
   0.41326738  0.17016055  0.47277124
   0.16502484  0.41700203  0.47167062
   0.22498981  0.26323732  0.57309079
   0.58333333  0.08333333  0.38179910
   0.75527516  0.74138598  0.56847853
   0.16696971  0.66770081  0.47444977
   0.32762240  0.33410596  0.61894447
   0.35189266  0.58184941  0.61061619
   0.31206219  0.09118502  0.61800887
   0.84887413  0.82271252  0.62094071
   0.33088029  0.82560162  0.61125596
   0.84925062  0.32670665  0.61770416
   0.58329763  0.09181335  0.61763823
   0.59223262  0.80018331  0.61809301
   0.16759514  0.16483433  0.47497539
   0.58333333  0.33333333  0.38179910
   0.33333333  0.08333333  0.38179910
   0.24742732  0.74868058  0.56449696
   0.17091940  0.91659230  0.47376054
   0.58333333  0.58333333  0.38179910
   0.41607104  0.66813281  0.47270434
   0.50734951  0.50086100  0.56019765
   0.41400316  0.91427955  0.47235649
   0.33333333  0.83333333  0.38179910
   0.50292011  0.74333797  0.56735224
  -0.00381661  0.50089963  0.55872573
   0.83333333  0.08333333  0.38179910
   0.66557700  0.16769210  0.47631074
   0.91672336  0.66665947  0.47211410
   0.83333333  0.33333333  0.38179910
   0.08333333  0.58333333  0.38179910
  -0.00315922  0.25052912  0.56071702
   0.83333333  0.58333333  0.38179910
   0.08333333  0.33333333  0.38179910
   0.83333333  0.83333333  0.38179910
   0.91783856  0.16528357  0.46964623
   0.33333333  0.33333333  0.38179910
   0.33333333  0.58333333  0.38179910
Direct configuration=    13
   0.08333333  0.08333333  0.38179910
   0.23351471  0.50866776  0.57124443
   0.08333333  0.83333333  0.38179910
   0.66932263  0.91571038  0.47246579
  -0.00030496  0.00099230  0.56223899
   0.75224690  0.50149223  0.56966954
   0.66568633  0.66608874  0.47600364
   0.91702187  0.41496313  0.46908527
   0.75216128  0.25205204  0.56432092
   0.66721416  0.41510861  0.47001403
   0.76093373  0.00155326  0.57280700
   0.91435739  0.92061378  0.47140859
   0.58333333  0.83333333  0.38179910
   0.00033742  0.75238467  0.56457252
   0.50488836  0.26592409  0.57270832
   0.41634964  0.41833799  0.47353321
   0.23704993  0.00561468  0.56537585
   0.49491406  0.00304186  0.55855637
   0.41352849  0.16937506  0.47274883
   0.16449578  0.41729539  0.47195383
   0.22310860  0.26388310  0.57565148
   0.58333333  0.08333333  0.38179910
   0.75742338  0.74137243  0.56982467
   0.16671035  0.66798104  0.47472627
   0.32700775  0.33517764  0.62090955
   0.35368330  0.58150438  0.61110863
   0.31110662  0.09080086  0.61950612
   0.85079257  0.82145683  0.62271775
   0.33092192  0.82451519  0.61217679
   0.85164243  0.32572166  0.61847074
   0.58101060  0.09154300  0.61948025
   0.59297106  0.79742603  0.62105815
   0.16786719  0.16479903  0.47551481
   0.58333333  0.33333333  0.38179910
   0.33333333  0.08333333  0.38179910
   0.24784674  0.74758253  0.56519942
   0.17094983  0.91651035  0.47415538
   0.58333333  0.58333333  0.38179910
   0.41619046  0.66846260  0.47273524
   0.50829809  0.50080770  0.56063026
   0.41409641  0.91464961  0.47218195
   0.33333333  0.83333333  0.38179910
   0.50099922  0.74329102  0.56788210
  -0.00408755  0.50178029  0.55949317
   0.83333333  0.08333333  0.38179910
   0.66561149  0.16780520  0.47726131
   0.91647142  0.66655795  0.47245547
   0.83333333  0.33333333  0.38179910
   0.08333333  0.58333333  0.38179910
  -0.00299034  0.25138378  0.56167516
   0.83333333  0.58333333  0.38179910
   0.08333333  0.33333333  0.38179910
   0.83333333  0.83333333  0.38179910
   0.91748018  0.16549026  0.46950289
   0.33333333  0.33333333  0.38179910
   0.33333333  0.58333333  0.38179910
Direct configuration=    14
   0.08333333  0.08333333  0.38179910
   0.23293725  0.50932971  0.57259700
   0.08333333  0.83333333  0.38179910
   0.66779322  0.91638989  0.47266232
   0.00017582  0.00015301  0.56270041
   0.75213948  0.50259220  0.57095837
   0.66570777  0.66604743  0.47657866
   0.91721300  0.41463097  0.46922200
   0.75212513  0.25094199  0.56526609
   0.66736658  0.41481522  0.46993985
   0.76050013  0.00244410  0.57469285
   0.91444856  0.92107663  0.47153918
   0.58333333  0.83333333  0.38179910
   0.00097375  0.75209872  0.56500049
   0.50516303  0.26631855  0.57421334
   0.41639044  0.41813008  0.47354053
   0.23703714  0.00525159  0.56596182
   0.49461935  0.00393285  0.55922390
   0.41378556  0.16839161  0.47274432
   0.16443168  0.41722164  0.47218828
   0.22180390  0.26455875  0.57774291
   0.58333333  0.08333333  0.38179910
   0.75634362  0.74188792  0.57108614
   0.16649376  0.66819204  0.47501603
   0.32650245  0.33623314  0.62220753
   0.35491743  0.58094249  0.61142202
   0.31074926  0.09002949  0.62057191
   0.85224096  0.82060359  0.62388867
   0.33097905  0.82417584  0.61260840
   0.85312941  0.32504630  0.61864586
   0.57944148  0.09102510  0.62041233
   0.59359447  0.79482866  0.62237193
   0.16765967  0.16504715  0.47584878
   0.58333333  0.33333333  0.38179910
   0.33333333  0.08333333  0.38179910
   0.24729147  0.74751981  0.56567559
   0.17113040  0.91643807  0.47445876
   0.58333333  0.58333333  0.38179910
   0.41616518  0.66888641  0.47258872
   0.50828608  0.50099222  0.56095434
   0.41432824  0.91520676  0.47204141
   0.33333333  0.83333333  0.38179910
   0.50132319  0.74370482  0.56879724
  -0.00375184  0.50185874  0.55986758
   0.83333333  0.08333333  0.38179910