  48  48   0   0
  0.5349325E+02  0.1100258E-08  0.1100258E-08  0.2449179E-08  0.3500000E-15
  1.000000000000000E-004
  CAR 
 unknown system                          
      6.38069190     -9.78044940  301     -1.09305140      1.00000000
     -9.780  0.0000E+00  0.0000E+00
     -9.727  0.0000E+00  0.0000E+00
     -9.673  0.0000E+00  0.0000E+00
     -9.619  0.0000E+00  0.0000E+00
     -9.565  0.0000E+00  0.0000E+00
     -9.511  0.0000E+00  0.0000E+00
     -9.457  0.0000E+00  0.0000E+00
     -9.403  0.0000E+00  0.0000E+00
     -9.349  0.1305E-16  0.7031E-18
     -9.296  0.5003E-14  0.2702E-15
     -9.242  0.1084E-11  0.5867E-13
     -9.188  0.1330E-09  0.7221E-11
     -9.134  0.9244E-08  0.5052E-09
     -9.080  0.3651E-06  0.2017E-07
     -9.026  0.8211E-05  0.4625E-06
     -8.972  0.1054E-03  0.6139E-05
     -8.919  0.7739E-03  0.4783E-04
     -8.865  0.3260E-02  0.2234E-03
     -8.811  0.7899E-02  0.6490E-03
     -8.757  0.1113E-01  0.1249E-02
     -8.703  0.9807E-02  0.1777E-02
     -8.649  0.7911E-02  0.2203E-02
     -8.595  0.9603E-02  0.2721E-02
     -8.541  0.1110E-01  0.3319E-02
     -8.488  0.8145E-02  0.3757E-02
     -8.434  0.3501E-02  0.3946E-02
     -8.380  0.8928E-03  0.3994E-02
     -8.326  0.3445E-03  0.4013E-02
     -8.272  0.1234E-02  0.4079E-02
     -8.218  0.4000E-02  0.4295E-02
     -8.164  0.7911E-02  0.4721E-02
     -8.110  0.1024E-01  0.5272E-02
     -8.057  0.1077E-01  0.5852E-02
     -8.003  0.1338E-01  0.6573E-02
     -7.949  0.1900E-01  0.7597E-02
     -7.895  0.2119E-01  0.8739E-02
     -7.841  0.1603E-01  0.9602E-02
     -7.787  0.1044E-01  0.1016E-01
     -7.733  0.1105E-01  0.1076E-01
     -7.680  0.1483E-01  0.1156E-01
     -7.626  0.1684E-01  0.1247E-01
     -7.572  0.1738E-01  0.1340E-01
     -7.518  0.1824E-01  0.1438E-01
     -7.464  0.1955E-01  0.1544E-01
     -7.410  0.2000E-01  0.1652E-01
     -7.356  0.1882E-01  0.1753E-01
     -7.302  0.1859E-01  0.1853E-01
     -7.249  0.2269E-01  0.1975E-01
     -7.195  0.3067E-01  0.2141E-01
     -7.141  0.3852E-01  0.2348E-01
     -7.087  0.4369E-01  0.2583E-01
     -7.033  0.4828E-01  0.2844E-01
     -6.979  0.5323E-01  0.3130E-01
     -6.925  0.5763E-01  0.3441E-01
     -6.871  0.6339E-01  0.3782E-01
     -6.818  0.7139E-01  0.4167E-01
     -6.764  0.7999E-01  0.4598E-01
     -6.710  0.8675E-01  0.5065E-01
     -6.656  0.8827E-01  0.5540E-01
     -6.602  0.8612E-01  0.6004E-01
     -6.548  0.8771E-01  0.6477E-01
     -6.494  0.9571E-01  0.6992E-01
     -6.440  0.1077E+00  0.7572E-01
     -6.387  0.1212E+00  0.8226E-01
     -6.333  0.1339E+00  0.8947E-01
     -6.279  0.1459E+00  0.9733E-01
     -6.225  0.1563E+00  0.1057E+00
     -6.171  0.1601E+00  0.1144E+00
     -6.117  0.1585E+00  0.1229E+00
     -6.063  0.1579E+00  0.1314E+00
     -6.010  0.1584E+00  0.1400E+00
     -5.956  0.1564E+00  0.1484E+00
     -5.902  0.1520E+00  0.1566E+00
     -5.848  0.1473E+00  0.1645E+00
     -5.794  0.1444E+00  0.1723E+00
     -5.740  0.1449E+00  0.1801E+00
     -5.686  0.1465E+00  0.1880E+00
     -5.632  0.1442E+00  0.1957E+00
     -5.579  0.1391E+00  0.2032E+00
     -5.525  0.1369E+00  0.2106E+00
     -5.471  0.1370E+00  0.2180E+00
     -5.417  0.1352E+00  0.2253E+00
     -5.363  0.1324E+00  0.2324E+00
     -5.309  0.1338E+00  0.2396E+00
     -5.255  0.1416E+00  0.2472E+00
     -5.201  0.1518E+00  0.2554E+00
     -5.148  0.1608E+00  0.2641E+00
     -5.094  0.1693E+00  0.2732E+00
     -5.040  0.1776E+00  0.2828E+00
     -4.986  0.1835E+00  0.2927E+00
     -4.932  0.1849E+00  0.3026E+00
     -4.878  0.1807E+00  0.3124E+00
     -4.824  0.1735E+00  0.3217E+00
     -4.770  0.1689E+00  0.3308E+00
     -4.717  0.1672E+00  0.3398E+00
     -4.663  0.1651E+00  0.3487E+00
     -4.609  0.1626E+00  0.3575E+00
     -4.555  0.1628E+00  0.3662E+00
     -4.501  0.1645E+00  0.3751E+00
     -4.447  0.1655E+00  0.3840E+00
     -4.393  0.1677E+00  0.3931E+00
     -4.340  0.1721E+00  0.4023E+00
     -4.286  0.1765E+00  0.4118E+00
     -4.232  0.1802E+00  0.4215E+00
     -4.178  0.1845E+00  0.4315E+00
     -4.124  0.1888E+00  0.4416E+00
     -4.070  0.1914E+00  0.4520E+00
     -4.016  0.1912E+00  0.4623E+00
     -3.962  0.1883E+00  0.4724E+00
     -3.909  0.1840E+00  0.4823E+00
     -3.855  0.1817E+00  0.4921E+00
     -3.801  0.1838E+00  0.5020E+00
     -3.747  0.1890E+00  0.5122E+00
     -3.693  0.1928E+00  0.5226E+00
     -3.639  0.1930E+00  0.5330E+00
     -3.585  0.1920E+00  0.5433E+00
     -3.531  0.1928E+00  0.5537E+00
     -3.478  0.1949E+00  0.5642E+00
     -3.424  0.1940E+00  0.5746E+00
     -3.370  0.1891E+00  0.5848E+00
     -3.316  0.1869E+00  0.5949E+00
     -3.262  0.1897E+00  0.6051E+00
     -3.208  0.1923E+00  0.6155E+00
     -3.154  0.1909E+00  0.6258E+00
     -3.101  0.1879E+00  0.6359E+00
     -3.047  0.1878E+00  0.6460E+00
     -2.993  0.1917E+00  0.6563E+00
     -2.939  0.1976E+00  0.6670E+00
     -2.885  0.2005E+00  0.6778E+00
     -2.831  0.1973E+00  0.6884E+00
     -2.777  0.1914E+00  0.6987E+00
     -2.723  0.1883E+00  0.7089E+00
     -2.670  0.1897E+00  0.7191E+00
     -2.616  0.1929E+00  0.7295E+00
     -2.562  0.1937E+00  0.7399E+00
     -2.508  0.1943E+00  0.7504E+00
     -2.454  0.1952E+00  0.7609E+00
     -2.400  0.1907E+00  0.7712E+00
     -2.346  0.1814E+00  0.7809E+00
     -2.292  0.1743E+00  0.7903E+00
     -2.239  0.1726E+00  0.7996E+00
     -2.185  0.1747E+00  0.8090E+00
     -2.131  0.1790E+00  0.8187E+00
     -2.077  0.1824E+00  0.8285E+00
     -2.023  0.1836E+00  0.8384E+00
     -1.969  0.1856E+00  0.8484E+00
     -1.915  0.1897E+00  0.8586E+00
     -1.861  0.1938E+00  0.8691E+00
     -1.808  0.1962E+00  0.8796E+00
     -1.754  0.1977E+00  0.8903E+00
     -1.700  0.1978E+00  0.9009E+00
     -1.646  0.1963E+00  0.9115E+00
     -1.592  0.1963E+00  0.9221E+00
     -1.538  0.1993E+00  0.9328E+00
     -1.484  0.2018E+00  0.9437E+00
     -1.431  0.2004E+00  0.9545E+00
     -1.377  0.1950E+00  0.9650E+00
     -1.323  0.1863E+00  0.9750E+00
     -1.269  0.1742E+00  0.9844E+00
     -1.215  0.1591E+00  0.9930E+00
     -1.161  0.1389E+00  0.1000E+01
     -1.107  0.1138E+00  0.1007E+01
     -1.053  0.8954E-01  0.1011E+01
     -1.000  0.6687E-01  0.1015E+01
     -0.946  0.4338E-01  0.1017E+01
     -0.892  0.2483E-01  0.1019E+01
     -0.838  0.1746E-01  0.1020E+01
     -0.784  0.1805E-01  0.1021E+01
     -0.730  0.1984E-01  0.1022E+01
     -0.676  0.2131E-01  0.1023E+01
     -0.622  0.2631E-01  0.1024E+01
     -0.569  0.3646E-01  0.1026E+01
     -0.515  0.4683E-01  0.1029E+01
     -0.461  0.4992E-01  0.1031E+01
     -0.407  0.4327E-01  0.1034E+01
     -0.353  0.3311E-01  0.1036E+01
     -0.299  0.3072E-01  0.1037E+01
     -0.245  0.3895E-01  0.1039E+01
     -0.192  0.4483E-01  0.1042E+01
     -0.138  0.3841E-01  0.1044E+01
     -0.084  0.2621E-01  0.1045E+01
     -0.030  0.1834E-01  0.1046E+01
      0.024  0.1779E-01  0.1047E+01
      0.078  0.2200E-01  0.1048E+01
      0.132  0.2809E-01  0.1050E+01
      0.186  0.3313E-01  0.1052E+01
      0.239  0.3344E-01  0.1053E+01
      0.293  0.3095E-01  0.1055E+01
      0.347  0.3176E-01  0.1057E+01
      0.401  0.3683E-01  0.1059E+01
      0.455  0.4196E-01  0.1061E+01
      0.509  0.4439E-01  0.1063E+01
      0.563  0.4567E-01  0.1066E+01
      0.617  0.4733E-01  0.1068E+01
      0.670  0.4725E-01  0.1071E+01
      0.724  0.4425E-01  0.1073E+01
      0.778  0.3932E-01  0.1075E+01
      0.832  0.3244E-01  0.1077E+01
      0.886  0.2526E-01  0.1079E+01
      0.940  0.2089E-01  0.1080E+01
      0.994  0.1973E-01  0.1081E+01
      1.048  0.2041E-01  0.1082E+01
      1.101  0.2190E-01  0.1083E+01
      1.155  0.2333E-01  0.1084E+01
      1.209  0.2279E-01  0.1086E+01
      1.263  0.1892E-01  0.1087E+01
      1.317  0.1344E-01  0.1087E+01
      1.371  0.1032E-01  0.1088E+01
      1.425  0.1231E-01  0.1089E+01
      1.478  0.2003E-01  0.1090E+01
      1.532  0.3036E-01  0.1091E+01
      1.586  0.3574E-01  0.1093E+01
      1.640  0.3199E-01  0.1095E+01
      1.694  0.2607E-01  0.1096E+01
      1.748  0.2705E-01  0.1098E+01
      1.802  0.3276E-01  0.1100E+01
      1.856  0.3494E-01  0.1101E+01
      1.909  0.3142E-01  0.1103E+01
      1.963  0.2573E-01  0.1104E+01
      2.017  0.2183E-01  0.1106E+01
      2.071  0.2225E-01  0.1107E+01
      2.125  0.2695E-01  0.1108E+01
      2.179  0.3388E-01  0.1110E+01
      2.233  0.4075E-01  0.1112E+01
      2.287  0.4489E-01  0.1115E+01
      2.340  0.4519E-01  0.1117E+01
      2.394  0.4353E-01  0.1120E+01
      2.448  0.4158E-01  0.1122E+01
      2.502  0.4095E-01  0.1124E+01
      2.556  0.4266E-01  0.1126E+01
      2.610  0.4415E-01  0.1129E+01
      2.664  0.4368E-01  0.1131E+01
      2.717  0.4204E-01  0.1133E+01
      2.771  0.3729E-01  0.1135E+01
      2.825  0.2848E-01  0.1137E+01
      2.879  0.1998E-01  0.1138E+01
      2.933  0.1558E-01  0.1139E+01
      2.987  0.1288E-01  0.1139E+01
      3.041  0.9358E-02  0.1140E+01
      3.095  0.8807E-02  0.1140E+01
      3.148  0.1420E-01  0.1141E+01
      3.202  0.2166E-01  0.1142E+01
      3.256  0.2506E-01  0.1144E+01
      3.310  0.2240E-01  0.1145E+01
      3.364  0.1751E-01  0.1146E+01
      3.418  0.1587E-01  0.1147E+01
      3.472  0.1932E-01  0.1148E+01
      3.526  0.2665E-01  0.1149E+01
      3.579  0.3491E-01  0.1151E+01
      3.633  0.4051E-01  0.1153E+01
      3.687  0.4214E-01  0.1155E+01
      3.741  0.3967E-01  0.1158E+01
      3.795  0.3290E-01  0.1159E+01
      3.849  0.2540E-01  0.1161E+01
      3.903  0.2216E-01  0.1162E+01
      3.957  0.2482E-01  0.1163E+01
      4.010  0.2995E-01  0.1165E+01
      4.064  0.2998E-01  0.1167E+01
      4.118  0.2404E-01  0.1168E+01
      4.172  0.2018E-01  0.1169E+01
      4.226  0.2059E-01  0.1170E+01
      4.280  0.1957E-01  0.1171E+01
      4.334  0.1652E-01  0.1172E+01
      4.387  0.1776E-01  0.1173E+01
      4.441  0.2470E-01  0.1174E+01
      4.495  0.3217E-01  0.1176E+01
      4.549  0.4003E-01  0.1178E+01
      4.603  0.5052E-01  0.1181E+01
      4.657  0.5780E-01  0.1184E+01
      4.711  0.5544E-01  0.1187E+01
      4.765  0.4818E-01  0.1190E+01
      4.818  0.4521E-01  0.1192E+01
      4.872  0.4903E-01  0.1195E+01
      4.926  0.5469E-01  0.1198E+01
      4.980  0.5922E-01  0.1201E+01
      5.034  0.6545E-01  0.1204E+01
      5.088  0.7113E-01  0.1208E+01
      5.142  0.6965E-01  0.1212E+01
      5.196  0.6326E-01  0.1215E+01
      5.249  0.5662E-01  0.1218E+01
      5.303  0.4666E-01  0.1221E+01
      5.357  0.3190E-01  0.1223E+01
      5.411  0.1724E-01  0.1223E+01
      5.465  0.7084E-02  0.1224E+01
      5.519  0.2068E-02  0.1224E+01
      5.573  0.3990E-03  0.1224E+01
      5.627  0.4810E-04  0.1224E+01
      5.680  0.3494E-05  0.1224E+01
      5.734  0.1495E-06  0.1224E+01
      5.788  0.3716E-08  0.1224E+01
      5.842  0.5309E-10  0.1224E+01
      5.896  0.4332E-12  0.1224E+01
      5.950  0.2010E-14  0.1224E+01
      6.004  0.5496E-17  0.1224E+01
      6.057  0.0000E+00  0.1224E+01
      6.111  0.0000E+00  0.1224E+01
      6.165  0.0000E+00  0.1224E+01
      6.219  0.0000E+00  0.1224E+01
      6.273  0.0000E+00  0.1224E+01
      6.327  0.0000E+00  0.1224E+01
      6.381  0.0000E+00  0.1224E+01
