  48  48   0   0
  0.5349325E+02  0.1100258E-08  0.1100258E-08  0.2449179E-08  0.3500000E-15
  1.000000000000000E-004
  CAR 
 unknown system                          
      6.44218776     -9.99450968  301     -1.09027414      1.00000000
     -9.995  0.0000E+00  0.0000E+00
     -9.940  0.0000E+00  0.0000E+00
     -9.885  0.0000E+00  0.0000E+00
     -9.830  0.0000E+00  0.0000E+00
     -9.775  0.0000E+00  0.0000E+00
     -9.721  0.0000E+00  0.0000E+00
     -9.666  0.0000E+00  0.0000E+00
     -9.611  0.0000E+00  0.0000E+00
     -9.556  0.2094E-16  0.1147E-17
     -9.501  0.8099E-14  0.4449E-15
     -9.447  0.1799E-11  0.9902E-13
     -9.392  0.2224E-09  0.1228E-10
     -9.337  0.1532E-07  0.8516E-09
     -9.282  0.5897E-06  0.3316E-07
     -9.227  0.1272E-04  0.7300E-06
     -9.173  0.1541E-03  0.9172E-05
     -9.118  0.1052E-02  0.6679E-04
     -9.063  0.4054E-02  0.2889E-03
     -9.008  0.8870E-02  0.7749E-03
     -8.954  0.1122E-01  0.1390E-02
     -8.899  0.9280E-02  0.1898E-02
     -8.844  0.8208E-02  0.2348E-02
     -8.789  0.1024E-01  0.2909E-02
     -8.734  0.1041E-01  0.3480E-02
     -8.680  0.6522E-02  0.3837E-02
     -8.625  0.2424E-02  0.3970E-02
     -8.570  0.7378E-03  0.4010E-02
     -8.515  0.1193E-02  0.4075E-02
     -8.460  0.3467E-02  0.4265E-02
     -8.406  0.6831E-02  0.4640E-02
     -8.351  0.9127E-02  0.5140E-02
     -8.296  0.8506E-02  0.5606E-02
     -8.241  0.6164E-02  0.5943E-02
     -8.186  0.5806E-02  0.6262E-02
     -8.132  0.8588E-02  0.6732E-02
     -8.077  0.1207E-01  0.7394E-02
     -8.022  0.1481E-01  0.8205E-02
     -7.967  0.1562E-01  0.9061E-02
     -7.913  0.1369E-01  0.9811E-02
     -7.858  0.1266E-01  0.1050E-01
     -7.803  0.1407E-01  0.1128E-01
     -7.748  0.1400E-01  0.1204E-01
     -7.693  0.1203E-01  0.1270E-01
     -7.639  0.1096E-01  0.1330E-01
     -7.584  0.1158E-01  0.1394E-01
     -7.529  0.1507E-01  0.1476E-01
     -7.474  0.2187E-01  0.1596E-01
     -7.419  0.2800E-01  0.1749E-01
     -7.365  0.3074E-01  0.1918E-01
     -7.310  0.3312E-01  0.2099E-01
     -7.255  0.3826E-01  0.2309E-01
     -7.200  0.4430E-01  0.2552E-01
     -7.145  0.4718E-01  0.2810E-01
     -7.091  0.4764E-01  0.3071E-01
     -7.036  0.5097E-01  0.3350E-01
     -6.981  0.5717E-01  0.3664E-01
     -6.926  0.6068E-01  0.3996E-01
     -6.872  0.6129E-01  0.4332E-01
     -6.817  0.6670E-01  0.4697E-01
     -6.762  0.7956E-01  0.5133E-01
     -6.707  0.9179E-01  0.5636E-01
     -6.652  0.9578E-01  0.6161E-01
     -6.598  0.9178E-01  0.6664E-01
     -6.543  0.8750E-01  0.7143E-01
     -6.488  0.9378E-01  0.7657E-01
     -6.433  0.1109E+00  0.8264E-01
     -6.378  0.1258E+00  0.8953E-01
     -6.324  0.1331E+00  0.9682E-01
     -6.269  0.1385E+00  0.1044E+00
     -6.214  0.1444E+00  0.1123E+00
     -6.159  0.1501E+00  0.1205E+00
     -6.104  0.1551E+00  0.1290E+00
     -6.050  0.1560E+00  0.1376E+00
     -5.995  0.1527E+00  0.1460E+00
     -5.940  0.1499E+00  0.1542E+00
     -5.885  0.1481E+00  0.1623E+00
     -5.831  0.1449E+00  0.1702E+00
     -5.776  0.1406E+00  0.1779E+00
     -5.721  0.1366E+00  0.1854E+00
     -5.666  0.1328E+00  0.1927E+00
     -5.611  0.1294E+00  0.1998E+00
     -5.557  0.1285E+00  0.2068E+00
     -5.502  0.1303E+00  0.2140E+00
     -5.447  0.1327E+00  0.2212E+00
     -5.392  0.1353E+00  0.2286E+00
     -5.337  0.1394E+00  0.2363E+00
     -5.283  0.1453E+00  0.2442E+00
     -5.228  0.1529E+00  0.2526E+00
     -5.173  0.1608E+00  0.2614E+00
     -5.118  0.1684E+00  0.2707E+00
     -5.064  0.1747E+00  0.2802E+00
     -5.009  0.1762E+00  0.2899E+00
     -4.954  0.1739E+00  0.2994E+00
     -4.899  0.1732E+00  0.3089E+00
     -4.844  0.1755E+00  0.3185E+00
     -4.790  0.1772E+00  0.3282E+00
     -4.735  0.1770E+00  0.3379E+00
     -4.680  0.1768E+00  0.3476E+00
     -4.625  0.1757E+00  0.3572E+00
     -4.570  0.1724E+00  0.3667E+00
     -4.516  0.1696E+00  0.3760E+00
     -4.461  0.1703E+00  0.3853E+00
     -4.406  0.1731E+00  0.3948E+00
     -4.351  0.1753E+00  0.4044E+00
     -4.296  0.1759E+00  0.4140E+00
     -4.242  0.1736E+00  0.4235E+00
     -4.187  0.1696E+00  0.4328E+00
     -4.132  0.1694E+00  0.4421E+00
     -4.077  0.1731E+00  0.4516E+00
     -4.023  0.1766E+00  0.4613E+00
     -3.968  0.1794E+00  0.4711E+00
     -3.913  0.1803E+00  0.4810E+00
     -3.858  0.1802E+00  0.4908E+00
     -3.803  0.1827E+00  0.5009E+00
     -3.749  0.1863E+00  0.5111E+00
     -3.694  0.1875E+00  0.5213E+00
     -3.639  0.1873E+00  0.5316E+00
     -3.584  0.1878E+00  0.5419E+00
     -3.529  0.1879E+00  0.5522E+00
     -3.475  0.1879E+00  0.5625E+00
     -3.420  0.1891E+00  0.5728E+00
     -3.365  0.1892E+00  0.5832E+00
     -3.310  0.1856E+00  0.5934E+00
     -3.255  0.1811E+00  0.6033E+00
     -3.201  0.1799E+00  0.6132E+00
     -3.146  0.1819E+00  0.6231E+00
     -3.091  0.1838E+00  0.6332E+00
     -3.036  0.1827E+00  0.6432E+00
     -2.982  0.1790E+00  0.6530E+00
     -2.927  0.1774E+00  0.6627E+00
     -2.872  0.1788E+00  0.6725E+00
     -2.817  0.1795E+00  0.6824E+00
     -2.762  0.1810E+00  0.6923E+00
     -2.708  0.1862E+00  0.7025E+00
     -2.653  0.1926E+00  0.7130E+00
     -2.598  0.1957E+00  0.7238E+00
     -2.543  0.1961E+00  0.7345E+00
     -2.488  0.1981E+00  0.7453E+00
     -2.434  0.2014E+00  0.7564E+00
     -2.379  0.2019E+00  0.7674E+00
     -2.324  0.1992E+00  0.7784E+00
     -2.269  0.1956E+00  0.7891E+00
     -2.214  0.1915E+00  0.7996E+00
     -2.160  0.1866E+00  0.8098E+00
     -2.105  0.1814E+00  0.8197E+00
     -2.050  0.1798E+00  0.8296E+00
     -1.995  0.1852E+00  0.8397E+00
     -1.941  0.1926E+00  0.8503E+00
     -1.886  0.1983E+00  0.8612E+00
     -1.831  0.2071E+00  0.8725E+00
     -1.776  0.2185E+00  0.8845E+00
     -1.721  0.2237E+00  0.8967E+00
     -1.667  0.2210E+00  0.9088E+00
     -1.612  0.2161E+00  0.9207E+00
     -1.557  0.2108E+00  0.9322E+00
     -1.502  0.2028E+00  0.9433E+00
     -1.447  0.1924E+00  0.9539E+00
     -1.393  0.1822E+00  0.9639E+00
     -1.338  0.1759E+00  0.9735E+00
     -1.283  0.1707E+00  0.9828E+00
     -1.228  0.1587E+00  0.9915E+00
     -1.173  0.1391E+00  0.9992E+00
     -1.119  0.1136E+00  0.1005E+01
     -1.064  0.8528E-01  0.1010E+01
     -1.009  0.6237E-01  0.1013E+01
     -0.954  0.4737E-01  0.1016E+01
     -0.900  0.3516E-01  0.1018E+01
     -0.845  0.2407E-01  0.1019E+01
     -0.790  0.1727E-01  0.1020E+01
     -0.735  0.1593E-01  0.1021E+01
     -0.680  0.1849E-01  0.1022E+01
     -0.626  0.2621E-01  0.1024E+01
     -0.571  0.3824E-01  0.1026E+01
     -0.516  0.4697E-01  0.1028E+01
     -0.461  0.4805E-01  0.1031E+01
     -0.406  0.4475E-01  0.1033E+01
     -0.352  0.4179E-01  0.1036E+01
     -0.297  0.4172E-01  0.1038E+01
     -0.242  0.4256E-01  0.1040E+01
     -0.187  0.3720E-01  0.1042E+01
     -0.132  0.2535E-01  0.1044E+01
     -0.078  0.1710E-01  0.1045E+01
     -0.023  0.1636E-01  0.1046E+01
      0.032  0.1756E-01  0.1046E+01
      0.087  0.1808E-01  0.1047E+01
      0.141  0.2095E-01  0.1049E+01
      0.196  0.2675E-01  0.1050E+01
      0.251  0.3083E-01  0.1052E+01
      0.306  0.3245E-01  0.1054E+01
      0.361  0.3590E-01  0.1056E+01
      0.415  0.4207E-01  0.1058E+01
      0.470  0.4849E-01  0.1060E+01
      0.525  0.5364E-01  0.1063E+01
      0.580  0.5747E-01  0.1067E+01
      0.635  0.5785E-01  0.1070E+01
      0.689  0.5132E-01  0.1073E+01
      0.744  0.4111E-01  0.1075E+01
      0.799  0.3420E-01  0.1077E+01
      0.854  0.3037E-01  0.1078E+01
      0.908  0.2599E-01  0.1080E+01
      0.963  0.2241E-01  0.1081E+01
      1.018  0.2060E-01  0.1082E+01
      1.073  0.1825E-01  0.1083E+01
      1.128  0.1536E-01  0.1084E+01
      1.182  0.1351E-01  0.1085E+01
      1.237  0.1348E-01  0.1085E+01
      1.292  0.1430E-01  0.1086E+01
      1.347  0.1462E-01  0.1087E+01
      1.402  0.1458E-01  0.1088E+01
      1.456  0.1603E-01  0.1089E+01
      1.511  0.2214E-01  0.1090E+01
      1.566  0.3101E-01  0.1092E+01
      1.621  0.3482E-01  0.1094E+01
      1.676  0.3327E-01  0.1095E+01
      1.730  0.3408E-01  0.1097E+01
      1.785  0.3751E-01  0.1099E+01
      1.840  0.3570E-01  0.1101E+01
      1.895  0.2724E-01  0.1103E+01
      1.949  0.1872E-01  0.1104E+01
      2.004  0.1601E-01  0.1105E+01
      2.059  0.2016E-01  0.1106E+01
      2.114  0.2853E-01  0.1107E+01
      2.169  0.3838E-01  0.1109E+01
      2.223  0.4668E-01  0.1112E+01
      2.278  0.5114E-01  0.1115E+01
      2.333  0.5106E-01  0.1118E+01
      2.388  0.4788E-01  0.1120E+01
      2.443  0.4424E-01  0.1123E+01
      2.497  0.4093E-01  0.1125E+01
      2.552  0.3830E-01  0.1127E+01
      2.607  0.3959E-01  0.1129E+01
      2.662  0.4497E-01  0.1132E+01
      2.717  0.4554E-01  0.1134E+01
      2.771  0.3588E-01  0.1136E+01
      2.826  0.2225E-01  0.1137E+01
      2.881  0.1245E-01  0.1138E+01
      2.936  0.9756E-02  0.1138E+01
      2.990  0.1129E-01  0.1139E+01
      3.045  0.1111E-01  0.1140E+01
      3.100  0.1008E-01  0.1140E+01
      3.155  0.1350E-01  0.1141E+01
      3.210  0.2055E-01  0.1142E+01
      3.264  0.2534E-01  0.1143E+01
      3.319  0.2389E-01  0.1145E+01
      3.374  0.1857E-01  0.1146E+01
      3.429  0.1552E-01  0.1147E+01
      3.484  0.1729E-01  0.1148E+01
      3.538  0.2329E-01  0.1149E+01
      3.593  0.3303E-01  0.1151E+01
      3.648  0.4251E-01  0.1153E+01
      3.703  0.4563E-01  0.1156E+01
      3.758  0.4130E-01  0.1158E+01
      3.812  0.3399E-01  0.1160E+01
      3.867  0.2859E-01  0.1161E+01
      3.922  0.2584E-01  0.1163E+01
      3.977  0.2505E-01  0.1164E+01
      4.031  0.2590E-01  0.1165E+01
      4.086  0.2515E-01  0.1167E+01
      4.141  0.2235E-01  0.1168E+01
      4.196  0.2200E-01  0.1169E+01
      4.251  0.2243E-01  0.1170E+01
      4.305  0.1852E-01  0.1171E+01
      4.360  0.1460E-01  0.1172E+01
      4.415  0.1824E-01  0.1173E+01
      4.470  0.2823E-01  0.1175E+01
      4.525  0.4000E-01  0.1177E+01
      4.579  0.5204E-01  0.1180E+01
      4.634  0.6038E-01  0.1183E+01
      4.689  0.5859E-01  0.1186E+01
      4.744  0.4876E-01  0.1189E+01
      4.799  0.4280E-01  0.1191E+01
      4.853  0.4611E-01  0.1194E+01
      4.908  0.5230E-01  0.1197E+01
      4.963  0.5695E-01  0.1200E+01
      5.018  0.6194E-01  0.1203E+01
      5.072  0.6581E-01  0.1207E+01
      5.127  0.6432E-01  0.1210E+01
      5.182  0.6049E-01  0.1214E+01
      5.237  0.5797E-01  0.1217E+01
      5.292  0.5059E-01  0.1220E+01
      5.346  0.3588E-01  0.1222E+01
      5.401  0.2169E-01  0.1223E+01
      5.456  0.1225E-01  0.1224E+01
      5.511  0.6002E-02  0.1224E+01
      5.566  0.2157E-02  0.1224E+01
      5.620  0.5041E-03  0.1224E+01
      5.675  0.7174E-04  0.1224E+01
      5.730  0.5981E-05  0.1224E+01
      5.785  0.2856E-06  0.1224E+01
      5.840  0.7707E-08  0.1224E+01
      5.894  0.1165E-09  0.1224E+01
      5.949  0.9826E-12  0.1224E+01
      6.004  0.4604E-14  0.1224E+01
      6.059  0.1216E-16  0.1224E+01
      6.113  0.0000E+00  0.1224E+01
      6.168  0.0000E+00  0.1224E+01
      6.223  0.0000E+00  0.1224E+01
      6.278  0.0000E+00  0.1224E+01
      6.333  0.0000E+00  0.1224E+01
      6.387  0.0000E+00  0.1224E+01
      6.442  0.0000E+00  0.1224E+01
