       N       E                     dE             d eps       ncg     rms          rms(c)
DAV:   1     0.320001703365E+04    0.32000E+04   -0.18974E+05  3672   0.112E+03
DAV:   2     0.163765992211E+02   -0.31836E+04   -0.29262E+04  4380   0.263E+02
DAV:   3    -0.199718183146E+03   -0.21609E+03   -0.20070E+03  4152   0.652E+01
DAV:   4    -0.205524057652E+03   -0.58059E+01   -0.57396E+01  4212   0.108E+01
DAV:   5    -0.205715275694E+03   -0.19122E+00   -0.19064E+00  4440   0.199E+00    0.628E+01
RMM:   6    -0.208049670507E+03   -0.23344E+01   -0.98941E+01  3679   0.155E+01    0.616E+01
RMM:   7    -0.217400537433E+03   -0.93509E+01   -0.60206E+01  3679   0.119E+01    0.544E+01
RMM:   8    -0.217220179720E+03    0.18036E+00   -0.90352E+01  3680   0.142E+01    0.436E+01
RMM:   9    -0.213889495155E+03    0.33307E+01   -0.63347E+01  3680   0.120E+01    0.377E+01
RMM:  10    -0.198970028788E+03    0.14919E+02   -0.21170E+01  3681   0.777E+00    0.222E+01
RMM:  11    -0.192423685409E+03    0.65463E+01   -0.14604E+01  3681   0.599E+00    0.151E+01
RMM:  12    -0.189226828164E+03    0.31969E+01   -0.56033E+00  3681   0.368E+00    0.108E+01
RMM:  13    -0.188426054842E+03    0.80077E+00   -0.15727E+00  3682   0.196E+00    0.678E+00
RMM:  14    -0.188402661722E+03    0.23393E-01   -0.68377E-01  3680   0.123E+00    0.710E+00
RMM:  15    -0.188333948878E+03    0.68713E-01   -0.50348E-01  3680   0.113E+00    0.575E+00
RMM:  16    -0.188069299114E+03    0.26465E+00   -0.40562E-01  3679   0.987E-01    0.329E+00
RMM:  17    -0.187946970951E+03    0.12233E+00   -0.17997E-01  3679   0.630E-01    0.191E+00
RMM:  18    -0.187913423502E+03    0.33547E-01   -0.43024E-02  3681   0.319E-01    0.113E+00
RMM:  19    -0.187908546490E+03    0.48770E-02   -0.13133E-02  3684   0.174E-01    0.992E-01
RMM:  20    -0.187901418820E+03    0.71277E-02   -0.63726E-03  3681   0.121E-01    0.629E-01
RMM:  21    -0.187899156127E+03    0.22627E-02   -0.62460E-03  3680   0.116E-01    0.497E-01
RMM:  22    -0.187897485289E+03    0.16708E-02   -0.43387E-03  3680   0.977E-02    0.299E-01
RMM:  23    -0.187897145532E+03    0.33976E-03   -0.10154E-03  3681   0.504E-02    0.206E-01
RMM:  24    -0.187896970260E+03    0.17527E-03   -0.53403E-04  3681   0.371E-02    0.892E-02
RMM:  25    -0.187897252018E+03   -0.28176E-03   -0.32108E-04  3679   0.251E-02    0.978E-02
RMM:  26    -0.187897386460E+03   -0.13444E-03   -0.88989E-05  3675   0.144E-02    0.605E-02
RMM:  27    -0.187897895260E+03   -0.50880E-03   -0.74091E-05  3679   0.121E-02    0.435E-02
RMM:  28    -0.187898413466E+03   -0.51821E-03   -0.56933E-05  3672   0.109E-02    0.258E-02
RMM:  29    -0.187898975352E+03   -0.56189E-03   -0.31118E-05  3668   0.788E-03    0.207E-02
RMM:  30    -0.187899581068E+03   -0.60572E-03   -0.38132E-05  3670   0.817E-03    0.188E-02
RMM:  31    -0.187900259847E+03   -0.67878E-03   -0.52799E-05  3667   0.956E-03    0.189E-02
RMM:  32    -0.187900382852E+03   -0.12301E-03   -0.92989E-06  2856   0.368E-03    0.145E-02
RMM:  33    -0.187900535141E+03   -0.15229E-03   -0.63429E-06  2709   0.315E-03    0.903E-03
RMM:  34    -0.187900590201E+03   -0.55059E-04   -0.20054E-06  2311   0.189E-03    0.633E-03
RMM:  35    -0.187900677822E+03   -0.87621E-04   -0.23773E-06  2449   0.205E-03    0.327E-03
RMM:  36    -0.187900699470E+03   -0.21648E-04   -0.47012E-07  2122   0.963E-04    0.246E-03
RMM:  37    -0.187900731188E+03   -0.31718E-04   -0.58967E-07  2152   0.111E-03    0.151E-03
RMM:  38    -0.187900744061E+03   -0.12874E-04   -0.31556E-07  1777   0.753E-04    0.136E-03
RMM:  39    -0.187900748568E+03   -0.45066E-05   -0.15289E-07  1504   0.539E-04    0.850E-04
RMM:  40    -0.187900750564E+03   -0.19960E-05   -0.51673E-08   971   0.392E-04    0.721E-04
RMM:  41    -0.187900752404E+03   -0.18405E-05   -0.52079E-08  1026   0.389E-04    0.476E-04
RMM:  42    -0.187900753672E+03   -0.12683E-05   -0.42698E-08   848   0.350E-04    0.360E-04
RMM:  43    -0.187900754831E+03   -0.11589E-05   -0.14295E-08   556   0.332E-04    0.268E-04
RMM:  44    -0.187900755594E+03   -0.76267E-06   -0.32693E-08   688   0.371E-04
   1 F= -.18790076E+03 E0= -.18778289E+03  d E =-.187901E+03
       N       E                     dE             d eps       ncg     rms          rms(c)
DAV:   1    -0.188479227358E+03   -0.57847E+00   -0.19137E+02  3708   0.213E+01    0.238E+00
RMM:   2    -0.188683447224E+03   -0.20422E+00   -0.20800E+00  3684   0.309E+00    0.162E+00
RMM:   3    -0.188861299479E+03   -0.17785E+00   -0.20646E-01  3697   0.756E-01    0.419E+00
RMM:   4    -0.188675188061E+03    0.18611E+00   -0.94646E-02  3687   0.483E-01    0.121E+00
RMM:   5    -0.188676329194E+03   -0.11411E-02   -0.41682E-02  3681   0.324E-01    0.116E+00
RMM:   6    -0.188668405973E+03    0.79232E-02   -0.23049E-02  3686   0.247E-01    0.700E-01
RMM:   7    -0.188664525002E+03    0.38810E-02   -0.81968E-03  3681   0.145E-01    0.403E-01
RMM:   8    -0.188662765567E+03    0.17594E-02   -0.22052E-03  3682   0.741E-02    0.184E-01
RMM:   9    -0.188662453853E+03    0.31171E-03   -0.81876E-04  3686   0.451E-02    0.104E-01
RMM:  10    -0.188662356894E+03    0.96960E-04   -0.33077E-04  3683   0.281E-02    0.609E-02
RMM:  11    -0.188662330229E+03    0.26664E-04   -0.91576E-05  3684   0.151E-02    0.381E-02
RMM:  12    -0.188662326634E+03    0.35952E-05   -0.25125E-05  3676   0.806E-03    0.310E-02
RMM:  13    -0.188662321370E+03    0.52640E-05   -0.11625E-05  3519   0.560E-03    0.167E-02
RMM:  14    -0.188662320131E+03    0.12397E-05   -0.47106E-06  2880   0.355E-03    0.901E-03
RMM:  15    -0.188662320000E+03    0.13092E-06   -0.15895E-06  2079   0.223E-03
   2 F= -.18866232E+03 E0= -.18854613E+03  d E =-.761564E+00
       N       E                     dE             d eps       ncg     rms          rms(c)
DAV:   1    -0.187965325664E+03    0.69699E+00   -0.17868E+03  3672   0.661E+01    0.595E+00
RMM:   2    -0.189795141772E+03   -0.18298E+01   -0.19057E+01  3682   0.937E+00    0.353E+00
RMM:   3    -0.190327227730E+03   -0.53209E+00   -0.11985E+00  3695   0.188E+00    0.748E+00
RMM:   4    -0.189747388202E+03    0.57984E+00   -0.37792E-01  3688   0.986E-01    0.317E+00
RMM:   5    -0.189706853800E+03    0.40534E-01   -0.22974E-01  3684   0.753E-01    0.241E+00
RMM:   6    -0.189690622595E+03    0.16231E-01   -0.19006E-01  3683   0.691E-01    0.177E+00
RMM:   7    -0.189663366521E+03    0.27256E-01   -0.64515E-02  3683   0.403E-01    0.124E+00
RMM:   8    -0.189645876774E+03    0.17490E-01   -0.20413E-02  3684   0.227E-01    0.450E-01
RMM:   9    -0.189644104178E+03    0.17726E-02   -0.67698E-03  3681   0.127E-01    0.334E-01
RMM:  10    -0.189643228644E+03    0.87553E-03   -0.24867E-03  3685   0.766E-02    0.197E-01
RMM:  11    -0.189643039028E+03    0.18962E-03   -0.84815E-04  3684   0.456E-02    0.148E-01
RMM:  12    -0.189642889704E+03    0.14932E-03   -0.33142E-04  3685   0.295E-02    0.708E-02
RMM:  13    -0.189642885636E+03    0.40677E-05   -0.12448E-04  3681   0.180E-02    0.518E-02
RMM:  14    -0.189642862717E+03    0.22919E-04   -0.39898E-05  3677   0.103E-02    0.191E-02
RMM:  15    -0.189642865870E+03   -0.31535E-05   -0.11402E-05  3555   0.536E-03    0.141E-02
RMM:  16    -0.189642869468E+03   -0.35978E-05   -0.36081E-06  2600   0.315E-03    0.594E-03
RMM:  17    -0.189642873688E+03   -0.42194E-05   -0.13183E-06  2077   0.203E-03    0.459E-03
RMM:  18    -0.189642880307E+03   -0.66191E-05   -0.59246E-07  2078   0.139E-03    0.233E-03
RMM:  19    -0.189642883224E+03   -0.29172E-05   -0.18895E-07  1960   0.727E-04    0.172E-03
RMM:  20    -0.189642887783E+03   -0.45590E-05   -0.97904E-08  1265   0.496E-04    0.145E-03
RMM:  21    -0.189642892783E+03   -0.49999E-05   -0.13395E-07  1587   0.542E-04    0.169E-03
RMM:  22    -0.189642898834E+03   -0.60513E-05   -0.19135E-07  1568   0.557E-04    0.161E-03
RMM:  23    -0.189642903828E+03   -0.49934E-05   -0.24995E-07  1686   0.560E-04    0.936E-04
RMM:  24    -0.189642905141E+03   -0.13132E-05   -0.63967E-08   819   0.362E-04    0.634E-04
RMM:  25    -0.189642906533E+03   -0.13924E-05   -0.74081E-08   909   0.404E-04    0.428E-04
RMM:  26    -0.189642907201E+03   -0.66745E-06   -0.39929E-08   732   0.388E-04
   3 F= -.18964291E+03 E0= -.18953159E+03  d E =-.174215E+01
       N       E                     dE             d eps       ncg     rms          rms(c)
DAV:   1    -0.190019533266E+03   -0.37663E+00   -0.40210E+02  3672   0.310E+01    0.238E+00
RMM:   2    -0.190467188636E+03   -0.44766E+00   -0.42416E+00  3687   0.445E+00    0.229E+00
RMM:   3    -0.190587933710E+03   -0.12075E+00   -0.32670E-01  3696   0.966E-01    0.433E+00
RMM:   4    -0.190419157821E+03    0.16878E+00   -0.68307E-02  3684   0.443E-01    0.162E+00
RMM:   5    -0.190407272375E+03    0.11885E-01   -0.36788E-02  3684   0.310E-01    0.121E+00
RMM:   6    -0.190406288847E+03    0.98353E-03   -0.56479E-02  3684   0.373E-01    0.111E+00
RMM:   7    -0.190395594740E+03    0.10694E-01   -0.24500E-02  3683   0.246E-01    0.532E-01
RMM:   8    -0.190392939932E+03    0.26548E-02   -0.51490E-03  3686   0.114E-01    0.335E-01
RMM:   9    -0.190391687981E+03    0.12520E-02   -0.17184E-03  3682   0.670E-02    0.150E-01
RMM:  10    -0.190391500728E+03    0.18725E-03   -0.50096E-04  3681   0.356E-02    0.965E-02
RMM:  11    -0.190391403782E+03    0.96946E-04   -0.25470E-04  3683   0.247E-02    0.594E-02
RMM:  12    -0.190391383981E+03    0.19801E-04   -0.14934E-04  3682   0.188E-02    0.445E-02
RMM:  13    -0.190391371973E+03    0.12008E-04   -0.47418E-05  3684   0.109E-02    0.234E-02
RMM:  14    -0.190391371530E+03    0.44299E-06   -0.99341E-06  3646   0.516E-03
   4 F= -.19039137E+03 E0= -.19028060E+03  d E =-.748464E+00
       N       E                     dE             d eps       ncg     rms          rms(c)
DAV:   1    -0.187858859930E+03    0.25325E+01   -0.37900E+03  3672   0.982E+01    0.607E+00
RMM:   2    -0.191570566219E+03   -0.37117E+01   -0.37332E+01  3685   0.133E+01    0.535E+00
RMM:   3    -0.192094848681E+03   -0.52428E+00   -0.21595E+00  3693   0.253E+00    0.891E+00
RMM:   4    -0.191331779136E+03    0.76307E+00   -0.38886E-01  3689   0.105E+00    0.383E+00
RMM:   5    -0.191290192452E+03    0.41587E-01   -0.19842E-01  3681   0.699E-01    0.392E+00
RMM:   6    -0.191244901743E+03    0.45291E-01   -0.37119E-01  3681   0.946E-01    0.331E+00
RMM:   7    -0.191189068887E+03    0.55833E-01   -0.29302E-01  3683   0.851E-01    0.233E+00
RMM:   8    -0.191133525880E+03    0.55543E-01   -0.81832E-02  3684   0.458E-01    0.109E+00
RMM:   9    -0.191122474617E+03    0.11051E-01   -0.19036E-02  3681   0.217E-01    0.667E-01
RMM:  10    -0.191117677355E+03    0.47973E-02   -0.68946E-03  3680   0.132E-01    0.360E-01
RMM:  11    -0.191117162779E+03    0.51458E-03   -0.49341E-03  3681   0.109E-01    0.339E-01
RMM:  12    -0.191116069440E+03    0.10933E-02   -0.31204E-03  3683   0.870E-02    0.173E-01
RMM:  13    -0.191115993210E+03    0.76230E-04   -0.86621E-04  3684   0.466E-02    0.126E-01
RMM:  14    -0.191115856021E+03    0.13719E-03   -0.21133E-04  3684   0.237E-02    0.491E-02
RMM:  15    -0.191115844571E+03    0.11450E-04   -0.43775E-05  3678   0.106E-02    0.287E-02
RMM:  16    -0.191115844552E+03    0.18983E-07   -0.18428E-05  3673   0.685E-03    0.104E-02
RMM:  17    -0.191115852905E+03   -0.83533E-05   -0.47233E-06  2831   0.347E-03    0.850E-03
RMM:  18    -0.191115866629E+03   -0.13724E-04   -0.23994E-06  2182   0.269E-03    0.331E-03
RMM:  19    -0.191115871799E+03   -0.51696E-05   -0.67796E-07  2058   0.150E-03    0.225E-03
RMM:  20    -0.191115879993E+03   -0.81944E-05   -0.29533E-07  2092   0.831E-04    0.118E-03
RMM:  21    -0.191115887665E+03   -0.76714E-05   -0.23063E-07  1658   0.643E-04    0.168E-03
RMM:  22    -0.191115897489E+03   -0.98245E-05   -0.35214E-07  2024   0.724E-04    0.209E-03
RMM:  23    -0.191115906429E+03   -0.89394E-05   -0.46576E-07  1656   0.699E-04    0.149E-03
RMM:  24    -0.191115909499E+03   -0.30705E-05   -0.23413E-07  1443   0.565E-04    0.836E-04
RMM:  25    -0.191115911065E+03   -0.15660E-05   -0.12130E-07  1290   0.455E-04    0.519E-04
RMM:  26    -0.191115911839E+03   -0.77351E-06   -0.48300E-08   870   0.370E-04
   5 F= -.19111591E+03 E0= -.19100608E+03  d E =-.147300E+01
       N       E                     dE             d eps       ncg     rms          rms(c)
DAV:   1    -0.190793999775E+03    0.32191E+00   -0.73586E+02  3672   0.422E+01    0.280E+00
RMM:   2    -0.191584798102E+03   -0.79080E+00   -0.78551E+00  3684   0.605E+00    0.242E+00
RMM:   3    -0.191850731251E+03   -0.26593E+00   -0.52118E-01  3695   0.122E+00    0.570E+00
RMM:   4    -0.191533033432E+03    0.31770E+00   -0.10474E-01  3685   0.548E-01    0.180E+00
RMM:   5    -0.191519452764E+03    0.13581E-01   -0.39061E-02  3680   0.321E-01    0.146E+00
RMM:   6    -0.191511412552E+03    0.80402E-02   -0.88126E-02  3681   0.461E-01    0.126E+00
RMM:   7    -0.191503101316E+03    0.83112E-02   -0.46819E-02  3681   0.339E-01    0.869E-01
RMM:   8    -0.191495731164E+03    0.73702E-02   -0.10270E-02  3686   0.162E-01    0.425E-01
RMM:   9    -0.191493763174E+03    0.19680E-02   -0.29248E-03  3680   0.870E-02    0.216E-01
RMM:  10    -0.191493265041E+03    0.49813E-03   -0.90742E-04  3682   0.475E-02    0.135E-01
RMM:  11    -0.191493097554E+03    0.16749E-03   -0.63391E-04  3680   0.382E-02    0.972E-02
RMM:  12    -0.191493005694E+03    0.91859E-04   -0.42341E-04  3684   0.311E-02    0.438E-02
RMM:  13    -0.191493011932E+03   -0.62376E-05   -0.80744E-05  3685   0.142E-02    0.344E-02
RMM:  14    -0.191493004041E+03    0.78912E-05   -0.15530E-05  3672   0.657E-03    0.181E-02
RMM:  15    -0.191493002979E+03    0.10620E-05   -0.43824E-06  2784   0.343E-03    0.112E-02
RMM:  16    -0.191493003825E+03   -0.84640E-06   -0.30211E-06  2198   0.294E-03
   6 F= -.19149300E+03 E0= -.19138492E+03  d E =-.377092E+00
       N       E                     dE             d eps       ncg     rms          rms(c)
DAV:   1    -0.191437656433E+03    0.55347E-01   -0.78616E+01  3696   0.137E+01    0.851E-01
RMM:   2    -0.191529179224E+03   -0.91523E-01   -0.86868E-01  3684   0.200E+00    0.101E+00
RMM:   3    -0.191543390872E+03   -0.14212E-01   -0.58998E-02  3700   0.414E-01    0.158E+00
RMM:   4    -0.191518402633E+03    0.24988E-01   -0.91495E-03  3684   0.167E-01    0.550E-01
RMM:   5    -0.191517445409E+03    0.95722E-03   -0.35505E-03  3680   0.982E-02    0.474E-01
RMM:   6    -0.191516222035E+03    0.12234E-02   -0.10492E-02  3681   0.159E-01    0.378E-01
RMM:   7    -0.191515486458E+03    0.73558E-03   -0.46757E-03  3681   0.107E-01    0.244E-01
RMM:   8    -0.191514925693E+03    0.56077E-03   -0.78053E-04  3687   0.449E-02    0.126E-01
RMM:   9    -0.191514757577E+03    0.16812E-03   -0.23946E-04  3680   0.249E-02    0.683E-02
RMM:  10    -0.191514707546E+03    0.50031E-04   -0.10077E-04  3680   0.155E-02    0.420E-02
RMM:  11    -0.191514690059E+03    0.17487E-04   -0.60426E-05  3680   0.118E-02    0.255E-02
RMM:  12    -0.191514686850E+03    0.32088E-05   -0.43169E-05  3682   0.988E-03    0.134E-02
RMM:  13    -0.191514688486E+03   -0.16355E-05   -0.81521E-06  3610   0.450E-03    0.939E-03
RMM:  14    -0.191514688955E+03   -0.46943E-06   -0.10231E-06  2036   0.183E-03
   7 F= -.19151469E+03 E0= -.19140717E+03  d E =-.398777E+00
       N       E                     dE             d eps       ncg     rms          rms(c)
DAV:   1    -0.191543077216E+03   -0.28389E-01   -0.43911E+01  3684   0.103E+01    0.788E-01
RMM:   2    -0.191589462447E+03   -0.46385E-01   -0.49284E-01  3684   0.148E+00    0.546E-01
RMM:   3    -0.191606536353E+03   -0.17074E-01   -0.30436E-02  3686   0.291E-01    0.130E+00
RMM:   4    -0.191589612168E+03    0.16924E-01   -0.10051E-02  3688   0.156E-01    0.546E-01
RMM:   5    -0.191588340446E+03    0.12717E-02   -0.44634E-03  3676   0.106E-01    0.405E-01
RMM:   6    -0.191588516432E+03   -0.17599E-03   -0.52883E-03  3681   0.115E-01    0.393E-01
RMM:   7    -0.191587051168E+03    0.14653E-02   -0.21878E-03  3683   0.749E-02    0.118E-01
RMM:   8    -0.191586928696E+03    0.12247E-03   -0.48124E-04  3682   0.343E-02    0.890E-02
RMM:   9    -0.191586806327E+03    0.12237E-03   -0.18643E-04  3680   0.216E-02    0.284E-02
RMM:  10    -0.191586796005E+03    0.10322E-04   -0.41400E-05  3683   0.963E-03    0.187E-02
RMM:  11    -0.191586791870E+03    0.41352E-05   -0.18949E-05  3678   0.659E-03    0.111E-02
RMM:  12    -0.191586791697E+03    0.17323E-06   -0.76405E-06  3661   0.420E-03
   8 F= -.19158679E+03 E0= -.19148059E+03  d E =-.721027E-01
       N       E                     dE             d eps       ncg     rms          rms(c)
DAV:   1    -0.191587122052E+03   -0.33018E-03   -0.14549E+00  3744   0.186E+00    0.138E-01
RMM:   2    -0.191588658832E+03   -0.15368E-02   -0.16282E-02  3685   0.269E-01    0.101E-01
RMM:   3    -0.191589220015E+03   -0.56118E-03   -0.10079E-03  3687   0.528E-02    0.231E-01
RMM:   4    -0.191588629110E+03    0.59090E-03   -0.32256E-04  3687   0.282E-02    0.919E-02
RMM:   5    -0.191588609520E+03    0.19590E-04   -0.14135E-04  3676   0.189E-02    0.674E-02
RMM:   6    -0.191588613473E+03   -0.39524E-05   -0.17729E-04  3681   0.210E-02    0.644E-02
RMM:   7    -0.191588577215E+03    0.36257E-04   -0.61347E-05  3681   0.125E-02    0.230E-02
RMM:   8    -0.191588572935E+03    0.42797E-05   -0.14914E-05  3672   0.600E-03    0.171E-02
RMM:   9    -0.191588569002E+03    0.39337E-05   -0.59097E-06  3222   0.392E-03    0.644E-03
RMM:  10    -0.191588568678E+03    0.32351E-06   -0.13720E-06  1966   0.196E-03
   9 F= -.19158857E+03 E0= -.19148262E+03  d E =-.738797E-01
       N       E                     dE             d eps       ncg     rms          rms(c)
DAV:   1    -0.191592712614E+03   -0.41436E-02   -0.51659E+00  3708   0.351E+00    0.241E-01
RMM:   2    -0.191598627676E+03   -0.59151E-02   -0.58210E-02  3687   0.513E-01    0.271E-01
RMM:   3    -0.191599509387E+03   -0.88171E-03   -0.38553E-03  3692   0.103E-01    0.356E-01
RMM:   4    -0.191598263266E+03    0.12461E-02   -0.11080E-03  3683   0.526E-02    0.193E-01
RMM:   5    -0.191598026344E+03    0.23692E-03   -0.41735E-04  3683   0.333E-02    0.125E-01
RMM:   6    -0.191598075639E+03   -0.49296E-04   -0.76363E-04  3681   0.429E-02    0.125E-01
RMM:   7    -0.191597948930E+03    0.12671E-03   -0.28934E-04  3682   0.268E-02    0.545E-02
RMM:   8    -0.191597928464E+03    0.20466E-04   -0.55699E-05  3685   0.119E-02    0.353E-02
RMM:   9    -0.191597910147E+03    0.18317E-04   -0.24706E-05  3676   0.783E-03    0.169E-02
RMM:  10    -0.191597906493E+03    0.36543E-05   -0.89091E-06  3666   0.452E-03    0.105E-02
RMM:  11    -0.191597905004E+03    0.14894E-05   -0.52408E-06  3127   0.350E-03    0.568E-03
RMM:  12    -0.191597904841E+03    0.16242E-06   -0.32154E-06  2151   0.291E-03
  10 F= -.19159790E+03 E0= -.19149217E+03  d E =-.933616E-02
       N       E                     dE             d eps       ncg     rms          rms(c)
DAV:   1    -0.191597609774E+03    0.29523E-03   -0.21155E+00  3684   0.225E+00    0.153E-01
RMM:   2    -0.191600024006E+03   -0.24142E-02   -0.23809E-02  3687   0.328E-01    0.172E-01
RMM:   3    -0.191600350699E+03   -0.32669E-03   -0.15613E-03  3692   0.654E-02    0.222E-01
RMM:   4    -0.191599876906E+03    0.47379E-03   -0.44491E-04  3683   0.333E-02    0.125E-01
RMM:   5    -0.191599777150E+03    0.99757E-04   -0.16877E-04  3683   0.212E-02    0.797E-02
RMM:   6    -0.191599804846E+03   -0.27696E-04   -0.31751E-04  3681   0.277E-02    0.825E-02
RMM:   7    -0.191599749459E+03    0.55388E-04   -0.12292E-04  3682   0.175E-02    0.347E-02
RMM:   8    -0.191599741309E+03    0.81492E-05   -0.22808E-05  3678   0.765E-03    0.224E-02
RMM:   9    -0.191599733939E+03    0.73700E-05   -0.10019E-05  3664   0.499E-03    0.112E-02
RMM:  10    -0.191599732357E+03    0.15824E-05   -0.35630E-06  2503   0.297E-03    0.703E-03
RMM:  11    -0.191599731752E+03    0.60503E-06   -0.23962E-06  1962   0.267E-03
  11 F= -.19159973E+03 E0= -.19149414E+03  d E =-.111631E-01
       N       E                     dE             d eps       ncg     rms          rms(c)
DAV:   1    -0.191600182460E+03   -0.45010E-03   -0.17659E+00  3684   0.206E+00    0.125E-01
RMM:   2    -0.191602271791E+03   -0.20893E-02   -0.19785E-02  3684   0.299E-01    0.176E-01
RMM:   3    -0.191602345990E+03   -0.74199E-04   -0.13441E-03  3690   0.613E-02    0.187E-01
RMM:   4    -0.191602031964E+03    0.31403E-03   -0.26275E-04  3686   0.263E-02    0.100E-01
RMM:   5    -0.191601961553E+03    0.70411E-04   -0.93420E-05  3679   0.160E-02    0.610E-02
RMM:   6    -0.191602002415E+03   -0.40862E-04   -0.22462E-04  3681   0.232E-02    0.835E-02
RMM:   7    -0.191601945001E+03    0.57414E-04   -0.16069E-04  3687   0.199E-02    0.256E-02
RMM:   8    -0.191601943640E+03    0.13616E-05   -0.22146E-05  3675   0.749E-03    0.198E-02
RMM:   9    -0.191601937932E+03    0.57080E-05   -0.58328E-06  3052   0.392E-03    0.112E-02
RMM:  10    -0.191601935953E+03    0.19782E-05   -0.43283E-06  2783   0.335E-03    0.736E-03
RMM:  11    -0.191601935169E+03    0.78435E-06   -0.24092E-06  1960   0.265E-03
  12 F= -.19160194E+03 E0= -.19149628E+03  d E =-.220342E-02
       N       E                     dE             d eps       ncg     rms          rms(c)
DAV:   1    -0.191601943429E+03   -0.74753E-05   -0.12249E-01  3744   0.541E-01    0.330E-02
RMM:   2    -0.191602091737E+03   -0.14831E-03   -0.13776E-03  3684   0.790E-02    0.499E-02
RMM:   3    -0.191602090515E+03    0.12217E-05   -0.94038E-05  3692   0.162E-02    0.474E-02
RMM:   4    -0.191602070624E+03    0.19891E-04   -0.17957E-05  3681   0.690E-03    0.261E-02
RMM:   5    -0.191602066257E+03    0.43667E-05   -0.65037E-06  3161   0.426E-03    0.163E-02
RMM:   6    -0.191602070028E+03   -0.37704E-05   -0.16509E-05  3672   0.637E-03    0.227E-02
RMM:   7    -0.191602065965E+03    0.40626E-05   -0.11635E-05  3663   0.536E-03    0.711E-03
RMM:   8    -0.191602065732E+03    0.23332E-06   -0.14570E-06  2015   0.205E-03
  13 F= -.19160207E+03 E0= -.19149639E+03  d E =-.233398E-02
       N       E                     dE             d eps       ncg     rms          rms(c)
DAV:   1    -0.191602260288E+03   -0.19432E-03   -0.90600E-01  3684   0.147E+00    0.875E-02
RMM:   2    -0.191603274670E+03   -0.10144E-02   -0.10288E-02  3684   0.216E-01    0.966E-02
RMM:   3    -0.191603372981E+03   -0.98311E-04   -0.69010E-04  3701   0.448E-02    0.133E-01
RMM:   4    -0.191603218241E+03    0.15474E-03   -0.10726E-04  3684   0.169E-02    0.627E-02
RMM:   5    -0.191603203726E+03    0.14515E-04   -0.60213E-05  3677   0.124E-02    0.565E-02
RMM:   6    -0.191603207359E+03   -0.36325E-05   -0.13049E-04  3680   0.176E-02    0.541E-02
RMM:   7    -0.191603189001E+03    0.18358E-04   -0.76476E-05  3684   0.136E-02    0.234E-02
RMM:   8    -0.191603188079E+03    0.92253E-06   -0.12007E-05  3536   0.554E-03    0.174E-02
RMM:   9    -0.191603185037E+03    0.30414E-05   -0.26320E-06  2337   0.274E-03    0.102E-02
RMM:  10    -0.191603183555E+03    0.14820E-05   -0.26069E-06  2076   0.269E-03    0.717E-03
RMM:  11    -0.191603182779E+03    0.77626E-06   -0.22883E-06  1944   0.263E-03
  14 F= -.19160318E+03 E0= -.19149748E+03  d E =-.111705E-02
       N       E                     dE             d eps       ncg     rms          rms(c)
DAV:   1    -0.191603068749E+03    0.11481E-03   -0.43556E-01  3684   0.102E+00    0.605E-02
RMM:   2    -0.191603560013E+03   -0.49126E-03   -0.49411E-03  3684   0.150E-01    0.697E-02
RMM:   3    -0.191603604125E+03   -0.44112E-04   -0.33297E-04  3701   0.311E-02    0.937E-02
RMM:   4    -0.191603525252E+03    0.78872E-04   -0.50879E-05  3684   0.117E-02    0.429E-02
RMM:   5    -0.191603519922E+03    0.53308E-05   -0.28169E-05  3675   0.855E-03    0.393E-02
RMM:   6    -0.191603524174E+03   -0.42523E-05   -0.66327E-05  3680   0.126E-02    0.395E-02
RMM:   7    -0.191603514271E+03    0.99033E-05   -0.38481E-05  3681   0.966E-03    0.166E-02
RMM:   8    -0.191603513593E+03    0.67735E-06   -0.57786E-06  2953   0.388E-03
  15 F= -.19160351E+03 E0= -.19149776E+03  d E =-.144786E-02
       N       E                     dE             d eps       ncg     rms          rms(c)
DAV:   1    -0.191603449655E+03    0.64616E-04   -0.88132E-02  3708   0.458E-01    0.302E-02
RMM:   2    -0.191603548545E+03   -0.98890E-04   -0.10481E-03  3685   0.680E-02    0.284E-02
RMM:   3    -0.191603561520E+03   -0.12975E-04   -0.73283E-05  3696   0.145E-02    0.421E-02
RMM:   4    -0.191603548205E+03    0.13315E-04   -0.13592E-05  3660   0.592E-03    0.237E-02
RMM:   5    -0.191603544888E+03    0.33166E-05   -0.70288E-06  3081   0.423E-03    0.168E-02
RMM:   6    -0.191603545408E+03   -0.51931E-06   -0.92833E-06  3636   0.481E-03
  16 F= -.19160355E+03 E0= -.19149782E+03  d E =-.147968E-02
       N       E                     dE             d eps       ncg     rms          rms(c)
DAV:   1    -0.191603349085E+03    0.19580E-03   -0.65084E-01  3684   0.124E+00    0.715E-02
RMM:   2    -0.191604086121E+03   -0.73704E-03   -0.74550E-03  3684   0.183E-01    0.839E-02
RMM:   3    -0.191604087807E+03   -0.16859E-05   -0.50297E-04  3709   0.388E-02    0.809E-02
RMM:   4    -0.191604055712E+03    0.32094E-04   -0.70365E-05  3684   0.137E-02    0.624E-02
RMM:   5    -0.191604024946E+03    0.30766E-04   -0.37034E-05  3677   0.963E-03    0.452E-02
RMM:   6    -0.191604023513E+03    0.14331E-05   -0.97401E-05  3682   0.152E-02    0.378E-02
RMM:   7    -0.191604014796E+03    0.87174E-05   -0.55551E-05  3676   0.115E-02    0.170E-02
RMM:   8    -0.191604014231E+03    0.56439E-06   -0.67147E-06  3142   0.418E-03
  17 F= -.19160401E+03 E0= -.19149837E+03  d E =-.468824E-03
