  56  56   0   0
  0.4903395E+02  0.1100258E-08  0.1100258E-08  0.2619179E-08  0.3500000E-15
  1.000000000000000E-004
  CAR 
 unknown system                          
      6.35120042    -21.51587143  301     -1.17695280      1.00000000
    -21.516  0.0000E+00  0.0000E+00
    -21.423  0.0000E+00  0.0000E+00
    -21.330  0.0000E+00  0.0000E+00
    -21.237  0.0000E+00  0.0000E+00
    -21.144  0.0000E+00  0.0000E+00
    -21.051  0.0000E+00  0.0000E+00
    -20.959  0.0000E+00  0.0000E+00
    -20.866  0.0000E+00  0.0000E+00
    -20.773  0.1580E-14  0.1467E-15
    -20.680  0.1481E-10  0.1376E-11
    -20.587  0.2610E-07  0.2426E-08
    -20.494  0.8895E-05  0.8287E-06
    -20.401  0.6176E-03  0.5820E-04
    -20.308  0.9477E-02  0.9385E-03
    -20.215  0.3631E-01  0.4311E-02
    -20.123  0.4575E-01  0.8561E-02
    -20.030  0.3989E-01  0.1227E-01
    -19.937  0.4766E-01  0.1669E-01
    -19.844  0.5314E-01  0.2163E-01
    -19.751  0.4199E-01  0.2553E-01
    -19.658  0.3623E-01  0.2890E-01
    -19.565  0.2569E-01  0.3128E-01
    -19.472  0.7214E-02  0.3195E-01
    -19.379  0.5114E-03  0.3200E-01
    -19.287  0.7644E-05  0.3200E-01
    -19.194  0.2241E-07  0.3200E-01
    -19.101  0.1244E-10  0.3200E-01
    -19.008  0.1283E-14  0.3200E-01
    -18.915  0.0000E+00  0.3200E-01
    -18.822  0.0000E+00  0.3200E-01
    -18.729  0.0000E+00  0.3200E-01
    -18.636  0.0000E+00  0.3200E-01
    -18.543  0.0000E+00  0.3200E-01
    -18.450  0.0000E+00  0.3200E-01
    -18.358  0.0000E+00  0.3200E-01
    -18.265  0.0000E+00  0.3200E-01
    -18.172  0.0000E+00  0.3200E-01
    -18.079  0.0000E+00  0.3200E-01
    -17.986  0.0000E+00  0.3200E-01
    -17.893  0.0000E+00  0.3200E-01
    -17.800  0.0000E+00  0.3200E-01
    -17.707  0.0000E+00  0.3200E-01
    -17.614  0.0000E+00  0.3200E-01
    -17.522  0.0000E+00  0.3200E-01
    -17.429  0.0000E+00  0.3200E-01
    -17.336  0.0000E+00  0.3200E-01
    -17.243  0.0000E+00  0.3200E-01
    -17.150  0.0000E+00  0.3200E-01
    -17.057  0.0000E+00  0.3200E-01
    -16.964  0.0000E+00  0.3200E-01
    -16.871  0.0000E+00  0.3200E-01
    -16.778  0.0000E+00  0.3200E-01
    -16.686  0.0000E+00  0.3200E-01
    -16.593  0.0000E+00  0.3200E-01
    -16.500  0.0000E+00  0.3200E-01
    -16.407  0.0000E+00  0.3200E-01
    -16.314  0.0000E+00  0.3200E-01
    -16.221  0.0000E+00  0.3200E-01
    -16.128  0.0000E+00  0.3200E-01
    -16.035  0.0000E+00  0.3200E-01
    -15.942  0.0000E+00  0.3200E-01
    -15.850  0.0000E+00  0.3200E-01
    -15.757  0.0000E+00  0.3200E-01
    -15.664  0.0000E+00  0.3200E-01
    -15.571  0.0000E+00  0.3200E-01
    -15.478  0.0000E+00  0.3200E-01
    -15.385  0.0000E+00  0.3200E-01
    -15.292  0.0000E+00  0.3200E-01
    -15.199  0.0000E+00  0.3200E-01
    -15.106  0.0000E+00  0.3200E-01
    -15.014  0.0000E+00  0.3200E-01
    -14.921  0.0000E+00  0.3200E-01
    -14.828  0.0000E+00  0.3200E-01
    -14.735  0.0000E+00  0.3200E-01
    -14.642  0.0000E+00  0.3200E-01
    -14.549  0.0000E+00  0.3200E-01
    -14.456  0.0000E+00  0.3200E-01
    -14.363  0.0000E+00  0.3200E-01
    -14.270  0.0000E+00  0.3200E-01
    -14.178  0.0000E+00  0.3200E-01
    -14.085  0.0000E+00  0.3200E-01
    -13.992  0.0000E+00  0.3200E-01
    -13.899  0.0000E+00  0.3200E-01
    -13.806  0.0000E+00  0.3200E-01
    -13.713  0.0000E+00  0.3200E-01
    -13.620  0.0000E+00  0.3200E-01
    -13.527  0.0000E+00  0.3200E-01
    -13.434  0.0000E+00  0.3200E-01
    -13.342  0.0000E+00  0.3200E-01
    -13.249  0.0000E+00  0.3200E-01
    -13.156  0.0000E+00  0.3200E-01
    -13.063  0.0000E+00  0.3200E-01
    -12.970  0.0000E+00  0.3200E-01
    -12.877  0.0000E+00  0.3200E-01
    -12.784  0.0000E+00  0.3200E-01
    -12.691  0.0000E+00  0.3200E-01
    -12.598  0.0000E+00  0.3200E-01
    -12.506  0.0000E+00  0.3200E-01
    -12.413  0.0000E+00  0.3200E-01
    -12.320  0.0000E+00  0.3200E-01
    -12.227  0.0000E+00  0.3200E-01
    -12.134  0.0000E+00  0.3200E-01
    -12.041  0.0000E+00  0.3200E-01
    -11.948  0.0000E+00  0.3200E-01
    -11.855  0.0000E+00  0.3200E-01
    -11.762  0.0000E+00  0.3200E-01
    -11.670  0.0000E+00  0.3200E-01
    -11.577  0.0000E+00  0.3200E-01
    -11.484  0.0000E+00  0.3200E-01
    -11.391  0.0000E+00  0.3200E-01
    -11.298  0.0000E+00  0.3200E-01
    -11.205  0.0000E+00  0.3200E-01
    -11.112  0.0000E+00  0.3200E-01
    -11.019  0.0000E+00  0.3200E-01
    -10.926  0.0000E+00  0.3200E-01
    -10.833  0.0000E+00  0.3200E-01
    -10.741  0.0000E+00  0.3200E-01
    -10.648  0.0000E+00  0.3200E-01
    -10.555  0.0000E+00  0.3200E-01
    -10.462  0.0000E+00  0.3200E-01
    -10.369  0.0000E+00  0.3200E-01
    -10.276  0.0000E+00  0.3200E-01
    -10.183  0.0000E+00  0.3200E-01
    -10.090  0.0000E+00  0.3200E-01
     -9.997  0.4781E-17  0.3200E-01
     -9.905  0.9485E-13  0.3200E-01
     -9.812  0.3794E-09  0.3200E-01
     -9.719  0.2848E-06  0.3200E-01
     -9.626  0.4113E-04  0.3200E-01
     -9.533  0.1189E-02  0.3211E-01
     -9.440  0.7266E-02  0.3279E-01
     -9.347  0.1022E-01  0.3374E-01
     -9.254  0.7055E-02  0.3439E-01
     -9.161  0.1039E-01  0.3536E-01
     -9.069  0.6056E-02  0.3592E-01
     -8.976  0.8973E-03  0.3600E-01
     -8.883  0.1412E-02  0.3614E-01
     -8.790  0.6346E-02  0.3672E-01
     -8.697  0.8820E-02  0.3754E-01
     -8.604  0.1019E-01  0.3849E-01
     -8.511  0.1691E-01  0.4006E-01
     -8.418  0.1838E-01  0.4177E-01
     -8.325  0.1531E-01  0.4319E-01
     -8.233  0.1103E-01  0.4422E-01
     -8.140  0.1725E-01  0.4582E-01
     -8.047  0.2177E-01  0.4784E-01
     -7.954  0.2631E-01  0.5028E-01
     -7.861  0.4664E-01  0.5462E-01
     -7.768  0.6524E-01  0.6068E-01
     -7.675  0.9070E-01  0.6910E-01
     -7.582  0.1002E+00  0.7841E-01
     -7.489  0.8555E-01  0.8636E-01
     -7.397  0.8005E-01  0.9379E-01
     -7.304  0.8699E-01  0.1019E+00
     -7.211  0.1063E+00  0.1117E+00
     -7.118  0.1307E+00  0.1239E+00
     -7.025  0.1407E+00  0.1370E+00
     -6.932  0.1420E+00  0.1501E+00
     -6.839  0.1400E+00  0.1631E+00
     -6.746  0.1388E+00  0.1760E+00
     -6.653  0.1508E+00  0.1901E+00
     -6.561  0.1535E+00  0.2043E+00
     -6.468  0.1471E+00  0.2180E+00
     -6.375  0.1462E+00  0.2316E+00
     -6.282  0.1519E+00  0.2457E+00
     -6.189  0.1544E+00  0.2600E+00
     -6.096  0.1523E+00  0.2742E+00
     -6.003  0.1577E+00  0.2888E+00
     -5.910  0.1680E+00  0.3044E+00
     -5.817  0.1683E+00  0.3200E+00
     -5.725  0.1661E+00  0.3355E+00
     -5.632  0.1616E+00  0.3505E+00
     -5.539  0.1527E+00  0.3647E+00
     -5.446  0.1688E+00  0.3803E+00
     -5.353  0.1750E+00  0.3966E+00
     -5.260  0.1715E+00  0.4125E+00
     -5.167  0.1761E+00  0.4289E+00
     -5.074  0.1725E+00  0.4449E+00
     -4.981  0.1781E+00  0.4615E+00
     -4.889  0.1828E+00  0.4784E+00
     -4.796  0.1813E+00  0.4953E+00
     -4.703  0.1797E+00  0.5120E+00
     -4.610  0.1883E+00  0.5295E+00
     -4.517  0.1856E+00  0.5467E+00
     -4.424  0.1827E+00  0.5637E+00
     -4.331  0.1840E+00  0.5808E+00
     -4.238  0.1928E+00  0.5987E+00
     -4.145  0.2097E+00  0.6181E+00
     -4.053  0.2148E+00  0.6381E+00
     -3.960  0.2145E+00  0.6580E+00
     -3.867  0.2171E+00  0.6782E+00
     -3.774  0.2086E+00  0.6976E+00
     -3.681  0.1961E+00  0.7158E+00
     -3.588  0.1976E+00  0.7341E+00
     -3.495  0.2127E+00  0.7539E+00
     -3.402  0.2175E+00  0.7741E+00
     -3.309  0.2023E+00  0.7929E+00
     -3.216  0.1844E+00  0.8100E+00
     -3.124  0.1734E+00  0.8261E+00
     -3.031  0.1661E+00  0.8416E+00
     -2.938  0.1635E+00  0.8568E+00
     -2.845  0.1612E+00  0.8717E+00
     -2.752  0.1565E+00  0.8863E+00
     -2.659  0.1621E+00  0.9013E+00
     -2.566  0.1612E+00  0.9163E+00
     -2.473  0.1652E+00  0.9316E+00
     -2.380  0.1742E+00  0.9478E+00
     -2.288  0.1762E+00  0.9642E+00
     -2.195  0.1767E+00  0.9806E+00
     -2.102  0.1781E+00  0.9971E+00
     -2.009  0.1781E+00  0.1014E+01
     -1.916  0.1670E+00  0.1029E+01
     -1.823  0.1451E+00  0.1043E+01
     -1.730  0.1298E+00  0.1055E+01
     -1.637  0.1255E+00  0.1066E+01
     -1.544  0.1111E+00  0.1077E+01
     -1.452  0.9182E-01  0.1085E+01
     -1.359  0.7656E-01  0.1092E+01
     -1.266  0.6533E-01  0.1098E+01
     -1.173  0.6302E-01  0.1104E+01
     -1.080  0.6797E-01  0.1111E+01
     -0.987  0.7160E-01  0.1117E+01
     -0.894  0.8033E-01  0.1125E+01
     -0.801  0.7933E-01  0.1132E+01
     -0.708  0.6807E-01  0.1138E+01
     -0.616  0.5916E-01  0.1144E+01
     -0.523  0.5786E-01  0.1149E+01
     -0.430  0.4438E-01  0.1153E+01
     -0.337  0.2731E-01  0.1156E+01
     -0.244  0.2273E-01  0.1158E+01
     -0.151  0.2729E-01  0.1161E+01
     -0.058  0.2453E-01  0.1163E+01
      0.035  0.2236E-01  0.1165E+01
      0.128  0.3031E-01  0.1168E+01
      0.220  0.4647E-01  0.1172E+01
      0.313  0.4771E-01  0.1176E+01
      0.406  0.4558E-01  0.1181E+01
      0.499  0.4751E-01  0.1185E+01
      0.592  0.3968E-01  0.1189E+01
      0.685  0.2401E-01  0.1191E+01
      0.778  0.2160E-01  0.1193E+01
      0.871  0.2256E-01  0.1195E+01
      0.964  0.1361E-01  0.1196E+01
      1.056  0.9180E-02  0.1197E+01
      1.149  0.1227E-01  0.1198E+01
      1.242  0.2466E-01  0.1201E+01
      1.335  0.3205E-01  0.1204E+01
      1.428  0.3310E-01  0.1207E+01
      1.521  0.3291E-01  0.1210E+01
      1.614  0.3794E-01  0.1213E+01
      1.707  0.4654E-01  0.1218E+01
      1.800  0.4211E-01  0.1222E+01
      1.892  0.3272E-01  0.1225E+01
      1.985  0.2780E-01  0.1227E+01
      2.078  0.2917E-01  0.1230E+01
      2.171  0.3029E-01  0.1233E+01
      2.264  0.2362E-01  0.1235E+01
      2.357  0.1888E-01  0.1237E+01
      2.450  0.2349E-01  0.1239E+01
      2.543  0.2322E-01  0.1241E+01
      2.636  0.1689E-01  0.1243E+01
      2.728  0.1580E-01  0.1244E+01
      2.821  0.2713E-01  0.1247E+01
      2.914  0.3000E-01  0.1249E+01
      3.007  0.2954E-01  0.1252E+01
      3.100  0.3722E-01  0.1256E+01
      3.193  0.3054E-01  0.1258E+01
      3.286  0.1998E-01  0.1260E+01
      3.379  0.2327E-01  0.1262E+01
      3.472  0.3001E-01  0.1265E+01
      3.564  0.3025E-01  0.1268E+01
      3.657  0.3968E-01  0.1272E+01
      3.750  0.4440E-01  0.1276E+01
      3.843  0.4205E-01  0.1280E+01
      3.936  0.4409E-01  0.1284E+01
      4.029  0.4822E-01  0.1288E+01
      4.122  0.5005E-01  0.1293E+01
      4.215  0.4075E-01  0.1297E+01
      4.308  0.3104E-01  0.1300E+01
      4.401  0.4048E-01  0.1303E+01
      4.493  0.4839E-01  0.1308E+01
      4.586  0.5206E-01  0.1313E+01
      4.679  0.5253E-01  0.1318E+01
      4.772  0.5567E-01  0.1323E+01
      4.865  0.6455E-01  0.1329E+01
      4.958  0.6675E-01  0.1335E+01
      5.051  0.5723E-01  0.1340E+01
      5.144  0.3245E-01  0.1343E+01
      5.237  0.7423E-02  0.1344E+01
      5.329  0.4687E-03  0.1344E+01
      5.422  0.6733E-05  0.1344E+01
      5.515  0.1991E-07  0.1344E+01
      5.608  0.1148E-10  0.1344E+01
      5.701  0.1252E-14  0.1344E+01
      5.794  0.0000E+00  0.1344E+01
      5.887  0.0000E+00  0.1344E+01
      5.980  0.0000E+00  0.1344E+01
      6.073  0.0000E+00  0.1344E+01
      6.165  0.0000E+00  0.1344E+01
      6.258  0.0000E+00  0.1344E+01
      6.351  0.0000E+00  0.1344E+01
