unknown system                          
           1
    11.002582    0.000000    0.000000
     5.501291    9.528515    0.000000
     0.000000    0.000000   26.191785
   Au   O    Pd
  24   8  24
Direct configuration=     1
   0.08333333  0.08333333  0.38179910
   0.66666667  0.16666667  0.46754708
   0.91666667  0.16666667  0.46754708
   0.66666667  0.91666667  0.46754708
   0.83333333  0.83333333  0.38179910
   0.08333333  0.33333333  0.38179910
   0.91666667  0.41666667  0.46754708
   0.66666667  0.66666667  0.46754708
   0.83333333  0.58333333  0.38179910
   0.08333333  0.58333333  0.38179910
   0.91666667  0.66666667  0.46754708
   0.83333333  0.08333333  0.38179910
   0.83333333  0.33333333  0.38179910
   0.41666667  0.91666667  0.46754708
   0.58333333  0.83333333  0.38179910
   0.33333333  0.08333333  0.38179910
   0.58333333  0.58333333  0.38179910
   0.58333333  0.33333333  0.38179910
   0.33333333  0.33333333  0.38179910
   0.16666667  0.41666667  0.46754708
   0.41666667  0.16666667  0.46754708
   0.58333333  0.08333333  0.38179910
   0.33333333  0.58333333  0.38179910
   0.33333333  0.83333333  0.38179910
   0.33333333  0.33333333  0.61820090
   0.33333333  0.08333333  0.61820090
   0.08333333  0.33333333  0.61820090
   0.08333333  0.08333333  0.61820090
   0.83333333  0.83333333  0.61820090
   0.33333333  0.58333333  0.61820090
   0.58333333  0.33333333  0.61820090
   0.83333333  0.33333333  0.61820090
   0.75000000  0.75000000  0.55329505
   0.50000000  0.25000000  0.55329505
   0.25000000  0.75000000  0.55329505
   0.25000000  0.00000000  0.55329505
   0.16666667  0.16666667  0.46754708
   0.41666667  0.66666667  0.46754708
   0.16666667  0.91666667  0.46754708
   0.50000000  0.50000000  0.55329505
   0.41666667  0.41666667  0.46754708
   0.00000000  0.75000000  0.55329505
   0.25000000  0.50000000  0.55329505
   0.50000000  0.75000000  0.55329505
   0.91666667  0.91666667  0.46754708
   0.08333333  0.83333333  0.38179910
   0.75000000  0.00000000  0.55329505
   0.66666667  0.41666667  0.46754708
   0.75000000  0.25000000  0.55329505
   0.00000000  0.50000000  0.55329505
   0.00000000  0.25000000  0.55329505
   0.75000000  0.50000000  0.55329505
   0.00000000  0.00000000  0.55329505
   0.16666667  0.66666667  0.46754708
   0.25000000  0.25000000  0.55329505
   0.50000000  0.00000000  0.55329505
Direct configuration=     2
   0.08333333  0.08333333  0.38179910
   0.66665383  0.16762497  0.46930206
   0.91746340  0.16600139  0.46892832
   0.66719234  0.91686502  0.46894012
   0.83333333  0.83333333  0.38179910
   0.08333333  0.33333333  0.38179910
   0.91675122  0.41557425  0.46874036
   0.66586918  0.66554717  0.46929176
   0.83333333  0.58333333  0.38179910
   0.08333333  0.58333333  0.38179910
   0.91804475  0.66710185  0.46892579
   0.83333333  0.08333333  0.38179910
   0.83333333  0.33333333  0.38179910
   0.41461380  0.91651146  0.46889653
   0.58333333  0.83333333  0.38179910
   0.33333333  0.08333333  0.38179910
   0.58333333  0.58333333  0.38179910
   0.58333333  0.33333333  0.38179910
   0.33333333  0.33333333  0.38179910
   0.16792685  0.41659108  0.46897157
   0.41557576  0.16799204  0.46894822
   0.58333333  0.08333333  0.38179910
   0.33333333  0.58333333  0.38179910
   0.33333333  0.83333333  0.38179910
   0.33337473  0.33324332  0.61422057
   0.33547666  0.08128381  0.61407421
   0.08218691  0.33571765  0.61417700
   0.08330291  0.08053948  0.61399501
   0.83340982  0.83324811  0.61363385
   0.33237599  0.58556231  0.61381374
   0.58418473  0.33258495  0.61400964
   0.83193988  0.33467846  0.61404011
   0.75081577  0.75078945  0.55582267
   0.49957215  0.25103717  0.55699491
   0.25042588  0.74875171  0.55511446
   0.24959873  0.00005607  0.55680319
   0.16651371  0.16635927  0.46842347
   0.41614437  0.66570898  0.46849774
   0.16703644  0.91528101  0.46858300
   0.49911555  0.50021834  0.55658873
   0.41664104  0.41794520  0.46794310
  -0.00201010  0.75143417  0.55543886
   0.25063044  0.50032945  0.55675320
   0.50002937  0.74984434  0.55417082
   0.91863694  0.91610730  0.46833337
   0.08333333  0.83333333  0.38179910
   0.75154384 -0.00224841  0.55567291
   0.66487240  0.41762478  0.46831505
   0.74964374  0.25099713  0.55689293
   0.00050521  0.49873886  0.55580918
  -0.00035857  0.25043426  0.55776020
   0.75036264  0.49913190  0.55572527
   0.00164139 -0.00011066  0.55541737
   0.16689477  0.66766687  0.46855541
   0.25013759  0.25026681  0.55778496
   0.49856671  0.00018983  0.55579736
Direct configuration=     3
   0.08333333  0.08333333  0.38179910
   0.66663016  0.16939154  0.47253726
   0.91893213  0.16477498  0.47147455
   0.66816140  0.91723067  0.47150812
   0.83333333  0.83333333  0.38179910
   0.08333333  0.33333333  0.38179910
   0.91690708  0.41356045  0.47094011
   0.66439907  0.66348345  0.47250797
   0.83333333  0.58333333  0.38179910
   0.08333333  0.58333333  0.38179910
   0.92058517  0.66790408  0.47146737
   0.83333333  0.08333333  0.38179910
   0.83333333  0.33333333  0.38179910
   0.41082945  0.91622535  0.47138417
   0.58333333  0.83333333  0.38179910
   0.33333333  0.08333333  0.38179910
   0.58333333  0.58333333  0.38179910
   0.58333333  0.33333333  0.38179910
   0.33333333  0.33333333  0.38179910
   0.17024992  0.41645173  0.47159755
   0.41356474  0.17043528  0.47153113
   0.58333333  0.08333333  0.38179910
   0.33333333  0.58333333  0.38179910
   0.33333333  0.83333333  0.38179910
   0.33345106  0.33307738  0.60688307
   0.33942774  0.07750565  0.60646691
   0.08007355  0.34011300  0.60675917
   0.08324682  0.07538918  0.60624172
   0.83355082  0.83309101  0.60521476
   0.33061118  0.58967130  0.60572627
   0.58575423  0.33120536  0.60628332
   0.82937113  0.33715811  0.60636994
   0.75231959  0.75224475  0.56048217
   0.49878345  0.25294912  0.56381536
   0.25121096  0.74645056  0.55846844
   0.24885900  0.00015943  0.56327024
   0.16623176  0.16579260  0.47003904
   0.41518155  0.66394353  0.47025022
   0.16771810  0.91272662  0.47049266
   0.49748511  0.50062083  0.56266043
   0.41659380  0.42030209  0.46867314
  -0.00571559  0.75407797  0.55939083
   0.25179261  0.50093677  0.56312809
   0.50008350  0.74955740  0.55578526
   0.92226903  0.91507613  0.46978287
   0.08333333  0.83333333  0.38179910
   0.75438982 -0.00639323  0.56005634
   0.66156477  0.41939101  0.46973075
   0.74898701  0.25283527  0.56352541
   0.00143654  0.49641401  0.56044383
  -0.00101956  0.25123481  0.56599143
   0.75103114  0.49753161  0.56020523
   0.00466718 -0.00031465  0.55932975
   0.16731526  0.66951069  0.47041421
   0.25039122  0.25075867  0.56606183
   0.49592452  0.00053977  0.56041022
Direct configuration=     4
   0.08333333  0.08333333  0.38179910
   0.66663561  0.16898465  0.47179212
   0.91859385  0.16505745  0.47088809
   0.66793820  0.91714645  0.47091665
   0.83333333  0.83333333  0.38179910
   0.08333333  0.33333333  0.38179910
   0.91687118  0.41402428  0.47043346
   0.66473768  0.66395878  0.47176720
   0.83333333  0.58333333  0.38179910
   0.08333333  0.58333333  0.38179910
   0.92000005  0.66771930  0.47088198
   0.83333333  0.08333333  0.38179910
   0.83333333  0.33333333  0.38179910
   0.41170108  0.91629125  0.47081120
   0.58333333  0.83333333  0.38179910
   0.33333333  0.08333333  0.38179910
   0.58333333  0.58333333  0.38179910
   0.58333333  0.33333333  0.38179910
   0.33333333  0.33333333  0.38179910
   0.16971486  0.41648383  0.47099272
   0.41402793  0.16987254  0.47093622
   0.58333333  0.08333333  0.38179910
   0.33333333  0.58333333  0.38179910
   0.33333333  0.83333333  0.38179910
   0.33343348  0.33311560  0.60857308
   0.33851771  0.07837586  0.60821906
   0.08056031  0.33910064  0.60846768
   0.08325974  0.07657542  0.60802750
   0.83351834  0.83312719  0.60715389
   0.33101766  0.58872489  0.60758902
   0.58539274  0.33152311  0.60806289
   0.82996278  0.33658698  0.60813657
   0.75197322  0.75190956  0.55940897
   0.49896511  0.25250875  0.56224444
   0.25103014  0.74698057  0.55769593
   0.24902938  0.00013563  0.56178072
   0.16629670  0.16592312  0.46966693
   0.41540331  0.66435016  0.46984658
   0.16756109  0.91331496  0.47005282
   0.49786064  0.50052813  0.56126196
   0.41660468  0.41975924  0.46850499
  -0.00486212  0.75346904  0.55848060
   0.25152493  0.50079689  0.56165980
   0.50007103  0.74962349  0.55541341
   0.92143247  0.91531364  0.46944901
   0.08333333  0.83333333  0.38179910
   0.75373432 -0.00543857  0.55904672
   0.66232660  0.41898420  0.46940468
   0.74913827  0.25241190  0.56199778
   0.00122203  0.49694948  0.55937636
  -0.00086732  0.25105042  0.56409557
   0.75087717  0.49790020  0.55917338
   0.00397026 -0.00026767  0.55842863
   0.16721841  0.66908601  0.46998608
   0.25033280  0.25064538  0.56415546
   0.49653308  0.00045917  0.55934776
Direct configuration=     5
   0.08333333  0.08333333  0.38179910
   0.66663393  0.16911056  0.47202268
   0.91869852  0.16497005  0.47106956
   0.66800726  0.91717251  0.47109967
   0.83333333  0.83333333  0.38179910
   0.08333333  0.33333333  0.38179910
   0.91688229  0.41388076  0.47059023
   0.66463290  0.66381170  0.47199641
   0.83333333  0.58333333  0.38179910
   0.08333333  0.58333333  0.38179910
   0.92018110  0.66777648  0.47106312
   0.83333333  0.08333333  0.38179910
   0.83333333  0.33333333  0.38179910
   0.41143138  0.91627086  0.47098849
   0.58333333  0.83333333  0.38179910
   0.33333333  0.08333333  0.38179910
   0.58333333  0.58333333  0.38179910
   0.58333333  0.33333333  0.38179910
   0.33333333  0.33333333  0.38179910
   0.16988042  0.41647389  0.47117987
   0.41388461  0.17004666  0.47112030
   0.58333333  0.08333333  0.38179910
   0.33333333  0.58333333  0.38179910
   0.33333333  0.83333333  0.38179910
   0.33343892  0.33310378  0.60805014
   0.33879930  0.07810659  0.60767690
   0.08040970  0.33941389  0.60793903
   0.08325574  0.07620837  0.60747493
   0.83352839  0.83311600  0.60655387
   0.33089189  0.58901774  0.60701264
   0.58550459  0.33142479  0.60751225
   0.82977971  0.33676370  0.60758993
   0.75208040  0.75201327  0.55974105
   0.49890890  0.25264502  0.56273052
   0.25108609  0.74681657  0.55793496
   0.24897666  0.00014299  0.56224161
   0.16627660  0.16588273  0.46978207
   0.41533469  0.66422434  0.46997147
   0.16760967  0.91313291  0.47018891
   0.49774444  0.50055681  0.56169468
   0.41660131  0.41992721  0.46855702
  -0.00512621  0.75365746  0.55876225
   0.25160776  0.50084018  0.56211412
   0.50007489  0.74960304  0.55552847
   0.92169132  0.91524015  0.46955232
   0.08333333  0.83333333  0.38179910
   0.75393714 -0.00573397  0.55935912
   0.66209087  0.41911008  0.46950557
   0.74909147  0.25254290  0.56247047
   0.00128840  0.49678380  0.55970666
  -0.00091443  0.25110747  0.56468220
   0.75092481  0.49778615  0.55949266
   0.00418591 -0.00028220  0.55870746
   0.16724838  0.66921741  0.47011856
   0.25035088  0.25068044  0.56474534
   0.49634478  0.00048411  0.55967651
Direct configuration=     6
   0.08333333  0.08333333  0.38179910
   0.66674303  0.16943472  0.47438062
   0.91843989  0.16516998  0.47297305
   0.66681510  0.91755552  0.47263420
   0.83333333  0.83333333  0.38179910
   0.08333333  0.33333333  0.38179910
   0.91703139  0.41389387  0.47226841
   0.66586719  0.66363628  0.47360633
   0.83333333  0.58333333  0.38179910
   0.08333333  0.58333333  0.38179910
   0.92057368  0.66646295  0.47259660
   0.83333333  0.08333333  0.38179910
   0.83333333  0.33333333  0.38179910
   0.41099666  0.91683260  0.47239419
   0.58333333  0.83333333  0.38179910
   0.33333333  0.08333333  0.38179910
   0.58333333  0.58333333  0.38179910
   0.58333333  0.33333333  0.38179910
   0.33333333  0.33333333  0.38179910
   0.16986316  0.41720629  0.47323403
   0.41434345  0.16982888  0.47318983
   0.58333333  0.08333333  0.38179910
   0.33333333  0.58333333  0.38179910
   0.33333333  0.83333333  0.38179910
   0.33445295  0.33435706  0.60750958
   0.34241709  0.07337514  0.60722218
   0.07854455  0.34330097  0.60761111
   0.08371858  0.07181062  0.60659739
   0.83380009  0.83274870  0.60628344
   0.32916881  0.59338543  0.60587263
   0.58608226  0.33096855  0.60669886
   0.82661247  0.34000013  0.60702230
   0.74894299  0.74855501  0.56057705
   0.50270225  0.24581966  0.56357646
   0.24914712  0.75033821  0.55846017
   0.25144207 -0.00558689  0.56334844
   0.16601615  0.16575253  0.47158010
   0.41468539  0.66384968  0.47103502
   0.16800998  0.91256564  0.47162941
   0.50057567  0.50382873  0.56276913
   0.41623012  0.42037704  0.46994475
   0.00048925  0.75146089  0.55939624
   0.24465477  0.50447511  0.56326072
   0.50065048  0.74909294  0.55701132
   0.92206300  0.91600452  0.47078527
   0.08333333  0.83333333  0.38179910
   0.75120973  0.00030028  0.56008679
   0.66201507  0.41850363  0.47103601
   0.75172702  0.24630916  0.56311635
  -0.00102056  0.50209153  0.56028006
  -0.00100978  0.25075738  0.56546230
   0.74802666  0.50421306  0.56046460
   0.00291743 -0.00340804  0.55905354
   0.16774632  0.66880423  0.47145118
   0.24953290  0.25121024  0.56519456
   0.50095451 -0.00222014  0.56027768
Direct configuration=     7
   0.08333333  0.08333333  0.38179910
   0.66684100  0.16972580  0.47649796
   0.91820765  0.16534950  0.47468231
   0.66574458  0.91789945  0.47401215
   0.83333333  0.83333333  0.38179910
   0.08333333  0.33333333  0.38179910
   0.91716528  0.41390565  0.47377535
   0.66697554  0.66347876  0.47505199
   0.83333333  0.58333333  0.38179910
   0.08333333  0.58333333  0.38179910
   0.92092621  0.66528345  0.47397362
   0.83333333  0.08333333  0.38179910
   0.83333333  0.33333333  0.38179910
   0.41060629  0.91733702  0.47365645
   0.58333333  0.83333333  0.38179910
   0.33333333  0.08333333  0.38179910
   0.58333333  0.58333333  0.38179910
   0.58333333  0.33333333  0.38179910
   0.33333333  0.33333333  0.38179910
   0.16984767  0.41786396  0.47507860
   0.41475547  0.16963332  0.47504820
   0.58333333  0.08333333  0.38179910
   0.33333333  0.58333333  0.38179910
   0.33333333  0.83333333  0.38179910
   0.33536351  0.33548246  0.60702418
   0.34566574  0.06912646  0.60681386
   0.07686971  0.34679143  0.60731666
   0.08413420  0.06786159  0.60580939
   0.83404406  0.83241888  0.60604060
   0.32762155  0.59730747  0.60484894
   0.58660099  0.33055887  0.60596847
   0.82376840  0.34290633  0.60651259
   0.74612571  0.74544962  0.56132775
   0.50610855  0.23969073  0.56433607
   0.24740600  0.75350052  0.55893179
   0.25365592 -0.01073212  0.56434232
   0.16578228  0.16563561  0.47319467
   0.41410235  0.66351325  0.47199005
   0.16836945  0.91205624  0.47292292
   0.50311801  0.50676679  0.56373394
   0.41589680  0.42078097  0.47119089
   0.00553174  0.74948845  0.55996555
   0.23841123  0.50773914  0.56429032
   0.50116734  0.74863488  0.55834287
   0.92239675  0.91669090  0.47189242
   0.08333333  0.83333333  0.38179910
   0.74876061  0.00571882  0.56074021
   0.66194700  0.41795907  0.47241028
   0.75409366  0.24071148  0.56369632
  -0.00309392  0.50685769  0.56079495
  -0.00109540  0.25044302  0.56616281
   0.74542423  0.50998420  0.56133737
   0.00177837 -0.00621492  0.55936432
   0.16819346  0.66843320  0.47264783
   0.24879838  0.25168599  0.56559795
   0.50509388 -0.00464846  0.56081751
Direct configuration=     8
   0.08333333  0.08333333  0.38179910
   0.66637983  0.16989983  0.47671428
   0.91833474  0.16590643  0.47561760
   0.66658276  0.91738426  0.47469335
   0.83333333  0.83333333  0.38179910
   0.08333333  0.33333333  0.38179910
   0.91745785  0.41332376  0.47489769
   0.66631634  0.66411182  0.47487775
   0.83333333  0.58333333  0.38179910
   0.08333333  0.58333333  0.38179910
   0.92020601  0.66660344  0.47462649
   0.83333333  0.08333333  0.38179910
   0.83333333  0.33333333  0.38179910
   0.41111001  0.91689152  0.47442357
   0.58333333  0.83333333  0.38179910
   0.33333333  0.08333333  0.38179910
   0.58333333  0.58333333  0.38179910
   0.58333333  0.33333333  0.38179910
   0.33333333  0.33333333  0.38179910
   0.17027684  0.41718369  0.47598406
   0.41435695  0.16999122  0.47610023
   0.58333333  0.08333333  0.38179910
   0.33333333  0.58333333  0.38179910
   0.33333333  0.83333333  0.38179910
   0.33696839  0.33625922  0.60738759
   0.34802351  0.06633877  0.60755478
   0.07458151  0.35085191  0.60830672
   0.08417386  0.06461045  0.60676317
   0.83405747  0.83237526  0.60521712
   0.32685556  0.59905265  0.60546556
   0.58615302  0.33087106  0.60643042
   0.82007353  0.34619556  0.60658907
   0.74627381  0.74709301  0.56304309
   0.50427729  0.23884919  0.56534400
   0.24668358  0.75723935  0.55874495
   0.25714014 -0.01555636  0.56475451
   0.16565008  0.16560979  0.47479007
   0.41475775  0.66384778  0.47265019
   0.16832689  0.91272360  0.47347621
   0.50477483  0.50710645  0.56434078
   0.41583411  0.42031634  0.47269021
   0.00346302  0.75146529  0.56106182
   0.23742190  0.50897853  0.56550616
   0.49977883  0.74972964  0.56013107
   0.92124981  0.91643672  0.47257367
   0.08333333  0.83333333  0.38179910
   0.75096994  0.00122744  0.56234576
   0.66252356  0.41782369  0.47369989
   0.75826565  0.23947453  0.56463843
  -0.00611292  0.51077139  0.56181010
  -0.00143760  0.25065641  0.56622801
   0.74496323  0.51066578  0.56293095
  -0.00049186 -0.00875360  0.55951741
   0.16826301  0.66808921  0.47314465
   0.24935373  0.24920576  0.56576393
   0.50914001 -0.00774192  0.56163155
Direct configuration=     9
   0.08333333  0.08333333  0.38179910
   0.66633351  0.16991731  0.47673601
   0.91834751  0.16596237  0.47571154
   0.66666695  0.91733251  0.47476178
   0.83333333  0.83333333  0.38179910
   0.08333333  0.33333333  0.38179910
   0.91748723  0.41326531  0.47501043
   0.66625012  0.66417541  0.47486024
   0.83333333  0.58333333  0.38179910
   0.08333333  0.58333333  0.38179910
   0.92013367  0.66673603  0.47469206
   0.83333333  0.08333333  0.38179910
   0.83333333  0.33333333  0.38179910
   0.41116060  0.91684677  0.47450062
   0.58333333  0.83333333  0.38179910
   0.33333333  0.08333333  0.38179910
   0.58333333  0.58333333  0.38179910
   0.58333333  0.33333333  0.38179910
   0.33333333  0.33333333  0.38179910
   0.17031995  0.41711536  0.47607501
   0.41431692  0.17002717  0.47620590
   0.58333333  0.08333333  0.38179910
   0.33333333  0.58333333  0.38179910
   0.33333333  0.83333333  0.38179910
   0.33712959  0.33633724  0.60742410
   0.34826034  0.06605875  0.60762920
   0.07435167  0.35125977  0.60840617
   0.08417785  0.06428389  0.60685897
   0.83405882  0.83237088  0.60513440
   0.32677862  0.59922795  0.60552749
   0.58610803  0.33090242  0.60647682
   0.81970240  0.34652595  0.60659676
   0.74628868  0.74725808  0.56321539
   0.50409335  0.23876466  0.56544525
   0.24661101  0.75761491  0.55872619
   0.25749012 -0.01604093  0.56479591
   0.16563681  0.16560719  0.47495032
   0.41482358  0.66388138  0.47271650
   0.16832262  0.91279063  0.47353179
   0.50494126  0.50714056  0.56440173
   0.41582781  0.42026967  0.47284082
   0.00325523  0.75166386  0.56117193
   0.23732252  0.50910302  0.56562829
   0.49963936  0.74983960  0.56031069
   0.92113460  0.91641119  0.47264210
   0.08333333  0.83333333  0.38179910
   0.75119186  0.00077630  0.56250703
   0.66258148  0.41781009  0.47382943
   0.75868471  0.23935028  0.56473306
  -0.00641616  0.51116450  0.56191206
  -0.00147197  0.25067784  0.56623456
   0.74491692  0.51073424  0.56309102
  -0.00071990 -0.00900861  0.55953279
   0.16827000  0.66805466  0.47319455
   0.24940951  0.24895663  0.56578060
   0.50954642 -0.00805264  0.56171332
Direct configuration=    10
   0.08333333  0.08333333  0.38179910
   0.66621571  0.16957209  0.47679988
   0.91851399  0.16581733  0.47586349
   0.66756452  0.91708633  0.47490455
   0.83333333  0.83333333  0.38179910
   0.08333333  0.33333333  0.38179910
   0.91747478  0.41366535  0.47569249
   0.66533034  0.66476890  0.47483785
   0.83333333  0.58333333  0.38179910
   0.08333333  0.58333333  0.38179910
   0.91953852  0.66779162  0.47485022
   0.83333333  0.08333333  0.38179910
   0.83333333  0.33333333  0.38179910
   0.41212342  0.91632549  0.47480493
   0.58333333  0.83333333  0.38179910
   0.33333333  0.08333333  0.38179910
   0.58333333  0.58333333  0.38179910
   0.58333333  0.33333333  0.38179910
   0.33333333  0.33333333  0.38179910
   0.16988361  0.41683870  0.47653545
   0.41416100  0.16960043  0.47653462
   0.58333333  0.08333333  0.38179910
   0.33333333  0.58333333  0.38179910
   0.33333333  0.83333333  0.38179910
   0.33604881  0.33624409  0.60823928
   0.34992147  0.06408819  0.60841589
   0.07296299  0.35369019  0.60903104
   0.08438453  0.06131370  0.60728884
   0.83477296  0.83132073  0.60648339
   0.32644081  0.60083153  0.60621981
   0.58633665  0.33052318  0.60690507
   0.81951863  0.34778998  0.60765677
   0.74577744  0.74786050  0.56428891
   0.50507768  0.23903784  0.56609432
   0.24734039  0.75666952  0.55891414
   0.25764703 -0.01592470  0.56574761
   0.16601253  0.16530604  0.47605543
   0.41576930  0.66403807  0.47308275
   0.16761254  0.91387773  0.47338125
   0.50451486  0.50647442  0.56503526
   0.41603603  0.41996979  0.47403337
   0.00264986  0.75188929  0.56174714
   0.23826401  0.51019489  0.56664231
   0.50001910  0.74981605  0.56180130
   0.91986431  0.91629533  0.47277843
   0.08333333  0.83333333  0.38179910
   0.75109196  0.00004509  0.56318702
   0.66306739  0.41793919  0.47475977
   0.75832549  0.23912912  0.56559055
  -0.00754147  0.51204271  0.56325214
  -0.00092451  0.25060503  0.56718944
   0.74411194  0.51237688  0.56410914
  -0.00120711 -0.00845969  0.56031782
   0.16819506  0.66800592  0.47342531
   0.24947005  0.24804360  0.56704914
   0.51048591 -0.00931194  0.56291579
Direct configuration=    11
   0.08333333  0.08333333  0.38179910
   0.66605015  0.16908685  0.47688966
   0.91874798  0.16561346  0.47607705
   0.66882610  0.91674030  0.47510523
   0.83333333  0.83333333  0.38179910
   0.08333333  0.33333333  0.38179910
   0.91745728  0.41422761  0.47665118
   0.66403754  0.66560309  0.47480636
   0.83333333  0.58333333  0.38179910
   0.08333333  0.58333333  0.38179910
   0.91870200  0.66927531  0.47507252
   0.83333333  0.08333333  0.38179910
   0.83333333  0.33333333  0.38179910
   0.41347671  0.91559279  0.47523265
   0.58333333  0.83333333  0.38179910
   0.33333333  0.08333333  0.38179910
   0.58333333  0.58333333  0.38179910
   0.58333333  0.33333333  0.38179910
   0.33333333  0.33333333  0.38179910
   0.16927031  0.41644983  0.47718263
   0.41394185  0.16900061  0.47699664
   0.58333333  0.08333333  0.38179910
   0.33333333  0.58333333  0.38179910
   0.33333333  0.83333333  0.38179910
   0.33452970  0.33611317  0.60938507
   0.35225629  0.06131846  0.60952163
   0.07101112  0.35710629  0.60990933
   0.08467503  0.05713893  0.60789304
   0.83577673  0.82984468  0.60837948
   0.32596599  0.60308545  0.60719290
   0.58665798  0.32999013  0.60750700
   0.81926032  0.34956665  0.60914669
   0.74505886  0.74870723  0.56579782
   0.50646120  0.23942183  0.56700663
   0.24836558  0.75534072  0.55917832
   0.25786758 -0.01576134  0.56708528
   0.16654064  0.16488275  0.47760873
   0.41709855  0.66425830  0.47359753
   0.16661448  0.91540571  0.47316967
   0.50391554  0.50553811  0.56592572
   0.41632869  0.41954830  0.47570957
   0.00179898  0.75220615  0.56255563
   0.23958732  0.51172958  0.56806758
   0.50055283  0.74978294  0.56389644
   0.91807885  0.91613248  0.47297004
   0.08333333  0.83333333  0.38179910
   0.75095155 -0.00098266  0.56414280
   0.66375038  0.41812066  0.47606741
   0.75782060  0.23881827  0.56679579
  -0.00912316  0.51327708  0.56513570
  -0.00015503  0.25050269  0.56853157
   0.74298049  0.51468569  0.56554016
  -0.00189192 -0.00768815  0.56142123
   0.16808972  0.66793741  0.47374966
   0.24955514  0.24676028  0.56883213
   0.51180642 -0.01108194  0.56460594
Direct configuration=    12
   0.08333333  0.08333333  0.38179910
   0.66613287  0.16906349  0.47713973
   0.91849804  0.16562649  0.47630394
   0.66838246  0.91696046  0.47542199
   0.83333333  0.83333333  0.38179910
   0.08333333  0.33333333  0.38179910
   0.91722458  0.41502437  0.47732359
   0.66415786  0.66577275  0.47536530
   0.83333333  0.58333333  0.38179910
   0.08333333  0.58333333  0.38179910
   0.91873278  0.66865979  0.47541594
   0.83333333  0.08333333  0.38179910
   0.83333333  0.33333333  0.38179910
   0.41386857  0.91549109  0.47579137
   0.58333333  0.83333333  0.38179910
   0.33333333  0.08333333  0.38179910
   0.58333333  0.58333333  0.38179910
   0.58333333  0.33333333  0.38179910
   0.33333333  0.33333333  0.38179910
   0.16866284  0.41676987  0.47794256
   0.41409615  0.16835631  0.47749110
   0.58333333  0.08333333  0.38179910
   0.33333333  0.58333333  0.38179910
   0.33333333  0.83333333  0.38179910
   0.33434062  0.33573704  0.61018801
   0.35317800  0.06019098  0.61101910
   0.07105085  0.35700151  0.61116312
   0.08544743  0.05567066  0.60905956
   0.83640509  0.82917578  0.61019928
   0.32646825  0.60419527  0.60861558
   0.58703628  0.32990539  0.60867648
   0.81984227  0.34975153  0.61002339
   0.74486044  0.74869273  0.56654349
   0.50546469  0.23939740  0.56757362
   0.24849160  0.75525372  0.55906025
   0.25720031 -0.01541112  0.56776246
   0.16688594  0.16459549  0.47844967
   0.41723030  0.66435995  0.47392865
   0.16619974  0.91563585  0.47321680
   0.50347662  0.50553807  0.56644979
   0.41637982  0.41954395  0.47649588
   0.00175827  0.75203056  0.56295926
   0.23963156  0.51115265  0.56883979
   0.50117876  0.74927927  0.56504297
   0.91794333  0.91651682  0.47316028
   0.08333333  0.83333333  0.38179910
   0.75086934 -0.00103156  0.56474551
   0.66423473  0.41792054  0.47683616
   0.75804440  0.23924699  0.56766718
  -0.00970539  0.51523729  0.56578098
  -0.00063810  0.25037055  0.56987978
   0.74252994  0.51520536  0.56649163
  -0.00255041 -0.00782830  0.56145989
   0.16804968  0.66806642  0.47392843
   0.24957880  0.24710568  0.57021214
   0.51193674 -0.01091109  0.56539649
Direct configuration=    13
   0.08333333  0.08333333  0.38179910
   0.66624084  0.16903299  0.47746612
   0.91817182  0.16564350  0.47660008
   0.66780341  0.91724782  0.47583543
   0.83333333  0.83333333  0.38179910
   0.08333333  0.33333333  0.38179910
   0.91692086  0.41606431  0.47820124
   0.66431490  0.66599420  0.47609484
   0.83333333  0.58333333  0.38179910
   0.08333333  0.58333333  0.38179910
   0.91877295  0.66785641  0.47586417
   0.83333333  0.08333333  0.38179910
   0.83333333  0.33333333  0.38179910
   0.41438002  0.91535836  0.47652062
   0.58333333  0.83333333  0.38179910
   0.33333333  0.08333333  0.38179910
   0.58333333  0.58333333  0.38179910
   0.58333333  0.33333333  0.38179910
   0.33333333  0.33333333  0.38179910
   0.16786996  0.41718759  0.47893445
   0.41429755  0.16751535  0.47813646
   0.58333333  0.08333333  0.38179910
   0.33333333  0.58333333  0.38179910
   0.33333333  0.83333333  0.38179910
   0.33409382  0.33524612  0.61123603
   0.35438104  0.05871938  0.61297362
   0.07110271  0.35686475  0.61279960
   0.08645558  0.05375426  0.61058211
   0.83722524  0.82830273  0.61257450
   0.32712381  0.60564382  0.61047248
   0.58753005  0.32979478  0.61020290
   0.82060184  0.34999285  0.61116767
   0.74460146  0.74867380  0.56751675
   0.50416403  0.23936551  0.56831368
   0.24865608  0.75514018  0.55890614
   0.25632938 -0.01495400  0.56864633
   0.16733663  0.16422055  0.47954728
   0.41740226  0.66449262  0.47436084
   0.16565843  0.91593623  0.47327832
   0.50290373  0.50553802  0.56713381
   0.41644655  0.41953826  0.47752219
   0.00170514  0.75180137  0.56348608
   0.23968931  0.51039962  0.56984769
   0.50199574  0.74862187  0.56653944
   0.91776645  0.91701847  0.47340859
   0.08333333  0.83333333  0.38179910
   0.75076205 -0.00109538  0.56553219
   0.66486692  0.41765933  0.47783955
   0.75833652  0.23980656  0.56880453
  -0.01046532  0.51779579  0.56662322
  -0.00126861  0.25019807  0.57163948
   0.74194188  0.51588364  0.56773351
  -0.00340987 -0.00801121  0.56151035
   0.16799741  0.66823481  0.47416177
   0.24960968  0.24755651  0.57201336
   0.51210684 -0.01068809  0.56642834
Direct configuration=    14
   0.08333333  0.08333333  0.38179910
   0.66612232  0.16953394  0.47823704
   0.91782191  0.16669489  0.47705274
   0.66691685  0.91749802  0.47652401
   0.83333333  0.83333333  0.38179910
   0.08333333  0.33333333  0.38179910
   0.91692252  0.41578714  0.47905202
   0.66506403  0.66576975  0.47729707
   0.83333333  0.58333333  0.38179910
   0.08333333  0.58333333  0.38179910
   0.91889405  0.66716015  0.47635125
   0.83333333  0.08333333  0.38179910
   0.83333333  0.33333333  0.38179910
   0.41363108  0.91540796  0.47752741
   0.58333333  0.83333333  0.38179910
   0.33333333  0.08333333  0.38179910
   0.58333333  0.58333333  0.38179910
   0.58333333  0.33333333  0.38179910
   0.33333333  0.33333333  0.38179910
   0.16835366  0.41706588  0.47998436
   0.41396978  0.16789116  0.47885738
   0.58333333  0.08333333  0.38179910
   0.33333333  0.58333333  0.38179910
   0.33333333  0.83333333  0.38179910
   0.33536218  0.33562792  0.61256311
   0.35460630  0.05792710  0.61460767
   0.07096705  0.35689350  0.61389583
   0.08632207  0.05273700  0.61172960
   0.83761423  0.82820320  0.61355496
   0.32725071  0.60711939  0.61128918
   0.58705048  0.32977721  0.61135713
   0.82064480  0.34987206  0.61221686
   0.74531236  0.74976536  0.56850300
   0.50352354  0.23975745  0.56939495
   0.24919819  0.75383242  0.55934516
   0.25590009 -0.01411058  0.56945360
   0.16691212  0.16445875  0.48031153
   0.41717907  0.66430836  0.47462499
   0.16619614  0.91531369  0.47356658
   0.50191661  0.50562544  0.56830800
   0.41619270  0.41966748  0.47788330
   0.00088137  0.75233468  0.56416958
   0.23973010  0.51012905  0.57105645
   0.50165533  0.74882207  0.56738722
   0.91837576  0.91713363  0.47375423