  56  56   0   0
  0.4903395E+02  0.1100258E-08  0.1100258E-08  0.2619179E-08  0.3500000E-15
  1.000000000000000E-004
  CAR 
 unknown system                          
      6.42898570    -21.71604958  301     -1.37431325      1.00000000
    -21.716  0.0000E+00  0.0000E+00
    -21.622  0.0000E+00  0.0000E+00
    -21.528  0.0000E+00  0.0000E+00
    -21.435  0.0000E+00  0.0000E+00
    -21.341  0.0000E+00  0.0000E+00
    -21.247  0.0000E+00  0.0000E+00
    -21.153  0.0000E+00  0.0000E+00
    -21.059  0.0000E+00  0.0000E+00
    -20.966  0.1180E-14  0.1107E-15
    -20.872  0.1294E-10  0.1214E-11
    -20.778  0.2583E-07  0.2424E-08
    -20.684  0.9670E-05  0.9097E-06
    -20.590  0.7108E-03  0.6759E-04
    -20.496  0.1092E-01  0.1092E-02
    -20.403  0.3755E-01  0.4615E-02
    -20.309  0.3021E-01  0.7449E-02
    -20.215  0.5731E-02  0.7987E-02
    -20.121  0.2876E-02  0.8257E-02
    -20.027  0.1560E-01  0.9721E-02
    -19.934  0.2488E-01  0.1205E-01
    -19.840  0.3218E-01  0.1507E-01
    -19.746  0.3755E-01  0.1860E-01
    -19.652  0.2669E-01  0.2110E-01
    -19.558  0.3559E-01  0.2444E-01
    -19.464  0.2966E-01  0.2722E-01
    -19.371  0.8234E-02  0.2800E-01
    -19.277  0.7186E-02  0.2867E-01
    -19.183  0.2022E-01  0.3057E-01
    -19.089  0.1333E-01  0.3182E-01
    -18.995  0.1886E-02  0.3199E-01
    -18.902  0.5417E-04  0.3200E-01
    -18.808  0.2986E-06  0.3200E-01
    -18.714  0.3039E-09  0.3200E-01
    -18.620  0.5573E-13  0.3200E-01
    -18.526  0.0000E+00  0.3200E-01
    -18.432  0.0000E+00  0.3200E-01
    -18.339  0.0000E+00  0.3200E-01
    -18.245  0.0000E+00  0.3200E-01
    -18.151  0.0000E+00  0.3200E-01
    -18.057  0.0000E+00  0.3200E-01
    -17.963  0.0000E+00  0.3200E-01
    -17.870  0.0000E+00  0.3200E-01
    -17.776  0.0000E+00  0.3200E-01
    -17.682  0.0000E+00  0.3200E-01
    -17.588  0.0000E+00  0.3200E-01
    -17.494  0.0000E+00  0.3200E-01
    -17.400  0.0000E+00  0.3200E-01
    -17.307  0.0000E+00  0.3200E-01
    -17.213  0.0000E+00  0.3200E-01
    -17.119  0.0000E+00  0.3200E-01
    -17.025  0.0000E+00  0.3200E-01
    -16.931  0.0000E+00  0.3200E-01
    -16.838  0.0000E+00  0.3200E-01
    -16.744  0.0000E+00  0.3200E-01
    -16.650  0.0000E+00  0.3200E-01
    -16.556  0.0000E+00  0.3200E-01
    -16.462  0.0000E+00  0.3200E-01
    -16.368  0.0000E+00  0.3200E-01
    -16.275  0.0000E+00  0.3200E-01
    -16.181  0.0000E+00  0.3200E-01
    -16.087  0.0000E+00  0.3200E-01
    -15.993  0.0000E+00  0.3200E-01
    -15.899  0.0000E+00  0.3200E-01
    -15.806  0.0000E+00  0.3200E-01
    -15.712  0.0000E+00  0.3200E-01
    -15.618  0.0000E+00  0.3200E-01
    -15.524  0.0000E+00  0.3200E-01
    -15.430  0.0000E+00  0.3200E-01
    -15.337  0.0000E+00  0.3200E-01
    -15.243  0.0000E+00  0.3200E-01
    -15.149  0.0000E+00  0.3200E-01
    -15.055  0.0000E+00  0.3200E-01
    -14.961  0.0000E+00  0.3200E-01
    -14.867  0.0000E+00  0.3200E-01
    -14.774  0.0000E+00  0.3200E-01
    -14.680  0.0000E+00  0.3200E-01
    -14.586  0.0000E+00  0.3200E-01
    -14.492  0.0000E+00  0.3200E-01
    -14.398  0.0000E+00  0.3200E-01
    -14.305  0.0000E+00  0.3200E-01
    -14.211  0.0000E+00  0.3200E-01
    -14.117  0.0000E+00  0.3200E-01
    -14.023  0.0000E+00  0.3200E-01
    -13.929  0.0000E+00  0.3200E-01
    -13.835  0.0000E+00  0.3200E-01
    -13.742  0.0000E+00  0.3200E-01
    -13.648  0.0000E+00  0.3200E-01
    -13.554  0.0000E+00  0.3200E-01
    -13.460  0.0000E+00  0.3200E-01
    -13.366  0.0000E+00  0.3200E-01
    -13.273  0.0000E+00  0.3200E-01
    -13.179  0.0000E+00  0.3200E-01
    -13.085  0.0000E+00  0.3200E-01
    -12.991  0.0000E+00  0.3200E-01
    -12.897  0.0000E+00  0.3200E-01
    -12.803  0.0000E+00  0.3200E-01
    -12.710  0.0000E+00  0.3200E-01
    -12.616  0.0000E+00  0.3200E-01
    -12.522  0.0000E+00  0.3200E-01
    -12.428  0.0000E+00  0.3200E-01
    -12.334  0.0000E+00  0.3200E-01
    -12.241  0.0000E+00  0.3200E-01
    -12.147  0.0000E+00  0.3200E-01
    -12.053  0.0000E+00  0.3200E-01
    -11.959  0.0000E+00  0.3200E-01
    -11.865  0.0000E+00  0.3200E-01
    -11.771  0.0000E+00  0.3200E-01
    -11.678  0.0000E+00  0.3200E-01
    -11.584  0.0000E+00  0.3200E-01
    -11.490  0.0000E+00  0.3200E-01
    -11.396  0.0000E+00  0.3200E-01
    -11.302  0.0000E+00  0.3200E-01
    -11.209  0.0000E+00  0.3200E-01
    -11.115  0.0000E+00  0.3200E-01
    -11.021  0.0000E+00  0.3200E-01
    -10.927  0.0000E+00  0.3200E-01
    -10.833  0.0000E+00  0.3200E-01
    -10.739  0.0000E+00  0.3200E-01
    -10.646  0.0000E+00  0.3200E-01
    -10.552  0.0000E+00  0.3200E-01
    -10.458  0.0000E+00  0.3200E-01
    -10.364  0.0000E+00  0.3200E-01
    -10.270  0.0000E+00  0.3200E-01
    -10.177  0.0000E+00  0.3200E-01
    -10.083  0.0000E+00  0.3200E-01
     -9.989  0.0000E+00  0.3200E-01
     -9.895  0.0000E+00  0.3200E-01
     -9.801  0.0000E+00  0.3200E-01
     -9.708  0.9467E-17  0.3200E-01
     -9.614  0.1997E-12  0.3200E-01
     -9.520  0.7474E-09  0.3200E-01
     -9.426  0.5089E-06  0.3200E-01
     -9.332  0.6473E-04  0.3201E-01
     -9.238  0.1604E-02  0.3216E-01
     -9.145  0.8219E-02  0.3293E-01
     -9.051  0.9532E-02  0.3382E-01
     -8.957  0.6626E-02  0.3444E-01
     -8.863  0.1045E-01  0.3542E-01
     -8.769  0.5478E-02  0.3594E-01
     -8.676  0.8003E-03  0.3601E-01
     -8.582  0.2743E-02  0.3627E-01
     -8.488  0.1357E-01  0.3754E-01
     -8.394  0.2620E-01  0.4000E-01
     -8.300  0.2500E-01  0.4235E-01
     -8.206  0.2945E-01  0.4511E-01
     -8.113  0.4383E-01  0.4922E-01
     -8.019  0.4856E-01  0.5378E-01
     -7.925  0.5299E-01  0.5875E-01
     -7.831  0.5856E-01  0.6424E-01
     -7.737  0.6131E-01  0.7000E-01
     -7.644  0.7051E-01  0.7661E-01
     -7.550  0.9242E-01  0.8528E-01
     -7.456  0.1014E+00  0.9480E-01
     -7.362  0.9763E-01  0.1040E+00
     -7.268  0.9459E-01  0.1128E+00
     -7.174  0.8548E-01  0.1208E+00
     -7.081  0.8620E-01  0.1289E+00
     -6.987  0.1039E+00  0.1387E+00
     -6.893  0.1273E+00  0.1506E+00
     -6.799  0.1491E+00  0.1646E+00
     -6.705  0.1564E+00  0.1793E+00
     -6.612  0.1601E+00  0.1943E+00
     -6.518  0.1605E+00  0.2094E+00
     -6.424  0.1611E+00  0.2245E+00
     -6.330  0.1715E+00  0.2406E+00
     -6.236  0.1831E+00  0.2577E+00
     -6.142  0.1819E+00  0.2748E+00
     -6.049  0.1661E+00  0.2904E+00
     -5.955  0.1587E+00  0.3053E+00
     -5.861  0.1508E+00  0.3194E+00
     -5.767  0.1496E+00  0.3335E+00
     -5.673  0.1638E+00  0.3488E+00
     -5.580  0.1771E+00  0.3655E+00
     -5.486  0.1756E+00  0.3819E+00
     -5.392  0.1789E+00  0.3987E+00
     -5.298  0.1927E+00  0.4168E+00
     -5.204  0.1963E+00  0.4352E+00
     -5.110  0.1911E+00  0.4531E+00
     -5.017  0.1857E+00  0.4706E+00
     -4.923  0.1873E+00  0.4881E+00
     -4.829  0.1869E+00  0.5057E+00
     -4.735  0.1784E+00  0.5224E+00
     -4.641  0.1832E+00  0.5396E+00
     -4.548  0.1981E+00  0.5582E+00
     -4.454  0.2040E+00  0.5773E+00
     -4.360  0.2023E+00  0.5963E+00
     -4.266  0.1976E+00  0.6148E+00
     -4.172  0.2077E+00  0.6343E+00
     -4.078  0.2151E+00  0.6545E+00
     -3.985  0.2137E+00  0.6745E+00
     -3.891  0.2130E+00  0.6945E+00
     -3.797  0.1999E+00  0.7133E+00
     -3.703  0.1780E+00  0.7300E+00
     -3.609  0.1610E+00  0.7451E+00
     -3.516  0.1473E+00  0.7589E+00
     -3.422  0.1458E+00  0.7726E+00
     -3.328  0.1565E+00  0.7873E+00
     -3.234  0.1692E+00  0.8031E+00
     -3.140  0.1707E+00  0.8192E+00
     -3.047  0.1725E+00  0.8353E+00
     -2.953  0.1819E+00  0.8524E+00
     -2.859  0.1918E+00  0.8704E+00
     -2.765  0.1957E+00  0.8888E+00
     -2.671  0.1907E+00  0.9067E+00
     -2.577  0.1878E+00  0.9243E+00
     -2.484  0.1884E+00  0.9420E+00
     -2.390  0.1900E+00  0.9598E+00
     -2.296  0.1953E+00  0.9781E+00
     -2.202  0.2054E+00  0.9974E+00
     -2.108  0.2020E+00  0.1016E+01
     -2.015  0.1759E+00  0.1033E+01
     -1.921  0.1455E+00  0.1046E+01
     -1.827  0.1283E+00  0.1059E+01
     -1.733  0.1211E+00  0.1070E+01
     -1.639  0.1073E+00  0.1080E+01
     -1.545  0.9780E-01  0.1089E+01
     -1.452  0.9080E-01  0.1098E+01
     -1.358  0.8090E-01  0.1105E+01
     -1.264  0.6223E-01  0.1111E+01
     -1.170  0.5292E-01  0.1116E+01
     -1.076  0.6362E-01  0.1122E+01
     -0.983  0.6650E-01  0.1128E+01
     -0.889  0.6385E-01  0.1134E+01
     -0.795  0.6732E-01  0.1141E+01
     -0.701  0.6667E-01  0.1147E+01
     -0.607  0.6109E-01  0.1153E+01
     -0.513  0.5409E-01  0.1158E+01
     -0.420  0.3933E-01  0.1161E+01
     -0.326  0.2284E-01  0.1163E+01
     -0.232  0.1849E-01  0.1165E+01
     -0.138  0.2490E-01  0.1168E+01
     -0.044  0.1845E-01  0.1169E+01
      0.049  0.1326E-01  0.1170E+01
      0.143  0.1858E-01  0.1172E+01
      0.237  0.3010E-01  0.1175E+01
      0.331  0.3645E-01  0.1178E+01
      0.425  0.3730E-01  0.1182E+01
      0.519  0.4169E-01  0.1186E+01
      0.612  0.4002E-01  0.1190E+01
      0.706  0.3316E-01  0.1193E+01
      0.800  0.2993E-01  0.1196E+01
      0.894  0.2308E-01  0.1198E+01
      0.988  0.1933E-01  0.1200E+01
      1.081  0.1585E-01  0.1201E+01
      1.175  0.1542E-01  0.1202E+01
      1.269  0.2519E-01  0.1205E+01
      1.363  0.2788E-01  0.1207E+01
      1.457  0.3007E-01  0.1210E+01
      1.551  0.3494E-01  0.1214E+01
      1.644  0.2657E-01  0.1216E+01
      1.738  0.2252E-01  0.1218E+01
      1.832  0.3653E-01  0.1222E+01
      1.926  0.4834E-01  0.1226E+01
      2.020  0.4148E-01  0.1230E+01
      2.113  0.3220E-01  0.1233E+01
      2.207  0.2768E-01  0.1236E+01
      2.301  0.2713E-01  0.1238E+01
      2.395  0.2259E-01  0.1240E+01
      2.489  0.2024E-01  0.1242E+01
      2.582  0.2252E-01  0.1244E+01
      2.676  0.1828E-01  0.1246E+01
      2.770  0.2030E-01  0.1248E+01
      2.864  0.2404E-01  0.1250E+01
      2.958  0.2537E-01  0.1253E+01
      3.052  0.2781E-01  0.1255E+01
      3.145  0.2779E-01  0.1258E+01
      3.239  0.3005E-01  0.1261E+01
      3.333  0.3422E-01  0.1264E+01
      3.427  0.3247E-01  0.1267E+01
      3.521  0.2868E-01  0.1270E+01
      3.614  0.3027E-01  0.1272E+01
      3.708  0.3246E-01  0.1275E+01
      3.802  0.3422E-01  0.1279E+01
      3.896  0.3738E-01  0.1282E+01
      3.990  0.4234E-01  0.1286E+01
      4.084  0.4431E-01  0.1290E+01
      4.177  0.4776E-01  0.1295E+01
      4.271  0.4601E-01  0.1299E+01
      4.365  0.4641E-01  0.1303E+01
      4.459  0.5010E-01  0.1308E+01
      4.553  0.5216E-01  0.1313E+01
      4.646  0.5545E-01  0.1318E+01
      4.740  0.5293E-01  0.1323E+01
      4.834  0.5105E-01  0.1328E+01
      4.928  0.4656E-01  0.1332E+01
      5.022  0.4843E-01  0.1337E+01
      5.116  0.4783E-01  0.1341E+01
      5.209  0.2391E-01  0.1344E+01
      5.303  0.3938E-02  0.1344E+01
      5.397  0.1838E-03  0.1344E+01
      5.491  0.2166E-05  0.1344E+01
      5.585  0.5622E-08  0.1344E+01
      5.678  0.2885E-11  0.1344E+01
      5.772  0.2738E-15  0.1344E+01
      5.866  0.0000E+00  0.1344E+01
      5.960  0.0000E+00  0.1344E+01
      6.054  0.0000E+00  0.1344E+01
      6.148  0.0000E+00  0.1344E+01
      6.241  0.0000E+00  0.1344E+01
      6.335  0.0000E+00  0.1344E+01
      6.429  0.0000E+00  0.1344E+01
