unknown system                          
           1
    11.002582    0.000000    0.000000
     5.501291    9.528515    0.000000
     0.000000    0.000000   26.191785
   Au   O    Pd
  24   8  24
Direct configuration=     1
   0.08333333  0.08333333  0.38179910
   0.33333333  0.83333333  0.38179910
   0.83333333  0.08333333  0.38179910
   0.83333333  0.83333333  0.38179910
   0.00000000  0.00000000  0.55329505
   0.08333333  0.33333333  0.38179910
   0.91666667  0.41666667  0.46754708
   0.00000000  0.25000000  0.55329505
   0.75000000  0.25000000  0.55329505
   0.08333333  0.58333333  0.38179910
   0.66666667  0.41666667  0.46754708
   0.50000000  0.75000000  0.55329505
   0.00000000  0.50000000  0.55329505
   0.58333333  0.08333333  0.38179910
   0.58333333  0.83333333  0.38179910
   0.58333333  0.58333333  0.38179910
   0.50000000  0.25000000  0.55329505
   0.25000000  0.00000000  0.55329505
   0.58333333  0.33333333  0.38179910
   0.33333333  0.33333333  0.38179910
   0.25000000  0.25000000  0.55329505
   0.41666667  0.16666667  0.46754708
   0.33333333  0.58333333  0.38179910
   0.08333333  0.83333333  0.38179910
   0.08333333  0.08333333  0.61820090
   0.33333333  0.58333333  0.61820090
   0.08333333  0.58333333  0.61820090
   0.83333333  0.83333333  0.61820090
   0.33333333  0.83333333  0.61820090
   0.83333333  0.33333333  0.61820090
   0.58333333  0.08333333  0.61820090
   0.58333333  0.33333333  0.61820090
   0.41666667  0.66666667  0.46754708
   0.33333333  0.08333333  0.38179910
   0.16666667  0.16666667  0.46754708
   0.16666667  0.41666667  0.46754708
   0.50000000  0.00000000  0.55329505
   0.16666667  0.66666667  0.46754708
   0.75000000  0.75000000  0.55329505
   0.25000000  0.75000000  0.55329505
   0.16666667  0.91666667  0.46754708
   0.50000000  0.50000000  0.55329505
   0.25000000  0.50000000  0.55329505
   0.00000000  0.75000000  0.55329505
   0.91666667  0.91666667  0.46754708
   0.66666667  0.16666667  0.46754708
   0.75000000  0.00000000  0.55329505
   0.83333333  0.33333333  0.38179910
   0.91666667  0.66666667  0.46754708
   0.83333333  0.58333333  0.38179910
   0.66666667  0.66666667  0.46754708
   0.75000000  0.50000000  0.55329505
   0.91666667  0.16666667  0.46754708
   0.66666667  0.91666667  0.46754708
   0.41666667  0.41666667  0.46754708
   0.41666667  0.91666667  0.46754708
Direct configuration=     2
   0.08333333  0.08333333  0.38179910
   0.33333333  0.83333333  0.38179910
   0.83333333  0.08333333  0.38179910
   0.83333333  0.83333333  0.38179910
  -0.00036320 -0.00205466  0.55520139
   0.08333333  0.33333333  0.38179910
   0.91663874  0.41730277  0.46763080
   0.00006321  0.25131311  0.55618521
   0.75025574  0.24889330  0.55585767
   0.08333333  0.58333333  0.38179910
   0.66578248  0.41724981  0.46793000
   0.50172162  0.74902778  0.55520761
  -0.00039890  0.50132956  0.55554474
   0.58333333  0.08333333  0.38179910
   0.58333333  0.83333333  0.38179910
   0.58333333  0.58333333  0.38179910
   0.49886230  0.25021206  0.55613462
   0.25135950  0.00006792  0.55567914
   0.58333333  0.33333333  0.38179910
   0.33333333  0.33333333  0.38179910
   0.25027747  0.25032746  0.55474749
   0.41686617  0.16595275  0.46778676
   0.33333333  0.58333333  0.38179910
   0.08333333  0.83333333  0.38179910
   0.08317542  0.08268041  0.61587624
   0.33341519  0.58330047  0.61411272
   0.08361530  0.58349630  0.61455057
   0.83279746  0.83314241  0.61387031
   0.33374897  0.83249457  0.61522885
   0.83244185  0.33585759  0.61527883
   0.58351577  0.08142424  0.61453145
   0.58233845  0.33543562  0.61545741
   0.41613352  0.66649582  0.46815679
   0.33333333  0.08333333  0.38179910
   0.16691910  0.16549483  0.46782254
   0.16705969  0.41779388  0.46797229
   0.50178757 -0.00023159  0.55538665
   0.16653391  0.66712701  0.46863970
   0.75068046  0.75167629  0.55530256
   0.25027370  0.74862193  0.55631537
   0.16716746  0.91567646  0.46789467
   0.49879827  0.50056153  0.55664519
   0.24963407  0.50148784  0.55631911
  -0.00067180  0.74947377  0.55635856
   0.91656841  0.91637882  0.46897829
   0.66799266  0.16539956  0.46818387
   0.74972141 -0.00188781  0.55643314
   0.83333333  0.33333333  0.38179910
   0.91616380  0.66755390  0.46755902
   0.83333333  0.58333333  0.38179910
   0.66657848  0.66764759  0.46890222
   0.74947696  0.50036402  0.55558484
   0.91660814  0.16596792  0.46743732
   0.66727592  0.91588788  0.46790833
   0.41556158  0.41742301  0.46835605
   0.41658719  0.91703558  0.46810731
Direct configuration=     3
   0.08333333  0.08333333  0.38179910
   0.33333333  0.83333333  0.38179910
   0.83333333  0.08333333  0.38179910
   0.83333333  0.83333333  0.38179910
  -0.00101733 -0.00575506  0.55863468
   0.08333333  0.33333333  0.38179910
   0.91658845  0.41844837  0.46778160
   0.00017705  0.25367799  0.56139033
   0.75071631  0.24690015  0.56047290
   0.08333333  0.58333333  0.38179910
   0.66419007  0.41830005  0.46861964
   0.50482222  0.74727683  0.55865208
  -0.00111730  0.50372407  0.55959639
   0.58333333  0.08333333  0.38179910
   0.58333333  0.83333333  0.38179910
   0.58333333  0.58333333  0.38179910
   0.49681332  0.25059398  0.56124865
   0.25380794  0.00019023  0.55997284
   0.58333333  0.33333333  0.38179910
   0.33333333  0.33333333  0.38179910
   0.25077719  0.25091720  0.55736330
   0.41722547  0.16466700  0.46821842
   0.33333333  0.58333333  0.38179910
   0.08333333  0.83333333  0.38179910
   0.08289103  0.08150451  0.61168957
   0.33356260  0.58324130  0.60674998
   0.08412312  0.58378980  0.60797637
   0.83183235  0.83279857  0.60607097
   0.33449752  0.83098397  0.60987624
   0.83083631  0.34040372  0.61001624
   0.58384434  0.07798600  0.60792283
   0.58054667  0.33922180  0.61051643
   0.41517334  0.66618813  0.46925488
   0.33333333  0.08333333  0.38179910
   0.16737372  0.16338438  0.46831864
   0.16776751  0.41982396  0.46873810
   0.50500696 -0.00064867  0.55915357
   0.16629483  0.66795608  0.47060749
   0.75190595  0.75469525  0.55891806
   0.25076662  0.74614006  0.56175493
   0.16806937  0.91389313  0.46852069
   0.49663398  0.50157284  0.56267872
   0.24897503  0.50416740  0.56176539
  -0.00188170  0.74852603  0.56187590
   0.91639144  0.91586041  0.47155589
   0.67038076  0.16311753  0.46933073
   0.74921967 -0.00528772  0.56208477
   0.83333333  0.33333333  0.38179910
   0.91525816  0.66915179  0.46758054
   0.83333333  0.58333333  0.38179910
   0.66641965  0.66941422  0.47134281
   0.74853497  0.50101962  0.55970872
   0.91650274  0.16470949  0.46723965
   0.66837318  0.91448529  0.46855893
   0.41357135  0.41878516  0.46981301
   0.41644405  0.91769998  0.46911627
Direct configuration=     4
   0.08333333  0.08333333  0.38179910
   0.33333333  0.83333333  0.38179910
   0.83333333  0.08333333  0.38179910
   0.83333333  0.83333333  0.38179910
  -0.00089253 -0.00504903  0.55797963
   0.08333333  0.33333333  0.38179910
   0.91659804  0.41822979  0.46775283
   0.00015533  0.25322678  0.56039721
   0.75062843  0.24728044  0.55959233
   0.08333333  0.58333333  0.38179910
   0.66449390  0.41809967  0.46848806
   0.50423063  0.74761090  0.55799489
  -0.00098023  0.50326721  0.55882335
   0.58333333  0.08333333  0.38179910
   0.58333333  0.83333333  0.38179910
   0.58333333  0.58333333  0.38179910
   0.49720426  0.25052111  0.56027291
   0.25334079  0.00016690  0.55915362
   0.58333333  0.33333333  0.38179910
   0.33333333  0.33333333  0.38179910
   0.25068185  0.25080468  0.55686421
   0.41715692  0.16491232  0.46813606
   0.33333333  0.58333333  0.38179910
   0.08333333  0.83333333  0.38179910
   0.08294529  0.08172887  0.61248837
   0.33353447  0.58325259  0.60815476
   0.08402623  0.58373380  0.60923070
   0.83201649  0.83286418  0.60755906
   0.33435470  0.83127219  0.61089749
   0.83114264  0.33953634  0.61102032
   0.58378165  0.07864201  0.60918373
   0.58088853  0.33849941  0.61145915
   0.41535654  0.66624684  0.46904537
   0.33333333  0.08333333  0.38179910
   0.16728698  0.16378704  0.46822398
   0.16763246  0.41943663  0.46859198
   0.50439271 -0.00056909  0.55843486
   0.16634044  0.66779790  0.47023204
   0.75167213  0.75411924  0.55822824
   0.25067258  0.74661359  0.56071708
   0.16789729  0.91423338  0.46840125
   0.49704692  0.50137989  0.56152755
   0.24910077  0.50365615  0.56072626
  -0.00165085  0.74870685  0.56082322
   0.91642521  0.91595932  0.47106410
   0.66992512  0.16355293  0.46911191
   0.74931540 -0.00463903  0.56100646
   0.83333333  0.33333333  0.38179910
   0.91543095  0.66884692  0.46757644
   0.83333333  0.58333333  0.38179910
   0.66644995  0.66907716  0.47087716
   0.74871470  0.50089453  0.55892190
   0.91652285  0.16494960  0.46727736
   0.66816383  0.91475290  0.46843480
   0.41395108  0.41852527  0.46953503
   0.41647136  0.91757322  0.46892376
Direct configuration=     5
   0.08333333  0.08333333  0.38179910
   0.33333333  0.83333333  0.38179910
   0.83333333  0.08333333  0.38179910
   0.83333333  0.83333333  0.38179910
  -0.00092850 -0.00525256  0.55816846
   0.08333333  0.33333333  0.38179910
   0.91659528  0.41829281  0.46776112
   0.00016159  0.25335685  0.56068350
   0.75065377  0.24717081  0.55984618
   0.08333333  0.58333333  0.38179910
   0.66440631  0.41815744  0.46852599
   0.50440117  0.74751460  0.55818434
  -0.00101974  0.50339891  0.55904620
   0.58333333  0.08333333  0.38179910
   0.58333333  0.83333333  0.38179910
   0.58333333  0.58333333  0.38179910
   0.49709156  0.25054212  0.56055420
   0.25347546  0.00017362  0.55938979
   0.58333333  0.33333333  0.38179910
   0.33333333  0.33333333  0.38179910
   0.25070933  0.25083711  0.55700809
   0.41717668  0.16484160  0.46815980
   0.33333333  0.58333333  0.38179910
   0.08333333  0.83333333  0.38179910
   0.08292965  0.08166419  0.61225809
   0.33354258  0.58324933  0.60774980
   0.08405416  0.58374995  0.60886911
   0.83196341  0.83284526  0.60713008
   0.33439587  0.83118910  0.61060309
   0.83105433  0.33978638  0.61073087
   0.58379972  0.07845290  0.60882024
   0.58078998  0.33870766  0.61118739
   0.41530373  0.66622992  0.46910577
   0.33333333  0.08333333  0.38179910
   0.16731198  0.16367096  0.46825127
   0.16767139  0.41954829  0.46863410
   0.50456978 -0.00059203  0.55864205
   0.16632729  0.66784350  0.47034028
   0.75173953  0.75428529  0.55842710
   0.25069969  0.74647708  0.56101627
   0.16794690  0.91413529  0.46843568
   0.49692787  0.50143551  0.56185941
   0.24906452  0.50380353  0.56102582
  -0.00171740  0.74865473  0.56112668
   0.91641547  0.91593081  0.47120587
   0.67005647  0.16342742  0.46917499
   0.74928780 -0.00482603  0.56131731
   0.83333333  0.33333333  0.38179910
   0.91538114  0.66893481  0.46757762
   0.83333333  0.58333333  0.38179910
   0.66644122  0.66917433  0.47101139
   0.74866288  0.50093059  0.55914872
   0.91651705  0.16488038  0.46726649
   0.66822418  0.91467575  0.46847058
   0.41384161  0.41860019  0.46961516
   0.41646349  0.91760976  0.46897926
Direct configuration=     6
   0.08333333  0.08333333  0.38179910
   0.33333333  0.83333333  0.38179910
   0.83333333  0.08333333  0.38179910
   0.83333333  0.83333333  0.38179910
  -0.00211190 -0.00754069  0.55910855
   0.08333333  0.33333333  0.38179910
   0.91675867  0.41844510  0.46951718
   0.00346734  0.25531528  0.56166794
   0.75366846  0.24053520  0.55962107
   0.08333333  0.58333333  0.38179910
   0.66404251  0.41803512  0.47036604
   0.51049078  0.74486567  0.55917154
  -0.00465059  0.49986879  0.55917361
   0.58333333  0.08333333  0.38179910
   0.58333333  0.83333333  0.38179910
   0.58333333  0.58333333  0.38179910
   0.49084903  0.25361412  0.56089607
   0.25538480  0.00273778  0.56008248
   0.58333333  0.33333333  0.38179910
   0.33333333  0.33333333  0.38179910
   0.25062776  0.25135926  0.55784267
   0.41765928  0.16495439  0.46956316
   0.33333333  0.58333333  0.38179910
   0.08333333  0.83333333  0.38179910
   0.08232303  0.08039221  0.61131555
   0.33338690  0.58375629  0.60629040
   0.08554322  0.58369917  0.60825385
   0.83184258  0.83129089  0.60573591
   0.33564327  0.82974401  0.60929155
   0.82862339  0.34620964  0.60989363
   0.58365929  0.07502834  0.60782889
   0.57936262  0.34212792  0.61081185
   0.41481081  0.66654334  0.47060851
   0.33333333  0.08333333  0.38179910
   0.16674870  0.16337036  0.46997419
   0.16736023  0.42035137  0.47013066
   0.50237221 -0.00259458  0.55936548
   0.16557675  0.66836300  0.47206866
   0.74898217  0.75135190  0.55903059
   0.24709026  0.74998868  0.56242105
   0.16810501  0.91357877  0.47008460
   0.50068156  0.50205159  0.56343730
   0.24986724  0.49919980  0.56185191
  -0.00005141  0.75187748  0.56216899
   0.91664075  0.91537786  0.47292828
   0.67007199  0.16309480  0.47116031
   0.75171895 -0.00110993  0.56219754
   0.83333333  0.33333333  0.38179910
   0.91574902  0.66909499  0.46861671
   0.83333333  0.58333333  0.38179910
   0.66622188  0.66969364  0.47299634
   0.74726181  0.50421388  0.56040993
   0.91670134  0.16476757  0.46887211
   0.66837155  0.91475859  0.46943703
   0.41401818  0.41832143  0.47155708
   0.41682323  0.91694201  0.47054894
Direct configuration=     7
   0.08333333  0.08333333  0.38179910
   0.33333333  0.83333333  0.38179910
   0.83333333  0.08333333  0.38179910
   0.83333333  0.83333333  0.38179910
  -0.00269805 -0.00867403  0.55957419
   0.08333333  0.33333333  0.38179910
   0.91683960  0.41852054  0.47038698
   0.00510472  0.25628531  0.56215554
   0.75516168  0.23724850  0.55950958
   0.08333333  0.58333333  0.38179910
   0.66386231  0.41797453  0.47127743
   0.51350704  0.74355363  0.55966051
  -0.00644899  0.49812028  0.55923672
   0.58333333  0.08333333  0.38179910
   0.58333333  0.83333333  0.38179910
   0.58333333  0.58333333  0.38179910
   0.48775703  0.25513573  0.56106540
   0.25633053  0.00400784  0.56042559
   0.58333333  0.33333333  0.38179910
   0.33333333  0.33333333  0.38179910
   0.25058735  0.25161789  0.55825604
   0.41789832  0.16501026  0.47025827
   0.33333333  0.58333333  0.38179910
   0.08333333  0.83333333  0.38179910
   0.08202256  0.07976219  0.61084870
   0.33330978  0.58400740  0.60556755
   0.08628076  0.58367402  0.60794910
   0.83178274  0.83052100  0.60504537
   0.33626113  0.82902824  0.60864193
   0.82741932  0.34939116  0.60947894
   0.58358973  0.07333212  0.60733786
   0.57865562  0.34382201  0.61062585
   0.41456666  0.66669859  0.47135284
   0.33333333  0.08333333  0.38179910
   0.16646969  0.16322146  0.47082757
   0.16720610  0.42074915  0.47087193
   0.50128373 -0.00358646  0.55972381
   0.16520499  0.66862031  0.47292475
   0.74761642  0.74989896  0.55932951
   0.24530247  0.75172802  0.56311686
   0.16818333  0.91330312  0.47090132
   0.50254081  0.50235674  0.56421885
   0.25026483  0.49691952  0.56226108
   0.00077378  0.75347375  0.56268526
   0.91675234  0.91510399  0.47378141
   0.67007967  0.16293005  0.47214366
   0.75292312  0.00073070  0.56263352
   0.83333333  0.33333333  0.38179910
   0.91593124  0.66917433  0.46913138
   0.83333333  0.58333333  0.38179910
   0.66611324  0.66995086  0.47397950
   0.74656784  0.50584013  0.56103463
   0.91679262  0.16471169  0.46966739
   0.66844455  0.91479961  0.46991573
   0.41410564  0.41818335  0.47251893
   0.41700141  0.91661126  0.47132642
Direct configuration=     8
   0.08333333  0.08333333  0.38179910
   0.33333333  0.83333333  0.38179910
   0.83333333  0.08333333  0.38179910
   0.83333333  0.83333333  0.38179910
  -0.00080562 -0.00737153  0.56047723
   0.08333333  0.33333333  0.38179910
   0.91617143  0.41835554  0.47094933
   0.00545910  0.25496548  0.56307499
   0.75619913  0.23719913  0.55963684
   0.08333333  0.58333333  0.38179910
   0.66394717  0.41792324  0.47250754
   0.51247056  0.74358195  0.56085623
  -0.00733468  0.50081501  0.55972753
   0.58333333  0.08333333  0.38179910
   0.58333333  0.83333333  0.38179910
   0.58333333  0.58333333  0.38179910
   0.48691494  0.25561292  0.56150955
   0.25718566  0.00439810  0.56072222
   0.58333333  0.33333333  0.38179910
   0.33333333  0.33333333  0.38179910
   0.25005899  0.25181708  0.55893994
   0.41791903  0.16498869  0.47086581
   0.33333333  0.58333333  0.38179910
   0.08333333  0.83333333  0.38179910
   0.08096921  0.07868873  0.61072627
   0.33230532  0.58403094  0.60659142
   0.08508680  0.58378695  0.60837419
   0.83017677  0.82936495  0.60547075
   0.33850512  0.82845479  0.60880117
   0.82591533  0.35302280  0.60970962
   0.58333015  0.07173830  0.60772392
   0.57956213  0.34284255  0.61145904
   0.41430144  0.66691047  0.47259335
   0.33333333  0.08333333  0.38179910
   0.16629125  0.16337267  0.47174956
   0.16686678  0.42091698  0.47175254
   0.50127919 -0.00554673  0.55979800
   0.16495699  0.66877038  0.47413262
   0.74844227  0.74974970  0.55959470
   0.24266501  0.75438720  0.56271214
   0.16810455  0.91347554  0.47213262
   0.50654239  0.50456915  0.56362435
   0.25002895  0.49471716  0.56168888
   0.00318814  0.75058197  0.56261721
   0.91666243  0.91478490  0.47408595
   0.66945100  0.16272617  0.47305788
   0.75172296  0.00143151  0.56275335
   0.83333333  0.33333333  0.38179910
   0.91622886  0.66937917  0.47007639
   0.83333333  0.58333333  0.38179910
   0.66671207  0.66934428  0.47423255
   0.74553949  0.50630461  0.56149242
   0.91727939  0.16452699  0.47092204
   0.66851126  0.91519122  0.47069712
   0.41439845  0.41843220  0.47370361
   0.41734445  0.91579634  0.47218732
Direct configuration=     9
   0.08333333  0.08333333  0.38179910
   0.33333333  0.83333333  0.38179910
   0.83333333  0.08333333  0.38179910
   0.83333333  0.83333333  0.38179910
  -0.00060330 -0.00723228  0.56057377
   0.08333333  0.33333333  0.38179910
   0.91610000  0.41833790  0.47100945
   0.00549699  0.25482437  0.56317329
   0.75631004  0.23719385  0.55965045
   0.08333333  0.58333333  0.38179910
   0.66395624  0.41791775  0.47263905
   0.51235975  0.74358498  0.56098407
  -0.00742937  0.50110310  0.55978000
   0.58333333  0.08333333  0.38179910
   0.58333333  0.83333333  0.38179910
   0.58333333  0.58333333  0.38179910
   0.48682491  0.25566394  0.56155704
   0.25727708  0.00443983  0.56075393
   0.58333333  0.33333333  0.38179910
   0.33333333  0.33333333  0.38179910
   0.25000250  0.25183838  0.55901306
   0.41792124  0.16498638  0.47093076
   0.33333333  0.58333333  0.38179910
   0.08333333  0.83333333  0.38179910
   0.08085659  0.07857396  0.61071318
   0.33219793  0.58403346  0.60670088
   0.08495916  0.58379903  0.60841964
   0.83000508  0.82924136  0.60551623
   0.33874503  0.82839348  0.60881820
   0.82575454  0.35341106  0.60973428
   0.58330240  0.07156790  0.60776519
   0.57965905  0.34273784  0.61154812
   0.41427309  0.66693313  0.47272598
   0.33333333  0.08333333  0.38179910
   0.16627218  0.16338884  0.47184813
   0.16683050  0.42093492  0.47184669
   0.50127870 -0.00575631  0.55980593
   0.16493048  0.66878642  0.47426176
   0.74853056  0.74973375  0.55962305
   0.24238304  0.75467149  0.56266887
   0.16809613  0.91349398  0.47226426
   0.50697020  0.50480568  0.56356080
   0.25000374  0.49448171  0.56162771
   0.00344626  0.75027281  0.56260994
   0.91665282  0.91475079  0.47411851
   0.66938379  0.16270438  0.47315562
   0.75159465  0.00150643  0.56276617
   0.83333333  0.33333333  0.38179910
   0.91626068  0.66940107  0.47017742
   0.83333333  0.58333333  0.38179910
   0.66677610  0.66927943  0.47425961
   0.74542954  0.50635427  0.56154136
   0.91733143  0.16450725  0.47105618
   0.66851840  0.91523309  0.47078065
   0.41442975  0.41845880  0.47383026
   0.41738113  0.91570921  0.47227936
Direct configuration=    10
   0.08333333  0.08333333  0.38179910
   0.33333333  0.83333333  0.38179910
   0.83333333  0.08333333  0.38179910
   0.83333333  0.83333333  0.38179910
  -0.00096805 -0.00724567  0.56100061
   0.08333333  0.33333333  0.38179910
   0.91571231  0.41817985  0.47131709
   0.00445807  0.25604607  0.56392206
   0.75590618  0.23873265  0.56035486
   0.08333333  0.58333333  0.38179910
   0.66417775  0.41770320  0.47310758
   0.51177777  0.74416514  0.56194241
  -0.00821528  0.50247896  0.56022949
   0.58333333  0.08333333  0.38179910
   0.58333333  0.83333333  0.38179910
   0.58333333  0.58333333  0.38179910
   0.48866987  0.25513585  0.56257060
   0.25768964  0.00440074  0.56113633
   0.58333333  0.33333333  0.38179910
   0.33333333  0.33333333  0.38179910
   0.24919925  0.25176921  0.55980364
   0.41754967  0.16500979  0.47119414
   0.33333333  0.58333333  0.38179910
   0.08333333  0.83333333  0.38179910
   0.08065550  0.07755732  0.61167542
   0.33213875  0.58377694  0.60644336
   0.08490578  0.58307014  0.60917217
   0.82943295  0.82861336  0.60599305
   0.33991611  0.82804341  0.60943061
   0.82496980  0.35538299  0.61063006
   0.58259580  0.07067964  0.60827951
   0.58011661  0.34264575  0.61156740
   0.41421994  0.66703487  0.47356450
   0.33333333  0.08333333  0.38179910
   0.16630431  0.16363617  0.47229854
   0.16655462  0.42070618  0.47223488
   0.50239876 -0.00683676  0.55995361
   0.16509088  0.66869125  0.47485597
   0.74883924  0.75014626  0.55969910
   0.24268871  0.75372071  0.56292362
   0.16791958  0.91392170  0.47296998
   0.50683040  0.50532307  0.56433745
   0.25028672  0.49533385  0.56176104
   0.00286147  0.74999552  0.56267218
   0.91672362  0.91489648  0.47442623
   0.66885921  0.16269473  0.47355772
   0.75148524  0.00008950  0.56299568
   0.83333333  0.33333333  0.38179910
   0.91635876  0.66948196  0.47072077
   0.83333333  0.58333333  0.38179910
   0.66706982  0.66888136  0.47427386
   0.74577714  0.50703885  0.56159738
   0.91770339  0.16417710  0.47177985
   0.66856774  0.91541241  0.47122519
   0.41450979  0.41890862  0.47454443
   0.41785066  0.91490086  0.47266025
Direct configuration=    11
   0.08333333  0.08333333  0.38179910
   0.33333333  0.83333333  0.38179910
   0.83333333  0.08333333  0.38179910
   0.83333333  0.83333333  0.38179910
  -0.00135488 -0.00725987  0.56145329
   0.08333333  0.33333333  0.38179910
   0.91530114  0.41801222  0.47164336
   0.00335622  0.25734176  0.56471618
   0.75547786  0.24036464  0.56110194
   0.08333333  0.58333333  0.38179910
   0.66441266  0.41747565  0.47360448
   0.51116055  0.74478044  0.56295879
  -0.00904880  0.50393815  0.56070619
   0.58333333  0.08333333  0.38179910
   0.58333333  0.83333333  0.38179910
   0.58333333  0.58333333  0.38179910
   0.49062656  0.25457578  0.56364554
   0.25812719  0.00435929  0.56154188
   0.58333333  0.33333333  0.38179910
   0.33333333  0.33333333  0.38179910
   0.24834735  0.25169586  0.56064211
   0.41715560  0.16503461  0.47147346
   0.33333333  0.58333333  0.38179910
   0.08333333  0.83333333  0.38179910
   0.08044222  0.07647911  0.61269593
   0.33207599  0.58350488  0.60617025
   0.08484917  0.58229711  0.60997027
   0.82882618  0.82794732  0.60649874
   0.34115811  0.82767214  0.61008011
   0.82413754  0.35747434  0.61158009
   0.58184640  0.06973758  0.60882497
   0.58060188  0.34254808  0.61158784
   0.41416357  0.66714277  0.47445380
   0.33333333  0.08333333  0.38179910
   0.16633839  0.16389848  0.47277623
   0.16626204  0.42046359  0.47264658
   0.50358664 -0.00798265  0.56011024
   0.16526099  0.66859031  0.47548618
   0.74916661  0.75058375  0.55977976
   0.24301290  0.75271235  0.56319380
   0.16773234  0.91437533  0.47371844
   0.50668214  0.50587179  0.56516114
   0.25058685  0.49623760  0.56190245
   0.00224125  0.74970144  0.56273819
   0.91679872  0.91505099  0.47475259
   0.66830287  0.16268449  0.47398416
   0.75136920 -0.00141325  0.56323910
   0.83333333  0.33333333  0.38179910
   0.91646277  0.66956775  0.47129703
   0.83333333  0.58333333  0.38179910
   0.66738133  0.66845917  0.47428897
   0.74614578  0.50776489  0.56165679
   0.91809787  0.16382696  0.47254735
   0.66862008  0.91560258  0.47169665
   0.41459468  0.41938569  0.47530186
   0.41834863  0.91404355  0.47306421
Direct configuration=    12
   0.08333333  0.08333333  0.38179910
   0.33333333  0.83333333  0.38179910
   0.83333333  0.08333333  0.38179910
   0.83333333  0.83333333  0.38179910
  -0.00225373 -0.00727176  0.56210454
   0.08333333  0.33333333  0.38179910
   0.91544392  0.41783866  0.47182503
   0.00277825  0.25774835  0.56581280
   0.75632880  0.24027111  0.56176752
   0.08333333  0.58333333  0.38179910
   0.66441853  0.41717237  0.47375129
   0.51300373  0.74418943  0.56364747
  -0.00887277  0.50384012  0.56124265
   0.58333333  0.08333333  0.38179910
   0.58333333  0.83333333  0.38179910
   0.58333333  0.58333333  0.38179910
   0.49045267  0.25352155  0.56453165
   0.25694847  0.00463134  0.56233306
   0.58333333  0.33333333  0.38179910
   0.33333333  0.33333333  0.38179910
   0.24886981  0.25229491  0.56152285
   0.41662677  0.16540413  0.47192261
   0.33333333  0.58333333  0.38179910
   0.08333333  0.83333333  0.38179910
   0.08044168  0.07569134  0.61357973
   0.33201998  0.58325198  0.60634285
   0.08545227  0.58166497  0.61064442
   0.82915735  0.82737486  0.60726345
   0.34081994  0.82772696  0.61109356
   0.82317936  0.35990028  0.61278274
   0.58152596  0.06861660  0.60958755
   0.58106968  0.34274253  0.61227176
   0.41435352  0.66712055  0.47504510
   0.33333333  0.08333333  0.38179910
   0.16631786  0.16405227  0.47316941
   0.16623727  0.42010318  0.47299078
   0.50379003 -0.00775798  0.56021171
   0.16535604  0.66856572  0.47561033
   0.74831393  0.75050751  0.55971871
   0.24332139  0.75295976  0.56374472
   0.16772201  0.91463514  0.47417960
   0.50643672  0.50643853  0.56599392
   0.25039780  0.49599096  0.56223897
   0.00142951  0.74986102  0.56329406
   0.91691860  0.91534012  0.47505259
   0.66805022  0.16291967  0.47441188
   0.75144885 -0.00152954  0.56364840
   0.83333333  0.33333333  0.38179910
   0.91656420  0.66947051  0.47143910
   0.83333333  0.58333333  0.38179910
   0.66708518  0.66865236  0.47449458
   0.74623261  0.50869804  0.56178183
   0.91810162  0.16369720  0.47309465
   0.66857432  0.91561810  0.47176957
   0.41462546  0.41942716  0.47590966
   0.41880124  0.91347076  0.47327213
Direct configuration=    13
   0.08333333  0.08333333  0.38179910
   0.33333333  0.83333333  0.38179910
   0.83333333  0.08333333  0.38179910
   0.83333333  0.83333333  0.38179910
  -0.00365012 -0.00729024  0.56311627
   0.08333333  0.33333333  0.38179910
   0.91566572  0.41756902  0.47210725
   0.00188035  0.25838001  0.56751642
   0.75765077  0.24012581  0.56280151
   0.08333333  0.58333333  0.38179910
   0.66442763  0.41670123  0.47397937
   0.51586715  0.74327127  0.56471736
  -0.00859930  0.50368784  0.56207604
   0.58333333  0.08333333  0.38179910
   0.58333333  0.83333333  0.38179910
   0.58333333  0.58333333  0.38179910
   0.49018252  0.25188376  0.56590824
   0.25511730  0.00505398  0.56356216
   0.58333333  0.33333333  0.38179910
   0.33333333  0.33333333  0.38179910
   0.24968146  0.25322556  0.56289112
   0.41580522  0.16597820  0.47262039
   0.33333333  0.58333333  0.38179910
   0.08333333  0.83333333  0.38179910
   0.08044083  0.07446751  0.61495274
   0.33193297  0.58285910  0.60661098
   0.08638920  0.58068293  0.61169175
   0.82967184  0.82648554  0.60845145
   0.34029457  0.82781212  0.61266799
   0.82169079  0.36366905  0.61465110
   0.58102815  0.06687512  0.61077223
   0.58179642  0.34304462  0.61333425
   0.41464861  0.66708604  0.47596371
   0.33333333  0.08333333  0.38179910
   0.16628597  0.16429117  0.47378024
   0.16619880  0.41954327  0.47352549
   0.50410600 -0.00740895  0.56036934
   0.16550371  0.66852752  0.47580321
   0.74698926  0.75038906  0.55962386
   0.24380064  0.75334412  0.56460060
   0.16770596  0.91503876  0.47489604
   0.50605546  0.50731899  0.56728768
   0.25010411  0.49560779  0.56276176
   0.00016845  0.75010893  0.56415761
   0.91710484  0.91578930  0.47551866
   0.66765773  0.16328502  0.47507635
   0.75157258 -0.00171019  0.56428426
   0.83333333  0.33333333  0.38179910
   0.91672177  0.66931944  0.47165982
   0.83333333  0.58333333  0.38179910
   0.66662510  0.66895247  0.47481399
   0.74636749  0.51014773  0.56197609
   0.91810744  0.16349562  0.47394490
   0.66850322  0.91564220  0.47188284
   0.41467329  0.41949158  0.47685389
   0.41950439  0.91258092  0.47359513
Direct configuration=    14
   0.08333333  0.08333333  0.38179910
   0.33333333  0.83333333  0.38179910
   0.83333333  0.08333333  0.38179910
   0.83333333  0.83333333  0.38179910
  -0.00386486 -0.00751467  0.56382115
   0.08333333  0.33333333  0.38179910
   0.91592650  0.41741976  0.47225648
   0.00192232  0.25830517  0.56868988
   0.75779379  0.24027768  0.56344252
   0.08333333  0.58333333  0.38179910
   0.66438100  0.41648507  0.47407532
   0.51534500  0.74389928  0.56550969
  -0.00808887  0.50300464  0.56250205
   0.58333333  0.08333333  0.38179910
   0.58333333  0.83333333  0.38179910
   0.58333333  0.58333333  0.38179910
   0.49009042  0.25152750  0.56673564
   0.25456346  0.00509801  0.56437882
   0.58333333  0.33333333  0.38179910
   0.33333333  0.33333333  0.38179910
   0.24971333  0.25326656  0.56361708
   0.41551042  0.16625427  0.47293320
   0.33333333  0.58333333  0.38179910
   0.08333333  0.83333333  0.38179910
   0.08023012  0.07404524  0.61563585
   0.33149648  0.58281894  0.60712424
   0.08697560  0.58049766  0.61212208
   0.82947969  0.82616791  0.60881418
   0.34018554  0.82782857  0.61328737
   0.82075459  0.36625134  0.61547092
   0.58128734  0.06571819  0.61144202
   0.58217162  0.34306415  0.61401506
   0.41482181  0.66699756  0.47631732
   0.33333333  0.08333333  0.38179910
   0.16628240  0.16427070  0.47420095
   0.16623329  0.41938157  0.47376167
   0.50316460 -0.00681607  0.56041260
   0.16552273  0.66861583  0.47584272
   0.74743503  0.75090673  0.55983224
   0.24380793  0.75406098  0.56514107
   0.16780636  0.91512289  0.47516958
   0.50674785  0.50702189  0.56788740
   0.24974326  0.49544627  0.56311209
   0.00016638  0.74970547  0.56483908
   0.91711795  0.91592849  0.47574922