  56  56   0   0
  0.4903395E+02  0.1100258E-08  0.1100258E-08  0.2619179E-08  0.3500000E-15
  1.000000000000000E-004
  CAR 
 unknown system                          
      6.44206240    -21.38630184  301     -1.36258298      1.00000000
    -21.386  0.0000E+00  0.0000E+00
    -21.294  0.0000E+00  0.0000E+00
    -21.201  0.0000E+00  0.0000E+00
    -21.108  0.0000E+00  0.0000E+00
    -21.015  0.0000E+00  0.0000E+00
    -20.922  0.0000E+00  0.0000E+00
    -20.830  0.0000E+00  0.0000E+00
    -20.737  0.0000E+00  0.0000E+00
    -20.644  0.2208E-14  0.2048E-15
    -20.551  0.1940E-10  0.1800E-11
    -20.459  0.3189E-07  0.2960E-08
    -20.366  0.1006E-04  0.9363E-06
    -20.273  0.6407E-03  0.6037E-04
    -20.180  0.9043E-02  0.8992E-03
    -20.088  0.3248E-01  0.3912E-02
    -19.995  0.3357E-01  0.7026E-02
    -19.902  0.1334E-01  0.8263E-02
    -19.809  0.1803E-01  0.9936E-02
    -19.717  0.2542E-01  0.1229E-01
    -19.624  0.2784E-01  0.1488E-01
    -19.531  0.2962E-01  0.1762E-01
    -19.438  0.2694E-01  0.2012E-01
    -19.346  0.3819E-01  0.2367E-01
    -19.253  0.5066E-01  0.2837E-01
    -19.160  0.3090E-01  0.3123E-01
    -19.067  0.7729E-02  0.3195E-01
    -18.975  0.5379E-03  0.3200E-01
    -18.882  0.8151E-05  0.3200E-01
    -18.789  0.2444E-07  0.3200E-01
    -18.696  0.1393E-10  0.3200E-01
    -18.603  0.1478E-14  0.3200E-01
    -18.511  0.0000E+00  0.3200E-01
    -18.418  0.0000E+00  0.3200E-01
    -18.325  0.0000E+00  0.3200E-01
    -18.232  0.0000E+00  0.3200E-01
    -18.140  0.0000E+00  0.3200E-01
    -18.047  0.0000E+00  0.3200E-01
    -17.954  0.0000E+00  0.3200E-01
    -17.861  0.0000E+00  0.3200E-01
    -17.769  0.0000E+00  0.3200E-01
    -17.676  0.0000E+00  0.3200E-01
    -17.583  0.0000E+00  0.3200E-01
    -17.490  0.0000E+00  0.3200E-01
    -17.398  0.0000E+00  0.3200E-01
    -17.305  0.0000E+00  0.3200E-01
    -17.212  0.0000E+00  0.3200E-01
    -17.119  0.0000E+00  0.3200E-01
    -17.027  0.0000E+00  0.3200E-01
    -16.934  0.0000E+00  0.3200E-01
    -16.841  0.0000E+00  0.3200E-01
    -16.748  0.0000E+00  0.3200E-01
    -16.655  0.0000E+00  0.3200E-01
    -16.563  0.0000E+00  0.3200E-01
    -16.470  0.0000E+00  0.3200E-01
    -16.377  0.0000E+00  0.3200E-01
    -16.284  0.0000E+00  0.3200E-01
    -16.192  0.0000E+00  0.3200E-01
    -16.099  0.0000E+00  0.3200E-01
    -16.006  0.0000E+00  0.3200E-01
    -15.913  0.0000E+00  0.3200E-01
    -15.821  0.0000E+00  0.3200E-01
    -15.728  0.0000E+00  0.3200E-01
    -15.635  0.0000E+00  0.3200E-01
    -15.542  0.0000E+00  0.3200E-01
    -15.450  0.0000E+00  0.3200E-01
    -15.357  0.0000E+00  0.3200E-01
    -15.264  0.0000E+00  0.3200E-01
    -15.171  0.0000E+00  0.3200E-01
    -15.079  0.0000E+00  0.3200E-01
    -14.986  0.0000E+00  0.3200E-01
    -14.893  0.0000E+00  0.3200E-01
    -14.800  0.0000E+00  0.3200E-01
    -14.707  0.0000E+00  0.3200E-01
    -14.615  0.0000E+00  0.3200E-01
    -14.522  0.0000E+00  0.3200E-01
    -14.429  0.0000E+00  0.3200E-01
    -14.336  0.0000E+00  0.3200E-01
    -14.244  0.0000E+00  0.3200E-01
    -14.151  0.0000E+00  0.3200E-01
    -14.058  0.0000E+00  0.3200E-01
    -13.965  0.0000E+00  0.3200E-01
    -13.873  0.0000E+00  0.3200E-01
    -13.780  0.0000E+00  0.3200E-01
    -13.687  0.0000E+00  0.3200E-01
    -13.594  0.0000E+00  0.3200E-01
    -13.502  0.0000E+00  0.3200E-01
    -13.409  0.0000E+00  0.3200E-01
    -13.316  0.0000E+00  0.3200E-01
    -13.223  0.0000E+00  0.3200E-01
    -13.131  0.0000E+00  0.3200E-01
    -13.038  0.0000E+00  0.3200E-01
    -12.945  0.0000E+00  0.3200E-01
    -12.852  0.0000E+00  0.3200E-01
    -12.760  0.0000E+00  0.3200E-01
    -12.667  0.0000E+00  0.3200E-01
    -12.574  0.0000E+00  0.3200E-01
    -12.481  0.0000E+00  0.3200E-01
    -12.388  0.0000E+00  0.3200E-01
    -12.296  0.0000E+00  0.3200E-01
    -12.203  0.0000E+00  0.3200E-01
    -12.110  0.0000E+00  0.3200E-01
    -12.017  0.0000E+00  0.3200E-01
    -11.925  0.0000E+00  0.3200E-01
    -11.832  0.0000E+00  0.3200E-01
    -11.739  0.0000E+00  0.3200E-01
    -11.646  0.0000E+00  0.3200E-01
    -11.554  0.0000E+00  0.3200E-01
    -11.461  0.0000E+00  0.3200E-01
    -11.368  0.0000E+00  0.3200E-01
    -11.275  0.0000E+00  0.3200E-01
    -11.183  0.0000E+00  0.3200E-01
    -11.090  0.0000E+00  0.3200E-01
    -10.997  0.0000E+00  0.3200E-01
    -10.904  0.0000E+00  0.3200E-01
    -10.812  0.0000E+00  0.3200E-01
    -10.719  0.0000E+00  0.3200E-01
    -10.626  0.0000E+00  0.3200E-01
    -10.533  0.0000E+00  0.3200E-01
    -10.440  0.0000E+00  0.3200E-01
    -10.348  0.0000E+00  0.3200E-01
    -10.255  0.0000E+00  0.3200E-01
    -10.162  0.0000E+00  0.3200E-01
    -10.069  0.0000E+00  0.3200E-01
     -9.977  0.0000E+00  0.3200E-01
     -9.884  0.0000E+00  0.3200E-01
     -9.791  0.0000E+00  0.3200E-01
     -9.698  0.7979E-18  0.3200E-01
     -9.606  0.2245E-13  0.3200E-01
     -9.513  0.1133E-09  0.3200E-01
     -9.420  0.1083E-06  0.3200E-01
     -9.327  0.2007E-04  0.3200E-01
     -9.235  0.7487E-03  0.3207E-01
     -9.142  0.5997E-02  0.3263E-01
     -9.049  0.1228E-01  0.3377E-01
     -8.956  0.1248E-01  0.3492E-01
     -8.864  0.9189E-02  0.3578E-01
     -8.771  0.2708E-02  0.3603E-01
     -8.678  0.3352E-02  0.3634E-01
     -8.585  0.1019E-01  0.3728E-01
     -8.492  0.1831E-01  0.3898E-01
     -8.400  0.1998E-01  0.4084E-01
     -8.307  0.2092E-01  0.4278E-01
     -8.214  0.2134E-01  0.4475E-01
     -8.121  0.3082E-01  0.4761E-01
     -8.029  0.4093E-01  0.5141E-01
     -7.936  0.4058E-01  0.5517E-01
     -7.843  0.4870E-01  0.5969E-01
     -7.750  0.5830E-01  0.6510E-01
     -7.658  0.6114E-01  0.7077E-01
     -7.565  0.5193E-01  0.7559E-01
     -7.472  0.4866E-01  0.8010E-01
     -7.379  0.7283E-01  0.8686E-01
     -7.287  0.9994E-01  0.9613E-01
     -7.194  0.1214E+00  0.1074E+00
     -7.101  0.1348E+00  0.1199E+00
     -7.008  0.1344E+00  0.1324E+00
     -6.916  0.1220E+00  0.1437E+00
     -6.823  0.1114E+00  0.1540E+00
     -6.730  0.1176E+00  0.1649E+00
     -6.637  0.1346E+00  0.1774E+00
     -6.545  0.1476E+00  0.1911E+00
     -6.452  0.1588E+00  0.2058E+00
     -6.359  0.1704E+00  0.2216E+00
     -6.266  0.1676E+00  0.2372E+00
     -6.173  0.1616E+00  0.2522E+00
     -6.081  0.1611E+00  0.2671E+00
     -5.988  0.1586E+00  0.2818E+00
     -5.895  0.1600E+00  0.2967E+00
     -5.802  0.1610E+00  0.3116E+00
     -5.710  0.1630E+00  0.3267E+00
     -5.617  0.1651E+00  0.3421E+00
     -5.524  0.1673E+00  0.3576E+00
     -5.431  0.1742E+00  0.3737E+00
     -5.339  0.1789E+00  0.3903E+00
     -5.246  0.1751E+00  0.4066E+00
     -5.153  0.1744E+00  0.4227E+00
     -5.060  0.1719E+00  0.4387E+00
     -4.968  0.1697E+00  0.4544E+00
     -4.875  0.1665E+00  0.4699E+00
     -4.782  0.1618E+00  0.4849E+00
     -4.689  0.1715E+00  0.5008E+00
     -4.597  0.1766E+00  0.5172E+00
     -4.504  0.1670E+00  0.5327E+00
     -4.411  0.1732E+00  0.5487E+00
     -4.318  0.1798E+00  0.5654E+00
     -4.225  0.1804E+00  0.5821E+00
     -4.133  0.1890E+00  0.5997E+00
     -4.040  0.1976E+00  0.6180E+00
     -3.947  0.2035E+00  0.6369E+00
     -3.854  0.1986E+00  0.6553E+00
     -3.762  0.1921E+00  0.6731E+00
     -3.669  0.1920E+00  0.6909E+00
     -3.576  0.1966E+00  0.7092E+00
     -3.483  0.1978E+00  0.7275E+00
     -3.391  0.1886E+00  0.7450E+00
     -3.298  0.1828E+00  0.7620E+00
     -3.205  0.1840E+00  0.7791E+00
     -3.112  0.1859E+00  0.7963E+00
     -3.020  0.1849E+00  0.8135E+00
     -2.927  0.1903E+00  0.8311E+00
     -2.834  0.1962E+00  0.8493E+00
     -2.741  0.1903E+00  0.8670E+00
     -2.649  0.1843E+00  0.8841E+00
     -2.556  0.1866E+00  0.9014E+00
     -2.463  0.1853E+00  0.9185E+00
     -2.370  0.1884E+00  0.9360E+00
     -2.277  0.1946E+00  0.9541E+00
     -2.185  0.1949E+00  0.9722E+00
     -2.092  0.1956E+00  0.9903E+00
     -1.999  0.1933E+00  0.1008E+01
     -1.906  0.1842E+00  0.1025E+01
     -1.814  0.1740E+00  0.1041E+01
     -1.721  0.1691E+00  0.1057E+01
     -1.628  0.1605E+00  0.1072E+01
     -1.535  0.1440E+00  0.1085E+01
     -1.443  0.1187E+00  0.1096E+01
     -1.350  0.9376E-01  0.1105E+01
     -1.257  0.7486E-01  0.1112E+01
     -1.164  0.5802E-01  0.1117E+01
     -1.072  0.5382E-01  0.1122E+01
     -0.979  0.5721E-01  0.1128E+01
     -0.886  0.5222E-01  0.1133E+01
     -0.793  0.4618E-01  0.1137E+01
     -0.701  0.4461E-01  0.1141E+01
     -0.608  0.4557E-01  0.1145E+01
     -0.515  0.4572E-01  0.1149E+01
     -0.422  0.4627E-01  0.1154E+01
     -0.330  0.4393E-01  0.1158E+01
     -0.237  0.3477E-01  0.1161E+01
     -0.144  0.2491E-01  0.1163E+01
     -0.051  0.1882E-01  0.1165E+01
      0.042  0.2119E-01  0.1167E+01
      0.134  0.2401E-01  0.1169E+01
      0.227  0.2107E-01  0.1171E+01
      0.320  0.2300E-01  0.1173E+01
      0.413  0.2566E-01  0.1176E+01
      0.505  0.3157E-01  0.1179E+01
      0.598  0.4007E-01  0.1182E+01
      0.691  0.3869E-01  0.1186E+01
      0.784  0.3554E-01  0.1189E+01
      0.876  0.3493E-01  0.1193E+01
      0.969  0.3438E-01  0.1196E+01
      1.062  0.3468E-01  0.1199E+01
      1.155  0.2584E-01  0.1201E+01
      1.247  0.2300E-01  0.1203E+01
      1.340  0.2502E-01  0.1206E+01
      1.433  0.2166E-01  0.1208E+01
      1.526  0.2482E-01  0.1210E+01
      1.618  0.3431E-01  0.1213E+01
      1.711  0.2932E-01  0.1216E+01
      1.804  0.2767E-01  0.1219E+01
      1.897  0.3558E-01  0.1222E+01
      1.990  0.3783E-01  0.1225E+01
      2.082  0.3669E-01  0.1229E+01
      2.175  0.3931E-01  0.1232E+01
      2.268  0.3845E-01  0.1236E+01
      2.361  0.3113E-01  0.1239E+01
      2.453  0.2199E-01  0.1241E+01
      2.546  0.2111E-01  0.1243E+01
      2.639  0.2402E-01  0.1245E+01
      2.732  0.1891E-01  0.1247E+01
      2.824  0.2004E-01  0.1249E+01
      2.917  0.2463E-01  0.1251E+01
      3.010  0.3412E-01  0.1254E+01
      3.103  0.4042E-01  0.1258E+01
      3.195  0.3394E-01  0.1261E+01
      3.288  0.3105E-01  0.1264E+01
      3.381  0.2823E-01  0.1267E+01
      3.474  0.3210E-01  0.1270E+01
      3.566  0.3784E-01  0.1273E+01
      3.659  0.3550E-01  0.1276E+01
      3.752  0.3468E-01  0.1280E+01
      3.845  0.3091E-01  0.1282E+01
      3.938  0.3331E-01  0.1286E+01
      4.030  0.4021E-01  0.1289E+01
      4.123  0.4093E-01  0.1293E+01
      4.216  0.3222E-01  0.1296E+01
      4.309  0.3173E-01  0.1299E+01
      4.401  0.3521E-01  0.1302E+01
      4.494  0.4038E-01  0.1306E+01
      4.587  0.4901E-01  0.1311E+01
      4.680  0.5789E-01  0.1316E+01
      4.772  0.5569E-01  0.1321E+01
      4.865  0.5635E-01  0.1326E+01
      4.958  0.5967E-01  0.1332E+01
      5.051  0.5375E-01  0.1337E+01
      5.143  0.4568E-01  0.1341E+01
      5.236  0.2601E-01  0.1343E+01
      5.329  0.5414E-02  0.1344E+01
      5.422  0.3069E-03  0.1344E+01
      5.514  0.4072E-05  0.1344E+01
      5.607  0.1150E-07  0.1344E+01
      5.700  0.6513E-11  0.1344E+01
      5.793  0.7125E-15  0.1344E+01
      5.885  0.0000E+00  0.1344E+01
      5.978  0.0000E+00  0.1344E+01
      6.071  0.0000E+00  0.1344E+01
      6.164  0.0000E+00  0.1344E+01
      6.257  0.0000E+00  0.1344E+01
      6.349  0.0000E+00  0.1344E+01
      6.442  0.0000E+00  0.1344E+01
