unknown system                          
           1
    11.002582    0.000000    0.000000
     5.501291    9.528515    0.000000
     0.000000    0.000000   26.191785
   Au   O    Pd
  24   8  24
Direct configuration=     1
   0.33333333  0.83333333  0.38179910
   0.25000000  0.50000000  0.55329505
   0.41666667  0.16666667  0.46754708
   0.75000000  0.25000000  0.55329505
   0.00000000  0.00000000  0.55329505
   0.66666667  0.41666667  0.46754708
   0.41666667  0.41666667  0.46754708
   0.58333333  0.33333333  0.38179910
   0.00000000  0.25000000  0.55329505
   0.08333333  0.58333333  0.38179910
   0.91666667  0.66666667  0.46754708
   0.91666667  0.91666667  0.46754708
   0.50000000  0.00000000  0.55329505
   0.16666667  0.66666667  0.46754708
   0.58333333  0.08333333  0.38179910
   0.75000000  0.75000000  0.55329505
   0.25000000  0.75000000  0.55329505
   0.16666667  0.16666667  0.46754708
   0.25000000  0.00000000  0.55329505
   0.50000000  0.50000000  0.55329505
   0.33333333  0.33333333  0.38179910
   0.41666667  0.91666667  0.46754708
   0.33333333  0.58333333  0.38179910
   0.08333333  0.83333333  0.38179910
   0.08333333  0.33333333  0.61820090
   0.58333333  0.58333333  0.61820090
   0.83333333  0.08333333  0.61820090
   0.58333333  0.83333333  0.61820090
   0.33333333  0.08333333  0.61820090
   0.33333333  0.58333333  0.61820090
   0.83333333  0.33333333  0.61820090
   0.58333333  0.08333333  0.61820090
   0.91666667  0.16666667  0.46754708
   0.66666667  0.91666667  0.46754708
   0.08333333  0.33333333  0.38179910
   0.91666667  0.41666667  0.46754708
   0.00000000  0.50000000  0.55329505
   0.83333333  0.83333333  0.38179910
   0.00000000  0.75000000  0.55329505
   0.33333333  0.08333333  0.38179910
   0.16666667  0.41666667  0.46754708
   0.25000000  0.25000000  0.55329505
   0.75000000  0.50000000  0.55329505
   0.16666667  0.91666667  0.46754708
   0.50000000  0.25000000  0.55329505
   0.08333333  0.08333333  0.38179910
   0.58333333  0.58333333  0.38179910
   0.83333333  0.33333333  0.38179910
   0.75000000  0.00000000  0.55329505
   0.66666667  0.16666667  0.46754708
   0.83333333  0.08333333  0.38179910
   0.50000000  0.75000000  0.55329505
   0.41666667  0.66666667  0.46754708
   0.58333333  0.83333333  0.38179910
   0.66666667  0.66666667  0.46754708
   0.83333333  0.58333333  0.38179910
Direct configuration=     2
   0.33333333  0.83333333  0.38179910
   0.24831225  0.49926675  0.55589886
   0.41673786  0.16662037  0.46809199
   0.74860602  0.24984195  0.55613076
   0.00044949 -0.00121845  0.55565094
   0.66809547  0.41706681  0.46749540
   0.41760397  0.41572011  0.46836782
   0.58333333  0.33333333  0.38179910
   0.00056514  0.25085884  0.55588692
   0.08333333  0.58333333  0.38179910
   0.91512765  0.66562316  0.46810285
   0.91443782  0.91871526  0.46762595
   0.50038269  0.00064338  0.55628339
   0.16647954  0.66712629  0.46794295
   0.58333333  0.08333333  0.38179910
   0.75126678  0.74879797  0.55565704
   0.24928624  0.75127133  0.55566492
   0.16439884  0.16839224  0.46683658
   0.24985560 -0.00094776  0.55585943
   0.50093993  0.49923039  0.55637123
   0.33333333  0.33333333  0.38179910
   0.41878663  0.91423171  0.46739324
   0.33333333  0.58333333  0.38179910
   0.08333333  0.83333333  0.38179910
   0.08384639  0.33487317  0.61463246
   0.58461888  0.58409299  0.61479480
   0.83366548  0.08166884  0.61523219
   0.58420013  0.83094565  0.61542184
   0.33137704  0.08500195  0.61540498
   0.33190875  0.58357663  0.61564526
   0.83225524  0.33534314  0.61554674
   0.58425501  0.08506003  0.61478841
   0.91698789  0.16684622  0.46693936
   0.66683582  0.91678778  0.46767766
   0.08333333  0.33333333  0.38179910
   0.91632874  0.41713853  0.46736115
   0.00028899  0.49888369  0.55546277
   0.83333333  0.83333333  0.38179910
  -0.00051780  0.75002272  0.55443109
   0.33333333  0.08333333  0.38179910
   0.16582377  0.41599754  0.46822611
   0.24939604  0.25076056  0.55708211
   0.75011028  0.50064767  0.55649256
   0.16625839  0.91738551  0.46822860
   0.50111718  0.24795458  0.55562729
   0.08333333  0.08333333  0.38179910
   0.58333333  0.58333333  0.38179910
   0.83333333  0.33333333  0.38179910
   0.74923201  0.00060950  0.55668697
   0.66786970  0.16581476  0.46777368
   0.83333333  0.08333333  0.38179910
   0.50152403  0.74920006  0.55662158
   0.41789139  0.66750347  0.46759356
   0.58333333  0.83333333  0.38179910
   0.66666085  0.66608555  0.46730213
   0.83333333  0.58333333  0.38179910
Direct configuration=     3
   0.33333333  0.83333333  0.38179910
   0.24552980  0.49805791  0.56019152
   0.41685524  0.16654404  0.46899033
   0.74630790  0.24958138  0.56080574
   0.00119051 -0.00322720  0.55953489
   0.67045100  0.41772648  0.46741020
   0.41914923  0.41415960  0.46972091
   0.58333333  0.33333333  0.38179910
   0.00149684  0.25227473  0.56015989
   0.08333333  0.58333333  0.38179910
   0.91259041  0.66390284  0.46901911
   0.91076331  0.92209259  0.46775599
   0.50101360  0.00170407  0.56120999
   0.16617105  0.66788404  0.46859560
   0.58333333  0.08333333  0.38179910
   0.75335520  0.74681628  0.55955104
   0.24810953  0.75336725  0.55957190
   0.16066008  0.17123704  0.46566525
   0.24961755 -0.00251024  0.56008710
   0.50248952  0.49796162  0.56144264
   0.33333333  0.33333333  0.38179910
   0.42228162  0.91021743  0.46713962
   0.33333333  0.58333333  0.38179910
   0.08333333  0.83333333  0.38179910
   0.08469222  0.33741176  0.60874950
   0.58673824  0.58534538  0.60917947
   0.83421307  0.07892475  0.61033795
   0.58562913  0.82700928  0.61084024
   0.32815187  0.08775285  0.61079559
   0.32956016  0.58397772  0.61143201
   0.83047790  0.33865653  0.61117107
   0.58577449  0.08790669  0.60916256
   0.91751747  0.16714223  0.46593747
   0.66711468  0.91698744  0.46789294
   0.08333333  0.33333333  0.38179910
   0.91577163  0.41791645  0.46705462
   0.00076542  0.49704334  0.55903650
   0.83333333  0.83333333  0.38179910
  -0.00137146  0.75006017  0.55630399
   0.33333333  0.08333333  0.38179910
   0.16443416  0.41489440  0.46934557
   0.24840034  0.25201444  0.56332549
   0.75029209  0.50171541  0.56176401
   0.16558531  0.91857060  0.46935216
   0.50295896  0.24458249  0.55947225
   0.08333333  0.08333333  0.38179910
   0.58333333  0.58333333  0.38179910
   0.83333333  0.33333333  0.38179910
   0.74796591  0.00161433  0.56227893
   0.66985303  0.16441029  0.46814726
   0.83333333  0.08333333  0.38179910
   0.50403656  0.74788128  0.56210572
   0.41991048  0.66888304  0.46767020
   0.58333333  0.83333333  0.38179910
   0.66665127  0.66512750  0.46689832
   0.83333333  0.58333333  0.38179910
Direct configuration=     4
   0.33333333  0.83333333  0.38179910
   0.24590530  0.49822105  0.55961221
   0.41683940  0.16655434  0.46886910
   0.74661804  0.24961655  0.56017483
   0.00109051 -0.00295611  0.55901074
   0.67013311  0.41763746  0.46742169
   0.41894069  0.41437019  0.46953831
   0.58333333  0.33333333  0.38179910
   0.00137110  0.25208365  0.55958323
   0.08333333  0.58333333  0.38179910
   0.91293282  0.66413500  0.46889545
   0.91125920  0.92163681  0.46773844
   0.50092846  0.00156092  0.56054512
   0.16621268  0.66778178  0.46850752
   0.58333333  0.08333333  0.38179910
   0.75307336  0.74708372  0.55902552
   0.24826833  0.75308440  0.55904463
   0.16116464  0.17085313  0.46582333
   0.24964967 -0.00229938  0.55951656
   0.50228040  0.49813284  0.56075823
   0.33333333  0.33333333  0.38179910
   0.42180996  0.91075917  0.46717385
   0.33333333  0.58333333  0.38179910
   0.08333333  0.83333333  0.38179910
   0.08457807  0.33706917  0.60954343
   0.58645223  0.58517637  0.60993728
   0.83413917  0.07929508  0.61099845
   0.58543628  0.82754051  0.61145855
   0.32858712  0.08738160  0.61141765
   0.32987711  0.58392359  0.61200061
   0.83071776  0.33820938  0.61176159
   0.58556943  0.08752252  0.60992179
   0.91744600  0.16710228  0.46607268
   0.66707704  0.91696049  0.46786389
   0.08333333  0.33333333  0.38179910
   0.91584681  0.41781146  0.46709599
   0.00070113  0.49729170  0.55855421
   0.83333333  0.83333333  0.38179910
  -0.00125626  0.75005512  0.55605123
   0.33333333  0.08333333  0.38179910
   0.16462169  0.41504327  0.46919450
   0.24853471  0.25184522  0.56248292
   0.75026755  0.50157132  0.56105261
   0.16567614  0.91841067  0.46920053
   0.50271041  0.24503757  0.55895336
   0.08333333  0.08333333  0.38179910
   0.58333333  0.58333333  0.38179910
   0.83333333  0.33333333  0.38179910
   0.74813677  0.00147872  0.56152427
   0.66958538  0.16459982  0.46809685
   0.83333333  0.08333333  0.38179910
   0.50369749  0.74805926  0.56136562
   0.41963800  0.66869686  0.46765985
   0.58333333  0.83333333  0.38179910
   0.66665256  0.66525680  0.46695281
   0.83333333  0.58333333  0.38179910
Direct configuration=     5
   0.33333333  0.83333333  0.38179910
   0.24391393  0.49660555  0.56091599
   0.41617712  0.16554765  0.47073298
   0.74186745  0.25302530  0.56082268
   0.00554036 -0.00529616  0.55991078
   0.67051357  0.41738753  0.46918157
   0.41949161  0.41488279  0.47184928
   0.58333333  0.33333333  0.38179910
   0.00218254  0.24555878  0.55908116
   0.08333333  0.58333333  0.38179910
   0.91215987  0.66434857  0.47043426
   0.91088799  0.92172980  0.46910495
   0.50019645 -0.00030421  0.55955567
   0.16623165  0.66774260  0.47008148
   0.58333333  0.08333333  0.38179910
   0.75919603  0.74463680  0.56019115
   0.24630233  0.75633282  0.56019188
   0.16156637  0.17044514  0.46722040
   0.24801168 -0.00488502  0.56035686
   0.50330802  0.49158411  0.56120154
   0.33333333  0.33333333  0.38179910
   0.42202381  0.91173570  0.46900351
   0.33333333  0.58333333  0.38179910
   0.08333333  0.83333333  0.38179910
   0.08576261  0.34231363  0.60825656
   0.58793377  0.58710513  0.60853423
   0.83585560  0.07589523  0.61021232
   0.58767367  0.82334180  0.61055900
   0.32465070  0.08997338  0.61074127
   0.32731913  0.58450512  0.61148224
   0.82898738  0.34136268  0.61071309
   0.58762680  0.09196604  0.60890597
   0.91715356  0.16739749  0.46726649
   0.66678435  0.91676877  0.46930989
   0.08333333  0.33333333  0.38179910
   0.91538356  0.41795208  0.46802941
  -0.00145884  0.50122446  0.56000848
   0.83333333  0.83333333  0.38179910
  -0.00205257  0.74984910  0.55667321
   0.33333333  0.08333333  0.38179910
   0.16469363  0.41498465  0.47073850
   0.25104087  0.25240246  0.56489038
   0.75334527  0.50167682  0.56293126
   0.16541075  0.91922643  0.47107082
   0.49979553  0.24985228  0.55997930
   0.08333333  0.08333333  0.38179910
   0.58333333  0.58333333  0.38179910
   0.83333333  0.33333333  0.38179910
   0.75027801 -0.00373897  0.56349357
   0.66991340  0.16522328  0.46946433
   0.83333333  0.08333333  0.38179910
   0.50056579  0.75057580  0.56316280
   0.41995892  0.66769922  0.46927380
   0.58333333  0.83333333  0.38179910
   0.66719823  0.66497443  0.46795425
   0.83333333  0.58333333  0.38179910
Direct configuration=     6
   0.33333333  0.83333333  0.38179910
   0.24284425  0.49573777  0.56161634
   0.41582137  0.16500689  0.47173419
   0.73931561  0.25485635  0.56117068
   0.00793066 -0.00655315  0.56039425
   0.67071794  0.41725328  0.47012691
   0.41978754  0.41515813  0.47309064
   0.58333333  0.33333333  0.38179910
   0.00261841  0.24205386  0.55881146
   0.08333333  0.58333333  0.38179910
   0.91174468  0.66446329  0.47126085
   0.91068859  0.92177975  0.46983899
   0.49980324 -0.00130609  0.55902417
   0.16624184  0.66772155  0.47092695
   0.58333333  0.08333333  0.38179910
   0.76248490  0.74332241  0.56081729
   0.24524627  0.75807775  0.56080815
   0.16178217  0.17022598  0.46797086
   0.24713182 -0.00627393  0.56080823
   0.50386002  0.48806638  0.56143967
   0.33333333  0.33333333  0.38179910
   0.42213869  0.91226026  0.46998633
   0.33333333  0.58333333  0.38179910
   0.08333333  0.83333333  0.38179910
   0.08639890  0.34513076  0.60756530
   0.58872960  0.58814119  0.60778056
   0.83677760  0.07406896  0.60979004
   0.58887552  0.82108641  0.61007580
   0.32253619  0.09136558  0.61037794
   0.32594508  0.58481750  0.61120379
   0.82805788  0.34305652  0.61014987
   0.58873195  0.09435293  0.60836031
   0.91699647  0.16755606  0.46790776
   0.66662713  0.91666579  0.47008663
   0.08333333  0.33333333  0.38179910
   0.91513471  0.41802762  0.46853081
  -0.00261909  0.50333699  0.56078966
   0.83333333  0.83333333  0.38179910
  -0.00248031  0.74973843  0.55700731
   0.33333333  0.08333333  0.38179910
   0.16473228  0.41495315  0.47156788
   0.25238709  0.25270179  0.56618358
   0.75499851  0.50173349  0.56394039
   0.16526820  0.91966463  0.47207547
   0.49822977  0.25243856  0.56053040
   0.08333333  0.08333333  0.38179910
   0.58333333  0.58333333  0.38179910
   0.83333333  0.33333333  0.38179910
   0.75142821 -0.00654172  0.56455140
   0.67008961  0.16555818  0.47019890
   0.83333333  0.08333333  0.38179910
   0.49888356  0.75192759  0.56412818
   0.42013131  0.66716332  0.47014075
   0.58333333  0.83333333  0.38179910
   0.66749134  0.66482276  0.46849218
   0.83333333  0.58333333  0.38179910
Direct configuration=     7
   0.33333333  0.83333333  0.38179910
   0.24003673  0.49698175  0.56234298
   0.41522014  0.16586374  0.47282997
   0.73940917  0.25203369  0.56148199
   0.00554233 -0.00643098  0.56121898
   0.67068287  0.41743679  0.47126735
   0.41894861  0.41536821  0.47389706
   0.58333333  0.33333333  0.38179910
   0.00368379  0.23954363  0.55772699
   0.08333333  0.58333333  0.38179910
   0.91245975  0.66466033  0.47164568
   0.91118294  0.92125124  0.47086811
   0.50005150 -0.00141832  0.55810289
   0.16642039  0.66746761  0.47195866
   0.58333333  0.08333333  0.38179910
   0.76339189  0.74302306  0.56210679
   0.24719508  0.75384724  0.56189186
   0.16281837  0.16968141  0.46924914
   0.24833065 -0.00573187  0.56166677
   0.50191571  0.48952305  0.56211991
   0.33333333  0.33333333  0.38179910
   0.42118974  0.91213477  0.47094991
   0.33333333  0.58333333  0.38179910
   0.08333333  0.83333333  0.38179910
   0.08480972  0.35013332  0.60835886
   0.58773350  0.58811752  0.60837807
   0.83945843  0.07216243  0.61005667
   0.59284151  0.81916986  0.61084607
   0.32129392  0.08922700  0.61157587
   0.32392363  0.58607890  0.61156846
   0.82849885  0.34249612  0.61110882
   0.58773935  0.09845582  0.60882672
   0.91637044  0.16718342  0.46886747
   0.66702160  0.91640804  0.47123108
   0.08333333  0.33333333  0.38179910
   0.91541039  0.41794013  0.46951139
  -0.00369988  0.50486248  0.56145630
   0.83333333  0.83333333  0.38179910
  -0.00099750  0.75003107  0.55769854
   0.33333333  0.08333333  0.38179910
   0.16497610  0.41510694  0.47274436
   0.25432069  0.25418316  0.56610179
   0.75853030  0.50434875  0.56350441
   0.16550826  0.91948910  0.47272855
   0.49628596  0.25361319  0.56125948
   0.08333333  0.08333333  0.38179910
   0.58333333  0.58333333  0.38179910
   0.83333333  0.33333333  0.38179910
   0.75427785 -0.01151108  0.56479548
   0.66938176  0.16601468  0.47149206
   0.83333333  0.08333333  0.38179910
   0.49467658  0.75257281  0.56367028
   0.41971368  0.66690660  0.47170821
   0.58333333  0.83333333  0.38179910
   0.66723383  0.66515246  0.46966453
   0.83333333  0.58333333  0.38179910
Direct configuration=     8
   0.33333333  0.83333333  0.38179910
   0.23964831  0.49715385  0.56244351
   0.41513696  0.16598229  0.47298157
   0.73942211  0.25164317  0.56152506
   0.00521191 -0.00641407  0.56133308
   0.67067802  0.41746217  0.47142513
   0.41883255  0.41539728  0.47400863
   0.58333333  0.33333333  0.38179910
   0.00383119  0.23919634  0.55757695
   0.08333333  0.58333333  0.38179910
   0.91255868  0.66468759  0.47169892
   0.91125134  0.92117812  0.47101049
   0.50008584 -0.00143385  0.55797543
   0.16644509  0.66743247  0.47210140
   0.58333333  0.08333333  0.38179910
   0.76351738  0.74298165  0.56228519
   0.24746469  0.75326194  0.56204179
   0.16296173  0.16960607  0.46942599
   0.24849651 -0.00565687  0.56178555
   0.50164671  0.48972458  0.56221403
   0.33333333  0.33333333  0.38179910
   0.42105845  0.91211741  0.47108323
   0.33333333  0.58333333  0.38179910
   0.08333333  0.83333333  0.38179910
   0.08458986  0.35082543  0.60846865
   0.58759569  0.58811425  0.60846074
   0.83982932  0.07189866  0.61009355
   0.59339021  0.81890470  0.61095263
   0.32112205  0.08893113  0.61174161
   0.32364396  0.58625342  0.61161892
   0.82855986  0.34241859  0.61124149
   0.58760202  0.09902346  0.60889125
   0.91628382  0.16713187  0.46900024
   0.66707618  0.91637238  0.47138942
   0.08333333  0.33333333  0.38179910
   0.91544853  0.41792803  0.46964705
  -0.00384941  0.50507354  0.56154852
   0.83333333  0.83333333  0.38179910
  -0.00079236  0.75007156  0.55779417
   0.33333333  0.08333333  0.38179910
   0.16500983  0.41512822  0.47290713
   0.25458820  0.25438810  0.56609047
   0.75901892  0.50471057  0.56344410
   0.16554147  0.91946481  0.47281890
   0.49601703  0.25377571  0.56136034
   0.08333333  0.08333333  0.38179910
   0.58333333  0.58333333  0.38179910
   0.83333333  0.33333333  0.38179910
   0.75467210 -0.01219860  0.56482925
   0.66928383  0.16607784  0.47167097
   0.83333333  0.08333333  0.38179910
   0.49409454  0.75266208  0.56360693
   0.41965590  0.66687108  0.47192506
   0.58333333  0.83333333  0.38179910
   0.66719821  0.66519807  0.46982673
   0.83333333  0.58333333  0.38179910
Direct configuration=     9
   0.33333333  0.83333333  0.38179910
   0.23775358  0.49875989  0.56307066
   0.41495677  0.16712996  0.47307992
   0.73988954  0.25102748  0.56220754
   0.00704654 -0.00839930  0.56160214
   0.67038037  0.41770623  0.47209205
   0.41800980  0.41553646  0.47404640
   0.58333333  0.33333333  0.38179910
   0.00374344  0.24077034  0.55738739
   0.08333333  0.58333333  0.38179910
   0.91313665  0.66487990  0.47168013
   0.91176878  0.92074882  0.47129360
   0.50094299 -0.00135653  0.55833334
   0.16664513  0.66738168  0.47240020
   0.58333333  0.08333333  0.38179910
   0.76215808  0.74402183  0.56356300
   0.24655570  0.75372880  0.56254803
   0.16375947  0.16916790  0.46988948
   0.24832614 -0.00561730  0.56262556
   0.50252253  0.49069428  0.56297357
   0.33333333  0.33333333  0.38179910
   0.42018019  0.91145170  0.47106941
   0.33333333  0.58333333  0.38179910
   0.08333333  0.83333333  0.38179910
   0.08491307  0.35272231  0.60921811
   0.58733067  0.58760311  0.60846186
   0.84049170  0.07052415  0.61113271
   0.59537616  0.81764154  0.61113597
   0.32063523  0.08805805  0.61259224
   0.32233998  0.58627120  0.61316909
   0.82904318  0.34203573  0.61122635
   0.58720196  0.10081117  0.60925130
   0.91582514  0.16644328  0.46926349
   0.66754052  0.91614977  0.47192288
   0.08333333  0.33333333  0.38179910
   0.91606105  0.41787440  0.47022531
  -0.00377702  0.50529395  0.56187938
   0.83333333  0.83333333  0.38179910
   0.00076744  0.75017141  0.55860489
   0.33333333  0.08333333  0.38179910
   0.16491221  0.41537541  0.47351204
   0.25361259  0.25384015  0.56690420
   0.75954913  0.50447655  0.56388474
   0.16567990  0.91889201  0.47335822
   0.49575057  0.25364788  0.56209489
   0.08333333  0.08333333  0.38179910
   0.58333333  0.58333333  0.38179910
   0.83333333  0.33333333  0.38179910
   0.75439173 -0.01319406  0.56551650
   0.66830964  0.16610367  0.47245148
   0.83333333  0.08333333  0.38179910
   0.49428131  0.75208314  0.56406802
   0.41916975  0.66682861  0.47279196
   0.58333333  0.83333333  0.38179910
   0.66692438  0.66578782  0.47067405
   0.83333333  0.58333333  0.38179910
Direct configuration=    10
   0.33333333  0.83333333  0.38179910
   0.23625734  0.50002815  0.56356591
   0.41481448  0.16803626  0.47315758
   0.74025866  0.25054128  0.56274648
   0.00849532 -0.00996700  0.56181462
   0.67014531  0.41789895  0.47261871
   0.41736010  0.41564636  0.47407624
   0.58333333  0.33333333  0.38179910
   0.00367415  0.24201331  0.55723771
   0.08333333  0.58333333  0.38179910
   0.91359306  0.66503177  0.47166529
   0.91217739  0.92040981  0.47151717
   0.50161987 -0.00129547  0.55861598
   0.16680310  0.66734156  0.47263616
   0.58333333  0.08333333  0.38179910
   0.76108467  0.74484324  0.56457207
   0.24583788  0.75409747  0.56294780
   0.16438944  0.16882188  0.47025549
   0.24819160 -0.00558605  0.56328890
   0.50321415  0.49146004  0.56357338
   0.33333333  0.33333333  0.38179910
   0.41948665  0.91092601  0.47105849
   0.33333333  0.58333333  0.38179910
   0.08333333  0.83333333  0.38179910
   0.08516830  0.35422024  0.60980995
   0.58712140  0.58719948  0.60846275
   0.84101476  0.06943872  0.61195332
   0.59694443  0.81664403  0.61128076
   0.32025079  0.08736860  0.61326398
   0.32131025  0.58628525  0.61439323
   0.82942485  0.34173339  0.61121440
   0.58688604  0.10222291  0.60953562
   0.91546293  0.16589950  0.46947137
   0.66790720  0.91597397  0.47234415
   0.08333333  0.33333333  0.38179910
   0.91654475  0.41783206  0.47068195
  -0.00371986  0.50546800  0.56214065
   0.83333333  0.83333333  0.38179910
   0.00199919  0.75025025  0.55924510
   0.33333333  0.08333333  0.38179910
   0.16483511  0.41557062  0.47398973
   0.25284216  0.25340744  0.56754680
   0.75996783  0.50429175  0.56423271
   0.16578921  0.91843968  0.47378411
   0.49554016  0.25354694  0.56267495
   0.08333333  0.08333333  0.38179910
   0.58333333  0.58333333  0.38179910
   0.83333333  0.33333333  0.38179910
   0.75417033 -0.01398016  0.56605922
   0.66754033  0.16612407  0.47306784
   0.83333333  0.08333333  0.38179910
   0.49442879  0.75162596  0.56443215
   0.41878584  0.66679507  0.47347653
   0.58333333  0.83333333  0.38179910
   0.66670814  0.66625353  0.47134317
   0.83333333  0.58333333  0.38179910
Direct configuration=    11
   0.33333333  0.83333333  0.38179910
   0.23641161  0.50056291  0.56426022
   0.41488044  0.16823658  0.47317736
   0.74098256  0.24971861  0.56355553
   0.00846186 -0.00978819  0.56230138
   0.66998937  0.41798418  0.47301312
   0.41697084  0.41599402  0.47428268
   0.58333333  0.33333333  0.38179910
   0.00348895  0.24321860  0.55716492
   0.08333333  0.58333333  0.38179910
   0.91365778  0.66536603  0.47186892
   0.91230967  0.92020595  0.47165671
   0.50113100 -0.00082052  0.55902344
   0.16695759  0.66727379  0.47274887
   0.58333333  0.08333333  0.38179910
   0.76255320  0.74422356  0.56518477
   0.24631762  0.75350678  0.56362975
   0.16486529  0.16840933  0.47040951
   0.24815635 -0.00574708  0.56402620
   0.50279730  0.49129215  0.56414433
   0.33333333  0.33333333  0.38179910
   0.41912207  0.91081273  0.47104564
   0.33333333  0.58333333  0.38179910
   0.08333333  0.83333333  0.38179910
   0.08564653  0.35546684  0.61072239
   0.58750728  0.58664988  0.60876386
   0.84181885  0.06793776  0.61261927
   0.59694105  0.81622154  0.61188820
   0.32018196  0.08686035  0.61401835
   0.32027003  0.58623459  0.61562113
   0.83001891  0.34114581  0.61119877
   0.58702436  0.10281761  0.61020191
   0.91516282  0.16547422  0.46955685
   0.66795790  0.91590408  0.47263719
   0.08333333  0.33333333  0.38179910
   0.91681953  0.41792732  0.47095706
  -0.00409731  0.50618789  0.56235126
   0.83333333  0.83333333  0.38179910
   0.00182086  0.75045487  0.55991415
   0.33333333  0.08333333  0.38179910
   0.16466701  0.41577901  0.47439321
   0.25216683  0.25271112  0.56840771
   0.75999439  0.50388068  0.56470293
   0.16585667  0.91810444  0.47412959
   0.49468273  0.25501489  0.56305453
   0.08333333  0.08333333  0.38179910
   0.58333333  0.58333333  0.38179910
   0.83333333  0.33333333  0.38179910
   0.75415834 -0.01364762  0.56691444
   0.66696666  0.16601120  0.47366015
   0.83333333  0.08333333  0.38179910
   0.49470328  0.75193248  0.56492285
   0.41850646  0.66658180  0.47400167
   0.58333333  0.83333333  0.38179910
   0.66673693  0.66658384  0.47193377
   0.83333333  0.58333333  0.38179910
Direct configuration=    12
   0.33333333  0.83333333  0.38179910
   0.23681636  0.50196600  0.56608194
   0.41505351  0.16876217  0.47322925
   0.74288192  0.24756008  0.56567829
   0.00837408 -0.00931902  0.56357855
   0.66958022  0.41820780  0.47404797
   0.41594950  0.41690619  0.47482435
   0.58333333  0.33333333  0.38179910
   0.00300300  0.24638102  0.55697394
   0.08333333  0.58333333  0.38179910
   0.91382760  0.66624308  0.47240318
   0.91265675  0.91967109  0.47202284
   0.49984831  0.00042564  0.56009253
   0.16736291  0.66709597  0.47304460
   0.58333333  0.08333333  0.38179910
   0.76640631  0.74259766  0.56679237
   0.24757635  0.75195694  0.56541903
   0.16611381  0.16732688  0.47081362
   0.24806388 -0.00616958  0.56596072
   0.50170357  0.49085164  0.56564238
   0.33333333  0.33333333  0.38179910
   0.41816549  0.91051553  0.47101192
   0.33333333  0.58333333  0.38179910
   0.08333333  0.83333333  0.38179910
   0.08690131  0.35873764  0.61311642
   0.58851975  0.58520786  0.60955394
   0.84392861  0.06399954  0.61436660
   0.59693219  0.81511300  0.61348201
   0.32000137  0.08552680  0.61599766
   0.31754073  0.58610168  0.61884289
   0.83157760  0.33960413  0.61115776
   0.58738728  0.10437800  0.61195010
   0.91437539  0.16435835  0.46978114
   0.66809093  0.91572070  0.47340608
   0.08333333  0.33333333  0.38179910
   0.91754048  0.41817726  0.47167887
  -0.00508768  0.50807673  0.56290384
   0.83333333  0.83333333  0.38179910
   0.00135296  0.75099174  0.56166958
   0.33333333  0.08333333  0.38179910
   0.16422594  0.41632580  0.47545186
   0.25039491  0.25088413  0.57066657
   0.76006409  0.50280211  0.56593668
   0.16603368  0.91722486  0.47503604
   0.49243303  0.25886647  0.56405048
   0.08333333  0.08333333  0.38179910
   0.58333333  0.58333333  0.38179910
   0.83333333  0.33333333  0.38179910
   0.75412690 -0.01277509  0.56915836
   0.66546147  0.16571506  0.47521422
   0.83333333  0.08333333  0.38179910
   0.49542347  0.75273672  0.56621034
   0.41777341  0.66602224  0.47537952
   0.58333333  0.83333333  0.38179910
   0.66681246  0.66745051  0.47348336
   0.83333333  0.58333333  0.38179910
Direct configuration=    13
   0.33333333  0.83333333  0.38179910
   0.23787465  0.50060822  0.56692674
   0.41522257  0.16774842  0.47346869
   0.74239770  0.24710173  0.56651151
   0.00781067 -0.00767755  0.56412760
   0.66989562  0.41780969  0.47429221
   0.41613481  0.41722120  0.47523841
   0.58333333  0.33333333  0.38179910
   0.00373828  0.24588118  0.55671443
   0.08333333  0.58333333  0.38179910
   0.91351767  0.66664599  0.47280338
   0.91224109  0.91981112  0.47228455
   0.49917560  0.00102592  0.56073077
   0.16698930  0.66720701  0.47336515
   0.58333333  0.08333333  0.38179910
   0.76637236  0.74298339  0.56754897
   0.24881362  0.75091463  0.56654880
   0.16584142  0.16712852  0.47072760
   0.24760881 -0.00688402  0.56664966
   0.50067533  0.49003737  0.56643884
   0.33333333  0.33333333  0.38179910
   0.41871683  0.91102936  0.47127656
   0.33333333  0.58333333  0.38179910
   0.08333333  0.83333333  0.38179910
   0.08644553  0.36163999  0.61420711
   0.58890168  0.58504463  0.61028402
   0.84544429  0.06231676  0.61550151
   0.59641734  0.81533120  0.61422596
   0.32053476  0.08498727  0.61722088
   0.31664415  0.58610053  0.62007014
   0.83292702  0.33821807  0.61187274
   0.58642301  0.10578066  0.61260076
   0.91422552  0.16463586  0.46976578
   0.66726056  0.91602666  0.47373053
   0.08333333  0.33333333  0.38179910
   0.91703702  0.41849339  0.47145319
  -0.00283409  0.50600666  0.56363881
   0.83333333  0.83333333  0.38179910
   0.00034730  0.75172636  0.56215420
   0.33333333  0.08333333  0.38179910
   0.16447352  0.41625814  0.47593615
   0.25013026  0.25177669  0.57167108
   0.75947900  0.50336860  0.56624059
   0.16590873  0.91728831  0.47554940
   0.49204969  0.25867075  0.56472400
   0.08333333  0.08333333  0.38179910
   0.58333333  0.58333333  0.38179910
   0.83333333  0.33333333  0.38179910
   0.75350218 -0.01189940  0.57011449
   0.66566531  0.16558052  0.47576876
   0.83333333  0.08333333  0.38179910
   0.49634869  0.75315554  0.56696488
   0.41808338  0.66585291  0.47569152
   0.58333333  0.83333333  0.38179910
   0.66702849  0.66728625  0.47393563
   0.83333333  0.58333333  0.38179910
Direct configuration=    14
   0.33333333  0.83333333  0.38179910
   0.23920337  0.49890347  0.56798741
   0.41543483  0.16647563  0.47376932
   0.74178974  0.24652625  0.56755764
   0.00710329 -0.00561664  0.56481696
   0.67029160  0.41730985  0.47459886
   0.41636746  0.41761671  0.47575828
   0.58333333  0.33333333  0.38179910
   0.00466146  0.24525361  0.55638860
   0.08333333  0.58333333  0.38179910
   0.91312855  0.66715186  0.47330585
   0.91171921  0.91998694  0.47261314
   0.49833100  0.00177958  0.56153211
   0.16652022  0.66734643  0.47376762
   0.58333333  0.08333333  0.38179910
   0.76632973  0.74346768  0.56849890
   0.25036706  0.74960599  0.56796726
   0.16549942  0.16687947  0.47061960
   0.24703745 -0.00778102  0.56751465
   0.49938435  0.48901502  0.56743883
   0.33333333  0.33333333  0.38179910
   0.41940906  0.91167448  0.47160883
   0.33333333  0.58333333  0.38179910
   0.08333333  0.83333333  0.38179910
   0.08587329  0.36528399  0.61557651
   0.58938120  0.58483970  0.61120066
   0.84734727  0.06020397  0.61692642
   0.59577093  0.81560516  0.61516001
   0.32120446  0.08430987  0.61875668
   0.31551846  0.58609907  0.62161100
   0.83462127  0.33647783  0.61277042
   0.58521234  0.10754174  0.61341769
   0.91403734  0.16498428  0.46974651
   0.66621801  0.91641081  0.47413788
   0.08333333  0.33333333  0.38179910
   0.91640492  0.41889031  0.47116983
  -0.00000465  0.50340763  0.56456158
   0.83333333  0.83333333  0.38179910
  -0.00091534  0.75264869  0.56276266
   0.33333333  0.08333333  0.38179910
   0.16478436  0.41617320  0.47654419
   0.24979798  0.25289734  0.57293227
   0.75874440  0.50407985  0.56662215
   0.16575184  0.91736798  0.47619394
   0.49156838  0.25842502  0.56556963