  48  48   0   0
  0.5349325E+02  0.1100258E-08  0.1100258E-08  0.2449179E-08  0.3500000E-15
  1.000000000000000E-004
  CAR 
 unknown system                          
      6.41546758     -9.84311831  301     -1.07531721      1.00000000
     -9.843  0.0000E+00  0.0000E+00
     -9.789  0.0000E+00  0.0000E+00
     -9.735  0.0000E+00  0.0000E+00
     -9.681  0.0000E+00  0.0000E+00
     -9.626  0.0000E+00  0.0000E+00
     -9.572  0.0000E+00  0.0000E+00
     -9.518  0.0000E+00  0.0000E+00
     -9.464  0.0000E+00  0.0000E+00
     -9.410  0.8194E-17  0.4441E-18
     -9.355  0.3209E-14  0.1744E-15
     -9.301  0.7151E-12  0.3893E-13
     -9.247  0.9028E-10  0.4931E-11
     -9.193  0.6474E-08  0.3558E-09
     -9.139  0.2646E-06  0.1470E-07
     -9.084  0.6182E-05  0.3497E-06
     -9.030  0.8281E-04  0.4838E-05
     -8.976  0.6380E-03  0.3941E-04
     -8.922  0.2834E-02  0.1930E-03
     -8.868  0.7287E-02  0.5879E-03
     -8.813  0.1100E-01  0.1184E-02
     -8.759  0.1051E-01  0.1753E-02
     -8.705  0.8740E-02  0.2227E-02
     -8.651  0.9430E-02  0.2738E-02
     -8.597  0.1003E-01  0.3281E-02
     -8.542  0.7691E-02  0.3698E-02
     -8.488  0.4083E-02  0.3920E-02
     -8.434  0.2034E-02  0.4030E-02
     -8.380  0.2393E-02  0.4160E-02
     -8.326  0.3823E-02  0.4367E-02
     -8.271  0.4861E-02  0.4630E-02
     -8.217  0.6343E-02  0.4974E-02
     -8.163  0.8873E-02  0.5455E-02
     -8.109  0.1102E-01  0.6052E-02
     -8.055  0.1309E-01  0.6761E-02
     -8.000  0.1590E-01  0.7623E-02
     -7.946  0.1754E-01  0.8574E-02
     -7.892  0.1658E-01  0.9472E-02
     -7.838  0.1485E-01  0.1028E-01
     -7.784  0.1358E-01  0.1101E-01
     -7.730  0.1221E-01  0.1167E-01
     -7.675  0.1245E-01  0.1235E-01
     -7.621  0.1598E-01  0.1322E-01
     -7.567  0.1990E-01  0.1429E-01
     -7.513  0.2053E-01  0.1541E-01
     -7.459  0.1900E-01  0.1644E-01
     -7.404  0.2027E-01  0.1753E-01
     -7.350  0.2527E-01  0.1890E-01
     -7.296  0.2815E-01  0.2043E-01
     -7.242  0.2706E-01  0.2190E-01
     -7.188  0.2808E-01  0.2342E-01
     -7.133  0.3523E-01  0.2533E-01
     -7.079  0.4588E-01  0.2781E-01
     -7.025  0.5631E-01  0.3087E-01
     -6.971  0.6413E-01  0.3434E-01
     -6.917  0.6724E-01  0.3798E-01
     -6.862  0.6804E-01  0.4167E-01
     -6.808  0.7051E-01  0.4549E-01
     -6.754  0.7363E-01  0.4948E-01
     -6.700  0.7661E-01  0.5364E-01
     -6.646  0.8194E-01  0.5808E-01
     -6.591  0.9121E-01  0.6302E-01
     -6.537  0.1017E+00  0.6853E-01
     -6.483  0.1106E+00  0.7453E-01
     -6.429  0.1195E+00  0.8101E-01
     -6.375  0.1285E+00  0.8797E-01
     -6.320  0.1350E+00  0.9529E-01
     -6.266  0.1378E+00  0.1028E+00
     -6.212  0.1378E+00  0.1102E+00
     -6.158  0.1378E+00  0.1177E+00
     -6.104  0.1394E+00  0.1252E+00
     -6.049  0.1416E+00  0.1329E+00
     -5.995  0.1452E+00  0.1408E+00
     -5.941  0.1511E+00  0.1490E+00
     -5.887  0.1554E+00  0.1574E+00
     -5.833  0.1533E+00  0.1657E+00
     -5.778  0.1462E+00  0.1736E+00
     -5.724  0.1393E+00  0.1812E+00
     -5.670  0.1335E+00  0.1884E+00
     -5.616  0.1268E+00  0.1953E+00
     -5.562  0.1209E+00  0.2018E+00
     -5.507  0.1221E+00  0.2085E+00
     -5.453  0.1338E+00  0.2157E+00
     -5.399  0.1510E+00  0.2239E+00
     -5.345  0.1641E+00  0.2328E+00
     -5.291  0.1680E+00  0.2419E+00
     -5.237  0.1668E+00  0.2509E+00
     -5.182  0.1666E+00  0.2600E+00
     -5.128  0.1666E+00  0.2690E+00
     -5.074  0.1655E+00  0.2780E+00
     -5.020  0.1647E+00  0.2869E+00
     -4.966  0.1651E+00  0.2958E+00
     -4.911  0.1649E+00  0.3048E+00
     -4.857  0.1626E+00  0.3136E+00
     -4.803  0.1614E+00  0.3223E+00
     -4.749  0.1648E+00  0.3313E+00
     -4.695  0.1713E+00  0.3405E+00
     -4.640  0.1768E+00  0.3501E+00
     -4.586  0.1779E+00  0.3598E+00
     -4.532  0.1761E+00  0.3693E+00
     -4.478  0.1776E+00  0.3789E+00
     -4.424  0.1832E+00  0.3889E+00
     -4.369  0.1878E+00  0.3990E+00
     -4.315  0.1893E+00  0.4093E+00
     -4.261  0.1889E+00  0.4195E+00
     -4.207  0.1880E+00  0.4297E+00
     -4.153  0.1877E+00  0.4399E+00
     -4.098  0.1863E+00  0.4500E+00
     -4.044  0.1820E+00  0.4599E+00
     -3.990  0.1785E+00  0.4695E+00
     -3.936  0.1799E+00  0.4793E+00
     -3.882  0.1856E+00  0.4893E+00
     -3.827  0.1907E+00  0.4997E+00
     -3.773  0.1913E+00  0.5100E+00
     -3.719  0.1900E+00  0.5203E+00
     -3.665  0.1900E+00  0.5306E+00
     -3.611  0.1903E+00  0.5409E+00
     -3.556  0.1905E+00  0.5513E+00
     -3.502  0.1918E+00  0.5617E+00
     -3.448  0.1918E+00  0.5721E+00
     -3.394  0.1885E+00  0.5823E+00
     -3.340  0.1846E+00  0.5923E+00
     -3.285  0.1830E+00  0.6022E+00
     -3.231  0.1839E+00  0.6122E+00
     -3.177  0.1846E+00  0.6222E+00
     -3.123  0.1817E+00  0.6320E+00
     -3.069  0.1774E+00  0.6416E+00
     -3.015  0.1758E+00  0.6512E+00
     -2.960  0.1779E+00  0.6608E+00
     -2.906  0.1818E+00  0.6707E+00
     -2.852  0.1851E+00  0.6807E+00
     -2.798  0.1870E+00  0.6908E+00
     -2.744  0.1879E+00  0.7010E+00
     -2.689  0.1885E+00  0.7112E+00
     -2.635  0.1897E+00  0.7215E+00
     -2.581  0.1916E+00  0.7319E+00
     -2.527  0.1883E+00  0.7421E+00
     -2.473  0.1771E+00  0.7517E+00
     -2.418  0.1684E+00  0.7608E+00
     -2.364  0.1706E+00  0.7701E+00
     -2.310  0.1776E+00  0.7797E+00
     -2.256  0.1817E+00  0.7895E+00
     -2.202  0.1826E+00  0.7994E+00
     -2.147  0.1834E+00  0.8094E+00
     -2.093  0.1843E+00  0.8194E+00
     -2.039  0.1844E+00  0.8294E+00
     -1.985  0.1845E+00  0.8394E+00
     -1.931  0.1872E+00  0.8495E+00
     -1.876  0.1939E+00  0.8600E+00
     -1.822  0.2009E+00  0.8709E+00
     -1.768  0.2064E+00  0.8821E+00
     -1.714  0.2134E+00  0.8937E+00
     -1.660  0.2199E+00  0.9056E+00
     -1.605  0.2206E+00  0.9175E+00
     -1.551  0.2152E+00  0.9292E+00
     -1.497  0.2071E+00  0.9404E+00
     -1.443  0.1981E+00  0.9511E+00
     -1.389  0.1888E+00  0.9614E+00
     -1.334  0.1804E+00  0.9712E+00
     -1.280  0.1718E+00  0.9805E+00
     -1.226  0.1599E+00  0.9891E+00
     -1.172  0.1430E+00  0.9969E+00
     -1.118  0.1233E+00  0.1004E+01
     -1.063  0.1022E+00  0.1009E+01
     -1.009  0.7887E-01  0.1013E+01
     -0.955  0.5504E-01  0.1016E+01
     -0.901  0.3631E-01  0.1018E+01
     -0.847  0.2614E-01  0.1020E+01
     -0.793  0.2108E-01  0.1021E+01
     -0.738  0.1747E-01  0.1022E+01
     -0.684  0.1606E-01  0.1023E+01
     -0.630  0.1827E-01  0.1024E+01
     -0.576  0.2512E-01  0.1025E+01
     -0.522  0.3534E-01  0.1027E+01
     -0.467  0.4371E-01  0.1029E+01
     -0.413  0.4540E-01  0.1032E+01
     -0.359  0.4074E-01  0.1034E+01
     -0.305  0.3530E-01  0.1036E+01
     -0.251  0.3579E-01  0.1038E+01
     -0.196  0.4013E-01  0.1040E+01
     -0.142  0.3889E-01  0.1042E+01
     -0.088  0.3149E-01  0.1044E+01
     -0.034  0.2532E-01  0.1045E+01
      0.020  0.2385E-01  0.1047E+01
      0.075  0.2575E-01  0.1048E+01
      0.129  0.2861E-01  0.1049E+01
      0.183  0.3230E-01  0.1051E+01
      0.237  0.3548E-01  0.1053E+01
      0.291  0.3470E-01  0.1055E+01
      0.346  0.3189E-01  0.1057E+01
      0.400  0.3250E-01  0.1059E+01
      0.454  0.3764E-01  0.1061E+01
      0.508  0.4346E-01  0.1063E+01
      0.562  0.4693E-01  0.1065E+01
      0.617  0.4880E-01  0.1068E+01
      0.671  0.4938E-01  0.1071E+01
      0.725  0.4604E-01  0.1073E+01
      0.779  0.3816E-01  0.1075E+01
      0.833  0.2936E-01  0.1077E+01
      0.888  0.2286E-01  0.1078E+01
      0.942  0.1994E-01  0.1079E+01
      0.996  0.2001E-01  0.1080E+01
      1.050  0.2088E-01  0.1081E+01
      1.104  0.2057E-01  0.1083E+01
      1.159  0.1854E-01  0.1084E+01
      1.213  0.1640E-01  0.1084E+01
      1.267  0.1641E-01  0.1085E+01
      1.321  0.1797E-01  0.1086E+01
      1.375  0.1949E-01  0.1087E+01
      1.430  0.2156E-01  0.1089E+01
      1.484  0.2478E-01  0.1090E+01
      1.538  0.2801E-01  0.1091E+01
      1.592  0.2888E-01  0.1093E+01
      1.646  0.2711E-01  0.1094E+01
      1.700  0.2734E-01  0.1096E+01
      1.755  0.3291E-01  0.1098E+01
      1.809  0.3937E-01  0.1100E+01
      1.863  0.3761E-01  0.1102E+01
      1.917  0.2576E-01  0.1103E+01
      1.971  0.1441E-01  0.1104E+01
      2.026  0.1288E-01  0.1105E+01
      2.080  0.1899E-01  0.1106E+01
      2.134  0.2668E-01  0.1107E+01
      2.188  0.3337E-01  0.1109E+01
      2.242  0.3891E-01  0.1111E+01
      2.297  0.4409E-01  0.1114E+01
      2.351  0.4770E-01  0.1116E+01
      2.405  0.4798E-01  0.1119E+01
      2.459  0.4650E-01  0.1121E+01
      2.513  0.4481E-01  0.1124E+01
      2.568  0.4355E-01  0.1126E+01
      2.622  0.4416E-01  0.1128E+01
      2.676  0.4693E-01  0.1131E+01
      2.730  0.4737E-01  0.1134E+01
      2.784  0.3970E-01  0.1136E+01
      2.839  0.2704E-01  0.1137E+01
      2.893  0.1776E-01  0.1138E+01
      2.947  0.1424E-01  0.1139E+01
      3.001  0.1220E-01  0.1140E+01
      3.055  0.9958E-02  0.1140E+01
      3.110  0.1083E-01  0.1141E+01
      3.164  0.1603E-01  0.1142E+01
      3.218  0.2229E-01  0.1143E+01
      3.272  0.2480E-01  0.1144E+01
      3.326  0.2199E-01  0.1145E+01
      3.381  0.1738E-01  0.1146E+01
      3.435  0.1467E-01  0.1147E+01
      3.489  0.1527E-01  0.1148E+01
      3.543  0.2013E-01  0.1149E+01
      3.597  0.2871E-01  0.1151E+01
      3.652  0.3715E-01  0.1153E+01
      3.706  0.4061E-01  0.1155E+01
      3.760  0.3944E-01  0.1157E+01
      3.814  0.3679E-01  0.1159E+01
      3.868  0.3205E-01  0.1161E+01
      3.922  0.2623E-01  0.1162E+01
      3.977  0.2443E-01  0.1163E+01
      4.031  0.2714E-01  0.1165E+01
      4.085  0.2788E-01  0.1166E+01
      4.139  0.2424E-01  0.1168E+01
      4.193  0.2162E-01  0.1169E+01
      4.248  0.2176E-01  0.1170E+01
      4.302  0.2052E-01  0.1171E+01
      4.356  0.1774E-01  0.1172E+01
      4.410  0.1797E-01  0.1173E+01
      4.464  0.2224E-01  0.1174E+01
      4.519  0.2970E-01  0.1176E+01
      4.573  0.4214E-01  0.1178E+01
      4.627  0.5636E-01  0.1181E+01
      4.681  0.6150E-01  0.1185E+01
      4.735  0.5509E-01  0.1187E+01
      4.790  0.4889E-01  0.1190E+01
      4.844  0.5072E-01  0.1193E+01
      4.898  0.5472E-01  0.1196E+01
      4.952  0.5591E-01  0.1199E+01
      5.006  0.5948E-01  0.1202E+01
      5.061  0.6716E-01  0.1206E+01
      5.115  0.7117E-01  0.1210E+01
      5.169  0.6808E-01  0.1213E+01
      5.223  0.6199E-01  0.1217E+01
      5.277  0.5289E-01  0.1220E+01
      5.332  0.3886E-01  0.1222E+01
      5.386  0.2382E-01  0.1223E+01
      5.440  0.1237E-01  0.1224E+01
      5.494  0.5318E-02  0.1224E+01
      5.548  0.1716E-02  0.1224E+01
      5.603  0.3709E-03  0.1224E+01
      5.657  0.4956E-04  0.1224E+01
      5.711  0.3916E-05  0.1224E+01
      5.765  0.1787E-06  0.1224E+01
      5.819  0.4654E-08  0.1224E+01
      5.874  0.6864E-10  0.1224E+01
      5.928  0.5710E-12  0.1224E+01
      5.982  0.2671E-14  0.1224E+01
      6.036  0.6829E-17  0.1224E+01
      6.090  0.0000E+00  0.1224E+01
      6.144  0.0000E+00  0.1224E+01
      6.199  0.0000E+00  0.1224E+01
      6.253  0.0000E+00  0.1224E+01
      6.307  0.0000E+00  0.1224E+01
      6.361  0.0000E+00  0.1224E+01
      6.415  0.0000E+00  0.1224E+01
