unknown system                          
           1
    11.002582    0.000000    0.000000
     5.501291    9.528515    0.000000
     0.000000    0.000000   24.491785
   Au   Pd
  24  24
Direct configuration=     1
   0.08333333  0.08333333  0.40830017
   0.66666667  0.66666667  0.50000000
   0.91666667  0.41666667  0.50000000
   0.83333333  0.58333333  0.40830017
   0.75000000  0.25000000  0.59169983
   0.91666667  0.66666667  0.50000000
   0.00000000  0.50000000  0.59169983
   0.08333333  0.83333333  0.40830017
   0.83333333  0.33333333  0.40830017
   0.75000000  0.00000000  0.59169983
   0.83333333  0.08333333  0.40830017
   0.50000000  0.25000000  0.59169983
   0.41666667  0.41666667  0.50000000
   0.16666667  0.41666667  0.50000000
   0.58333333  0.83333333  0.40830017
   0.16666667  0.66666667  0.50000000
   0.50000000  0.50000000  0.59169983
   0.33333333  0.83333333  0.40830017
   0.41666667  0.66666667  0.50000000
   0.58333333  0.58333333  0.40830017
   0.58333333  0.08333333  0.40830017
   0.41666667  0.16666667  0.50000000
   0.50000000  0.00000000  0.59169983
   0.50000000  0.75000000  0.59169983
   0.00000000  0.75000000  0.59169983
   0.33333333  0.08333333  0.40830017
   0.16666667  0.16666667  0.50000000
   0.25000000  0.00000000  0.59169983
   0.16666667  0.91666667  0.50000000
   0.25000000  0.25000000  0.59169983
   0.33333333  0.58333333  0.40830017
   0.25000000  0.50000000  0.59169983
   0.91666667  0.91666667  0.50000000
   0.33333333  0.33333333  0.40830017
   0.08333333  0.58333333  0.40830017
   0.66666667  0.91666667  0.50000000
   0.08333333  0.33333333  0.40830017
   0.00000000  0.00000000  0.59169983
   0.91666667  0.16666667  0.50000000
   0.25000000  0.75000000  0.59169983
   0.66666667  0.16666667  0.50000000
   0.83333333  0.83333333  0.40830017
   0.75000000  0.50000000  0.59169983
   0.41666667  0.91666667  0.50000000
   0.66666667  0.41666667  0.50000000
   0.58333333  0.33333333  0.40830017
   0.00000000  0.25000000  0.59169983
   0.75000000  0.75000000  0.59169983
Direct configuration=     2
   0.08333333  0.08333333  0.40830017
   0.66663845  0.66724653  0.50077756
   0.91720533  0.41407985  0.50041506
   0.83333333  0.58333333  0.40830017
   0.75160258  0.24989433  0.59326816
   0.91591102  0.66943216  0.50000880
   0.00007327  0.49992797  0.59415044
   0.08333333  0.83333333  0.40830017
   0.83333333  0.33333333  0.40830017
   0.75160071 -0.00145476  0.59326219
   0.83333333  0.08333333  0.40830017
   0.49908548  0.25045113  0.59397819
   0.41754638  0.41617994  0.49923404
   0.16741947  0.41536216  0.49961939
   0.58333333  0.83333333  0.40830017
   0.16601859  0.66782013  0.50032662
   0.49987187  0.50039005  0.59395836
   0.33333333  0.83333333  0.40830017
   0.41536482  0.66751510  0.50005596
   0.58333333  0.58333333  0.40830017
   0.58333333  0.08333333  0.40830017
   0.41584259  0.16581205  0.49958943
   0.49953446 -0.00050601  0.59355977
   0.49974148  0.75059976  0.59378768
   0.00033289  0.75049262  0.59283831
   0.33333333  0.08333333  0.40830017
   0.16684110  0.16559669  0.50026961
   0.24857913  0.00088924  0.59237906
   0.16604965  0.91805691  0.50081317
   0.24940532  0.24976667  0.59293249
   0.33333333  0.58333333  0.40830017
   0.24955091  0.50045990  0.59318376
   0.91634102  0.91733777  0.50037233
   0.33333333  0.33333333  0.40830017
   0.08333333  0.58333333  0.40830017
   0.66746903  0.91647011  0.50000180
   0.08333333  0.33333333  0.40830017
   0.00089518 -0.00036902  0.59231798
   0.91714328  0.16590477  0.50054742
   0.24866024  0.75091773  0.59282754
   0.66783839  0.16646116  0.49965811
   0.83333333  0.83333333  0.40830017
   0.75038320  0.49960313  0.59292612
   0.41521305  0.91809362  0.50009181
   0.66730610  0.41538227  0.50002208
   0.58333333  0.33333333  0.40830017
   0.00075787  0.24901339  0.59257081
   0.75032485  0.74996781  0.59290512
Direct configuration=     3
   0.08333333  0.08333333  0.40830017
   0.66655760  0.66890791  0.50300536
   0.91874866  0.40666836  0.50160423
   0.83333333  0.58333333  0.40830017
   0.75619412  0.24959157  0.59776160
   0.91374603  0.67735557  0.50003401
   0.00028318  0.49972159  0.60117168
   0.08333333  0.83333333  0.40830017
   0.83333333  0.33333333  0.40830017
   0.75618689 -0.00562279  0.59773851
   0.83333333  0.08333333  0.40830017
   0.49646529  0.25174367  0.60050591
   0.42006684  0.41478543  0.49703950
   0.16957633  0.41162463  0.49852890
   0.58333333  0.83333333  0.40830017
   0.16416178  0.67112491  0.50126241
   0.49950475  0.50150757  0.60042928
   0.33333333  0.83333333  0.40830017
   0.41163490  0.66994594  0.50021628
   0.58333333  0.58333333  0.40830017
   0.58333333  0.08333333  0.40830017
   0.41348152  0.16336348  0.49841310
   0.49820064 -0.00195577  0.59888868
   0.49900078  0.75231815  0.59976957
   0.00128664  0.75190402  0.59610016
   0.33333333  0.08333333  0.40830017
   0.16734085  0.16253109  0.50104207
   0.24450820  0.00343700  0.59432513
   0.16428182  0.92204011  0.50314298
   0.24770150  0.24909816  0.59646420
   0.33333333  0.58333333  0.40830017
   0.24826423  0.50177754  0.59743536
   0.91540801  0.91926055  0.50143909
   0.33333333  0.33333333  0.40830017
   0.08333333  0.58333333  0.40830017
   0.66976789  0.91590694  0.50000698
   0.08333333  0.33333333  0.40830017
   0.00345996 -0.00142630  0.59408905
   0.91850883  0.16372186  0.50211584
   0.24482168  0.75354713  0.59605856
   0.67119551  0.16587237  0.49867857
   0.83333333  0.83333333  0.40830017
   0.75148110  0.49846607  0.59643957
   0.41104829  0.92218199  0.50035484
   0.66913816  0.41170233  0.50008534
   0.58333333  0.33333333  0.40830017
   0.00292924  0.24618664  0.59506625
   0.75125557  0.74987558  0.59635838
Direct configuration=     4
   0.08333333  0.08333333  0.40830017
   0.66607327  0.66856296  0.50481985
   0.91945582  0.40774938  0.50324690
   0.83333333  0.58333333  0.40830017
   0.75604985  0.24912851  0.59986811
   0.91516152  0.67499022  0.50153762
   0.00041524  0.49991135  0.60368971
   0.08333333  0.83333333  0.40830017
   0.83333333  0.33333333  0.40830017
   0.75560421 -0.00474822  0.59976377
   0.83333333  0.08333333  0.40830017
   0.49653497  0.25145466  0.60272911
   0.42076338  0.41395032  0.49881321
   0.16762532  0.41312914  0.50012319
   0.58333333  0.83333333  0.40830017
   0.16433281  0.67046757  0.50258981
   0.49902788  0.50187153  0.60286681
   0.33333333  0.83333333  0.40830017
   0.41225140  0.66998461  0.50218273
   0.58333333  0.58333333  0.40830017
   0.58333333  0.08333333  0.40830017
   0.41523527  0.16261591  0.50024211
   0.49808447 -0.00124875  0.60102998
   0.49809472  0.75230990  0.60230836
   0.00208202  0.75105507  0.59785933
   0.33333333  0.08333333  0.40830017
   0.16690971  0.16243088  0.50180370
   0.24435056  0.00366181  0.59586359
   0.16395531  0.92232369  0.50397539
   0.24741898  0.24933206  0.59790523
   0.33333333  0.58333333  0.40830017
   0.24804460  0.50191159  0.59879817
   0.91495412  0.92129361  0.50246053
   0.33333333  0.33333333  0.40830017
   0.08333333  0.58333333  0.40830017
   0.66799846  0.91822193  0.50141947
   0.08333333  0.33333333  0.40830017
   0.00356859 -0.00163320  0.59562649
   0.91838219  0.16243487  0.50312180
   0.24493379  0.75353812  0.59779666
   0.67092026  0.16557951  0.50036287
   0.83333333  0.83333333  0.40830017
   0.75185264  0.49854428  0.59802453
   0.41157797  0.92121800  0.50170464
   0.66833765  0.41208453  0.50161791
   0.58333333  0.33333333  0.40830017
   0.00380945  0.24606827  0.59679236
   0.75205055  0.74927552  0.59811371
Direct configuration=     5
   0.08333333  0.08333333  0.40830017
   0.66491766  0.66773993  0.50914922
   0.92114309  0.41032868  0.50716628
   0.83333333  0.58333333  0.40830017
   0.75570563  0.24802367  0.60489423
   0.91853885  0.66934651  0.50512523
   0.00073035  0.50036412  0.60969770
   0.08333333  0.83333333  0.40830017
   0.83333333  0.33333333  0.40830017
   0.75421396 -0.00266151  0.60459603
   0.83333333  0.08333333  0.40830017
   0.49670122  0.25076509  0.60803365
   0.42242531  0.41195777  0.50304526
   0.16297023  0.41671888  0.50392713
   0.58333333  0.83333333  0.40830017
   0.16474090  0.66889916  0.50575697
   0.49789006  0.50273994  0.60868274
   0.33333333  0.83333333  0.40830017
   0.41372238  0.67007686  0.50687465
   0.58333333  0.58333333  0.40830017
   0.58333333  0.08333333  0.40830017
   0.41941972  0.16083221  0.50460609
   0.49780729  0.00043820  0.60613911
   0.49593289  0.75229021  0.60836587
   0.00397979  0.74902947  0.60205668
   0.33333333  0.08333333  0.40830017
   0.16588100  0.16219176  0.50362095
   0.24397443  0.00419820  0.59953435
   0.16317625  0.92300031  0.50596151
   0.24674488  0.24989014  0.60134351
   0.33333333  0.58333333  0.40830017
   0.24752056  0.50223144  0.60204981
   0.91387114  0.92614445  0.50489767
   0.33333333  0.33333333  0.40830017
   0.08333333  0.58333333  0.40830017
   0.66377661  0.92374547  0.50478967
   0.08333333  0.33333333  0.40830017
   0.00382780 -0.00212685  0.59929480
   0.91808004  0.15936410  0.50552199
   0.24520126  0.75351661  0.60194375
   0.67026352  0.16488073  0.50438161
   0.83333333  0.83333333  0.40830017
   0.75273912  0.49873088  0.60180624
   0.41284176  0.91891792  0.50492525
   0.66642765  0.41299645  0.50527461
   0.58333333  0.33333333  0.40830017
   0.00590963  0.24578584  0.60091084
   0.75394737  0.74784379  0.60230191
Direct configuration=     6
   0.08333333  0.08333333  0.40830017
   0.66468834  0.66757662  0.51000832
   0.92147791  0.41084051  0.50794403
   0.83333333  0.58333333  0.40830017
   0.75563732  0.24780443  0.60589160
   0.91920904  0.66822659  0.50583714
   0.00079287  0.50045396  0.61088991
   0.08333333  0.83333333  0.40830017
   0.83333333  0.33333333  0.40830017
   0.75393809 -0.00224743  0.60555492
   0.83333333  0.08333333  0.40830017
   0.49673421  0.25062826  0.60908626
   0.42275510  0.41156238  0.50388505
   0.16204649  0.41743122  0.50468197
   0.58333333  0.83333333  0.40830017
   0.16482188  0.66858792  0.50638545
   0.49766427  0.50291226  0.60983683
   0.33333333  0.83333333  0.40830017
   0.41401428  0.67009516  0.50780570
   0.58333333  0.58333333  0.40830017
   0.58333333  0.08333333  0.40830017
   0.42025007  0.16047826  0.50547206
   0.49775229  0.00077295  0.60715295
   0.49550390  0.75228630  0.60956790
   0.00435638  0.74862752  0.60288959
   0.33333333  0.08333333  0.40830017
   0.16567687  0.16214431  0.50398156
   0.24389979  0.00430464  0.60026277
   0.16302165  0.92313458  0.50635563
   0.24661111  0.25000089  0.60202579
   0.33333333  0.58333333  0.40830017
   0.24741658  0.50229491  0.60269505
   0.91365624  0.92710704  0.50538129
   0.33333333  0.33333333  0.40830017
   0.08333333  0.58333333  0.40830017
   0.66293884  0.92484154  0.50545844
   0.08333333  0.33333333  0.40830017
   0.00387923 -0.00222481  0.60002273
   0.91802008  0.15875475  0.50599828
   0.24525433  0.75351234  0.60276669
   0.67013320  0.16474207  0.50517907
   0.83333333  0.83333333  0.40830017
   0.75291503  0.49876791  0.60255667
   0.41309254  0.91846151  0.50556434
   0.66604864  0.41317741  0.50600023
   0.58333333  0.33333333  0.40830017
   0.00632638  0.24572979  0.60172810
   0.75432376  0.74755968  0.60313301
Direct configuration=     7
   0.08333333  0.08333333  0.40830017
   0.66540091  0.66831364  0.51121908
   0.91809325  0.41169503  0.50933627
   0.83333333  0.58333333  0.40830017
   0.75442407  0.24897595  0.60774229
   0.91463956  0.67167041  0.50744761
   0.00114853  0.50007398  0.61322401
   0.08333333  0.83333333  0.40830017
   0.83333333  0.33333333  0.40830017
   0.75358320 -0.00262398  0.60741775
   0.83333333  0.08333333  0.40830017
   0.49699459  0.25163609  0.61098647
   0.42010034  0.41260329  0.50604959
   0.16699713  0.41429858  0.50633842
   0.58333333  0.83333333  0.40830017
   0.16637964  0.66896793  0.50735747
   0.49828804  0.50140816  0.61189163
   0.33333333  0.83333333  0.40830017
   0.41424749  0.66863483  0.50960130
   0.58333333  0.58333333  0.40830017
   0.58333333  0.08333333  0.40830017
   0.41600603  0.16490361  0.50742433
   0.49845822 -0.00045270  0.60911231
   0.49598939  0.75298937  0.61201406
   0.00303456  0.74943380  0.60452320
   0.33333333  0.08333333  0.40830017
   0.16672496  0.16352320  0.50492730
   0.24607005  0.00299676  0.60206019
   0.16526318  0.91963081  0.50701937
   0.24743824  0.25059391  0.60322046
   0.33333333  0.58333333  0.40830017
   0.24890431  0.50087222  0.60398045
   0.91406889  0.92147840  0.50677683
   0.33333333  0.33333333  0.40830017
   0.08333333  0.58333333  0.40830017
   0.66646199  0.91961727  0.50745734
   0.08333333  0.33333333  0.40830017
   0.00293189 -0.00213418  0.60232271
   0.91591959  0.16485339  0.50730259
   0.24601877  0.75302133  0.60462191
   0.66875172  0.16630273  0.50735332
   0.83333333  0.83333333  0.40830017
   0.75262811  0.49818902  0.60456652
   0.41448478  0.91744493  0.50737992
   0.66740248  0.41368476  0.50797524
   0.58333333  0.33333333  0.40830017
   0.00447150  0.24703773  0.60355994
   0.75344033  0.74883850  0.60480024
Direct configuration=     8
   0.08333333  0.08333333  0.40830017
   0.66545839  0.66837309  0.51131675
   0.91782022  0.41176396  0.50944858
   0.83333333  0.58333333  0.40830017
   0.75432621  0.24907045  0.60789158
   0.91427095  0.67194821  0.50757752
   0.00117722  0.50004333  0.61341230
   0.08333333  0.83333333  0.40830017
   0.83333333  0.33333333  0.40830017
   0.75355457 -0.00265436  0.60756802
   0.83333333  0.08333333  0.40830017
   0.49701559  0.25171739  0.61113975
   0.41988619  0.41268725  0.50622419
   0.16739648  0.41404588  0.50647204
   0.58333333  0.83333333  0.40830017
   0.16650530  0.66899859  0.50743588
   0.49833836  0.50128682  0.61205739
   0.33333333  0.83333333  0.40830017
   0.41426631  0.66851703  0.50974615
   0.58333333  0.58333333  0.40830017
   0.58333333  0.08333333  0.40830017
   0.41566368  0.16526058  0.50758181
   0.49851516 -0.00055156  0.60927037
   0.49602855  0.75304608  0.61221139
   0.00292794  0.74949884  0.60465498
   0.33333333  0.08333333  0.40830017
   0.16680950  0.16363443  0.50500359
   0.24624511  0.00289126  0.60220518
   0.16544399  0.91934817  0.50707291
   0.24750496  0.25064175  0.60331683
   0.33333333  0.58333333  0.40830017
   0.24902432  0.50075746  0.60408414
   0.91410218  0.92102435  0.50688941
   0.33333333  0.33333333  0.40830017
   0.08333333  0.58333333  0.40830017
   0.66674619  0.91919584  0.50761859
   0.08333333  0.33333333  0.40830017
   0.00285547 -0.00212687  0.60250824
   0.91575015  0.16534534  0.50740780
   0.24608043  0.75298172  0.60477157
   0.66864029  0.16642862  0.50752870
   0.83333333  0.83333333  0.40830017
   0.75260496  0.49814232  0.60472865
   0.41459709  0.91736293  0.50752637
   0.66751169  0.41372568  0.50813455
   0.58333333  0.33333333  0.40830017
   0.00432188  0.24714324  0.60370771
   0.75336906  0.74894166  0.60493473
Direct configuration=     9
   0.08333333  0.08333333  0.40830017
   0.66485973  0.66864387  0.51120853
   0.91769950  0.41280252  0.50946889
   0.83333333  0.58333333  0.40830017
   0.75399644  0.24932772  0.60835986
   0.91488706  0.67125277  0.50774975
   0.00116237  0.49996050  0.61383805
   0.08333333  0.83333333  0.40830017
   0.83333333  0.33333333  0.40830017
   0.75340836 -0.00268460  0.60800272
   0.83333333  0.08333333  0.40830017
   0.49769523  0.25134113  0.61162594
   0.41971861  0.41427470  0.50642288
   0.16618262  0.41516837  0.50648694
   0.58333333  0.83333333  0.40830017
   0.16557922  0.66895290  0.50740735
   0.49888994  0.50121591  0.61246894
   0.33333333  0.83333333  0.40830017
   0.41586442  0.66688061  0.50993026
   0.58333333  0.58333333  0.40830017
   0.58333333  0.08333333  0.40830017
   0.41618557  0.16395192  0.50767351
   0.49896874 -0.00079118  0.60962986
   0.49749629  0.75223622  0.61281597
   0.00223350  0.74989281  0.60502320
   0.33333333  0.08333333  0.40830017
   0.16684525  0.16354482  0.50546333
   0.24661684  0.00265455  0.60262083
   0.16524969  0.91951715  0.50745753
   0.24806539  0.25034624  0.60393620
   0.33333333  0.58333333  0.40830017
   0.24929021  0.50069907  0.60464397
   0.91467781  0.91936898  0.50742552
   0.33333333  0.33333333  0.40830017
   0.08333333  0.58333333  0.40830017
   0.66658873  0.91848676  0.50810736
   0.08333333  0.33333333  0.40830017
   0.00251202 -0.00158660  0.60299299
   0.91584430  0.16606163  0.50798089
   0.24641346  0.75263743  0.60545928
   0.66839839  0.16639614  0.50806780
   0.83333333  0.83333333  0.40830017
   0.75176369  0.49864502  0.60576074
   0.41511398  0.91793859  0.50806120
   0.66678395  0.41464509  0.50861024
   0.58333333  0.33333333  0.40830017
   0.00343406  0.24735070  0.60426220
   0.75246954  0.74938940  0.60578692
Direct configuration=    10
   0.08333333  0.08333333  0.40830017
   0.66470174  0.66871533  0.51117997
   0.91766764  0.41307659  0.50947425
   0.83333333  0.58333333  0.40830017
   0.75390941  0.24939561  0.60848344
   0.91504965  0.67106925  0.50779520
   0.00115845  0.49993864  0.61395041
   0.08333333  0.83333333  0.40830017
   0.83333333  0.33333333  0.40830017
   0.75336978 -0.00269258  0.60811743
   0.83333333  0.08333333  0.40830017
   0.49787458  0.25124184  0.61175424
   0.41967439  0.41469363  0.50647531
   0.16586229  0.41546459  0.50649087
   0.58333333  0.83333333  0.40830017
   0.16533483  0.66894084  0.50739982
   0.49903550  0.50119720  0.61257755
   0.33333333  0.83333333  0.40830017
   0.41628616  0.66644876  0.50997885
   0.58333333  0.58333333  0.40830017
   0.58333333  0.08333333  0.40830017
   0.41632329  0.16360657  0.50769772
   0.49908844 -0.00085441  0.60972473
   0.49788362  0.75202250  0.61297552
   0.00205024  0.74999678  0.60512037
   0.33333333  0.08333333  0.40830017
   0.16685468  0.16352117  0.50558465
   0.24671494  0.00259208  0.60273051
   0.16519841  0.91956175  0.50755903
   0.24821329  0.25026825  0.60409964
   0.33333333  0.58333333  0.40830017
   0.24936038  0.50068367  0.60479170
   0.91482971  0.91893213  0.50756700
   0.33333333  0.33333333  0.40830017
   0.08333333  0.58333333  0.40830017
   0.66654718  0.91829964  0.50823634
   0.08333333  0.33333333  0.40830017
   0.00242138 -0.00144403  0.60312091
   0.91586915  0.16625065  0.50813213
   0.24650135  0.75254658  0.60564077
   0.66833455  0.16638757  0.50821006
   0.83333333  0.83333333  0.40830017
   0.75154168  0.49877768  0.60603310
   0.41525039  0.91809051  0.50820234
   0.66659190  0.41488772  0.50873577
   0.58333333  0.33333333  0.40830017
   0.00319977  0.24740545  0.60440853
   0.75223216  0.74950756  0.60601181
Direct configuration=    11
   0.08333333  0.08333333  0.40830017
   0.66483238  0.66862059  0.51116009
   0.91757625  0.41358414  0.50952008
   0.83333333  0.58333333  0.40830017
   0.75385413  0.24935789  0.60873119
   0.91507871  0.67035224  0.50785260
   0.00092856  0.49991328  0.61401519
   0.08333333  0.83333333  0.40830017
   0.83333333  0.33333333  0.40830017
   0.75346773 -0.00262762  0.60832238
   0.83333333  0.08333333  0.40830017
   0.49813594  0.25097154  0.61191607
   0.41951224  0.41442916  0.50633710
   0.16577140  0.41544422  0.50638522
   0.58333333  0.83333333  0.40830017
   0.16541514  0.66905815  0.50742613
   0.49906658  0.50141049  0.61285070
   0.33333333  0.83333333  0.40830017
   0.41576976  0.66731494  0.50997039
   0.58333333  0.58333333  0.40830017
   0.58333333  0.08333333  0.40830017
   0.41667714  0.16381476  0.50749874
   0.49906481 -0.00063279  0.60988412
   0.49855311  0.75148708  0.61323160
   0.00194125  0.74995851  0.60528807
   0.33333333  0.08333333  0.40830017
   0.16651665  0.16358852  0.50594809
   0.24671582  0.00243751  0.60290580
   0.16527164  0.91962762  0.50790795
   0.24843138  0.25005772  0.60442578
   0.33333333  0.58333333  0.40830017
   0.24935409  0.50081512  0.60507652
   0.91464255  0.91963430  0.50783782
   0.33333333  0.33333333  0.40830017
   0.08333333  0.58333333  0.40830017
   0.66645670  0.91839664  0.50836587
   0.08333333  0.33333333  0.40830017
   0.00254297 -0.00128440  0.60324472
   0.91597695  0.16564711  0.50843097
   0.24666160  0.75243321  0.60585942
   0.66856996  0.16601349  0.50833661
   0.83333333  0.83333333  0.40830017
   0.75145598  0.49920496  0.60660250
   0.41491273  0.91794341  0.50841812
   0.66695480  0.41469686  0.50890614
   0.58333333  0.33333333  0.40830017
   0.00295351  0.24765563  0.60465153
   0.75212408  0.74916662  0.60651123
Direct configuration=    12
   0.08333333  0.08333333  0.40830017
   0.66488304  0.66858384  0.51115238
   0.91754080  0.41378098  0.50953786
   0.83333333  0.58333333  0.40830017
   0.75383269  0.24934326  0.60882727
   0.91508997  0.67007417  0.50787486
   0.00083940  0.49990345  0.61404031
   0.08333333  0.83333333  0.40830017
   0.83333333  0.33333333  0.40830017
   0.75350572 -0.00260243  0.60840186
   0.83333333  0.08333333  0.40830017
   0.49823730  0.25086672  0.61197883
   0.41944936  0.41432660  0.50628350
   0.16573615  0.41543632  0.50634424
   0.58333333  0.83333333  0.40830017
   0.16544628  0.66910364  0.50743634
   0.49907864  0.50149320  0.61295662
   0.33333333  0.83333333  0.40830017
   0.41556949  0.66765086  0.50996711
   0.58333333  0.58333333  0.40830017
   0.58333333  0.08333333  0.40830017
   0.41681437  0.16389550  0.50742157
   0.49905565 -0.00054685  0.60994594
   0.49881275  0.75127943  0.61333092
   0.00189898  0.74994367  0.60535311
   0.33333333  0.08333333  0.40830017
   0.16638555  0.16361464  0.50608904
   0.24671617  0.00237756  0.60297378
   0.16530004  0.91965317  0.50804326
   0.24851596  0.24997607  0.60455226
   0.33333333  0.58333333  0.40830017
   0.24935164  0.50086610  0.60518697
   0.91456997  0.91990662  0.50794285
   0.33333333  0.33333333  0.40830017
   0.08333333  0.58333333  0.40830017
   0.66642161  0.91843426  0.50841610
   0.08333333  0.33333333  0.40830017
   0.00259012 -0.00122250  0.60329273
   0.91601875  0.16541305  0.50854687
   0.24672375  0.75238925  0.60594421
   0.66866125  0.16586842  0.50838568
   0.83333333  0.83333333  0.40830017
   0.75142274  0.49937067  0.60682332
   0.41478178  0.91788636  0.50850181
   0.66709553  0.41462284  0.50897222
   0.58333333  0.33333333  0.40830017
   0.00285801  0.24775265  0.60474577
   0.75208217  0.74903440  0.60670491
Direct configuration=    13
   0.08333333  0.08333333  0.40830017
   0.66487007  0.66856566  0.51129728
   0.91739974  0.41323045  0.50969497
   0.83333333  0.58333333  0.40830017
   0.75382563  0.24951455  0.60902623
   0.91491782  0.67062594  0.50799634
   0.00096074  0.49978727  0.61402901
   0.08333333  0.83333333  0.40830017
   0.83333333  0.33333333  0.40830017
   0.75373252 -0.00286954  0.60856834
   0.83333333  0.08333333  0.40830017
   0.49810505  0.25109019  0.61202323
   0.41962406  0.41415522  0.50619410
   0.16633174  0.41484468  0.50636943
   0.58333333  0.83333333  0.40830017
   0.16539463  0.66928179  0.50756472
   0.49895586  0.50145629  0.61314133
   0.33333333  0.83333333  0.40830017
   0.41514198  0.66801096  0.50998366
   0.58333333  0.58333333  0.40830017
   0.58333333  0.08333333  0.40830017
   0.41656860  0.16410490  0.50729442
   0.49895120 -0.00057889  0.60999234
   0.49869705  0.75143695  0.61347938
   0.00201349  0.74976235  0.60538982
   0.33333333  0.08333333  0.40830017
   0.16620353  0.16385244  0.50635350
   0.24686254  0.00224393  0.60319779
   0.16524717  0.91971960  0.50823757
   0.24853418  0.25001545  0.60466180
   0.33333333  0.58333333  0.40830017
   0.24934733  0.50085663  0.60527714
   0.91447846  0.92007503  0.50807034
   0.33333333  0.33333333  0.40830017
   0.08333333  0.58333333  0.40830017
   0.66660637  0.91829562  0.50850888
   0.08333333  0.33333333  0.40830017
   0.00282962 -0.00133053  0.60346407
   0.91598467  0.16534568  0.50868382
   0.24674490  0.75238456  0.60603252
   0.66883486  0.16585154  0.50839842
   0.83333333  0.83333333  0.40830017
   0.75163609  0.49928666  0.60711109
   0.41451526  0.91806838  0.50860602
   0.66725014  0.41439850  0.50912871
   0.58333333  0.33333333  0.40830017
   0.00280285  0.24802747  0.60488477
   0.75222650  0.74892823  0.60695272
Direct configuration=    14
   0.08333333  0.08333333  0.40830017
   0.66486610  0.66856009  0.51134161
   0.91735658  0.41306200  0.50974305
   0.83333333  0.58333333  0.40830017
   0.75382347  0.24956696  0.60908710
   0.91486514  0.67079476  0.50803351
   0.00099786  0.49975172  0.61402555
   0.08333333  0.83333333  0.40830017
   0.83333333  0.33333333  0.40830017
   0.75380191 -0.00295127  0.60861928
   0.83333333  0.08333333  0.40830017
   0.49806459  0.25115856  0.61203681
   0.41967751  0.41410279  0.50616675
   0.16651398  0.41466366  0.50637713
   0.58333333  0.83333333  0.40830017
   0.16537883  0.66933630  0.50760401
   0.49891829  0.50144499  0.61319785
   0.33333333  0.83333333  0.40830017
   0.41501117  0.66812114  0.50998873
   0.58333333  0.58333333  0.40830017
   0.58333333  0.08333333  0.40830017
   0.41649341  0.16416897  0.50725551
   0.49891924 -0.00058869  0.61000653
   0.49866165  0.75148515  0.61352481
   0.00204853  0.74970688  0.60540105
   0.33333333  0.08333333  0.40830017
   0.16614783  0.16392520  0.50643441
   0.24690733  0.00220304  0.60326634
   0.16523099  0.91973993  0.50829703
   0.24853976  0.25002750  0.60469531
   0.33333333  0.58333333  0.40830017
   0.24934601  0.50085373  0.60530473
   0.91445046  0.92012656  0.50810935
   0.33333333  0.33333333  0.40830017
   0.08333333  0.58333333  0.40830017
   0.66666290  0.91825320  0.50853726
   0.08333333  0.33333333  0.40830017
   0.00290290 -0.00136358  0.60351650
   0.91597425  0.16532507  0.50872572
   0.24675137  0.75238313  0.60605955
   0.66888798  0.16584637  0.50840232
   0.83333333  0.83333333  0.40830017
   0.75170137  0.49926095  0.60719913
   0.41443371  0.91812407  0.50863790
   0.66729745  0.41432986  0.50917659
   0.58333333  0.33333333  0.40830017
   0.00278598  0.24811156  0.60492731
   0.75227065  0.74889575  0.60702855
Direct configuration=    15
   0.08333333  0.08333333  0.40830017
   0.66478183  0.66850454  0.51157816
   0.91735833  0.41291048  0.50986925
   0.83333333  0.58333333  0.40830017
   0.75388461  0.24956766  0.60929114
   0.91503060  0.67083628  0.50811463
   0.00125050  0.49969139  0.61397150
   0.08333333  0.83333333  0.40830017
   0.83333333  0.33333333  0.40830017
   0.75385139 -0.00301706  0.60878762
   0.83333333  0.08333333  0.40830017
   0.49802019  0.25120347  0.61202063
   0.41996391  0.41428924  0.50613511
   0.16633497  0.41480929  0.50642842
   0.58333333  0.83333333  0.40830017
   0.16529502  0.66919883  0.50771500
   0.49880299  0.50151486  0.61335683
   0.33333333  0.83333333  0.40830017
   0.41511292  0.66786374  0.51003918
   0.58333333  0.58333333  0.40830017
   0.58333333  0.08333333  0.40830017
   0.41659495  0.16381429  0.50721612
   0.49894418 -0.00055712  0.60999411
   0.49843631  0.75158818  0.61364228
   0.00226672  0.74952104  0.60545532
   0.33333333  0.08333333  0.40830017
   0.16610272  0.16391854  0.50660556
   0.24693938  0.00221847  0.60354426
   0.16498580  0.92001411  0.50839685
   0.24859648  0.25006509  0.60475449
   0.33333333  0.58333333  0.40830017
   0.24936062  0.50079027  0.60531387
   0.91446117  0.92016036  0.50817148
   0.33333333  0.33333333  0.40830017
   0.08333333  0.58333333  0.40830017
   0.66651578  0.91838526  0.50863189
   0.08333333  0.33333333  0.40830017
   0.00302537 -0.00142850  0.60375970
   0.91596876  0.16523556  0.50882706
   0.24677810  0.75234820  0.60615469
   0.66891070  0.16585963  0.50841662
   0.83333333  0.83333333  0.40830017
   0.75176111  0.49921279  0.60738780
   0.41432919  0.91844509  0.50869843
   0.66698733  0.41446394  0.50933997
   0.58333333  0.33333333  0.40830017
   0.00292706  0.24811398  0.60511622
   0.75244905  0.74886502  0.60719516
Direct configuration=    16
   0.08333333  0.08333333  0.40830017
   0.66475726  0.66848833  0.51164715
   0.91735885  0.41286629  0.50990606
   0.83333333  0.58333333  0.40830017
   0.75390244  0.24956787  0.60935064
   0.91507886  0.67084839  0.50813829
   0.00132419  0.49967379  0.61395573
   0.08333333  0.83333333  0.40830017
   0.83333333  0.33333333  0.40830017
   0.75386582 -0.00303625  0.60883672
   0.83333333  0.08333333  0.40830017
   0.49800724  0.25121657  0.61201592
   0.42004744  0.41434362  0.50612589
   0.16628276  0.41485176  0.50644338
   0.58333333  0.83333333  0.40830017
   0.16527058  0.66915874  0.50774737
   0.49876936  0.50153523  0.61340320
   0.33333333  0.83333333  0.40830017
   0.41514259  0.66778867  0.51005389
   0.58333333  0.58333333  0.40830017
   0.58333333  0.08333333  0.40830017
   0.41662456  0.16371085  0.50720463
   0.49895145 -0.00054791  0.60999049
   0.49837059  0.75161823  0.61367654
   0.00233035  0.74946684  0.60547116
   0.33333333  0.08333333  0.40830017
   0.16608956  0.16391660  0.50665547
   0.24694873  0.00222297  0.60362532
   0.16491429  0.92009408  0.50842596
   0.24861302  0.25007605  0.60477175
   0.33333333  0.58333333  0.40830017
   0.24936488  0.50077176  0.60531654
   0.91446430  0.92017021  0.50818960
   0.33333333  0.33333333  0.40830017
   0.08333333  0.58333333  0.40830017
   0.66647287  0.91842377  0.50865949
   0.08333333  0.33333333  0.40830017
   0.00306109 -0.00144744  0.60383064
   0.91596716  0.16520945  0.50885661
   0.24678590  0.75233802  0.60618244
   0.66891733  0.16586349  0.50842079
   0.83333333  0.83333333  0.40830017
   0.75177853  0.49919874  0.60744283
   0.41429871  0.91853872  0.50871608
   0.66689688  0.41450304  0.50938762
   0.58333333  0.33333333  0.40830017
   0.00296820  0.24811469  0.60517132
   0.75250108  0.74885606  0.60724375
Direct configuration=    17
   0.08333333  0.08333333  0.40830017
   0.66475403  0.66854518  0.51190183
   0.91723290  0.41307864  0.50999814
   0.83333333  0.58333333  0.40830017