  48  48   0   0
  0.5349325E+02  0.1100258E-08  0.1100258E-08  0.2449179E-08  0.3500000E-15
  1.000000000000000E-004
  CAR 
 unknown system                          
      6.38330302     -9.85949835  301     -1.09345713      1.00000000
     -9.859  0.0000E+00  0.0000E+00
     -9.805  0.0000E+00  0.0000E+00
     -9.751  0.0000E+00  0.0000E+00
     -9.697  0.0000E+00  0.0000E+00
     -9.643  0.0000E+00  0.0000E+00
     -9.589  0.0000E+00  0.0000E+00
     -9.535  0.0000E+00  0.0000E+00
     -9.480  0.0000E+00  0.0000E+00
     -9.426  0.1025E-16  0.5551E-18
     -9.372  0.3948E-14  0.2143E-15
     -9.318  0.8840E-12  0.4808E-13
     -9.264  0.1117E-09  0.6098E-11
     -9.210  0.7991E-08  0.4388E-09
     -9.156  0.3239E-06  0.1798E-07
     -9.102  0.7461E-05  0.4220E-06
     -9.047  0.9790E-04  0.5723E-05
     -8.993  0.7337E-03  0.4545E-04
     -8.939  0.3151E-02  0.2161E-03
     -8.885  0.7806E-02  0.6387E-03
     -8.831  0.1147E-01  0.1260E-02
     -8.777  0.1138E-01  0.1876E-02
     -8.723  0.1085E-01  0.2464E-02
     -8.668  0.1160E-01  0.3091E-02
     -8.614  0.9738E-02  0.3619E-02
     -8.560  0.5122E-02  0.3896E-02
     -8.506  0.1596E-02  0.3982E-02
     -8.452  0.2919E-03  0.3998E-02
     -8.398  0.4852E-04  0.4001E-02
     -8.344  0.1643E-03  0.4010E-02
     -8.289  0.8789E-03  0.4057E-02
     -8.235  0.2867E-02  0.4213E-02
     -8.181  0.5901E-02  0.4532E-02
     -8.127  0.8425E-02  0.4988E-02
     -8.073  0.1012E-01  0.5536E-02
     -8.019  0.1286E-01  0.6233E-02
     -7.965  0.1727E-01  0.7168E-02
     -7.910  0.2031E-01  0.8268E-02
     -7.856  0.1810E-01  0.9247E-02
     -7.802  0.1248E-01  0.9923E-02
     -7.748  0.1004E-01  0.1047E-01
     -7.694  0.1337E-01  0.1119E-01
     -7.640  0.1908E-01  0.1222E-01
     -7.586  0.2306E-01  0.1347E-01
     -7.531  0.2513E-01  0.1483E-01
     -7.477  0.2505E-01  0.1619E-01
     -7.423  0.2065E-01  0.1731E-01
     -7.369  0.1643E-01  0.1820E-01
     -7.315  0.1928E-01  0.1924E-01
     -7.261  0.2560E-01  0.2063E-01
     -7.207  0.2913E-01  0.2220E-01
     -7.152  0.3273E-01  0.2398E-01
     -7.098  0.3796E-01  0.2603E-01
     -7.044  0.4215E-01  0.2831E-01
     -6.990  0.4681E-01  0.3085E-01
     -6.936  0.5459E-01  0.3380E-01
     -6.882  0.6402E-01  0.3727E-01
     -6.828  0.7205E-01  0.4117E-01
     -6.773  0.7927E-01  0.4546E-01
     -6.719  0.8772E-01  0.5021E-01
     -6.665  0.9613E-01  0.5542E-01
     -6.611  0.1002E+00  0.6084E-01
     -6.557  0.9959E-01  0.6623E-01
     -6.503  0.1018E+00  0.7175E-01
     -6.449  0.1125E+00  0.7784E-01
     -6.394  0.1262E+00  0.8467E-01
     -6.340  0.1342E+00  0.9194E-01
     -6.286  0.1363E+00  0.9932E-01
     -6.232  0.1385E+00  0.1068E+00
     -6.178  0.1451E+00  0.1147E+00
     -6.124  0.1543E+00  0.1230E+00
     -6.070  0.1605E+00  0.1317E+00
     -6.015  0.1591E+00  0.1403E+00
     -5.961  0.1512E+00  0.1485E+00
     -5.907  0.1447E+00  0.1564E+00
     -5.853  0.1437E+00  0.1641E+00
     -5.799  0.1442E+00  0.1719E+00
     -5.745  0.1422E+00  0.1796E+00
     -5.691  0.1391E+00  0.1872E+00
     -5.636  0.1388E+00  0.1947E+00
     -5.582  0.1409E+00  0.2023E+00
     -5.528  0.1438E+00  0.2101E+00
     -5.474  0.1455E+00  0.2180E+00
     -5.420  0.1438E+00  0.2258E+00
     -5.366  0.1409E+00  0.2334E+00
     -5.312  0.1411E+00  0.2410E+00
     -5.257  0.1469E+00  0.2490E+00
     -5.203  0.1569E+00  0.2575E+00
     -5.149  0.1663E+00  0.2665E+00
     -5.095  0.1713E+00  0.2758E+00
     -5.041  0.1713E+00  0.2850E+00
     -4.987  0.1695E+00  0.2942E+00
     -4.933  0.1705E+00  0.3035E+00
     -4.878  0.1723E+00  0.3128E+00
     -4.824  0.1712E+00  0.3221E+00
     -4.770  0.1708E+00  0.3313E+00
     -4.716  0.1739E+00  0.3407E+00
     -4.662  0.1757E+00  0.3502E+00
     -4.608  0.1747E+00  0.3597E+00
     -4.554  0.1742E+00  0.3691E+00
     -4.499  0.1763E+00  0.3787E+00
     -4.445  0.1796E+00  0.3884E+00
     -4.391  0.1789E+00  0.3981E+00
     -4.337  0.1713E+00  0.4073E+00
     -4.283  0.1629E+00  0.4162E+00
     -4.229  0.1615E+00  0.4249E+00
     -4.175  0.1647E+00  0.4338E+00
     -4.120  0.1686E+00  0.4430E+00
     -4.066  0.1728E+00  0.4523E+00
     -4.012  0.1748E+00  0.4618E+00
     -3.958  0.1736E+00  0.4712E+00
     -3.904  0.1719E+00  0.4805E+00
     -3.850  0.1740E+00  0.4899E+00
     -3.796  0.1812E+00  0.4997E+00
     -3.741  0.1890E+00  0.5100E+00
     -3.687  0.1947E+00  0.5205E+00
     -3.633  0.1973E+00  0.5312E+00
     -3.579  0.1963E+00  0.5418E+00
     -3.525  0.1940E+00  0.5523E+00
     -3.471  0.1923E+00  0.5627E+00
     -3.417  0.1920E+00  0.5731E+00
     -3.362  0.1925E+00  0.5836E+00
     -3.308  0.1917E+00  0.5939E+00
     -3.254  0.1890E+00  0.6042E+00
     -3.200  0.1870E+00  0.6143E+00
     -3.146  0.1868E+00  0.6244E+00
     -3.092  0.1862E+00  0.6345E+00
     -3.038  0.1846E+00  0.6445E+00
     -2.983  0.1825E+00  0.6544E+00
     -2.929  0.1815E+00  0.6642E+00
     -2.875  0.1837E+00  0.6741E+00
     -2.821  0.1871E+00  0.6843E+00
     -2.767  0.1883E+00  0.6945E+00
     -2.713  0.1883E+00  0.7047E+00
     -2.659  0.1888E+00  0.7149E+00
     -2.604  0.1918E+00  0.7253E+00
     -2.550  0.1980E+00  0.7360E+00
     -2.496  0.2028E+00  0.7470E+00
     -2.442  0.2034E+00  0.7580E+00
     -2.388  0.2021E+00  0.7689E+00
     -2.334  0.1982E+00  0.7796E+00
     -2.280  0.1911E+00  0.7900E+00
     -2.225  0.1847E+00  0.8000E+00
     -2.171  0.1818E+00  0.8098E+00
     -2.117  0.1826E+00  0.8197E+00
     -2.063  0.1887E+00  0.8299E+00
     -2.009  0.1959E+00  0.8405E+00
     -1.955  0.1983E+00  0.8513E+00
     -1.901  0.1987E+00  0.8620E+00
     -1.846  0.2007E+00  0.8729E+00
     -1.792  0.2023E+00  0.8839E+00
     -1.738  0.1999E+00  0.8947E+00
     -1.684  0.1929E+00  0.9051E+00
     -1.630  0.1861E+00  0.9152E+00
     -1.576  0.1838E+00  0.9251E+00
     -1.522  0.1840E+00  0.9351E+00
     -1.467  0.1847E+00  0.9451E+00
     -1.413  0.1875E+00  0.9553E+00
     -1.359  0.1906E+00  0.9656E+00
     -1.305  0.1901E+00  0.9759E+00
     -1.251  0.1840E+00  0.9858E+00
     -1.197  0.1676E+00  0.9949E+00
     -1.143  0.1401E+00  0.1002E+01
     -1.088  0.1109E+00  0.1009E+01
     -1.034  0.8565E-01  0.1013E+01
     -0.980  0.6106E-01  0.1016E+01
     -0.926  0.3672E-01  0.1018E+01
     -0.872  0.1892E-01  0.1019E+01
     -0.818  0.1161E-01  0.1020E+01
     -0.764  0.1308E-01  0.1021E+01
     -0.709  0.1850E-01  0.1022E+01
     -0.655  0.2408E-01  0.1023E+01
     -0.601  0.3113E-01  0.1025E+01
     -0.547  0.4086E-01  0.1027E+01
     -0.493  0.4905E-01  0.1030E+01
     -0.439  0.4925E-01  0.1032E+01
     -0.385  0.3949E-01  0.1034E+01
     -0.330  0.2843E-01  0.1036E+01
     -0.276  0.2880E-01  0.1038E+01
     -0.222  0.3930E-01  0.1040E+01
     -0.168  0.4461E-01  0.1042E+01
     -0.114  0.3722E-01  0.1044E+01
     -0.060  0.2454E-01  0.1045E+01
     -0.006  0.1753E-01  0.1046E+01
      0.049  0.2035E-01  0.1047E+01
      0.103  0.2717E-01  0.1049E+01
      0.157  0.3161E-01  0.1051E+01
      0.211  0.3328E-01  0.1052E+01
      0.265  0.3340E-01  0.1054E+01
      0.319  0.3298E-01  0.1056E+01
      0.373  0.3420E-01  0.1058E+01
      0.428  0.3790E-01  0.1060E+01
      0.482  0.4259E-01  0.1062E+01
      0.536  0.4736E-01  0.1065E+01
      0.590  0.5101E-01  0.1068E+01
      0.644  0.5001E-01  0.1070E+01
      0.698  0.4334E-01  0.1073E+01
      0.752  0.3615E-01  0.1075E+01
      0.807  0.3067E-01  0.1076E+01
      0.861  0.2376E-01  0.1078E+01
      0.915  0.1815E-01  0.1079E+01
      0.969  0.1819E-01  0.1080E+01
      1.023  0.2179E-01  0.1081E+01
      1.077  0.2529E-01  0.1082E+01
      1.131  0.2654E-01  0.1084E+01
      1.186  0.2545E-01  0.1085E+01
      1.240  0.2285E-01  0.1086E+01
      1.294  0.1827E-01  0.1087E+01
      1.348  0.1220E-01  0.1088E+01
      1.402  0.9010E-02  0.1088E+01
      1.456  0.1245E-01  0.1089E+01
      1.510  0.2101E-01  0.1090E+01
      1.565  0.2930E-01  0.1092E+01
      1.619  0.3246E-01  0.1093E+01
      1.673  0.3076E-01  0.1095E+01
      1.727  0.2944E-01  0.1097E+01
      1.781  0.3241E-01  0.1098E+01
      1.835  0.3538E-01  0.1100E+01
      1.889  0.3251E-01  0.1102E+01
      1.944  0.2737E-01  0.1104E+01
      1.998  0.2593E-01  0.1105E+01
      2.052  0.2822E-01  0.1107E+01
      2.106  0.3244E-01  0.1108E+01
      2.160  0.3647E-01  0.1110E+01
      2.214  0.3766E-01  0.1112E+01
      2.268  0.3813E-01  0.1114E+01
      2.323  0.4019E-01  0.1117E+01
      2.377  0.3978E-01  0.1119E+01
      2.431  0.3518E-01  0.1121E+01
      2.485  0.3193E-01  0.1122E+01
      2.539  0.3526E-01  0.1124E+01
      2.593  0.4343E-01  0.1127E+01
      2.647  0.4951E-01  0.1129E+01
      2.702  0.5028E-01  0.1132E+01
      2.756  0.4612E-01  0.1134E+01
      2.810  0.3638E-01  0.1136E+01
      2.864  0.2456E-01  0.1138E+01
      2.918  0.1699E-01  0.1139E+01
      2.972  0.1281E-01  0.1139E+01
      3.026  0.8523E-02  0.1140E+01
      3.081  0.6924E-02  0.1140E+01
      3.135  0.1139E-01  0.1141E+01
      3.189  0.1903E-01  0.1142E+01
      3.243  0.2386E-01  0.1143E+01
      3.297  0.2314E-01  0.1144E+01
      3.351  0.1858E-01  0.1145E+01
      3.405  0.1512E-01  0.1146E+01
      3.460  0.1762E-01  0.1147E+01
      3.514  0.2500E-01  0.1149E+01
      3.568  0.3210E-01  0.1150E+01
      3.622  0.3670E-01  0.1152E+01
      3.676  0.3947E-01  0.1154E+01
      3.730  0.4022E-01  0.1157E+01
      3.784  0.3755E-01  0.1159E+01
      3.839  0.3189E-01  0.1160E+01
      3.893  0.2698E-01  0.1162E+01
      3.947  0.2581E-01  0.1163E+01
      4.001  0.2704E-01  0.1165E+01
      4.055  0.2704E-01  0.1166E+01
      4.109  0.2485E-01  0.1167E+01
      4.163  0.2208E-01  0.1169E+01
      4.218  0.1954E-01  0.1170E+01
      4.272  0.1770E-01  0.1171E+01
      4.326  0.1726E-01  0.1172E+01
      4.380  0.1954E-01  0.1173E+01
      4.434  0.2496E-01  0.1174E+01
      4.488  0.3066E-01  0.1176E+01
      4.542  0.3756E-01  0.1178E+01
      4.597  0.4785E-01  0.1180E+01
      4.651  0.5448E-01  0.1183E+01
      4.705  0.5187E-01  0.1186E+01
      4.759  0.4638E-01  0.1189E+01
      4.813  0.4525E-01  0.1191E+01
      4.867  0.4818E-01  0.1194E+01
      4.921  0.5126E-01  0.1196E+01
      4.976  0.5592E-01  0.1199E+01
      5.030  0.6586E-01  0.1203E+01
      5.084  0.7428E-01  0.1207E+01
      5.138  0.7318E-01  0.1211E+01
      5.192  0.6758E-01  0.1215E+01
      5.246  0.6133E-01  0.1218E+01
      5.300  0.4976E-01  0.1221E+01
      5.355  0.3322E-01  0.1222E+01
      5.409  0.1782E-01  0.1223E+01
      5.463  0.7417E-02  0.1224E+01
      5.517  0.2226E-02  0.1224E+01
      5.571  0.4445E-03  0.1224E+01
      5.625  0.5551E-04  0.1224E+01
      5.679  0.4165E-05  0.1224E+01
      5.734  0.1831E-06  0.1224E+01
      5.788  0.4647E-08  0.1224E+01
      5.842  0.6736E-10  0.1224E+01
      5.896  0.5541E-12  0.1224E+01
      5.950  0.2574E-14  0.1224E+01
      6.004  0.6835E-17  0.1224E+01
      6.058  0.0000E+00  0.1224E+01
      6.113  0.0000E+00  0.1224E+01
      6.167  0.0000E+00  0.1224E+01
      6.221  0.0000E+00  0.1224E+01
      6.275  0.0000E+00  0.1224E+01
      6.329  0.0000E+00  0.1224E+01
      6.383  0.0000E+00  0.1224E+01
