unknown system                          
           1
    11.002582    0.000000    0.000000
     5.501291    9.528515    0.000000
     0.000000    0.000000   26.191785
   Au   O    Pd
  24   8  24
Direct configuration=     1
   0.58333333  0.08333333  0.38179910
   0.33333333  0.58333333  0.38179910
   0.66676540  0.16683479  0.47573234
   0.66487165  0.66933554  0.51722490
   0.83333333  0.58333333  0.38179910
   0.74628913  0.26706154  0.56536375
   0.91164363  0.42070614  0.47169849
   0.00153318  0.24338826  0.56107339
   0.23713701  0.50209118  0.56557962
   0.08333333  0.58333333  0.38179910
   0.75161600  0.98588154  0.57738488
   0.08333333  0.83333333  0.38179910
   0.96934577  0.51420589  0.56436534
   0.91184304  0.91576288  0.47311729
   0.41541599  0.16312935  0.47911902
   0.58333333  0.83333333  0.38179910
   0.58333333  0.33333333  0.38179910
   0.49718498  0.51382748  0.56709057
   0.27249046  0.98246896  0.55717438
   0.41937424  0.67186222  0.47591670
   0.33333333  0.33333333  0.38179910
   0.58333333  0.58333333  0.38179910
   0.26324908  0.23927285  0.56909420
   0.49837538  0.26033374  0.57069984
   0.58285813  0.83817661  0.65408853
   0.09057045  0.31119516  0.61693054
   0.96904157  0.73425055  0.63737850
   0.56417221  0.55032086  0.64060302
   0.84276469  0.57044092  0.65172490
   0.86219390  0.08086219  0.61255238
   0.26837175  0.85167336  0.62030956
   0.57779922  0.10324109  0.62819816
   0.16173292  0.41950683  0.47451048
   0.08333333  0.08333333  0.38179910
   0.42944956  0.91049124  0.47132249
   0.16350025  0.66879810  0.47664266
   0.48711420  0.99376540  0.60443657
   0.33333333  0.83333333  0.38179910
   0.16695890  0.91660357  0.47128405
   0.41733175  0.41805408  0.47983856
   0.99211302  0.74881172  0.56469311
   0.47680369  0.75570979  0.61813388
   0.23990949  0.74817980  0.56455417
   0.83333333  0.08333333  0.38179910
   0.90432322  0.67148204  0.47517526
   0.83333333  0.33333333  0.38179910
   0.66705194  0.42223242  0.47597869
   0.08333333  0.33333333  0.38179910
   0.00506908  0.99642687  0.55803906
   0.74583122  0.50266296  0.60955984
   0.91704606  0.16836315  0.47110755
   0.83333333  0.83333333  0.38179910
   0.66483507  0.91362284  0.49293453
   0.78230768  0.76764279  0.64149461
   0.16957397  0.16340428  0.47027147
   0.33333333  0.08333333  0.38179910
Direct configuration=     2
   0.58333333  0.08333333  0.38179910
   0.33333333  0.58333333  0.38179910
   0.66673036  0.16674966  0.47567066
   0.66485549  0.66919803  0.51717999
   0.83333333  0.58333333  0.38179910
   0.74643086  0.26696891  0.56540256
   0.91146303  0.42078448  0.47169945
   0.00147640  0.24344597  0.56111921
   0.23716483  0.50219145  0.56559738
   0.08333333  0.58333333  0.38179910
   0.75210318  0.98561226  0.57751249
   0.08333333  0.83333333  0.38179910
   0.96939558  0.51413497  0.56431413
   0.91174551  0.91579970  0.47301491
   0.41546637  0.16312043  0.47906294
   0.58333333  0.83333333  0.38179910
   0.58333333  0.33333333  0.38179910
   0.49713478  0.51393253  0.56710378
   0.27237588  0.98251375  0.55712331
   0.41946725  0.67173618  0.47590374
   0.33333333  0.33333333  0.38179910
   0.58333333  0.58333333  0.38179910
   0.26318617  0.23930268  0.56901494
   0.49826294  0.26053548  0.57063589
   0.58286361  0.83819207  0.65392508
   0.09053910  0.31131095  0.61688867
   0.96916832  0.73462673  0.63729502
   0.56441017  0.55021485  0.64057470
   0.84281088  0.57009042  0.65168090
   0.86204476  0.08098301  0.61260973
   0.26850889  0.85156930  0.62029761
   0.57742634  0.10359555  0.62813815
   0.16189140  0.41947186  0.47448618
   0.08333333  0.08333333  0.38179910
   0.42925596  0.91037766  0.47134436
   0.16349158  0.66856609  0.47660365
   0.48713632  0.99395268  0.60441104
   0.33333333  0.83333333  0.38179910
   0.16703825  0.91651590  0.47127064
   0.41729033  0.41817120  0.47977141
   0.99198604  0.74886816  0.56465900
   0.47685948  0.75598362  0.61820967
   0.24004140  0.74808190  0.56456994
   0.83333333  0.08333333  0.38179910
   0.90426380  0.67145067  0.47511667
   0.83333333  0.33333333  0.38179910
   0.66695791  0.42240178  0.47603359
   0.08333333  0.33333333  0.38179910
   0.00490553  0.99655403  0.55801364
   0.74572760  0.50245003  0.60954198
   0.91694503  0.16828889  0.47106833
   0.83333333  0.83333333  0.38179910
   0.66479776  0.91346842  0.49291135
   0.78243273  0.76733517  0.64146500
   0.16965558  0.16330837  0.47029499
   0.33333333  0.08333333  0.38179910
Direct configuration=     3
   0.58333333  0.08333333  0.38179910
   0.33333333  0.58333333  0.38179910
   0.66666174  0.16658296  0.47554988
   0.66482385  0.66892875  0.51709206
   0.83333333  0.58333333  0.38179910
   0.74670840  0.26678753  0.56547855
   0.91110937  0.42093789  0.47170132
   0.00136520  0.24355900  0.56120893
   0.23721931  0.50238780  0.56563216
   0.08333333  0.58333333  0.38179910
   0.75305718  0.98508496  0.57776238
   0.08333333  0.83333333  0.38179910
   0.96949312  0.51399610  0.56421383
   0.91155453  0.91587179  0.47281442
   0.41556504  0.16310296  0.47895312
   0.58333333  0.83333333  0.38179910
   0.58333333  0.33333333  0.38179910
   0.49703648  0.51413824  0.56712966
   0.27215149  0.98260145  0.55702328
   0.41964940  0.67148937  0.47587835
   0.33333333  0.33333333  0.38179910
   0.58333333  0.58333333  0.38179910
   0.26306297  0.23936108  0.56885975
   0.49804276  0.26093053  0.57051067
   0.58287436  0.83822236  0.65360502
   0.09047769  0.31153769  0.61680667
   0.96941654  0.73536338  0.63713156
   0.56487614  0.55000725  0.64051922
   0.84290132  0.56940405  0.65159474
   0.86175270  0.08121960  0.61272202
   0.26877743  0.85136553  0.62027419
   0.57669614  0.10428968  0.62802063
   0.16220174  0.41940338  0.47443860
   0.08333333  0.08333333  0.38179910
   0.42887684  0.91015524  0.47138721
   0.16347460  0.66811177  0.47652726
   0.48717963  0.99431944  0.60436104
   0.33333333  0.83333333  0.38179910
   0.16719364  0.91634422  0.47124439
   0.41720922  0.41840056  0.47963993
   0.99173738  0.74897868  0.56459222
   0.47696873  0.75651984  0.61835810
   0.24029969  0.74789018  0.56460082
   0.83333333  0.08333333  0.38179910
   0.90414744  0.67138926  0.47500195
   0.83333333  0.33333333  0.38179910
   0.66677378  0.42273342  0.47614110
   0.08333333  0.33333333  0.38179910
   0.00458524  0.99680303  0.55796385
   0.74552471  0.50203306  0.60950701
   0.91674717  0.16814348  0.47099152
   0.83333333  0.83333333  0.38179910
   0.66472470  0.91316605  0.49286598
   0.78267760  0.76673275  0.64140702
   0.16981539  0.16312054  0.47034106
   0.33333333  0.08333333  0.38179910
Direct configuration=     4
   0.58333333  0.08333333  0.38179910
   0.33333333  0.58333333  0.38179910
   0.66663224  0.16651129  0.47549795
   0.66481025  0.66881298  0.51705425
   0.83333333  0.58333333  0.38179910
   0.74682772  0.26670956  0.56551122
   0.91095733  0.42100385  0.47170212
   0.00131740  0.24360759  0.56124750
   0.23724273  0.50247221  0.56564711
   0.08333333  0.58333333  0.38179910
   0.75346731  0.98485826  0.57786981
   0.08333333  0.83333333  0.38179910
   0.96953505  0.51393640  0.56417071
   0.91147243  0.91590278  0.47272822
   0.41560746  0.16309546  0.47890590
   0.58333333  0.83333333  0.38179910
   0.58333333  0.33333333  0.38179910
   0.49699422  0.51422668  0.56714078
   0.27205503  0.98263915  0.55698028
   0.41972770  0.67138326  0.47586744
   0.33333333  0.33333333  0.38179910
   0.58333333  0.58333333  0.38179910
   0.26301000  0.23938619  0.56879302
   0.49794811  0.26110036  0.57045684
   0.58287897  0.83823538  0.65346742
   0.09045129  0.31163517  0.61677142
   0.96952325  0.73568008  0.63706128
   0.56507646  0.54991801  0.64049538
   0.84294020  0.56910898  0.65155770
   0.86162714  0.08132131  0.61277030
   0.26889288  0.85127793  0.62026412
   0.57638223  0.10458809  0.62797011
   0.16233515  0.41937394  0.47441814
   0.08333333  0.08333333  0.38179910
   0.42871385  0.91005962  0.47140562
   0.16346730  0.66791645  0.47649442
   0.48719825  0.99447711  0.60433954
   0.33333333  0.83333333  0.38179910
   0.16726044  0.91627041  0.47123310
   0.41717435  0.41849916  0.47958340
   0.99163048  0.74902620  0.56456351
   0.47701570  0.75675036  0.61842191
   0.24041073  0.74780776  0.56461410
   0.83333333  0.08333333  0.38179910
   0.90409742  0.67136285  0.47495263
   0.83333333  0.33333333  0.38179910
   0.66669462  0.42287600  0.47618732
   0.08333333  0.33333333  0.38179910
   0.00444755  0.99691007  0.55794245
   0.74543748  0.50185380  0.60949197
   0.91666211  0.16808097  0.47095850
   0.83333333  0.83333333  0.38179910
   0.66469329  0.91303605  0.49284647
   0.78278288  0.76647377  0.64138209
   0.16988409  0.16303979  0.47036086
   0.33333333  0.08333333  0.38179910
Direct configuration=     5
   0.58333333  0.08333333  0.38179910
   0.33333333  0.58333333  0.38179910
   0.66653439  0.16649825  0.47546055
   0.66479638  0.66864309  0.51700207
   0.83333333  0.58333333  0.38179910
   0.74675879  0.26667882  0.56551742
   0.91091289  0.42094847  0.47169419
   0.00124310  0.24362365  0.56127273
   0.23720482  0.50260498  0.56566573
   0.08333333  0.58333333  0.38179910
   0.75346245  0.98477355  0.57803673
   0.08333333  0.83333333  0.38179910
   0.96956931  0.51391924  0.56408762
   0.91145526  0.91581185  0.47262747
   0.41569584  0.16298097  0.47883182
   0.58333333  0.83333333  0.38179910
   0.58333333  0.33333333  0.38179910
   0.49702521  0.51428929  0.56715949
   0.27189769  0.98270904  0.55697465
   0.41970115  0.67128819  0.47584650
   0.33333333  0.33333333  0.38179910
   0.58333333  0.58333333  0.38179910
   0.26294910  0.23945673  0.56866091
   0.49793690  0.26125215  0.57034478
   0.58315730  0.83821655  0.65335798
   0.09047181  0.31182337  0.61673650
   0.96939767  0.73614822  0.63706361
   0.56503846  0.54994712  0.64052561
   0.84302720  0.56867467  0.65149636
   0.86156017  0.08148128  0.61287605
   0.26904417  0.85114903  0.62024726
   0.57606875  0.10511909  0.62785483
   0.16240895  0.41928714  0.47438796
   0.08333333  0.08333333  0.38179910
   0.42861779  0.90995826  0.47140152
   0.16339460  0.66782854  0.47644964
   0.48706984  0.99476305  0.60421682
   0.33333333  0.83333333  0.38179910
   0.16726910  0.91608818  0.47122033
   0.41719057  0.41855516  0.47951078
   0.99169495  0.74894117  0.56438632
   0.47690223  0.75697489  0.61845252
   0.24039123  0.74782248  0.56460395
   0.83333333  0.08333333  0.38179910
   0.90404149  0.67132094  0.47488729
   0.83333333  0.33333333  0.38179910
   0.66665625  0.42287230  0.47626773
   0.08333333  0.33333333  0.38179910
   0.00435329  0.99695721  0.55789470
   0.74569296  0.50147619  0.60940700
   0.91656734  0.16808004  0.47092281
   0.83333333  0.83333333  0.38179910
   0.66467599  0.91290342  0.49288179
   0.78338993  0.76601239  0.64126839
   0.16984938  0.16302464  0.47038104
   0.33333333  0.08333333  0.38179910
Direct configuration=     6
   0.58333333  0.08333333  0.38179910
   0.33333333  0.58333333  0.38179910
   0.66634882  0.16647351  0.47538964
   0.66477009  0.66832092  0.51690311
   0.83333333  0.58333333  0.38179910
   0.74662806  0.26662052  0.56552917
   0.91082860  0.42084346  0.47167915
   0.00110221  0.24365410  0.56132057
   0.23713293  0.50285676  0.56570104
   0.08333333  0.58333333  0.38179910
   0.75345322  0.98461290  0.57835326
   0.08333333  0.83333333  0.38179910
   0.96963428  0.51388669  0.56393005
   0.91142271  0.91563943  0.47243641
   0.41586343  0.16276387  0.47869135
   0.58333333  0.83333333  0.38179910
   0.58333333  0.33333333  0.38179910
   0.49708398  0.51440802  0.56719496
   0.27159932  0.98284157  0.55696399
   0.41965082  0.67110792  0.47580681
   0.33333333  0.33333333  0.38179910
   0.58333333  0.58333333  0.38179910
   0.26283360  0.23959051  0.56841038
   0.49791564  0.26153998  0.57013230
   0.58368507  0.83818084  0.65315047
   0.09051072  0.31218025  0.61667028
   0.96915953  0.73703597  0.63706802
   0.56496639  0.55000234  0.64058295
   0.84319218  0.56785110  0.65138003
   0.86143318  0.08178461  0.61307658
   0.26933106  0.85090460  0.62021529
   0.57547431  0.10612601  0.62763622
   0.16254889  0.41912255  0.47433071
   0.08333333  0.08333333  0.38179910
   0.42843561  0.90976607  0.47139375
   0.16325674  0.66766184  0.47636473
   0.48682634  0.99530528  0.60398409
   0.33333333  0.83333333  0.38179910
   0.16728551  0.91574262  0.47119611
   0.41722132  0.41866135  0.47937308
   0.99181720  0.74877993  0.56405032
   0.47668706  0.75740067  0.61851058
   0.24035425  0.74785038  0.56458469
   0.83333333  0.08333333  0.38179910
   0.90393544  0.67124145  0.47476339
   0.83333333  0.33333333  0.38179910
   0.66658348  0.42286528  0.47642020
   0.08333333  0.33333333  0.38179910
   0.00417456  0.99704660  0.55780414
   0.74617743  0.50076014  0.60924588
   0.91638764  0.16807828  0.47085515
   0.83333333  0.83333333  0.38179910
   0.66464320  0.91265190  0.49294876
   0.78454107  0.76513747  0.64105280
   0.16978357  0.16299592  0.47041929
   0.33333333  0.08333333  0.38179910
Direct configuration=     7
   0.58333333  0.08333333  0.38179910
   0.33333333  0.58333333  0.38179910
   0.66597770  0.16642405  0.47524780
   0.66471750  0.66767659  0.51670520
   0.83333333  0.58333333  0.38179910
   0.74636662  0.26650394  0.56555267
   0.91066003  0.42063343  0.47164908
   0.00082043  0.24371501  0.56141625
   0.23698914  0.50336031  0.56577166
   0.08333333  0.58333333  0.38179910
   0.75343477  0.98429160  0.57898632
   0.08333333  0.83333333  0.38179910
   0.96976421  0.51382160  0.56361491
   0.91135761  0.91529458  0.47205430
   0.41619863  0.16232968  0.47841041
   0.58333333  0.83333333  0.38179910
   0.58333333  0.33333333  0.38179910
   0.49720152  0.51464549  0.56726590
   0.27100259  0.98310663  0.55694265
   0.41955014  0.67074738  0.47572741
   0.33333333  0.33333333  0.38179910
   0.58333333  0.58333333  0.38179910
   0.26260261  0.23985807  0.56790932
   0.49787313  0.26211565  0.56970732
   0.58474063  0.83810943  0.65273543
   0.09058854  0.31289402  0.61653785
   0.96868326  0.73881145  0.63707684
   0.56482226  0.55011277  0.64069763
   0.84352213  0.56620395  0.65114739
   0.86117920  0.08239128  0.61347765
   0.26990484  0.85041573  0.62015135
   0.57428543  0.10813986  0.62719900
   0.16282877  0.41879336  0.47421622
   0.08333333  0.08333333  0.38179910
   0.42807127  0.90938168  0.47137820
   0.16298101  0.66732844  0.47619491
   0.48633933  0.99638973  0.60351864
   0.33333333  0.83333333  0.38179910
   0.16731833  0.91505151  0.47114767
   0.41728282  0.41887374  0.47909766
   0.99206171  0.74845744  0.56337831
   0.47625671  0.75825221  0.61862670
   0.24028029  0.74790620  0.56454617
   0.83333333  0.08333333  0.38179910
   0.90372333  0.67108247  0.47451559
   0.83333333  0.33333333  0.38179910
   0.66643793  0.42285125  0.47672515
   0.08333333  0.33333333  0.38179910
   0.00381709  0.99722538  0.55762303
   0.74714636  0.49932803  0.60892363
   0.91602823  0.16807476  0.47071983
   0.83333333  0.83333333  0.38179910
   0.66457761  0.91214888  0.49308269
   0.78684335  0.76338764  0.64062160
   0.16965194  0.16293848  0.47049581
   0.33333333  0.08333333  0.38179910
Direct configuration=     8
   0.58333333  0.08333333  0.38179910
   0.33333333  0.58333333  0.38179910
   0.66620999  0.16645501  0.47533657
   0.66475041  0.66807988  0.51682907
   0.83333333  0.58333333  0.38179910
   0.74653026  0.26657691  0.56553796
   0.91076554  0.42076488  0.47166790
   0.00099679  0.24367689  0.56135636
   0.23707914  0.50304514  0.56572746
   0.08333333  0.58333333  0.38179910
   0.75344632  0.98449270  0.57859009
   0.08333333  0.83333333  0.38179910
   0.96968289  0.51386234  0.56381215
   0.91139835  0.91551042  0.47229346
   0.41598883  0.16260144  0.47858625
   0.58333333  0.83333333  0.38179910
   0.58333333  0.33333333  0.38179910
   0.49712795  0.51449686  0.56722150
   0.27137608  0.98294073  0.55695601
   0.41961315  0.67097304  0.47577710
   0.33333333  0.33333333  0.38179910
   0.58333333  0.58333333  0.38179910
   0.26274719  0.23969061  0.56822293
   0.49789974  0.26175534  0.56997331
   0.58407996  0.83815413  0.65299520
   0.09053983  0.31244727  0.61662074
   0.96898136  0.73770018  0.63707132
   0.56491247  0.55004365  0.64062585
   0.84331561  0.56723489  0.65129300
   0.86133817  0.08201157  0.61322662
   0.26954571  0.85072171  0.62019137
   0.57502955  0.10687940  0.62747265
   0.16265360  0.41899940  0.47428788
   0.08333333  0.08333333  0.38179910
   0.42829931  0.90962227  0.47138793
   0.16315359  0.66753712  0.47630120
   0.48664415  0.99571097  0.60380996
   0.33333333  0.83333333  0.38179910
   0.16729779  0.91548408  0.47117799
   0.41724433  0.41874081  0.47927004
   0.99190867  0.74865928  0.56379892
   0.47652606  0.75771923  0.61855402
   0.24032658  0.74787127  0.56457028
   0.83333333  0.08333333  0.38179910
   0.90385609  0.67118197  0.47467069
   0.83333333  0.33333333  0.38179910
   0.66652903  0.42286003  0.47653428
   0.08333333  0.33333333  0.38179910
   0.00404083  0.99711349  0.55773638
   0.74653991  0.50022438  0.60912532
   0.91625318  0.16807697  0.47080453
   0.83333333  0.83333333  0.38179910
   0.66461866  0.91246372  0.49299886
   0.78540236  0.76448285  0.64089149
   0.16973432  0.16297444  0.47044792
   0.33333333  0.08333333  0.38179910
Direct configuration=     9
   0.58333333  0.08333333  0.38179910
   0.33333333  0.58333333  0.38179910
   0.66618681  0.16641349  0.47532875
   0.66473931  0.66792462  0.51677905
   0.83333333  0.58333333  0.38179910
   0.74646099  0.26645070  0.56553113
   0.91083164  0.42061661  0.47164385
   0.00091008  0.24367644  0.56138027
   0.23706964  0.50310076  0.56573472
   0.08333333  0.58333333  0.38179910
   0.75327409  0.98446902  0.57876127
   0.08333333  0.83333333  0.38179910
   0.96973498  0.51385317  0.56370899
   0.91134931  0.91544611  0.47223071
   0.41605367  0.16242584  0.47850535
   0.58333333  0.83333333  0.38179910
   0.58333333  0.33333333  0.38179910
   0.49716598  0.51459527  0.56725865
   0.27117478  0.98305878  0.55697157
   0.41951490  0.67091039  0.47575605
   0.33333333  0.33333333  0.38179910
   0.58333333  0.58333333  0.38179910
   0.26266544  0.23981764  0.56807636
   0.49784408  0.26195098  0.56980112
   0.58467521  0.83811484  0.65282102
   0.09063224  0.31264957  0.61656270
   0.96919902  0.73809623  0.63699888
   0.56487756  0.55023109  0.64062334
   0.84349088  0.56691463  0.65124840
   0.86141472  0.08210408  0.61327102
   0.26957511  0.85061082  0.62017805
   0.57474454  0.10741222  0.62735104
   0.16266468  0.41888871  0.47425859
   0.08333333  0.08333333  0.38179910
   0.42827842  0.90955099  0.47137483
   0.16309371  0.66750715  0.47625535
   0.48656827  0.99585802  0.60368503
   0.33333333  0.83333333  0.38179910
   0.16722002  0.91533848  0.47116952
   0.41724707  0.41874444  0.47921591
   0.99187485  0.74868858  0.56368180
   0.47654983  0.75781888  0.61858895
   0.24020321  0.74795535  0.56453176
   0.83333333  0.08333333  0.38179910
   0.90379933  0.67110921  0.47460108
   0.83333333  0.33333333  0.38179910
   0.66655819  0.42271339  0.47660600
   0.08333333  0.33333333  0.38179910
   0.00382063  0.99716478  0.55772801
   0.74665434  0.49981500  0.60901914
   0.91618825  0.16808466  0.47078564
   0.83333333  0.83333333  0.38179910
   0.66463023  0.91238660  0.49309559
   0.78555774  0.76407143  0.64076821
   0.16963856  0.16296171  0.47045863
   0.33333333  0.08333333  0.38179910
Direct configuration=    10
   0.58333333  0.08333333  0.38179910
   0.33333333  0.58333333  0.38179910
   0.66613296  0.16631702  0.47531057
   0.66471349  0.66756383  0.51666283
   0.83333333  0.58333333  0.38179910
   0.74630002  0.26615741  0.56551525
   0.91098525  0.42027205  0.47158795
   0.00070857  0.24367539  0.56143581
   0.23704757  0.50323000  0.56575159
   0.08333333  0.58333333  0.38179910
   0.75287386  0.98441399  0.57915905
   0.08333333  0.83333333  0.38179910
   0.96985603  0.51383187  0.56346925
   0.91123536  0.91529666  0.47208491
   0.41620434  0.16201779  0.47831736
   0.58333333  0.83333333  0.38179910
   0.58333333  0.33333333  0.38179910
   0.49725436  0.51482395  0.56734500
   0.27070699  0.98333310  0.55700773
   0.41928658  0.67076482  0.47570711
   0.33333333  0.33333333  0.38179910
   0.58333333  0.58333333  0.38179910
   0.26247546  0.24011284  0.56773575
   0.49771475  0.26240562  0.56940099
   0.58605844  0.83802354  0.65241626
   0.09084698  0.31311968  0.61642783
   0.96970482  0.73901657  0.63683055
   0.56479644  0.55066668  0.64061750
   0.84389817  0.56617042  0.65114474
   0.86159262  0.08231908  0.61337419
   0.26964343  0.85035315  0.62014710
   0.57408225  0.10865039  0.62706844
   0.16269045  0.41863150  0.47419051
   0.08333333  0.08333333  0.38179910
   0.42822987  0.90938536  0.47134439
   0.16295458  0.66743753  0.47614881
   0.48639196  0.99619973  0.60339473
   0.33333333  0.83333333  0.38179910
   0.16703929  0.91500016  0.47114985
   0.41725343  0.41875287  0.47909011
   0.99179624  0.74875665  0.56340966
   0.47660504  0.75805044  0.61867011
   0.23991652  0.74815075  0.56444225
   0.83333333  0.08333333  0.38179910
   0.90366742  0.67094013  0.47443934
   0.83333333  0.33333333  0.38179910
   0.66662596  0.42237262  0.47677266
   0.08333333  0.33333333  0.38179910
   0.00330894  0.99728399  0.55770855
   0.74692024  0.49886368  0.60877238
   0.91603737  0.16810253  0.47074175
   0.83333333  0.83333333  0.38179910
   0.66465712  0.91220738  0.49332037
   0.78591882  0.76311538  0.64048173
   0.16941602  0.16293214  0.47048352
   0.33333333  0.08333333  0.38179910
Direct configuration=    11
   0.58333333  0.08333333  0.38179910
   0.33333333  0.58333333  0.38179910
   0.66602525  0.16612408  0.47527420
   0.66466187  0.66684225  0.51643038
   0.83333333  0.58333333  0.38179910
   0.74597809  0.26557085  0.56548350
   0.91129245  0.41958293  0.47147616
   0.00030556  0.24367331  0.56154691
   0.23700343  0.50348850  0.56578532
   0.08333333  0.58333333  0.38179910
   0.75207341  0.98430394  0.57995463
   0.08333333  0.83333333  0.38179910
   0.97009814  0.51378926  0.56298978
   0.91100744  0.91499777  0.47179329
   0.41650569  0.16120168  0.47794138
   0.58333333  0.83333333  0.38179910
   0.58333333  0.33333333  0.38179910
   0.49743112  0.51528132  0.56751769
   0.26977142  0.98388174  0.55708007
   0.41882993  0.67047366  0.47560925
   0.33333333  0.33333333  0.38179910
   0.58333333  0.58333333  0.38179910
   0.26209551  0.24070324  0.56705454
   0.49745610  0.26331489  0.56860073
   0.58882490  0.83784094  0.65160675
   0.09127645  0.31405989  0.61615808
   0.97071641  0.74085725  0.63649390
   0.56463419  0.55153784  0.64060582
   0.84471275  0.56468199  0.65093744
   0.86194842  0.08274906  0.61358054
   0.26978005  0.84983780  0.62008519
   0.57275768  0.11112672  0.62650323
   0.16274197  0.41811708  0.47405436
   0.08333333  0.08333333  0.38179910
   0.42813277  0.90905409  0.47128350
   0.16267630  0.66729828  0.47593573
   0.48603932  0.99688313  0.60281411
   0.33333333  0.83333333  0.38179910
   0.16667785  0.91432351  0.47111050
   0.41726615  0.41876973  0.47883851
   0.99163903  0.74889279  0.56286537
   0.47671548  0.75851357  0.61883242
   0.23934314  0.74854154  0.56426323
   0.83333333  0.08333333  0.38179910
   0.90340361  0.67060196  0.47411585
   0.83333333  0.33333333  0.38179910
   0.66676151  0.42169108  0.47710597
   0.08333333  0.33333333  0.38179910
   0.00228555  0.99752241  0.55766962
   0.74745205  0.49696103  0.60827887
   0.91573559  0.16813828  0.47065397
   0.83333333  0.83333333  0.38179910
   0.66471090  0.91184894  0.49376992
   0.78664096  0.76120327  0.63990879
   0.16897094  0.16287300  0.47053331
   0.33333333  0.08333333  0.38179910
Direct configuration=    12
   0.58333333  0.08333333  0.38179910
   0.33333333  0.58333333  0.38179910
   0.66610623  0.16626914  0.47530154
   0.66470068  0.66738476  0.51660514
   0.83333333  0.58333333  0.38179910
   0.74622013  0.26601185  0.56550737
   0.91106149  0.42010103  0.47156021
   0.00060856  0.24367488  0.56146338
   0.23703662  0.50329415  0.56575996
   0.08333333  0.58333333  0.38179910
   0.75267522  0.98438668  0.57935649
   0.08333333  0.83333333  0.38179910
   0.96991612  0.51382129  0.56335026
   0.91117880  0.91522249  0.47201254
   0.41627913  0.16181525  0.47822405
   0.58333333  0.83333333  0.38179910
   0.58333333  0.33333333  0.38179910
   0.49729823  0.51493746  0.56738786
   0.27047481  0.98346926  0.55702569
   0.41917325  0.67069256  0.47568283
   0.33333333  0.33333333  0.38179910
   0.58333333  0.58333333  0.38179910
   0.26238117  0.24025936  0.56756669
   0.49765056  0.26263127  0.56920239
   0.58674499  0.83797822  0.65221537
   0.09095356  0.31335301  0.61636088
   0.96995586  0.73947337  0.63674701
   0.56475617  0.55088287  0.64061460
   0.84410033  0.56580104  0.65109330
   0.86168092  0.08242579  0.61342540
   0.26967733  0.85022525  0.62013174
   0.57375354  0.10926494  0.62692817
   0.16270323  0.41850384  0.47415672
   0.08333333  0.08333333  0.38179910
   0.42820577  0.90930315  0.47132928
   0.16288552  0.66740297  0.47609593
   0.48630444  0.99636933  0.60325063
   0.33333333  0.83333333  0.38179910
   0.16694960  0.91483223  0.47114008
   0.41725658  0.41875705  0.47902767
   0.99175722  0.74879044  0.56327458
   0.47663245  0.75816538  0.61871039
   0.23977423  0.74824773  0.56439782
   0.83333333  0.08333333  0.38179910
   0.90360195  0.67085620  0.47435906
   0.83333333  0.33333333  0.38179910
   0.66665960  0.42220348  0.47685537
   0.08333333  0.33333333  0.38179910
   0.00305496  0.99734316  0.55769889
   0.74705222  0.49839150  0.60864991
   0.91596248  0.16811140  0.47071997
   0.83333333  0.83333333  0.38179910
   0.66467047  0.91211843  0.49343193
   0.78609803  0.76264085  0.64033955
   0.16930556  0.16291746  0.47049588
   0.33333333  0.08333333  0.38179910
Direct configuration=    13
   0.58333333  0.08333333  0.38179910
   0.33333333  0.58333333  0.38179910
   0.66622628  0.16607805  0.47531375
   0.66468964  0.66719480  0.51652688
   0.83333333  0.58333333  0.38179910
   0.74624284  0.26562594  0.56548746
   0.91120871  0.41981772  0.47149667
   0.00046809  0.24369734  0.56153246
   0.23703333  0.50333719  0.56573819
   0.08333333  0.58333333  0.38179910
   0.75249139  0.98430596  0.57961358
   0.08333333  0.83333333  0.38179910
   0.96998519  0.51383484  0.56320035
   0.91100137  0.91523639  0.47200342
   0.41629793  0.16152009  0.47809081
   0.58333333  0.83333333  0.38179910
   0.58333333  0.33333333  0.38179910
   0.49721268  0.51522147  0.56743614
   0.27011000  0.98368171  0.55706627
   0.41903441  0.67062532  0.47566437
   0.33333333  0.33333333  0.38179910
   0.58333333  0.58333333  0.38179910
   0.26229235  0.24041944  0.56734218
   0.49742463  0.26296479  0.56887594
   0.58729619  0.83797243  0.65186826
   0.09116573  0.31365031  0.61621393
   0.97009473  0.73990363  0.63652138
   0.56479772  0.55136233  0.64057523
   0.84431999  0.56540320  0.65098575
   0.86188353  0.08243324  0.61340342
   0.26962215  0.85004409  0.62010309
   0.57327677  0.10996006  0.62677265
   0.16268037  0.41834750  0.47411327
   0.08333333  0.08333333  0.38179910
   0.42826069  0.90919925  0.47132819
   0.16286745  0.66733100  0.47604100
   0.48634368  0.99636726  0.60308798
   0.33333333  0.83333333  0.38179910
   0.16668638  0.91485823  0.47115381
   0.41718418  0.41871298  0.47898514
   0.99136193  0.74916817  0.56323843
   0.47680320  0.75839108  0.61877864
   0.23948795  0.74841516  0.56429739
   0.83333333  0.08333333  0.38179910
   0.90348632  0.67074768  0.47426825
   0.83333333  0.33333333  0.38179910
   0.66672821  0.42190713  0.47691012
   0.08333333  0.33333333  0.38179910
   0.00262788  0.99736793  0.55771119
   0.74717433  0.49789837  0.60854936
   0.91595325  0.16802871  0.47072506
   0.83333333  0.83333333  0.38179910
   0.66472610  0.91208802  0.49367436
   0.78711748  0.76201499  0.64007356
   0.16917505  0.16277437  0.47048849
   0.33333333  0.08333333  0.38179910
Direct configuration=    14
   0.58333333  0.08333333  0.38179910
   0.33333333  0.58333333  0.38179910
   0.66638870  0.16581953  0.47533028
   0.66467470  0.66693783  0.51642100
   0.83333333  0.58333333  0.38179910
   0.74627356  0.26510385  0.56546051
   0.91140789  0.41943445  0.47141070
   0.00027805  0.24372772  0.56162590
   0.23702888  0.50339542  0.56570874
   0.08333333  0.58333333  0.38179910
   0.75224271  0.98419676  0.57996140
   0.08333333  0.83333333  0.38179910
   0.97007864  0.51385317  0.56299754
   0.91076134  0.91525520  0.47199110
   0.41632337  0.16112078  0.47791055
   0.58333333  0.83333333  0.38179910
   0.58333333  0.33333333  0.38179910
   0.49709694  0.51560569  0.56750147
   0.26961646  0.98396913  0.55712117
   0.41884659  0.67053436  0.47563941
   0.33333333  0.33333333  0.38179910
   0.58333333  0.58333333  0.38179910
   0.26217219  0.24063602  0.56703846
   0.49711898  0.26341600  0.56843430
   0.58804188  0.83796458  0.65139867
   0.09145278  0.31405252  0.61601513
   0.97028259  0.74048571  0.63621613
   0.56485394  0.55201097  0.64052198
   0.84461717  0.56486499  0.65084024
   0.86215764  0.08244332  0.61337367
   0.26954749  0.84979901  0.62006434
   0.57263177  0.11090045  0.62656226
   0.16264943  0.41813600  0.47405450
   0.08333333  0.08333333  0.38179910
   0.42833500  0.90905870  0.47132671
   0.16284301  0.66723364  0.47596669
   0.48639677  0.99636447  0.60286793
   0.33333333  0.83333333  0.38179910
   0.16633028  0.91489339  0.47117237
   0.41708622  0.41865335  0.47892760
   0.99082716  0.74967918  0.56318953
   0.47703420  0.75869642  0.61887097
   0.23910066  0.74864168  0.56416151
   0.83333333  0.08333333  0.38179910
   0.90332989  0.67060086  0.47414541