  48  48   0   0
  0.5349325E+02  0.1100258E-08  0.1100258E-08  0.2449179E-08  0.3500000E-15
  1.000000000000000E-004
  CAR 
 unknown system                          
      6.36176240     -9.78914329  301     -1.10181797      1.00000000
     -9.789  0.0000E+00  0.0000E+00
     -9.735  0.0000E+00  0.0000E+00
     -9.681  0.0000E+00  0.0000E+00
     -9.628  0.0000E+00  0.0000E+00
     -9.574  0.0000E+00  0.0000E+00
     -9.520  0.0000E+00  0.0000E+00
     -9.466  0.0000E+00  0.0000E+00
     -9.412  0.0000E+00  0.0000E+00
     -9.358  0.6874E-17  0.3701E-18
     -9.305  0.2687E-14  0.1450E-15
     -9.251  0.6022E-12  0.3257E-13
     -9.197  0.7680E-10  0.4167E-11
     -9.143  0.5584E-08  0.3048E-09
     -9.089  0.2320E-06  0.1280E-07
     -9.035  0.5523E-05  0.3101E-06
     -8.982  0.7550E-04  0.4375E-05
     -8.928  0.5942E-03  0.3636E-04
     -8.874  0.2701E-02  0.1818E-03
     -8.820  0.7129E-02  0.5656E-03
     -8.766  0.1117E-01  0.1167E-02
     -8.712  0.1150E-01  0.1786E-02
     -8.659  0.1064E-01  0.2359E-02
     -8.605  0.1127E-01  0.2966E-02
     -8.551  0.1024E-01  0.3517E-02
     -8.497  0.6139E-02  0.3847E-02
     -8.443  0.2272E-02  0.3970E-02
     -8.389  0.6126E-03  0.4003E-02
     -8.336  0.6830E-03  0.4039E-02
     -8.282  0.2078E-02  0.4151E-02
     -8.228  0.4473E-02  0.4392E-02
     -8.174  0.6977E-02  0.4768E-02
     -8.120  0.8800E-02  0.5241E-02
     -8.066  0.9412E-02  0.5748E-02
     -8.013  0.9376E-02  0.6253E-02
     -7.959  0.9664E-02  0.6773E-02
     -7.905  0.1001E-01  0.7312E-02
     -7.851  0.1119E-01  0.7915E-02
     -7.797  0.1427E-01  0.8683E-02
     -7.743  0.1749E-01  0.9624E-02
     -7.690  0.1827E-01  0.1061E-01
     -7.636  0.1692E-01  0.1152E-01
     -7.582  0.1745E-01  0.1246E-01
     -7.528  0.2204E-01  0.1365E-01
     -7.474  0.2534E-01  0.1501E-01
     -7.420  0.2375E-01  0.1629E-01
     -7.367  0.2142E-01  0.1744E-01
     -7.313  0.2099E-01  0.1857E-01
     -7.259  0.2229E-01  0.1977E-01
     -7.205  0.2492E-01  0.2111E-01
     -7.151  0.2851E-01  0.2265E-01
     -7.097  0.3236E-01  0.2439E-01
     -7.043  0.3547E-01  0.2630E-01
     -6.990  0.4171E-01  0.2855E-01
     -6.936  0.5581E-01  0.3155E-01
     -6.882  0.7350E-01  0.3551E-01
     -6.828  0.8486E-01  0.4008E-01
     -6.774  0.8619E-01  0.4472E-01
     -6.720  0.8386E-01  0.4923E-01
     -6.667  0.8467E-01  0.5379E-01
     -6.613  0.8963E-01  0.5862E-01
     -6.559  0.9782E-01  0.6388E-01
     -6.505  0.1055E+00  0.6956E-01
     -6.451  0.1069E+00  0.7531E-01
     -6.397  0.1077E+00  0.8111E-01
     -6.344  0.1214E+00  0.8765E-01
     -6.290  0.1429E+00  0.9534E-01
     -6.236  0.1527E+00  0.1036E+00
     -6.182  0.1482E+00  0.1115E+00
     -6.128  0.1448E+00  0.1193E+00
     -6.074  0.1480E+00  0.1273E+00
     -6.021  0.1502E+00  0.1354E+00
     -5.967  0.1476E+00  0.1433E+00
     -5.913  0.1424E+00  0.1510E+00
     -5.859  0.1379E+00  0.1584E+00
     -5.805  0.1340E+00  0.1657E+00
     -5.751  0.1315E+00  0.1727E+00
     -5.698  0.1336E+00  0.1799E+00
     -5.644  0.1389E+00  0.1874E+00
     -5.590  0.1411E+00  0.1950E+00
     -5.536  0.1383E+00  0.2025E+00
     -5.482  0.1373E+00  0.2098E+00
     -5.428  0.1445E+00  0.2176E+00
     -5.375  0.1567E+00  0.2261E+00
     -5.321  0.1673E+00  0.2351E+00
     -5.267  0.1750E+00  0.2445E+00
     -5.213  0.1812E+00  0.2542E+00
     -5.159  0.1830E+00  0.2641E+00
     -5.105  0.1777E+00  0.2737E+00
     -5.052  0.1698E+00  0.2828E+00
     -4.998  0.1658E+00  0.2917E+00
     -4.944  0.1650E+00  0.3006E+00
     -4.890  0.1635E+00  0.3094E+00
     -4.836  0.1605E+00  0.3181E+00
     -4.782  0.1587E+00  0.3266E+00
     -4.729  0.1611E+00  0.3353E+00
     -4.675  0.1676E+00  0.3443E+00
     -4.621  0.1759E+00  0.3538E+00
     -4.567  0.1845E+00  0.3637E+00
     -4.513  0.1884E+00  0.3738E+00
     -4.459  0.1819E+00  0.3836E+00
     -4.406  0.1700E+00  0.3928E+00
     -4.352  0.1647E+00  0.4017E+00
     -4.298  0.1697E+00  0.4108E+00
     -4.244  0.1766E+00  0.4203E+00
     -4.190  0.1779E+00  0.4299E+00
     -4.136  0.1769E+00  0.4394E+00
     -4.082  0.1797E+00  0.4491E+00
     -4.029  0.1846E+00  0.4590E+00
     -3.975  0.1884E+00  0.4692E+00
     -3.921  0.1924E+00  0.4795E+00
     -3.867  0.1972E+00  0.4901E+00
     -3.813  0.2014E+00  0.5010E+00
     -3.759  0.2044E+00  0.5120E+00
     -3.706  0.2071E+00  0.5231E+00
     -3.652  0.2099E+00  0.5344E+00
     -3.598  0.2120E+00  0.5459E+00
     -3.544  0.2127E+00  0.5573E+00
     -3.490  0.2111E+00  0.5687E+00
     -3.436  0.2085E+00  0.5799E+00
     -3.383  0.2078E+00  0.5911E+00
     -3.329  0.2095E+00  0.6024E+00
     -3.275  0.2095E+00  0.6136E+00
     -3.221  0.2063E+00  0.6247E+00
     -3.167  0.2031E+00  0.6357E+00
     -3.113  0.2014E+00  0.6465E+00
     -3.060  0.1976E+00  0.6572E+00
     -3.006  0.1899E+00  0.6674E+00
     -2.952  0.1827E+00  0.6772E+00
     -2.898  0.1806E+00  0.6869E+00
     -2.844  0.1821E+00  0.6967E+00
     -2.790  0.1852E+00  0.7067E+00
     -2.737  0.1889E+00  0.7169E+00
     -2.683  0.1903E+00  0.7271E+00
     -2.629  0.1868E+00  0.7372E+00
     -2.575  0.1803E+00  0.7469E+00
     -2.521  0.1764E+00  0.7564E+00
     -2.467  0.1769E+00  0.7659E+00
     -2.414  0.1795E+00  0.7756E+00
     -2.360  0.1824E+00  0.7854E+00
     -2.306  0.1848E+00  0.7954E+00
     -2.252  0.1859E+00  0.8054E+00
     -2.198  0.1859E+00  0.8154E+00
     -2.144  0.1847E+00  0.8253E+00
     -2.091  0.1812E+00  0.8351E+00
     -2.037  0.1758E+00  0.8445E+00
     -1.983  0.1743E+00  0.8539E+00
     -1.929  0.1806E+00  0.8636E+00
     -1.875  0.1882E+00  0.8738E+00
     -1.821  0.1885E+00  0.8839E+00
     -1.768  0.1810E+00  0.8937E+00
     -1.714  0.1719E+00  0.9029E+00
     -1.660  0.1689E+00  0.9120E+00
     -1.606  0.1751E+00  0.9214E+00
     -1.552  0.1869E+00  0.9315E+00
     -1.498  0.1972E+00  0.9421E+00
     -1.445  0.1976E+00  0.9528E+00
     -1.391  0.1874E+00  0.9628E+00
     -1.337  0.1755E+00  0.9723E+00
     -1.283  0.1685E+00  0.9814E+00
     -1.229  0.1634E+00  0.9902E+00
     -1.175  0.1534E+00  0.9984E+00
     -1.121  0.1348E+00  0.1006E+01
     -1.068  0.1089E+00  0.1012E+01
     -1.014  0.7800E-01  0.1016E+01
     -0.960  0.4734E-01  0.1018E+01
     -0.906  0.2532E-01  0.1020E+01
     -0.852  0.1600E-01  0.1021E+01
     -0.798  0.1638E-01  0.1021E+01
     -0.745  0.2101E-01  0.1023E+01
     -0.691  0.2700E-01  0.1024E+01
     -0.637  0.3383E-01  0.1026E+01
     -0.583  0.4032E-01  0.1028E+01
     -0.529  0.4375E-01  0.1030E+01
     -0.475  0.4185E-01  0.1033E+01
     -0.422  0.3363E-01  0.1034E+01
     -0.368  0.2264E-01  0.1036E+01
     -0.314  0.1879E-01  0.1037E+01
     -0.260  0.2776E-01  0.1038E+01
     -0.206  0.4130E-01  0.1040E+01
     -0.152  0.4642E-01  0.1043E+01
     -0.099  0.4050E-01  0.1045E+01
     -0.045  0.3073E-01  0.1047E+01
      0.009  0.2432E-01  0.1048E+01
      0.063  0.2441E-01  0.1049E+01
      0.117  0.2924E-01  0.1051E+01
      0.171  0.3295E-01  0.1053E+01
      0.224  0.3347E-01  0.1054E+01
      0.278  0.3446E-01  0.1056E+01
      0.332  0.3743E-01  0.1058E+01
      0.386  0.4040E-01  0.1060E+01
      0.440  0.4106E-01  0.1063E+01
      0.494  0.4020E-01  0.1065E+01
      0.547  0.4072E-01  0.1067E+01
      0.601  0.4096E-01  0.1069E+01
      0.655  0.3913E-01  0.1071E+01
      0.709  0.3795E-01  0.1073E+01
      0.763  0.3571E-01  0.1075E+01
      0.817  0.2856E-01  0.1077E+01
      0.870  0.2055E-01  0.1078E+01
      0.924  0.1966E-01  0.1079E+01
      0.978  0.2625E-01  0.1080E+01
      1.032  0.3174E-01  0.1082E+01
      1.086  0.2940E-01  0.1084E+01
      1.140  0.2206E-01  0.1085E+01
      1.193  0.1715E-01  0.1086E+01
      1.247  0.1577E-01  0.1087E+01
      1.301  0.1312E-01  0.1087E+01
      1.355  0.8905E-02  0.1088E+01
      1.409  0.8961E-02  0.1088E+01
      1.463  0.1772E-01  0.1089E+01
      1.516  0.3116E-01  0.1091E+01
      1.570  0.3791E-01  0.1093E+01
      1.624  0.3349E-01  0.1095E+01
      1.678  0.2729E-01  0.1096E+01
      1.732  0.2881E-01  0.1098E+01
      1.786  0.3573E-01  0.1100E+01
      1.840  0.3951E-01  0.1102E+01
      1.893  0.3544E-01  0.1104E+01
      1.947  0.2711E-01  0.1105E+01
      2.001  0.2290E-01  0.1107E+01
      2.055  0.2490E-01  0.1108E+01
      2.109  0.2698E-01  0.1109E+01
      2.163  0.2789E-01  0.1111E+01
      2.216  0.3267E-01  0.1113E+01
      2.270  0.4013E-01  0.1115E+01
      2.324  0.4335E-01  0.1117E+01
      2.378  0.3936E-01  0.1119E+01
      2.432  0.3341E-01  0.1121E+01
      2.486  0.3315E-01  0.1123E+01
      2.539  0.3882E-01  0.1125E+01
      2.593  0.4538E-01  0.1127E+01
      2.647  0.4978E-01  0.1130E+01
      2.701  0.4928E-01  0.1133E+01
      2.755  0.4154E-01  0.1135E+01
      2.809  0.3027E-01  0.1136E+01
      2.862  0.2176E-01  0.1138E+01
      2.916  0.1739E-01  0.1139E+01
      2.970  0.1389E-01  0.1139E+01
      3.024  0.9539E-02  0.1140E+01
      3.078  0.8287E-02  0.1140E+01
      3.132  0.1339E-01  0.1141E+01
      3.185  0.2161E-01  0.1142E+01
      3.239  0.2667E-01  0.1144E+01
      3.293  0.2548E-01  0.1145E+01
      3.347  0.2201E-01  0.1146E+01
      3.401  0.2139E-01  0.1147E+01
      3.455  0.2369E-01  0.1149E+01
      3.508  0.2782E-01  0.1150E+01
      3.562  0.3178E-01  0.1152E+01
      3.616  0.3372E-01  0.1154E+01
      3.670  0.3557E-01  0.1156E+01
      3.724  0.3666E-01  0.1158E+01
      3.778  0.3312E-01  0.1159E+01
      3.831  0.2622E-01  0.1161E+01
      3.885  0.2116E-01  0.1162E+01
      3.939  0.2144E-01  0.1163E+01
      3.993  0.2599E-01  0.1164E+01
      4.047  0.2912E-01  0.1166E+01
      4.101  0.2761E-01  0.1167E+01
      4.154  0.2422E-01  0.1169E+01
      4.208  0.2167E-01  0.1170E+01
      4.262  0.1966E-01  0.1171E+01
      4.316  0.1827E-01  0.1172E+01
      4.370  0.2064E-01  0.1173E+01
      4.424  0.2621E-01  0.1175E+01
      4.477  0.3098E-01  0.1176E+01
      4.531  0.3710E-01  0.1178E+01
      4.585  0.4556E-01  0.1181E+01
      4.639  0.5121E-01  0.1183E+01
      4.693  0.5237E-01  0.1186E+01
      4.747  0.5148E-01  0.1189E+01
      4.801  0.5030E-01  0.1192E+01
      4.854  0.4975E-01  0.1194E+01
      4.908  0.5157E-01  0.1197E+01
      4.962  0.5730E-01  0.1200E+01
      5.016  0.6624E-01  0.1204E+01
      5.070  0.7493E-01  0.1208E+01
      5.124  0.7635E-01  0.1212E+01
      5.177  0.6758E-01  0.1216E+01
      5.231  0.5467E-01  0.1219E+01
      5.285  0.4230E-01  0.1221E+01
      5.339  0.3002E-01  0.1222E+01
      5.393  0.1800E-01  0.1223E+01
      5.447  0.8305E-02  0.1224E+01
      5.500  0.2665E-02  0.1224E+01
      5.554  0.5477E-03  0.1224E+01
      5.608  0.6840E-04  0.1224E+01
      5.662  0.5042E-05  0.1224E+01
      5.716  0.2157E-06  0.1224E+01
      5.770  0.5309E-08  0.1224E+01
      5.823  0.7467E-10  0.1224E+01
      5.877  0.5981E-12  0.1224E+01
      5.931  0.2718E-14  0.1224E+01
      5.985  0.8249E-17  0.1224E+01
      6.039  0.0000E+00  0.1224E+01
      6.093  0.0000E+00  0.1224E+01
      6.146  0.0000E+00  0.1224E+01
      6.200  0.0000E+00  0.1224E+01
      6.254  0.0000E+00  0.1224E+01
      6.308  0.0000E+00  0.1224E+01
      6.362  0.0000E+00  0.1224E+01
