       N       E                     dE             d eps       ncg     rms          rms(c)
DAV:   1     0.320096182486E+04    0.32010E+04   -0.18982E+05  3672   0.112E+03
DAV:   2     0.134026488620E+02   -0.31876E+04   -0.29312E+04  4392   0.263E+02
DAV:   3    -0.201232063974E+03   -0.21463E+03   -0.19992E+03  4152   0.651E+01
DAV:   4    -0.206921129053E+03   -0.56891E+01   -0.56254E+01  4260   0.107E+01
DAV:   5    -0.207097881245E+03   -0.17675E+00   -0.17614E+00  4440   0.193E+00    0.625E+01
RMM:   6    -0.202594426744E+03    0.45035E+01   -0.10036E+02  3678   0.155E+01    0.584E+01
RMM:   7    -0.201654898588E+03    0.93953E+00   -0.56303E+01  3681   0.122E+01    0.420E+01
RMM:   8    -0.202860600868E+03   -0.12057E+01   -0.58973E+01  3683   0.128E+01    0.309E+01
RMM:   9    -0.196674701777E+03    0.61859E+01   -0.27368E+01  3681   0.870E+00    0.223E+01
RMM:  10    -0.193460375575E+03    0.32143E+01   -0.14570E+01  3681   0.589E+00    0.170E+01
RMM:  11    -0.190218497294E+03    0.32419E+01   -0.58344E+00  3681   0.363E+00    0.118E+01
RMM:  12    -0.188594067238E+03    0.16244E+01   -0.20545E+00  3680   0.223E+00    0.721E+00
RMM:  13    -0.188251022546E+03    0.34304E+00   -0.72567E-01  3681   0.133E+00    0.519E+00
RMM:  14    -0.188426896889E+03   -0.17587E+00   -0.40948E-01  3679   0.985E-01    0.669E+00
RMM:  15    -0.188290662917E+03    0.13623E+00   -0.38015E-01  3680   0.965E-01    0.485E+00
RMM:  16    -0.188220124291E+03    0.70539E-01   -0.30414E-01  3679   0.861E-01    0.303E+00
RMM:  17    -0.188138673248E+03    0.81451E-01   -0.10969E-01  3679   0.515E-01    0.174E+00
RMM:  18    -0.188124486263E+03    0.14187E-01   -0.38542E-02  3678   0.315E-01    0.119E+00
RMM:  19    -0.188114895931E+03    0.95903E-02   -0.17256E-02  3678   0.200E-01    0.822E-01
RMM:  20    -0.188109934510E+03    0.49614E-02   -0.89968E-03  3678   0.145E-01    0.445E-01
RMM:  21    -0.188108589718E+03    0.13448E-02   -0.21055E-03  3677   0.701E-02    0.280E-01
RMM:  22    -0.188108295516E+03    0.29420E-03   -0.11429E-03  3680   0.525E-02    0.145E-01
RMM:  23    -0.188108613783E+03   -0.31827E-03   -0.52553E-04  3681   0.354E-02    0.123E-01
RMM:  24    -0.188108713129E+03   -0.99346E-04   -0.20639E-04  3681   0.225E-02    0.611E-02
RMM:  25    -0.188109074170E+03   -0.36104E-03   -0.94127E-05  3679   0.149E-02    0.652E-02
RMM:  26    -0.188109473443E+03   -0.39927E-03   -0.52508E-05  3672   0.109E-02    0.294E-02
RMM:  27    -0.188109881366E+03   -0.40792E-03   -0.33558E-05  3662   0.806E-03    0.269E-02
RMM:  28    -0.188110337564E+03   -0.45620E-03   -0.25036E-05  3637   0.700E-03    0.204E-02
RMM:  29    -0.188110859081E+03   -0.52152E-03   -0.23343E-05  3561   0.662E-03    0.184E-02
RMM:  30    -0.188111565795E+03   -0.70671E-03   -0.47771E-05  3665   0.905E-03    0.105E-02
RMM:  31    -0.188111800033E+03   -0.23424E-03   -0.16715E-05  3074   0.491E-03    0.111E-02
RMM:  32    -0.188111927031E+03   -0.12700E-03   -0.67547E-06  2729   0.318E-03    0.603E-03
RMM:  33    -0.188111999472E+03   -0.72441E-04   -0.26443E-06  2429   0.216E-03    0.560E-03
RMM:  34    -0.188112048667E+03   -0.49195E-04   -0.12002E-06  2203   0.154E-03    0.264E-03
RMM:  35    -0.188112083112E+03   -0.34444E-04   -0.60879E-07  2142   0.107E-03    0.150E-03
RMM:  36    -0.188112100800E+03   -0.17688E-04   -0.30921E-07  1764   0.744E-04    0.131E-03
RMM:  37    -0.188112115578E+03   -0.14778E-04   -0.25019E-07  2056   0.764E-04    0.803E-04
RMM:  38    -0.188112120835E+03   -0.52571E-05   -0.12367E-07  1165   0.472E-04    0.837E-04
RMM:  39    -0.188112122137E+03   -0.13025E-05   -0.54526E-08  1058   0.432E-04    0.515E-04
RMM:  40    -0.188112122650E+03   -0.51260E-06   -0.28020E-08   950   0.385E-04
   1 F= -.18811212E+03 E0= -.18797103E+03  d E =-.188112E+03
       N       E                     dE             d eps       ncg     rms          rms(c)
DAV:   1    -0.189312458256E+03   -0.12003E+01   -0.42026E+02  3672   0.314E+01    0.422E+00
RMM:   2    -0.189740461868E+03   -0.42800E+00   -0.43513E+00  3680   0.452E+00    0.269E+00
RMM:   3    -0.189881958751E+03   -0.14150E+00   -0.45985E-01  3703   0.118E+00    0.443E+00
RMM:   4    -0.189736337120E+03    0.14562E+00   -0.24593E-01  3685   0.815E-01    0.186E+00
RMM:   5    -0.189834603213E+03   -0.98266E-01   -0.12207E-01  3684   0.527E-01    0.345E+00
RMM:   6    -0.189720478853E+03    0.11412E+00   -0.72610E-02  3684   0.410E-01    0.122E+00
RMM:   7    -0.189705137354E+03    0.15341E-01   -0.22370E-02  3681   0.241E-01    0.455E-01
RMM:   8    -0.189703654419E+03    0.14829E-02   -0.55573E-03  3683   0.115E-01    0.409E-01
RMM:   9    -0.189702472846E+03    0.11816E-02   -0.25538E-03  3683   0.803E-02    0.229E-01
RMM:  10    -0.189702103504E+03    0.36934E-03   -0.11015E-03  3684   0.527E-02    0.140E-01
RMM:  11    -0.189701979327E+03    0.12418E-03   -0.36973E-04  3688   0.305E-02    0.805E-02
RMM:  12    -0.189701957350E+03    0.21977E-04   -0.87934E-05  3684   0.151E-02    0.557E-02
RMM:  13    -0.189701940914E+03    0.16436E-04   -0.42718E-05  3678   0.107E-02    0.345E-02
RMM:  14    -0.189701935619E+03    0.52945E-05   -0.21700E-05  3672   0.758E-03    0.214E-02
RMM:  15    -0.189701932296E+03    0.33235E-05   -0.75049E-06  3210   0.438E-03    0.754E-03
RMM:  16    -0.189701933248E+03   -0.95273E-06   -0.17788E-06  2221   0.221E-03
   2 F= -.18970193E+03 E0= -.18956007E+03  d E =-.158981E+01
       N       E                     dE             d eps       ncg     rms          rms(c)
DAV:   1    -0.187874048739E+03    0.18279E+01   -0.39674E+03  3672   0.993E+01    0.993E+00
RMM:   2    -0.191728170789E+03   -0.38541E+01   -0.38989E+01  3681   0.136E+01    0.649E+00
RMM:   3    -0.192538322864E+03   -0.81015E+00   -0.30642E+00  3707   0.301E+00    0.108E+01
RMM:   4    -0.191525054863E+03    0.10133E+01   -0.12535E+00  3686   0.185E+00    0.465E+00
RMM:   5    -0.191958906267E+03   -0.43385E+00   -0.69821E-01  3683   0.129E+00    0.747E+00
RMM:   6    -0.191694337988E+03    0.26457E+00   -0.65462E-01  3685   0.124E+00    0.536E+00
RMM:   7    -0.191390057359E+03    0.30428E+00   -0.26588E-01  3683   0.816E-01    0.176E+00
RMM:   8    -0.191368516977E+03    0.21540E-01   -0.85615E-02  3681   0.456E-01    0.147E+00
RMM:   9    -0.191347845338E+03    0.20672E-01   -0.32749E-02  3686   0.285E-01    0.700E-01
RMM:  10    -0.191343999168E+03    0.38462E-02   -0.99326E-03  3683   0.157E-01    0.390E-01
RMM:  11    -0.191343649905E+03    0.34926E-03   -0.36095E-03  3683   0.938E-02    0.304E-01
RMM:  12    -0.191343259344E+03    0.39056E-03   -0.14367E-03  3687   0.608E-02    0.206E-01
RMM:  13    -0.191343110543E+03    0.14880E-03   -0.69250E-04  3680   0.423E-02    0.152E-01
RMM:  14    -0.191342950137E+03    0.16041E-03   -0.30391E-04  3681   0.280E-02    0.761E-02
RMM:  15    -0.191342915520E+03    0.34617E-04   -0.81196E-05  3681   0.145E-02    0.336E-02
RMM:  16    -0.191342914965E+03    0.55459E-06   -0.26324E-05  3675   0.806E-03    0.187E-02
RMM:  17    -0.191342917592E+03   -0.26272E-05   -0.70116E-06  3073   0.424E-03    0.123E-02
RMM:  18    -0.191342921808E+03   -0.42159E-05   -0.28162E-06  2515   0.274E-03    0.103E-02
RMM:  19    -0.191342925114E+03   -0.33062E-05   -0.12617E-06  2099   0.206E-03    0.345E-03
RMM:  20    -0.191342927814E+03   -0.27001E-05   -0.43162E-07  2027   0.107E-03    0.291E-03
RMM:  21    -0.191342929938E+03   -0.21237E-05   -0.16727E-07  1650   0.716E-04    0.942E-04
RMM:  22    -0.191342932270E+03   -0.23316E-05   -0.55057E-08   937   0.424E-04    0.813E-04
RMM:  23    -0.191342934806E+03   -0.25360E-05   -0.63274E-08   989   0.430E-04    0.611E-04
RMM:  24    -0.191342938843E+03   -0.40374E-05   -0.22235E-07  1790   0.575E-04    0.836E-04
RMM:  25    -0.191342940156E+03   -0.13133E-05   -0.48537E-08   804   0.358E-04    0.604E-04
RMM:  26    -0.191342941572E+03   -0.14158E-05   -0.91850E-08  1007   0.397E-04    0.361E-04
RMM:  27    -0.191342942516E+03   -0.94372E-06   -0.60613E-08   865   0.406E-04
   3 F= -.19134294E+03 E0= -.19120347E+03  d E =-.323082E+01
       N       E                     dE             d eps       ncg     rms          rms(c)
DAV:   1    -0.191514274524E+03   -0.17133E+00   -0.34979E+02  3672   0.289E+01    0.252E+00
RMM:   2    -0.191885373322E+03   -0.37110E+00   -0.38538E+00  3686   0.421E+00    0.165E+00
RMM:   3    -0.191952121014E+03   -0.66748E-01   -0.27308E-01  3714   0.915E-01    0.303E+00
RMM:   4    -0.191883442873E+03    0.68678E-01   -0.75003E-02  3685   0.459E-01    0.154E+00
RMM:   5    -0.191893178286E+03   -0.97354E-02   -0.38285E-02  3685   0.298E-01    0.183E+00
RMM:   6    -0.191878394465E+03    0.14784E-01   -0.51397E-02  3684   0.355E-01    0.132E+00
RMM:   7    -0.191862632059E+03    0.15762E-01   -0.22069E-02  3682   0.238E-01    0.458E-01
RMM:   8    -0.191860812636E+03    0.18194E-02   -0.55660E-03  3683   0.121E-01    0.279E-01
RMM:   9    -0.191859800178E+03    0.10125E-02   -0.23047E-03  3682   0.752E-02    0.162E-01
RMM:  10    -0.191859577635E+03    0.22254E-03   -0.60367E-04  3682   0.385E-02    0.959E-02
RMM:  11    -0.191859503457E+03    0.74178E-04   -0.16078E-04  3685   0.197E-02    0.449E-02
RMM:  12    -0.191859506426E+03   -0.29691E-05   -0.77712E-05  3684   0.138E-02    0.446E-02
RMM:  13    -0.191859490109E+03    0.16317E-04   -0.33748E-05  3682   0.939E-03    0.194E-02
RMM:  14    -0.191859491711E+03   -0.16014E-05   -0.84117E-06  3296   0.472E-03    0.158E-02
RMM:  15    -0.191859489923E+03    0.17875E-05   -0.31142E-06  2486   0.309E-03    0.526E-03
RMM:  16    -0.191859490844E+03   -0.92109E-06   -0.81264E-07  2003   0.154E-03
   4 F= -.19185949E+03 E0= -.19171979E+03  d E =-.516548E+00
       N       E                     dE             d eps       ncg     rms          rms(c)
DAV:   1    -0.191824011915E+03    0.35478E-01   -0.10432E+02  3720   0.157E+01    0.126E+00
RMM:   2    -0.191936683500E+03   -0.11267E+00   -0.11681E+00  3685   0.231E+00    0.881E-01
RMM:   3    -0.191956460237E+03   -0.19777E-01   -0.82971E-02  3716   0.505E-01    0.165E+00
RMM:   4    -0.191936912820E+03    0.19547E-01   -0.20152E-02  3684   0.238E-01    0.894E-01
RMM:   5    -0.191934183961E+03    0.27289E-02   -0.84680E-03  3687   0.142E-01    0.756E-01
RMM:   6    -0.191933537387E+03    0.64657E-03   -0.14545E-02  3681   0.189E-01    0.674E-01
RMM:   7    -0.191929507214E+03    0.40302E-02   -0.69560E-03  3682   0.134E-01    0.260E-01
RMM:   8    -0.191928961246E+03    0.54597E-03   -0.16543E-03  3686   0.662E-02    0.158E-01
RMM:   9    -0.191928660843E+03    0.30040E-03   -0.69567E-04  3682   0.415E-02    0.102E-01
RMM:  10    -0.191928568176E+03    0.92667E-04   -0.20544E-04  3681   0.224E-02    0.544E-02
RMM:  11    -0.191928540275E+03    0.27901E-04   -0.56723E-05  3686   0.116E-02    0.227E-02
RMM:  12    -0.191928541467E+03   -0.11918E-05   -0.27445E-05  3678   0.808E-03    0.226E-02
RMM:  13    -0.191928537954E+03    0.35132E-05   -0.11379E-05  3672   0.537E-03    0.100E-02
RMM:  14    -0.191928539091E+03   -0.11370E-05   -0.23997E-06  2288   0.265E-03    0.795E-03
RMM:  15    -0.191928538992E+03    0.99004E-07   -0.94636E-07  1995   0.186E-03
   5 F= -.19192854E+03 E0= -.19178878E+03  d E =-.585596E+00
       N       E                     dE             d eps       ncg     rms          rms(c)
DAV:   1    -0.191945533641E+03   -0.16995E-01   -0.62189E+01  3720   0.122E+01    0.107E+00
RMM:   2    -0.192012813797E+03   -0.67280E-01   -0.71009E-01  3686   0.178E+00    0.745E-01
RMM:   3    -0.192030495019E+03   -0.17681E-01   -0.55568E-02  3708   0.403E-01    0.146E+00
RMM:   4    -0.192016404373E+03    0.14091E-01   -0.15006E-02  3689   0.197E-01    0.924E-01
RMM:   5    -0.192009771095E+03    0.66333E-02   -0.71836E-03  3683   0.133E-01    0.481E-01
RMM:   6    -0.192011395672E+03   -0.16246E-02   -0.85739E-03  3684   0.146E-01    0.604E-01
RMM:   7    -0.192008207170E+03    0.31885E-02   -0.46239E-03  3682   0.108E-01    0.199E-01
RMM:   8    -0.192007902821E+03    0.30435E-03   -0.92127E-04  3683   0.504E-02    0.111E-01
RMM:   9    -0.192007764902E+03    0.13792E-03   -0.34779E-04  3681   0.291E-02    0.754E-02
RMM:  10    -0.192007707585E+03    0.57317E-04   -0.12902E-04  3682   0.179E-02    0.442E-02
RMM:  11    -0.192007690155E+03    0.17429E-04   -0.32471E-05  3678   0.887E-03    0.186E-02
RMM:  12    -0.192007689571E+03    0.58411E-06   -0.14312E-05  3672   0.590E-03    0.170E-02
RMM:  13    -0.192007687299E+03    0.22720E-05   -0.73628E-06  3663   0.426E-03    0.729E-03
RMM:  14    -0.192007687706E+03   -0.40718E-06   -0.14492E-06  2047   0.210E-03
   6 F= -.19200769E+03 E0= -.19186775E+03  d E =-.791487E-01
       N       E                     dE             d eps       ncg     rms          rms(c)
DAV:   1    -0.192007312531E+03    0.37477E-03   -0.29795E+00  3744   0.267E+00    0.227E-01
RMM:   2    -0.192010522725E+03   -0.32102E-02   -0.34059E-02  3685   0.391E-01    0.162E-01
RMM:   3    -0.192011289049E+03   -0.76632E-03   -0.26324E-03  3708   0.878E-02    0.312E-01
RMM:   4    -0.192010661289E+03    0.62776E-03   -0.67837E-04  3687   0.421E-02    0.199E-01
RMM:   5    -0.192010362827E+03    0.29846E-03   -0.31755E-04  3684   0.280E-02    0.103E-01
RMM:   6    -0.192010441779E+03   -0.78952E-04   -0.40186E-04  3682   0.316E-02    0.128E-01
RMM:   7    -0.192010301648E+03    0.14013E-03   -0.22979E-04  3682   0.242E-02    0.467E-02
RMM:   8    -0.192010286826E+03    0.14822E-04   -0.45840E-05  3680   0.112E-02    0.239E-02
RMM:   9    -0.192010280900E+03    0.59260E-05   -0.16758E-05  3672   0.640E-03    0.171E-02
RMM:  10    -0.192010277963E+03    0.29363E-05   -0.65891E-06  3402   0.406E-03    0.104E-02
RMM:  11    -0.192010276874E+03    0.10891E-05   -0.15891E-06  2060   0.213E-03    0.409E-03
RMM:  12    -0.192010276915E+03   -0.40862E-07   -0.90494E-07  1950   0.168E-03
   7 F= -.19201028E+03 E0= -.19187032E+03  d E =-.817379E-01
       N       E                     dE             d eps       ncg     rms          rms(c)
DAV:   1    -0.192014473433E+03   -0.41966E-02   -0.74364E+00  3672   0.422E+00    0.269E-01
RMM:   2    -0.192022630048E+03   -0.81566E-02   -0.87681E-02  3682   0.625E-01    0.222E-01
RMM:   3    -0.192023011578E+03   -0.38153E-03   -0.55703E-03  3724   0.130E-01    0.261E-01
RMM:   4    -0.192022762363E+03    0.24922E-03   -0.92318E-04  3684   0.508E-02    0.231E-01
RMM:   5    -0.192022455888E+03    0.30647E-03   -0.45262E-04  3686   0.330E-02    0.171E-01
RMM:   6    -0.192022381001E+03    0.74887E-04   -0.73981E-04  3680   0.421E-02    0.164E-01
RMM:   7    -0.192022247793E+03    0.13321E-03   -0.68805E-04  3682   0.410E-02    0.966E-02
RMM:   8    -0.192022185848E+03    0.61945E-04   -0.19178E-04  3687   0.223E-02    0.437E-02
RMM:   9    -0.192022168676E+03    0.17172E-04   -0.39967E-05  3678   0.101E-02    0.332E-02
RMM:  10    -0.192022152546E+03    0.16130E-04   -0.27009E-05  3675   0.795E-03    0.211E-02
RMM:  11    -0.192022147506E+03    0.50399E-05   -0.93201E-06  3653   0.467E-03    0.107E-02
RMM:  12    -0.192022146257E+03    0.12492E-05   -0.72569E-06  3626   0.399E-03    0.700E-03
RMM:  13    -0.192022145867E+03    0.38942E-06   -0.27372E-06  2133   0.266E-03
   8 F= -.19202215E+03 E0= -.19188220E+03  d E =-.118690E-01
       N       E                     dE             d eps       ncg     rms          rms(c)
DAV:   1    -0.192021175620E+03    0.97064E-03   -0.33513E+00  3672   0.283E+00    0.179E-01
RMM:   2    -0.192024848628E+03   -0.36730E-02   -0.39472E-02  3682   0.420E-01    0.150E-01
RMM:   3    -0.192025018360E+03   -0.16973E-03   -0.25111E-03  3725   0.876E-02    0.177E-01
RMM:   4    -0.192024892079E+03    0.12628E-03   -0.41184E-04  3684   0.340E-02    0.153E-01
RMM:   5    -0.192024765552E+03    0.12653E-03   -0.20069E-04  3686   0.220E-02    0.116E-01
RMM:   6    -0.192024735366E+03    0.30185E-04   -0.32502E-04  3680   0.279E-02    0.112E-01
RMM:   7    -0.192024670714E+03    0.64653E-04   -0.32181E-04  3682   0.280E-02    0.632E-02
RMM:   8    -0.192024647222E+03    0.23492E-04   -0.88838E-05  3687   0.151E-02    0.302E-02
RMM:   9    -0.192024639294E+03    0.79272E-05   -0.18247E-05  3672   0.681E-03    0.228E-02
RMM:  10    -0.192024631583E+03    0.77118E-05   -0.12520E-05  3671   0.541E-03    0.142E-02
RMM:  11    -0.192024629265E+03    0.23173E-05   -0.41408E-06  2778   0.320E-03    0.746E-03
RMM:  12    -0.192024628684E+03    0.58098E-06   -0.33088E-06  2216   0.299E-03
   9 F= -.19202463E+03 E0= -.19188470E+03  d E =-.143518E-01
       N       E                     dE             d eps       ncg     rms          rms(c)
DAV:   1    -0.192025457767E+03   -0.82850E-03   -0.85851E+00  3672   0.451E+00    0.239E-01
RMM:   2    -0.192035011466E+03   -0.95537E-02   -0.98303E-02  3681   0.672E-01    0.277E-01
RMM:   3    -0.192035037498E+03   -0.26032E-04   -0.63824E-03  3769   0.142E-01    0.240E-01
RMM:   4    -0.192034768430E+03    0.26907E-03   -0.74535E-04  3681   0.467E-02    0.203E-01
RMM:   5    -0.192034771152E+03   -0.27226E-05   -0.38424E-04  3687   0.304E-02    0.224E-01
RMM:   6    -0.192034471962E+03    0.29919E-03   -0.72802E-04  3681   0.411E-02    0.181E-01
RMM:   7    -0.192034341883E+03    0.13008E-03   -0.11625E-03  3682   0.526E-02    0.116E-01
RMM:   8    -0.192034295928E+03    0.45956E-04   -0.41362E-04  3682   0.318E-02    0.633E-02
RMM:   9    -0.192034268174E+03    0.27753E-04   -0.46114E-05  3687   0.110E-02    0.482E-02
RMM:  10    -0.192034235883E+03    0.32292E-04   -0.41069E-05  3678   0.981E-03    0.319E-02
RMM:  11    -0.192034223690E+03    0.12193E-04   -0.22186E-05  3673   0.707E-03    0.190E-02
RMM:  12    -0.192034219783E+03    0.39069E-05   -0.22867E-05  3678   0.705E-03    0.125E-02
RMM:  13    -0.192034218793E+03    0.99034E-06   -0.10384E-05  3672   0.477E-03    0.392E-03
RMM:  14    -0.192034219002E+03   -0.20956E-06   -0.61892E-07  1955   0.143E-03
  10 F= -.19203422E+03 E0= -.19189390E+03  d E =-.959032E-02
       N       E                     dE             d eps       ncg     rms          rms(c)
DAV:   1    -0.192022604853E+03    0.11614E-01   -0.17238E+01  3672   0.639E+00    0.338E-01
RMM:   2    -0.192041831681E+03   -0.19227E-01   -0.19713E-01  3681   0.951E-01    0.390E-01
RMM:   3    -0.192041899672E+03   -0.67991E-04   -0.12781E-02  3766   0.200E-01    0.339E-01
RMM:   4    -0.192041334394E+03    0.56528E-03   -0.14800E-03  3682   0.659E-02    0.285E-01
RMM:   5    -0.192041338821E+03   -0.44268E-05   -0.75875E-04  3686   0.428E-02    0.316E-01
RMM:   6    -0.192040711640E+03    0.62718E-03   -0.14611E-03  3680   0.582E-02    0.255E-01
RMM:   7    -0.192040428824E+03    0.28282E-03   -0.23207E-03  3682   0.744E-02    0.165E-01
RMM:   8    -0.192040328258E+03    0.10057E-03   -0.82049E-04  3682   0.448E-02    0.893E-02
RMM:   9    -0.192040273095E+03    0.55162E-04   -0.91805E-05  3687   0.155E-02    0.680E-02
RMM:  10    -0.192040208205E+03    0.64891E-04   -0.82248E-05  3679   0.139E-02    0.450E-02
RMM:  11    -0.192040184049E+03    0.24156E-04   -0.44374E-05  3679   0.100E-02    0.267E-02
RMM:  12    -0.192040176445E+03    0.76039E-05   -0.47172E-05  3682   0.101E-02    0.176E-02
RMM:  13    -0.192040174589E+03    0.18561E-05   -0.19986E-05  3676   0.662E-03    0.570E-03
RMM:  14    -0.192040174958E+03   -0.36874E-06   -0.11901E-06  2004   0.199E-03
  11 F= -.19204017E+03 E0= -.19189932E+03  d E =-.155463E-01
       N       E                     dE             d eps       ncg     rms          rms(c)
DAV:   1    -0.192037288740E+03    0.28858E-02   -0.87788E+00  3672   0.457E+00    0.255E-01
RMM:   2    -0.192047069870E+03   -0.97811E-02   -0.10053E-01  3681   0.677E-01    0.295E-01
RMM:   3    -0.192047104248E+03   -0.34378E-04   -0.67759E-03  3735   0.144E-01    0.265E-01
RMM:   4    -0.192046654947E+03    0.44930E-03   -0.81458E-04  3683   0.493E-02    0.192E-01
RMM:   5    -0.192046717907E+03   -0.62961E-04   -0.39983E-04  3688   0.310E-02    0.226E-01
RMM:   6    -0.192046429748E+03    0.28816E-03   -0.69449E-04  3681   0.405E-02    0.175E-01
RMM:   7    -0.192046285347E+03    0.14440E-03   -0.10354E-03  3685   0.498E-02    0.110E-01
RMM:   8    -0.192046229685E+03    0.55662E-04   -0.33986E-04  3683   0.291E-02    0.556E-02
RMM:   9    -0.192046212467E+03    0.17218E-04   -0.43963E-05  3683   0.106E-02    0.420E-02
RMM:  10    -0.192046190196E+03    0.22271E-04   -0.30531E-05  3679   0.853E-03    0.295E-02
RMM:  11    -0.192046179024E+03    0.11172E-04   -0.20462E-05  3673   0.689E-03    0.160E-02
RMM:  12    -0.192046176767E+03    0.22572E-05   -0.15469E-05  3678   0.584E-03    0.111E-02
RMM:  13    -0.192046176192E+03    0.57485E-06   -0.87692E-06  3670   0.439E-03
  12 F= -.19204618E+03 E0= -.19190514E+03  d E =-.600123E-02
       N       E                     dE             d eps       ncg     rms          rms(c)
DAV:   1    -0.192044949672E+03    0.12271E-02   -0.21098E+00  3708   0.224E+00    0.124E-01
RMM:   2    -0.192047280749E+03   -0.23311E-02   -0.24109E-02  3681   0.332E-01    0.145E-01
RMM:   3    -0.192047280602E+03    0.14752E-06   -0.16199E-03  3735   0.707E-02    0.129E-01
RMM:   4    -0.192047179626E+03    0.10098E-03   -0.19252E-04  3683   0.240E-02    0.953E-02
RMM:   5    -0.192047193291E+03   -0.13666E-04   -0.93863E-05  3687   0.151E-02    0.109E-01
RMM:   6    -0.192047131573E+03    0.61719E-04   -0.16935E-04  3680   0.200E-02    0.857E-02
RMM:   7    -0.192047104150E+03    0.27423E-04   -0.25539E-04  3685   0.247E-02    0.540E-02
RMM:   8    -0.192047092612E+03    0.11538E-04   -0.82643E-05  3683   0.143E-02    0.276E-02
RMM:   9    -0.192047088514E+03    0.40980E-05   -0.10545E-05  3408   0.523E-03    0.207E-02
RMM:  10    -0.192047082961E+03    0.55531E-05   -0.76362E-06  3591   0.429E-03    0.145E-02
RMM:  11    -0.192047080349E+03    0.26121E-05   -0.46773E-06  2947   0.338E-03    0.800E-03
RMM:  12    -0.192047079812E+03    0.53646E-06   -0.39065E-06  2567   0.319E-03
  13 F= -.19204708E+03 E0= -.19190595E+03  d E =-.690485E-02
       N       E                     dE             d eps       ncg     rms          rms(c)
DAV:   1    -0.192044600772E+03    0.24796E-02   -0.52617E+00  3672   0.354E+00    0.174E-01
RMM:   2    -0.192050347710E+03   -0.57469E-02   -0.58093E-02  3681   0.520E-01    0.216E-01
RMM:   3    -0.192050246778E+03    0.10093E-03   -0.37566E-03  3739   0.108E-01    0.169E-01
RMM:   4    -0.192050005772E+03    0.24101E-03   -0.36524E-04  3674   0.340E-02    0.119E-01
RMM:   5    -0.192049954737E+03    0.51034E-04   -0.16885E-04  3687   0.216E-02    0.116E-01
RMM:   6    -0.192049843398E+03    0.11134E-03   -0.72789E-04  3681   0.417E-02    0.828E-02
RMM:   7    -0.192049875062E+03   -0.31664E-04   -0.37344E-04  3681   0.298E-02    0.783E-02
RMM:   8    -0.192049849621E+03    0.25442E-04   -0.62097E-05  3688   0.121E-02    0.569E-02
RMM:   9    -0.192049827589E+03    0.22032E-04   -0.19350E-05  3674   0.695E-03    0.335E-02
RMM:  10    -0.192049817479E+03    0.10110E-04   -0.14040E-05  3672   0.586E-03    0.243E-02
RMM:  11    -0.192049809765E+03    0.77134E-05   -0.13934E-05  3677   0.569E-03    0.131E-02
RMM:  12    -0.192049807950E+03    0.18157E-05   -0.12245E-05  3674   0.521E-03    0.822E-03
RMM:  13    -0.192049807567E+03    0.38294E-06   -0.42545E-06  2766   0.320E-03
  14 F= -.19204981E+03 E0= -.19190871E+03  d E =-.272775E-02
       N       E                     dE             d eps       ncg     rms          rms(c)
DAV:   1    -0.192049296362E+03    0.51159E-03   -0.84614E-01  3684   0.142E+00    0.690E-02
RMM:   2    -0.192050209776E+03   -0.91341E-03   -0.93156E-03  3681   0.208E-01    0.868E-02
RMM:   3    -0.192050188023E+03    0.21752E-04   -0.60013E-04  3739   0.433E-02    0.672E-02
RMM:   4    -0.192050151924E+03    0.36100E-04   -0.56853E-05  3676   0.135E-02    0.478E-02
RMM:   5    -0.192050146290E+03    0.56334E-05   -0.26650E-05  3684   0.857E-03    0.473E-02
RMM:   6    -0.192050146021E+03    0.26974E-06   -0.11565E-04  3681   0.165E-02    0.486E-02
RMM:   7    -0.192050152070E+03   -0.60495E-05   -0.53568E-05  3680   0.109E-02    0.521E-02
RMM:   8    -0.192050131805E+03    0.20265E-04   -0.23904E-05  3673   0.763E-03    0.180E-02
RMM:   9    -0.192050131860E+03   -0.54570E-07   -0.34982E-06  2602   0.314E-03
  15 F= -.19205013E+03 E0= -.19190904E+03  d E =-.305205E-02
       N       E                     dE             d eps       ncg     rms          rms(c)
DAV:   1    -0.192046968792E+03    0.31630E-02   -0.57847E+00  3672   0.371E+00    0.176E-01
RMM:   2    -0.192053428278E+03   -0.64595E-02   -0.64483E-02  3681   0.547E-01    0.236E-01
RMM:   3    -0.192053242585E+03    0.18569E-03   -0.42508E-03  3754   0.115E-01    0.167E-01
RMM:   4    -0.192053114568E+03    0.12802E-03   -0.40755E-04  3672   0.351E-02    0.157E-01
RMM:   5    -0.192053007896E+03    0.10667E-03   -0.14272E-04  3690   0.192E-02    0.136E-01
RMM:   6    -0.192052964769E+03    0.43127E-04   -0.37876E-04  3684   0.301E-02    0.149E-01
RMM:   7    -0.192052802819E+03    0.16195E-03   -0.80121E-04  3683   0.435E-02    0.677E-02
RMM:   8    -0.192052816759E+03   -0.13940E-04   -0.21080E-04  3682   0.226E-02    0.437E-02
RMM:   9    -0.192052806970E+03    0.97892E-05   -0.20150E-05  3682   0.744E-03    0.343E-02
RMM:  10    -0.192052796431E+03    0.10539E-04   -0.11944E-05  3672   0.547E-03    0.276E-02
RMM:  11    -0.192052786654E+03    0.97773E-05   -0.16191E-05  3672   0.611E-03    0.151E-02
RMM:  12    -0.192052783739E+03    0.29148E-05   -0.19049E-05  3677   0.647E-03    0.654E-03
RMM:  13    -0.192052783779E+03   -0.39843E-07   -0.37578E-06  2569   0.306E-03
  16 F= -.19205278E+03 E0= -.19191169E+03  d E =-.265192E-02
       N       E                     dE             d eps       ncg     rms          rms(c)
DAV:   1    -0.192050423892E+03    0.23598E-02   -0.32707E+00  3672   0.279E+00    0.129E-01
RMM:   2    -0.192054042750E+03   -0.36189E-02   -0.36194E-02  3681   0.411E-01    0.178E-01
RMM:   3    -0.192053920160E+03    0.12259E-03   -0.23627E-03  3759   0.861E-02    0.125E-01
RMM:   4    -0.192053851917E+03    0.68243E-04   -0.21864E-04  3672   0.257E-02    0.119E-01
RMM:   5    -0.192053791980E+03    0.59937E-04   -0.75650E-05  3691   0.140E-02    0.104E-01
RMM:   6    -0.192053765315E+03    0.26665E-04   -0.22996E-04  3683   0.234E-02    0.112E-01
RMM:   7    -0.192053679133E+03    0.86182E-04   -0.49578E-04  3683   0.342E-02    0.533E-02
RMM:   8    -0.192053686336E+03   -0.72030E-05   -0.12214E-04  3680   0.172E-02    0.345E-02
RMM:   9    -0.192053680614E+03    0.57220E-05   -0.11712E-05  3656   0.567E-03    0.273E-02
RMM:  10    -0.192053674317E+03    0.62961E-05   -0.67390E-06  3284   0.415E-03    0.219E-02
RMM:  11    -0.192053668106E+03    0.62116E-05   -0.10768E-05  3672   0.504E-03    0.119E-02
RMM:  12    -0.192053666433E+03    0.16729E-05   -0.11885E-05  3674   0.511E-03    0.547E-03
RMM:  13    -0.192053666464E+03   -0.30857E-07   -0.23766E-06  2041   0.252E-03
  17 F= -.19205367E+03 E0= -.19191257E+03  d E =-.353460E-02
       N       E                     dE             d eps       ncg     rms          rms(c)
DAV:   1    -0.192049799693E+03    0.38667E-02   -0.62141E+00  3672   0.385E+00    0.179E-01
RMM:   2    -0.192056647137E+03   -0.68474E-02   -0.68498E-02  3681   0.565E-01    0.235E-01
RMM:   3    -0.192056457655E+03    0.18948E-03   -0.44095E-03  3741   0.118E-01    0.167E-01
RMM:   4    -0.192056294073E+03    0.16358E-03   -0.40647E-04  3672   0.355E-02    0.153E-01
RMM:   5    -0.192056217674E+03    0.76399E-04   -0.13216E-04  3694   0.185E-02    0.141E-01
RMM:   6    -0.192056166741E+03    0.50933E-04   -0.52944E-04  3683   0.354E-02    0.156E-01
RMM:   7    -0.192055982846E+03    0.18390E-03   -0.87720E-04  3684   0.455E-02    0.648E-02
RMM:   8    -0.192055994176E+03   -0.11330E-04   -0.16327E-04  3680   0.200E-02    0.457E-02
RMM:   9    -0.192055984011E+03    0.10165E-04   -0.17970E-05  3687   0.700E-03    0.342E-02
RMM:  10    -0.192055974124E+03    0.98869E-05   -0.11457E-05  3672   0.536E-03    0.272E-02
RMM:  11    -0.192055963617E+03    0.10507E-04   -0.24105E-05  3676   0.739E-03    0.148E-02
RMM:  12    -0.192055961579E+03    0.20376E-05   -0.14942E-05  3674   0.577E-03    0.763E-03
RMM:  13    -0.192055961666E+03   -0.86999E-07   -0.38851E-06  2607   0.311E-03
  18 F= -.19205596E+03 E0= -.19191484E+03  d E =-.229520E-02
       N       E                     dE             d eps       ncg     rms          rms(c)
DAV:   1    -0.192054390715E+03    0.15709E-02   -0.20076E+00  3672   0.219E+00    0.101E-01
RMM:   2    -0.192056587414E+03   -0.21967E-02   -0.22081E-02  3680   0.321E-01    0.134E-01
RMM:   3    -0.192056516795E+03    0.70619E-04   -0.14198E-03  3742   0.669E-02    0.948E-02
RMM:   4    -0.192056466961E+03    0.49834E-04   -0.12851E-04  3673   0.200E-02    0.867E-02
RMM:   5    -0.192056445070E+03    0.21890E-04   -0.41679E-05  3692   0.104E-02    0.807E-02
RMM:   6    -0.192056434151E+03    0.10919E-04   -0.17505E-04  3681   0.204E-02    0.891E-02
RMM:   7    -0.192056379660E+03    0.54491E-04   -0.29064E-04  3683   0.262E-02    0.372E-02
RMM:   8    -0.192056384684E+03   -0.50231E-05   -0.53474E-05  3677   0.114E-02    0.264E-02
RMM:   9    -0.192056381415E+03    0.32681E-05   -0.57792E-06  3001   0.403E-03    0.197E-02
RMM:  10    -0.192056378064E+03    0.33515E-05   -0.37225E-06  2658   0.320E-03    0.157E-02
RMM:  11    -0.192056374606E+03    0.34577E-05   -0.84854E-06  3670   0.454E-03    0.855E-03
RMM:  12    -0.192056373942E+03    0.66433E-06   -0.49134E-06  3048   0.340E-03
  19 F= -.19205637E+03 E0= -.19191525E+03  d E =-.270748E-02
       N       E                     dE             d eps       ncg     rms          rms(c)
DAV:   1    -0.192052863913E+03    0.35107E-02   -0.50056E+00  3672   0.346E+00    0.154E-01
RMM:   2    -0.192058408922E+03   -0.55450E-02   -0.55054E-02  3679   0.507E-01    0.216E-01
RMM:   3    -0.192058230167E+03    0.17876E-03   -0.35907E-03  3735   0.106E-01    0.157E-01
RMM:   4    -0.192058087667E+03    0.14250E-03   -0.33340E-04  3675   0.319E-02    0.141E-01
RMM:   5    -0.192057973905E+03    0.11376E-03   -0.76568E-05  3692   0.146E-02    0.108E-01
RMM:   6    -0.192057944303E+03    0.29602E-04   -0.23666E-04  3682   0.239E-02    0.125E-01
RMM:   7    -0.192057798591E+03    0.14571E-03   -0.81808E-04  3681   0.437E-02    0.528E-02
RMM:   8    -0.192057816929E+03   -0.18338E-04   -0.15924E-04  3681   0.195E-02    0.405E-02
RMM:   9    -0.192057810706E+03    0.62224E-05   -0.16065E-05  3688   0.667E-03    0.303E-02
RMM:  10    -0.192057805004E+03    0.57022E-05   -0.63497E-06  3150   0.409E-03    0.246E-02
RMM:  11    -0.192057796800E+03    0.82043E-05   -0.26181E-05  3673   0.778E-03    0.108E-02
RMM:  12    -0.192057796155E+03    0.64522E-06   -0.83378E-06  3646   0.433E-03
  20 F= -.19205780E+03 E0= -.19191663E+03  d E =-.142221E-02
       N       E                     dE             d eps       ncg     rms          rms(c)
DAV:   1    -0.192057254053E+03    0.54275E-03   -0.76667E-01  3696   0.135E+00    0.600E-02
RMM:   2    -0.192058095901E+03   -0.84185E-03   -0.84133E-03  3678   0.199E-01    0.861E-02
RMM:   3    -0.192058059434E+03    0.36467E-04   -0.54857E-04  3736   0.415E-02    0.614E-02
RMM:   4    -0.192058039046E+03    0.20388E-04   -0.49290E-05  3674   0.123E-02    0.547E-02
RMM:   5    -0.192058023193E+03    0.15853E-04   -0.11043E-05  3643   0.556E-03    0.430E-02
RMM:   6    -0.192058022346E+03    0.84657E-06   -0.37304E-05  3678   0.951E-03    0.498E-02
RMM:   7    -0.192058004892E+03    0.17455E-04   -0.13262E-04  3677   0.176E-02    0.213E-02
RMM:   8    -0.192058008277E+03   -0.33851E-05   -0.25388E-05  3672   0.781E-03    0.159E-02
RMM:   9    -0.192058007381E+03    0.89648E-06   -0.22183E-06  2222   0.260E-03
  21 F= -.19205801E+03 E0= -.19191681E+03  d E =-.163344E-02
       N       E                     dE             d eps       ncg     rms          rms(c)
DAV:   1    -0.192055164737E+03    0.28435E-02   -0.37920E+00  3672   0.301E+00    0.151E-01
RMM:   2    -0.192059448401E+03   -0.42837E-02   -0.42705E-02  3681   0.444E-01    0.195E-01
RMM:   3    -0.192059375682E+03    0.72719E-04   -0.28917E-03  3726   0.947E-02    0.158E-01
RMM:   4    -0.192059261409E+03    0.11427E-03   -0.32579E-04  3678   0.309E-02    0.142E-01
RMM:   5    -0.192059119210E+03    0.14220E-03   -0.10011E-04  3691   0.163E-02    0.951E-02
RMM:   6    -0.192059120940E+03   -0.17301E-05   -0.23776E-04  3679   0.240E-02    0.114E-01
RMM:   7    -0.192059022896E+03    0.98044E-04   -0.54368E-04  3681   0.358E-02    0.468E-02
RMM:   8    -0.192059030921E+03   -0.80255E-05   -0.97949E-05  3681   0.155E-02    0.358E-02
RMM:   9    -0.192059022547E+03    0.83742E-05   -0.12640E-05  3649   0.589E-03    0.250E-02
RMM:  10    -0.192059017211E+03    0.53363E-05   -0.57786E-06  3068   0.390E-03    0.186E-02
RMM:  11    -0.192059012117E+03    0.50941E-05   -0.15786E-05  3672   0.601E-03    0.107E-02
RMM:  12    -0.192059010915E+03    0.12018E-05   -0.45887E-06  2902   0.330E-03    0.395E-03
RMM:  13    -0.192059011013E+03   -0.98255E-07   -0.16472E-06  1960   0.225E-03
  22 F= -.19205901E+03 E0= -.19191786E+03  d E =-.100363E-02
       N       E                     dE             d eps       ncg     rms          rms(c)
DAV:   1    -0.192059009279E+03    0.16355E-05   -0.63563E-03  3888   0.123E-01    0.592E-03
RMM:   2    -0.192059016503E+03   -0.72237E-05   -0.69792E-05  3684   0.182E-02    0.960E-03
RMM:   3    -0.192059015759E+03    0.74394E-06   -0.40863E-06  2622   0.383E-03
  23 F= -.19205902E+03 E0= -.19191787E+03  d E =-.100838E-02
       N       E                     dE             d eps       ncg     rms          rms(c)
DAV:   1    -0.192057455384E+03    0.15611E-02   -0.20983E+00  3672   0.223E+00    0.111E-01
RMM:   2    -0.192059786461E+03   -0.23311E-02   -0.23224E-02  3681   0.329E-01    0.149E-01
RMM:   3    -0.192059714835E+03    0.71626E-04   -0.15465E-03  3755   0.697E-02    0.108E-01
RMM:   4    -0.192059647476E+03    0.67358E-04   -0.14978E-04  3678   0.214E-02    0.949E-02
RMM:   5    -0.192059622605E+03    0.24871E-04   -0.58026E-05  3685   0.122E-02    0.888E-02
RMM:   6    -0.192059619361E+03    0.32445E-05   -0.18458E-04  3679   0.209E-02    0.987E-02
RMM:   7    -0.192059544904E+03    0.74457E-04   -0.34523E-04  3681   0.286E-02    0.388E-02
RMM:   8    -0.192059547918E+03   -0.30137E-05   -0.55568E-05  3678   0.117E-02    0.279E-02
RMM:   9    -0.192059543322E+03    0.45956E-05   -0.66773E-06  3195   0.429E-03    0.205E-02
RMM:  10    -0.192059539414E+03    0.39084E-05   -0.39707E-06  2737   0.329E-03    0.158E-02
RMM:  11    -0.192059535185E+03    0.42287E-05   -0.12864E-05  3672   0.546E-03    0.849E-03
RMM:  12    -0.192059534391E+03    0.79442E-06   -0.32993E-06  2317   0.290E-03
  24 F= -.19205953E+03 E0= -.19191840E+03  d E =-.518632E-03
