unknown system                          
           1
    11.002582    0.000000    0.000000
     5.501291    9.528515    0.000000
     0.000000    0.000000   24.491785
   Au   Pd
  24  24
Direct configuration=     1
   0.25000000  0.75000000  0.59169983
   0.66666667  0.66666667  0.50000000
   0.66666667  0.41666667  0.50000000
   0.83333333  0.08333333  0.40830017
   0.50000000  0.75000000  0.59169983
   0.41666667  0.91666667  0.50000000
   0.58333333  0.83333333  0.40830017
   0.41666667  0.66666667  0.50000000
   0.41666667  0.41666667  0.50000000
   0.50000000  0.00000000  0.59169983
   0.58333333  0.08333333  0.40830017
   0.16666667  0.91666667  0.50000000
   0.25000000  0.50000000  0.59169983
   0.33333333  0.58333333  0.40830017
   0.16666667  0.41666667  0.50000000
   0.75000000  0.75000000  0.59169983
   0.25000000  0.00000000  0.59169983
   0.00000000  0.00000000  0.59169983
   0.08333333  0.33333333  0.40830017
   0.00000000  0.25000000  0.59169983
   0.08333333  0.83333333  0.40830017
   0.91666667  0.91666667  0.50000000
   0.91666667  0.66666667  0.50000000
   0.33333333  0.08333333  0.40830017
   0.66666667  0.91666667  0.50000000
   0.83333333  0.83333333  0.40830017
   0.75000000  0.50000000  0.59169983
   0.91666667  0.16666667  0.50000000
   0.83333333  0.58333333  0.40830017
   0.75000000  0.25000000  0.59169983
   0.25000000  0.25000000  0.59169983
   0.83333333  0.33333333  0.40830017
   0.75000000  0.00000000  0.59169983
   0.66666667  0.16666667  0.50000000
   0.16666667  0.16666667  0.50000000
   0.91666667  0.41666667  0.50000000
   0.16666667  0.66666667  0.50000000
   0.08333333  0.58333333  0.40830017
   0.50000000  0.50000000  0.59169983
   0.33333333  0.33333333  0.40830017
   0.58333333  0.58333333  0.40830017
   0.50000000  0.25000000  0.59169983
   0.00000000  0.50000000  0.59169983
   0.58333333  0.33333333  0.40830017
   0.41666667  0.16666667  0.50000000
   0.33333333  0.83333333  0.40830017
   0.00000000  0.75000000  0.59169983
   0.08333333  0.08333333  0.40830017
Direct configuration=     2
   0.24974348  0.74881768  0.59400775
   0.66860892  0.66482256  0.49953315
   0.66847222  0.41482975  0.50003488
   0.83308357  0.08443032  0.40645216
   0.50086691  0.74845392  0.59435600
   0.41610166  0.91825838  0.49949177
   0.58435875  0.83216661  0.40611494
   0.41681056  0.66596235  0.49957811
   0.41783366  0.41459234  0.50002077
   0.50027182  0.00198413  0.59355699
   0.58332345  0.08401724  0.40671131
   0.16603531  0.91800377  0.49921290
   0.24980117  0.49975646  0.59386361
   0.33332803  0.58295619  0.40611698
   0.16661294  0.41591172  0.50003267
   0.75131132  0.74966282  0.59390335
   0.24960490  0.00149385  0.59398979
  -0.00192690  0.00063826  0.59385916
   0.08234769  0.33371888  0.40652908
  -0.00072828  0.25147933  0.59328827
   0.08359602  0.83277135  0.40611970
   0.91497368  0.91683590  0.50034274
   0.91734203  0.66627203  0.49965848
   0.33241717  0.08388641  0.40641767
   0.66693312  0.91787984  0.50000049
   0.83365214  0.83227466  0.40706105
   0.75030889  0.49921935  0.59288045
   0.91600920  0.16801058  0.49982075
   0.83344655  0.58330276  0.40711407
   0.74927550  0.25024427  0.59258266
   0.25002271  0.25017449  0.59265955
   0.83309387  0.33376564  0.40743924
   0.74946389  0.00111839  0.59258697
   0.66644110  0.16652447  0.50043271
   0.16606032  0.16743126  0.49993664
   0.91661622  0.41602213  0.49999333
   0.16580435  0.66661060  0.49996759
   0.08289333  0.58352344  0.40707235
   0.50089984  0.49917145  0.59315254
   0.33355623  0.33356955  0.40709917
   0.58403179  0.58274376  0.40690412
   0.50076701  0.24939524  0.59259751
  -0.00018604  0.49971449  0.59288086
   0.58360497  0.33329710  0.40719001
   0.41691687  0.16717956  0.50027483
   0.33333769  0.83327747  0.40689488
  -0.00016342  0.74990305  0.59294240
   0.08302379  0.08392418  0.40732358
Direct configuration=     3
   0.24897391  0.74527071  0.60093152
   0.67443568  0.65929025  0.49813260
   0.67388890  0.40931898  0.50013953
   0.83233426  0.08772127  0.40090814
   0.50346763  0.74381568  0.60232451
   0.41440663  0.92303352  0.49796709
   0.58743499  0.82866644  0.39955925
   0.41724222  0.66384942  0.49831245
   0.42133465  0.40836935  0.50008309
   0.50108727  0.00793652  0.59912847
   0.58329381  0.08606895  0.40194472
   0.16414123  0.92201508  0.49685161
   0.24920468  0.49902585  0.60035494
   0.33331211  0.58182478  0.39956743
   0.16645178  0.41364688  0.50013068
   0.75524530  0.74865126  0.60051391
   0.24841959  0.00597541  0.60085968
  -0.00770761  0.00255305  0.60033713
   0.07939076  0.33487554  0.40121583
  -0.00291314  0.25591731  0.59805357
   0.08438408  0.83108541  0.39957829
   0.90989473  0.91734361  0.50137097
   0.91936813  0.66508811  0.49863390
   0.32966867  0.08554563  0.40077016
   0.66773247  0.92151935  0.50000196
   0.83460855  0.82909865  0.40334368
   0.75123558  0.49687739  0.59642231
   0.91403680  0.17204231  0.49928298
   0.83378619  0.58321105  0.40355577
   0.74710201  0.25097708  0.59523115
   0.25009085  0.25069797  0.59553870
   0.83237548  0.33506257  0.40485645
   0.74785557  0.00447354  0.59524838
   0.66576441  0.16609786  0.50173082
   0.16424127  0.16972506  0.49974657
   0.91646490  0.41408853  0.49997334
   0.16321741  0.66644240  0.49987034
   0.08157332  0.58409377  0.40338891
   0.50359938  0.49668582  0.59751067
   0.33422490  0.33427821  0.40349618
   0.58612715  0.58097504  0.40271599
   0.50306805  0.24758098  0.59529054
  -0.00074416  0.49885798  0.59642396
   0.58441988  0.33318840  0.40385952
   0.41766747  0.16871824  0.50109933
   0.33335074  0.83310988  0.40267903
  -0.00065368  0.74961219  0.59667012
   0.08209517  0.08569672  0.40439382
Direct configuration=     4
   0.24907182  0.74739868  0.60179545
   0.67120480  0.66296426  0.49878064
   0.67034388  0.41171973  0.50018253
   0.83334990  0.08613243  0.39989977
   0.50286891  0.74580306  0.60331383
   0.41681741  0.92087384  0.49847353
   0.58635001  0.82989553  0.39831117
   0.41717113  0.66418505  0.49872629
   0.41931344  0.41223701  0.50014874
   0.50144247  0.00469132  0.60023250
   0.58327003  0.08510198  0.40093529
   0.16312378  0.92067078  0.49778884
   0.24983513  0.49777218  0.60157840
   0.33385862  0.58128313  0.39831239
   0.16673036  0.41418690  0.50002150
   0.75374581  0.74918115  0.60155803
   0.24882162  0.00360961  0.60194377
  -0.00555805  0.00235697  0.60138464
   0.07955012  0.33562034  0.39987344
  -0.00266592  0.25432659  0.59924620
   0.08308484  0.83208468  0.39832305
   0.91316487  0.91844286  0.50081940
   0.91832127  0.66464007  0.49908225
   0.33062706  0.08558825  0.39944016
   0.66522407  0.91962395  0.49984071
   0.83462823  0.83025067  0.40246577
   0.75039375  0.49796882  0.59720514
   0.91616690  0.16816130  0.49968838
   0.83447630  0.58256065  0.40230034
   0.74730210  0.25142725  0.59628697
   0.24973109  0.25183808  0.59632134
   0.83184303  0.33578316  0.40376906
   0.74806437  0.00362405  0.59651769
   0.66736586  0.16505206  0.50092447
   0.16441272  0.16948652  0.49987872
   0.91877985  0.41354171  0.49999907
   0.16532360  0.66654666  0.49992347
   0.08236190  0.58312419  0.40241669
   0.50306707  0.49652807  0.59802312
   0.33334925  0.33464347  0.40272079
   0.58580404  0.58054729  0.40181096
   0.50183888  0.25017614  0.59655744
  -0.00057116  0.49964127  0.59710102
   0.58406762  0.33418727  0.40309400
   0.41752264  0.16671107  0.50061111
   0.33416949  0.83258807  0.40165535
  -0.00068078  0.74945326  0.59744457
   0.08151587  0.08576861  0.40327200
Direct configuration=     5
   0.24911396  0.74831450  0.60216726
   0.66981432  0.66454544  0.49905954
   0.66881822  0.41275295  0.50020104
   0.83378700  0.08544865  0.39946580
   0.50261124  0.74665837  0.60373961
   0.41785494  0.91994437  0.49869149
   0.58588307  0.83042450  0.39777404
   0.41714053  0.66432949  0.49890439
   0.41844357  0.41390154  0.50017700
   0.50159534  0.00329468  0.60070764
   0.58325980  0.08468582  0.40050087
   0.16268590  0.92009223  0.49819220
   0.25010645  0.49723264  0.60210493
   0.33409383  0.58105002  0.39777226
   0.16685025  0.41441931  0.49997451
   0.75310048  0.74940920  0.60200739
   0.24899465  0.00259144  0.60241033
  -0.00463295  0.00227259  0.60183546
   0.07961870  0.33594088  0.39929572
  -0.00255953  0.25364198  0.59975947
   0.08252568  0.83251474  0.39778283
   0.91457224  0.91891595  0.50058202
   0.91787074  0.66444725  0.49927521
   0.33103952  0.08560660  0.39886777
   0.66414453  0.91880822  0.49977131
   0.83463670  0.83074647  0.40208794
   0.75003145  0.49843853  0.59754205
   0.91708363  0.16649102  0.49986285
   0.83477331  0.58228074  0.40176004
   0.74738822  0.25162099  0.59674136
   0.24957625  0.25232875  0.59665817
   0.83161388  0.33609329  0.40330109
   0.74815423  0.00325845  0.59706397
   0.66805508  0.16460198  0.50057744
   0.16448650  0.16938386  0.49993559
   0.91977614  0.41330638  0.50001014
   0.16623004  0.66659153  0.49994634
   0.08270128  0.58270691  0.40199827
   0.50283798  0.49646018  0.59824366
   0.33297239  0.33480066  0.40238709
   0.58566499  0.58036320  0.40142146
   0.50130988  0.25129302  0.59710268
  -0.00049671  0.49997837  0.59739240
   0.58391601  0.33461715  0.40276454
   0.41746031  0.16584724  0.50040100
   0.33452185  0.83236350  0.40121479
  -0.00069244  0.74938486  0.59777787
   0.08126656  0.08579955  0.40278920
Direct configuration=     6
   0.24947831  0.74859371  0.60245745
   0.66884977  0.66499587  0.49932719
   0.66961797  0.41303458  0.50020983
   0.83348868  0.08534541  0.39894373
   0.50192717  0.74745789  0.60421284
   0.41647632  0.91888525  0.49892715
   0.58564128  0.83051130  0.39712111
   0.41635631  0.66638925  0.49914986
   0.41730440  0.41412179  0.50019544
   0.50100452  0.00292370  0.60115128
   0.58340834  0.08458146  0.40008338
   0.16512363  0.91862558  0.49860000
   0.25004667  0.49806146  0.60270213
   0.33379935  0.58163886  0.39717345
   0.16771347  0.41484957  0.49985463
   0.75271938  0.74943402  0.60247734
   0.24947264  0.00186996  0.60282161
  -0.00391369  0.00192935  0.60241698
   0.08026463  0.33546765  0.39861250
  -0.00226712  0.25314691  0.60026739
   0.08295027  0.83231684  0.39718076
   0.91465327  0.91771846  0.50040448
   0.91720737  0.66580927  0.49944802
   0.33107754  0.08539829  0.39832280
   0.66546068  0.91774342  0.49974887
   0.83454761  0.83109829  0.40193950
   0.74972333  0.49909290  0.59765676
   0.91669891  0.16703216  0.50011311
   0.83417579  0.58288495  0.40137527
   0.74771953  0.25158436  0.59710197
   0.24977836  0.25156301  0.59690189
   0.83139721  0.33605811  0.40300106
   0.74844258  0.00282146  0.59732252
   0.66774037  0.16422655  0.50011111
   0.16555884  0.16776598  0.49992820
   0.91903293  0.41318219  0.50002234
   0.16655604  0.66665061  0.49995696
   0.08296869  0.58284249  0.40169858
   0.50187358  0.49769798  0.59845745
   0.33283780  0.33470787  0.40218097
   0.58550869  0.58084116  0.40115946
   0.50109424  0.25109568  0.59740756
  -0.00060981  0.50035682  0.59768245
   0.58394564  0.33426558  0.40250451
   0.41760154  0.16587787  0.50022583
   0.33437573  0.83236938  0.40115088
  -0.00053287  0.74955211  0.59786765
   0.08170410  0.08558264  0.40242376
Direct configuration=     7
   0.24953912  0.74864032  0.60250588
   0.66868878  0.66507105  0.49937186
   0.66975145  0.41308159  0.50021130
   0.83343889  0.08532817  0.39885659
   0.50181299  0.74759134  0.60429182
   0.41624622  0.91870847  0.49896648
   0.58560092  0.83052579  0.39701214
   0.41622542  0.66673305  0.49919083
   0.41711426  0.41415855  0.50019852
   0.50090590  0.00286178  0.60122533
   0.58343314  0.08456404  0.40001369
   0.16553051  0.91838078  0.49866807
   0.25003669  0.49819980  0.60280180
   0.33375020  0.58173714  0.39707351
   0.16785755  0.41492138  0.49983462
   0.75265578  0.74943816  0.60255578
   0.24955242  0.00174954  0.60289025
  -0.00379363  0.00187206  0.60251405
   0.08037245  0.33538866  0.39849846
  -0.00221832  0.25306428  0.60035217
   0.08302113  0.83228381  0.39708026
   0.91466680  0.91751859  0.50037484
   0.91709664  0.66603660  0.49947687
   0.33108389  0.08536352  0.39823183
   0.66568035  0.91756570  0.49974513
   0.83453273  0.83115702  0.40191472
   0.74967190  0.49920212  0.59767591
   0.91663470  0.16712248  0.50015489
   0.83407606  0.58298580  0.40131105
   0.74777483  0.25157825  0.59716216
   0.24981209  0.25143520  0.59694257
   0.83136105  0.33605224  0.40295098
   0.74849071  0.00274852  0.59736567
   0.66768784  0.16416389  0.50003328
   0.16573782  0.16749594  0.49992697
   0.91890888  0.41316146  0.50002437
   0.16661046  0.66666047  0.49995874
   0.08301333  0.58286512  0.40164855
   0.50171261  0.49790458  0.59849313
   0.33281534  0.33469239  0.40214657
   0.58548261  0.58092093  0.40111573
   0.50105824  0.25106274  0.59745845
  -0.00062868  0.50041999  0.59773087
   0.58395059  0.33420690  0.40246111
   0.41762511  0.16588298  0.50019659
   0.33435134  0.83237037  0.40114021
  -0.00050623  0.74958003  0.59788264
   0.08177713  0.08554643  0.40236276
Direct configuration=     8
   0.24954438  0.74842357  0.60274557
   0.66898535  0.66475101  0.49938945
   0.66981493  0.41297600  0.50021495
   0.83345946  0.08545854  0.39858936
   0.50174149  0.74759002  0.60473991
   0.41600129  0.91913214  0.49901327
   0.58551241  0.83055297  0.39668803
   0.41646689  0.66625415  0.49928302
   0.41774049  0.41395318  0.50021739
   0.50067595  0.00338307  0.60133700
   0.58333933  0.08458336  0.39978268
   0.16533125  0.91849172  0.49877724
   0.24980615  0.49877735  0.60317183
   0.33381285  0.58195889  0.39677073
   0.16721824  0.41505282  0.49981771
   0.75274359  0.74944137  0.60285144
   0.24952944  0.00201978  0.60324869
  -0.00391594  0.00164821  0.60279224
   0.08041494  0.33526372  0.39821655
  -0.00202720  0.25327222  0.60057366
   0.08340249  0.83226849  0.39677278
   0.91481427  0.91727825  0.50033047
   0.91721298  0.66580631  0.49947530
   0.33117435  0.08498404  0.39800053
   0.66591822  0.91751857  0.49976541
   0.83452345  0.83105142  0.40186745
   0.74959892  0.49941194  0.59767892
   0.91657316  0.16715922  0.50027686
   0.83374104  0.58343518  0.40134257
   0.74769301  0.25157199  0.59720084
   0.24985967  0.25099419  0.59690927
   0.83149142  0.33575938  0.40289487
   0.74854180  0.00280352  0.59726436
   0.66718327  0.16426503  0.49985429
   0.16598818  0.16725038  0.49986741
   0.91885498  0.41328287  0.49997935
   0.16643309  0.66678691  0.49991427
   0.08281951  0.58316431  0.40162250
   0.50136641  0.49860947  0.59847411
   0.33303075  0.33456135  0.40204833
   0.58532290  0.58127814  0.40111625
   0.50122841  0.25038578  0.59740377
  -0.00052605  0.50030887  0.59773974
   0.58379524  0.33410393  0.40244397
   0.41808618  0.16534731  0.50013892
   0.33407039  0.83253817  0.40116567
  -0.00041483  0.74982896  0.59784500
   0.08202154  0.08526195  0.40238608
Direct configuration=     9
   0.24954809  0.74827064  0.60291469
   0.66919462  0.66452518  0.49940186
   0.66985972  0.41290149  0.50021752
   0.83347398  0.08555053  0.39840080
   0.50169105  0.74758908  0.60505609
   0.41582846  0.91943108  0.49904628
   0.58544995  0.83057215  0.39645934
   0.41663727  0.66591624  0.49934807
   0.41818236  0.41380827  0.50023071
   0.50051369  0.00375090  0.60141580
   0.58327314  0.08459699  0.39961967
   0.16519065  0.91856999  0.49885427
   0.24964347  0.49918487  0.60343293
   0.33385705  0.58211535  0.39655708
   0.16676713  0.41514556  0.49980577
   0.75280555  0.74944364  0.60306006
   0.24951323  0.00221046  0.60350161
  -0.00400224  0.00149025  0.60298854
   0.08044492  0.33517557  0.39801763
  -0.00189235  0.25341894  0.60072994
   0.08367159  0.83225768  0.39655581
   0.91491833  0.91710866  0.50029916
   0.91729507  0.66564381  0.49947420
   0.33123819  0.08471627  0.39783731
   0.66608606  0.91748531  0.49977972
   0.83451690  0.83097691  0.40183409
   0.74954742  0.49955999  0.59768104
   0.91652974  0.16718515  0.50036293
   0.83350464  0.58375227  0.40136482
   0.74763527  0.25156758  0.59722813
   0.24989324  0.25068301  0.59688577
   0.83158341  0.33555273  0.40285527
   0.74857785  0.00284232  0.59719287
   0.66682723  0.16433640  0.49972799
   0.16616484  0.16707711  0.49982538
   0.91881695  0.41336854  0.49994757
   0.16630793  0.66687613  0.49988290
   0.08268275  0.58337542  0.40160412
   0.50112213  0.49910685  0.59846068
   0.33318274  0.33446888  0.40197902
   0.58521020  0.58153020  0.40111662
   0.50134848  0.24990810  0.59736519
  -0.00045364  0.50023045  0.59774601
   0.58368562  0.33403128  0.40243188
   0.41841152  0.16496933  0.50009822
   0.33387216  0.83265658  0.40118364
  -0.00035034  0.75000461  0.59781845
   0.08219399  0.08506122  0.40240253
Direct configuration=    10
   0.24939161  0.74855524  0.60320357
   0.66918498  0.66466930  0.49941295
   0.67011981  0.41251513  0.50020556
   0.83365532  0.08546866  0.39819946
   0.50175566  0.74783174  0.60556449
   0.41630021  0.91924949  0.49908012
   0.58524853  0.83075020  0.39618862
   0.41680362  0.66565720  0.49939048
   0.41802340  0.41359210  0.50028836
   0.50075662  0.00366118  0.60150006
   0.58325895  0.08441234  0.39935127
   0.16474136  0.91871725  0.49899352
   0.24964635  0.49888453  0.60372975
   0.33401781  0.58203458  0.39629088
   0.16703988  0.41472587  0.49979500
   0.75281236  0.74960995  0.60334832
   0.24931579  0.00222608  0.60393482
  -0.00415450  0.00164284  0.60325742
   0.08030312  0.33529145  0.39780382
  -0.00202364  0.25361560  0.60088801
   0.08366974  0.83242048  0.39626168
   0.91486996  0.91746006  0.50018194
   0.91731882  0.66541989  0.49949417
   0.33128715  0.08452243  0.39761796
   0.66608215  0.91730896  0.49978374
   0.83455916  0.83105276  0.40181171
   0.74955783  0.49957151  0.59767178
   0.91650406  0.16703291  0.50050150
   0.83349830  0.58379365  0.40145569
   0.74745134  0.25170892  0.59716891
   0.24983294  0.25100568  0.59673938
   0.83170242  0.33542013  0.40286567
   0.74859109  0.00290354  0.59697529
   0.66694043  0.16416063  0.49953853
   0.16601863  0.16735151  0.49972898
   0.91899291  0.41309173  0.49985979
   0.16642859  0.66663261  0.49978411
   0.08260585  0.58350327  0.40162121
   0.50113122  0.49909640  0.59842885
   0.33316750  0.33453314  0.40200069
   0.58510703  0.58167104  0.40119883
   0.50124087  0.25000391  0.59721330
  -0.00025873  0.50022087  0.59771359
   0.58353491  0.33419024  0.40241841
   0.41840288  0.16501735  0.49996292
   0.33382022  0.83271437  0.40129982
  -0.00048898  0.75016512  0.59774393
   0.08223448  0.08491619  0.40253116
Direct configuration=    11
   0.24924119  0.74882880  0.60348125
   0.66917572  0.66480783  0.49942361
   0.67036981  0.41214374  0.50019406
   0.83382963  0.08538996  0.39800592
   0.50181776  0.74806499  0.60605318
   0.41675366  0.91907494  0.49911265
   0.58505492  0.83092135  0.39592840
   0.41696352  0.66540821  0.49943125
   0.41787060  0.41338430  0.50034378
   0.50099013  0.00357494  0.60158104
   0.58324532  0.08423485  0.39909327
   0.16430948  0.91885880  0.49912737
   0.24964911  0.49859583  0.60401507
   0.33417234  0.58195694  0.39603500
   0.16730205  0.41432246  0.49978465
   0.75281890  0.74976981  0.60362539
   0.24912599  0.00224108  0.60435122
  -0.00430085  0.00178952  0.60351587
   0.08016681  0.33540285  0.39759830
  -0.00214984  0.25380463  0.60103996
   0.08366795  0.83257696  0.39597895
   0.91482347  0.91779785  0.50006926
   0.91734164  0.66520465  0.49951336
   0.33133422  0.08433609  0.39740710
   0.66607840  0.91713945  0.49978760
   0.83459979  0.83112568  0.40179019
   0.74956783  0.49958258  0.59766289
   0.91647937  0.16688658  0.50063470
   0.83349221  0.58383343  0.40154303
   0.74727455  0.25184478  0.59711198
   0.24977498  0.25131583  0.59659867
   0.83181681  0.33529267  0.40287566
   0.74860381  0.00296238  0.59676615
   0.66704924  0.16399167  0.49935642
   0.16587809  0.16761527  0.49963632
   0.91916204  0.41282565  0.49977541
   0.16654458  0.66639852  0.49968915
   0.08253193  0.58362617  0.40163765
   0.50113996  0.49908635  0.59839825
   0.33315285  0.33459491  0.40202152
   0.58500786  0.58180641  0.40127785
   0.50113743  0.25009600  0.59706729
  -0.00007138  0.50021167  0.59768242
   0.58339004  0.33434304  0.40240546
   0.41839458  0.16506350  0.49983287
   0.33377030  0.83276991  0.40141151
  -0.00062224  0.75031941  0.59767230
   0.08227340  0.08477677  0.40265481
Direct configuration=    12
   0.24925582  0.74889513  0.60372249
   0.66904549  0.66472980  0.49952311
   0.67030242  0.41212632  0.50014726
   0.83368535  0.08543561  0.39782797
   0.50187813  0.74818923  0.60658572
   0.41652085  0.91885347  0.49921163
   0.58510523  0.83084217  0.39569906
   0.41676544  0.66563191  0.49952868
   0.41756202  0.41354340  0.50037717
   0.50090193  0.00351324  0.60160498
   0.58339402  0.08419077  0.39883343
   0.16493616  0.91854227  0.49934682
   0.24975152  0.49859985  0.60423014
   0.33409522  0.58196477  0.39585585
   0.16754421  0.41429292  0.49969756
   0.75298672  0.74961636  0.60386733
   0.24904329  0.00245116  0.60473551
  -0.00452568  0.00223403  0.60381015
   0.08018095  0.33548612  0.39741493
  -0.00229402  0.25381072  0.60112268
   0.08366995  0.83246212  0.39574906
   0.91477746  0.91757755  0.49988453
   0.91750068  0.66526618  0.49958937
   0.33108735  0.08464516  0.39723304
   0.66619612  0.91701179  0.49970001
   0.83457324  0.83124930  0.40181245
   0.74949016  0.49977342  0.59760504
   0.91652386  0.16685075  0.50077227
   0.83351990  0.58375792  0.40162955
   0.74712378  0.25196340  0.59702979
   0.24985525  0.25121924  0.59643961
   0.83175579  0.33536179  0.40292251
   0.74858313  0.00306323  0.59649681
   0.66723071  0.16378573  0.49908797
   0.16605417  0.16720836  0.49958449
   0.91925424  0.41254089  0.49970055
   0.16674275  0.66609968  0.49958837
   0.08265564  0.58361633  0.40168182
   0.50106749  0.49908080  0.59835645
   0.33293696  0.33466157  0.40205305
   0.58511040  0.58173537  0.40142122
   0.50108187  0.25045264  0.59686972
  -0.00021034  0.50046445  0.59760704
   0.58347842  0.33432856  0.40239784
   0.41839638  0.16488398  0.49962086
   0.33381320  0.83268181  0.40166975
  -0.00060692  0.75030820  0.59750960
   0.08220331  0.08500056  0.40284474
Direct configuration=    13
   0.24926303  0.74892783  0.60384141
   0.66898129  0.66469134  0.49957216
   0.67026920  0.41211773  0.50012419
   0.83361422  0.08545811  0.39774025
   0.50190788  0.74825048  0.60684824
   0.41640609  0.91874430  0.49926042
   0.58513003  0.83080314  0.39558600
   0.41666780  0.66574218  0.49957672
   0.41740990  0.41362182  0.50039363
   0.50085845  0.00348283  0.60161678
   0.58346732  0.08416903  0.39870534
   0.16524509  0.91838624  0.49945500
   0.24980200  0.49860184  0.60433617
   0.33405720  0.58196863  0.39576754
   0.16766359  0.41427836  0.49965462
   0.75306945  0.74954071  0.60398660
   0.24900252  0.00255472  0.60492495
  -0.00463651  0.00245315  0.60395522
   0.08018792  0.33552717  0.39732453
  -0.00236509  0.25381372  0.60116346
   0.08367093  0.83240551  0.39563573
   0.91475478  0.91746896  0.49979347
   0.91757908  0.66529650  0.49962684
   0.33096565  0.08479751  0.39714724
   0.66625415  0.91694887  0.49965683
   0.83456015  0.83131024  0.40182342
   0.74945187  0.49986750  0.59757652
   0.91654579  0.16683309  0.50084009
   0.83353356  0.58372069  0.40167221
   0.74704945  0.25202187  0.59698927
   0.24989482  0.25117162  0.59636120
   0.83172570  0.33539586  0.40294561
   0.74857293  0.00311294  0.59636404
   0.66732017  0.16368420  0.49895564
   0.16614098  0.16700776  0.49955894
   0.91929969  0.41240051  0.49966364
   0.16684044  0.66595236  0.49953869
   0.08271663  0.58361148  0.40170360
   0.50103177  0.49907807  0.59833584
   0.33283053  0.33469443  0.40206859
   0.58516095  0.58170034  0.40149189
   0.50105448  0.25062845  0.59677233
  -0.00027885  0.50058906  0.59756987
   0.58352198  0.33432142  0.40239409
   0.41839727  0.16479548  0.49951635
   0.33383435  0.83263837  0.40179706
  -0.00059937  0.75030268  0.59742940
   0.08216876  0.08511088  0.40293837
Direct configuration=    14
   0.24927042  0.74899688  0.60403976
   0.66901971  0.66461139  0.49973932
   0.66980650  0.41236827  0.50009765
   0.83363537  0.08552288  0.39759398
   0.50185368  0.74815983  0.60734020
   0.41640986  0.91868419  0.49941437
   0.58519267  0.83071420  0.39550798
   0.41659886  0.66563714  0.49977941
   0.41760886  0.41379598  0.50032805
   0.50076852  0.00359318  0.60152614
   0.58332961  0.08429542  0.39845904
   0.16533774  0.91801618  0.49976570
   0.24973662  0.49889511  0.60444675
   0.33408327  0.58191296  0.39568950
   0.16741656  0.41428774  0.49958316
   0.75306046  0.74954581  0.60414454
   0.24904508  0.00275764  0.60529514
  -0.00475721  0.00257818  0.60419111
   0.08013556  0.33568264  0.39720141
  -0.00243470  0.25400770  0.60116136
   0.08366553  0.83243025  0.39552393
   0.91542970  0.91708872  0.49960934
   0.91751681  0.66516467  0.49968631
   0.33091263  0.08500333  0.39703130
   0.66600622  0.91682805  0.49949966
   0.83452917  0.83120429  0.40181397
   0.74929202  0.50007198  0.59749345
   0.91683184  0.16641665  0.50092882
   0.83361388  0.58373503  0.40177097
   0.74689898  0.25215182  0.59689261
   0.24990557  0.25098072  0.59617638
   0.83167698  0.33545352  0.40299999
   0.74845241  0.00322815  0.59607125
   0.66723534  0.16377567  0.49866320
   0.16637780  0.16660655  0.49959050
   0.91949591  0.41231951  0.49964456
   0.16695861  0.66609204  0.49949486
   0.08272887  0.58355763  0.40170486
   0.50093993  0.49937871  0.59831576
   0.33284416  0.33469353  0.40203792
   0.58523202  0.58158470  0.40165349
   0.50109009  0.25067321  0.59652838
  -0.00032959  0.50058157  0.59745880
   0.58351382  0.33430488  0.40237528
   0.41859241  0.16428084  0.49928460
   0.33388324  0.83262265  0.40202715
  -0.00035889  0.75043587  0.59724524
   0.08194709  0.08527215  0.40317286
Direct configuration=    15
   0.24927196  0.74901121  0.60408095
   0.66902768  0.66459479  0.49977402
   0.66971043  0.41242030  0.50009214
   0.83363976  0.08553632  0.39756360
   0.50184242  0.74814101  0.60744235
   0.41641064  0.91867170  0.49944633
   0.58520568  0.83069573  0.39549178
   0.41658454  0.66561532  0.49982150
   0.41765017  0.41383214  0.50031444
   0.50074985  0.00361609  0.60150732
   0.58330101  0.08432166  0.39840790
   0.16535698  0.91793934  0.49983021
   0.24972304  0.49895600  0.60446971
   0.33408868  0.58190141  0.39567329
   0.16736527  0.41428968  0.49956833
   0.75305859  0.74954687  0.60417733
   0.24905392  0.00279977  0.60537200
  -0.00478226  0.00260414  0.60424009
   0.08012469  0.33571492  0.39717584
  -0.00244915  0.25404798  0.60116092
   0.08366441  0.83243538  0.39550071
   0.91556984  0.91700977  0.49957111
   0.91750388  0.66513730  0.49969866
   0.33090162  0.08504607  0.39700722
   0.66595474  0.91680297  0.49946703
   0.83452274  0.83118229  0.40181200
   0.74925883  0.50011443  0.59747620
   0.91689123  0.16633019  0.50094724
   0.83363056  0.58373800  0.40179147
   0.74686774  0.25217881  0.59687253
   0.24990780  0.25094109  0.59613801
   0.83166686  0.33546549  0.40301128
   0.74842739  0.00325207  0.59601045
   0.66721773  0.16379466  0.49860248
   0.16642697  0.16652325  0.49959705
   0.91953665  0.41230270  0.49964060
   0.16698314  0.66612104  0.49948576
   0.08273142  0.58354645  0.40170512
   0.50092086  0.49944113  0.59831159
   0.33284698  0.33469334  0.40203155
   0.58524677  0.58156068  0.40168704
   0.50109749  0.25068250  0.59647772
  -0.00034012  0.50058001  0.59743574
   0.58351213  0.33430145  0.40237138
   0.41863293  0.16417398  0.49923648
   0.33389338  0.83261939  0.40207493
  -0.00030896  0.75046352  0.59720700
   0.08190107  0.08530564  0.40322155
Direct configuration=    16
   0.24921359  0.74925884  0.60423789
   0.66905056  0.66459574  0.49992837
   0.66996282  0.41230759  0.50009790
   0.83371114  0.08553077  0.39746961
   0.50167558  0.74820838  0.60778760
   0.41656654  0.91844919  0.49959142
   0.58513343  0.83068385  0.39556881
   0.41667625  0.66563146  0.50003716
   0.41755738  0.41363236  0.50019086
   0.50084957  0.00363754  0.60135918
   0.58319006  0.08438852  0.39820971
   0.16524491  0.91784999  0.50012551
   0.24961913  0.49902188  0.60441055
   0.33412992  0.58194619  0.39570173
   0.16747442  0.41413675  0.49953468
   0.75294718  0.74979649  0.60421526
   0.24907312  0.00280410  0.60566373
  -0.00480299  0.00256224  0.60437197
   0.08008276  0.33570788  0.39713327
  -0.00250624  0.25421483  0.60109465
   0.08372779  0.83254273  0.39552135
   0.91572222  0.91694823  0.49944058
   0.91729848  0.66516949  0.49971977
   0.33098632  0.08484766  0.39698270
   0.66602589  0.91667697  0.49929556
   0.83450596  0.83106205  0.40177315
   0.74913515  0.50019177  0.59742271
   0.91686109  0.16617473  0.50099302
   0.83359789  0.58382933  0.40186679
   0.74688037  0.25222675  0.59677176
   0.24987550  0.25112768  0.59599295
   0.83166462  0.33550651  0.40307906
   0.74842149  0.00319083  0.59569812
   0.66733636  0.16362770  0.49839294
   0.16650875  0.16635424  0.49966575
   0.91951508  0.41214123  0.49964710
   0.16703282  0.66608218  0.49946569
   0.08267030  0.58357777  0.40167494
   0.50083855  0.49969654  0.59837790
   0.33297930  0.33475534  0.40197684
   0.58516473  0.58161424  0.40180502
   0.50099628  0.25059700  0.59624514
  -0.00022440  0.50048017  0.59736870
   0.58343127  0.33431175  0.40227564
   0.41868066  0.16422188  0.49905203
   0.33386910  0.83272197  0.40225959
  -0.00020938  0.75069741  0.59706625
   0.08185867  0.08526124  0.40343911
Direct configuration=    17
   0.24918646  0.74937393  0.60431084
   0.66906120  0.66459618  0.50000011
   0.67008013  0.41225520  0.50010057
   0.83374432  0.08552819  0.39742592