unknown system                          
           1
    11.002582    0.000000    0.000000
     5.501291    9.528515    0.000000
     0.000000    0.000000   24.491785
   Au   Pd
  24  24
Direct configuration=     1
   0.08333333  0.08333333  0.40830017
   0.08333333  0.83333333  0.40830017
   0.16666667  0.41666667  0.50000000
   0.00000000  0.75000000  0.59169983
   0.00000000  0.00000000  0.59169983
   0.25000000  0.00000000  0.59169983
   0.91666667  0.91666667  0.50000000
   0.75000000  0.75000000  0.59169983
   0.25000000  0.25000000  0.59169983
   0.16666667  0.66666667  0.50000000
   0.25000000  0.50000000  0.59169983
   0.66666667  0.91666667  0.50000000
   0.91666667  0.41666667  0.50000000
   0.41666667  0.16666667  0.50000000
   0.50000000  0.00000000  0.59169983
   0.41666667  0.41666667  0.50000000
   0.50000000  0.25000000  0.59169983
   0.58333333  0.83333333  0.40830017
   0.75000000  0.00000000  0.59169983
   0.66666667  0.41666667  0.50000000
   0.75000000  0.25000000  0.59169983
   0.66666667  0.66666667  0.50000000
   0.75000000  0.50000000  0.59169983
   0.58333333  0.08333333  0.40830017
   0.58333333  0.58333333  0.40830017
   0.91666667  0.66666667  0.50000000
   0.00000000  0.50000000  0.59169983
   0.58333333  0.33333333  0.40830017
   0.33333333  0.58333333  0.40830017
   0.16666667  0.91666667  0.50000000
   0.33333333  0.83333333  0.40830017
   0.16666667  0.16666667  0.50000000
   0.41666667  0.66666667  0.50000000
   0.33333333  0.08333333  0.40830017
   0.08333333  0.58333333  0.40830017
   0.91666667  0.16666667  0.50000000
   0.50000000  0.75000000  0.59169983
   0.08333333  0.33333333  0.40830017
   0.83333333  0.83333333  0.40830017
   0.83333333  0.58333333  0.40830017
   0.33333333  0.33333333  0.40830017
   0.83333333  0.33333333  0.40830017
   0.00000000  0.25000000  0.59169983
   0.66666667  0.16666667  0.50000000
   0.83333333  0.08333333  0.40830017
   0.41666667  0.91666667  0.50000000
   0.50000000  0.50000000  0.59169983
   0.25000000  0.75000000  0.59169983
Direct configuration=     2
   0.08333333  0.08333333  0.40830017
   0.08333333  0.83333333  0.40830017
   0.16486173  0.41701372  0.49913609
   0.00050901  0.74894236  0.59395401
   0.00108908  0.00038283  0.59354196
   0.24996328 -0.00071522  0.59318856
   0.91604730  0.91787128  0.49917666
   0.75057490  0.74889389  0.59395585
   0.24818269  0.25043011  0.59398100
   0.16748570  0.66717743  0.49955818
   0.24999620  0.50076397  0.59428836
   0.66744443  0.91616461  0.49948064
   0.91820355  0.41551522  0.49956580
   0.41575470  0.16620163  0.49906510
   0.49955817 -0.00110962  0.59392481
   0.41795856  0.41723447  0.49918239
   0.50054472  0.25064713  0.59400649
   0.58333333  0.83333333  0.40830017
   0.74983157  0.00056661  0.59401092
   0.66592164  0.41619354  0.49920336
   0.75024569  0.25023517  0.59361269
   0.66540046  0.66709918  0.49955174
   0.75004468  0.49994182  0.59415569
   0.58333333  0.08333333  0.40830017
   0.58333333  0.58333333  0.40830017
   0.91690587  0.66615924  0.49946584
  -0.00013299  0.49990112  0.59302244
   0.58333333  0.33333333  0.40830017
   0.33333333  0.58333333  0.40830017
   0.16811313  0.91656859  0.49999286
   0.33333333  0.83333333  0.40830017
   0.16633352  0.16598901  0.49960568
   0.41602514  0.66793884  0.49993439
   0.33333333  0.08333333  0.40830017
   0.08333333  0.58333333  0.40830017
   0.91712994  0.16654673  0.49966374
   0.49906817  0.74976327  0.59267225
   0.08333333  0.33333333  0.40830017
   0.83333333  0.83333333  0.40830017
   0.83333333  0.58333333  0.40830017
   0.33333333  0.33333333  0.40830017
   0.83333333  0.33333333  0.40830017
   0.00014534  0.25004887  0.59274101
   0.66747549  0.16704879  0.49944045
   0.83333333  0.08333333  0.40830017
   0.41523541  0.91639239  0.49978212
   0.49931389  0.50125579  0.59295396
   0.25118318  0.74965836  0.59267368
Direct configuration=     3
   0.08333333  0.08333333  0.40830017
   0.08333333  0.83333333  0.40830017
   0.16143472  0.41767267  0.49749579
   0.00147546  0.74693424  0.59823398
   0.00315690  0.00110969  0.59703957
   0.24989355 -0.00207320  0.59601520
   0.91487132  0.92015846  0.49761340
   0.75166646  0.74679374  0.59823930
   0.24473220  0.25124676  0.59831220
   0.16904077  0.66814721  0.49871930
   0.24998899  0.50221452  0.59920315
   0.66892114  0.91521137  0.49849454
   0.92112161  0.41332900  0.49874140
   0.41402317  0.16531868  0.49729004
   0.49871929 -0.00321644  0.59814933
   0.42041145  0.41831254  0.49763002
   0.50157898  0.25187582  0.59838610
   0.58333333  0.83333333  0.40830017
   0.74951176  0.00164242  0.59839893
   0.66450708  0.41529522  0.49769081
   0.75071216  0.25068168  0.59724459
   0.66299635  0.66792038  0.49870062
   0.75012951  0.49983137  0.59881857
   0.58333333  0.08333333  0.40830017
   0.58333333  0.58333333  0.40830017
   0.91736005  0.66519579  0.49845165
  -0.00038550  0.49971339  0.59553366
   0.58333333  0.33333333  0.40830017
   0.33333333  0.58333333  0.40830017
   0.17085950  0.91638237  0.49997931
   0.33333333  0.83333333  0.40830017
   0.16570097  0.16470235  0.49885698
   0.41480710  0.67035429  0.49980981
   0.33333333  0.08333333  0.40830017
   0.08333333  0.58333333  0.40830017
   0.91800955  0.16631902  0.49902528
   0.49729892  0.74931380  0.59451856
   0.08333333  0.33333333  0.40830017
   0.83333333  0.83333333  0.40830017
   0.83333333  0.58333333  0.40830017
   0.33333333  0.33333333  0.40830017
   0.83333333  0.33333333  0.40830017
   0.00042130  0.25014167  0.59471787
   0.66901119  0.16777431  0.49837803
   0.83333333  0.08333333  0.40830017
   0.41251792  0.91587162  0.49936844
   0.49801118  0.50364013  0.59533515
   0.25342966  0.74900969  0.59452272
Direct configuration=     4
   0.08333333  0.08333333  0.40830017
   0.08333333  0.83333333  0.40830017
   0.16327813  0.41768262  0.49892965
   0.00168355  0.74729911  0.60070706
   0.00346589  0.00043570  0.59922205
   0.25011917 -0.00215553  0.59820732
   0.91535694  0.92044019  0.49938943
   0.75157433  0.74639767  0.60085230
   0.24457661  0.25178052  0.60085874
   0.16888872  0.66796120  0.50035274
   0.25056386  0.50170671  0.60202459
   0.66898340  0.91506697  0.50058143
   0.91870394  0.41358997  0.50004555
   0.41317751  0.16563394  0.49920794
   0.49855118 -0.00341074  0.60056090
   0.41898996  0.41806593  0.49911149
   0.50042745  0.25261196  0.60078536
   0.58333333  0.83333333  0.40830017
   0.74991578  0.00115081  0.60104561
   0.66620593  0.41565525  0.49901722
   0.75100820  0.25158209  0.59953927
   0.66353598  0.66668035  0.50031341
   0.74997281  0.49957632  0.60153541
   0.58333333  0.08333333  0.40830017
   0.58333333  0.58333333  0.40830017
   0.91696298  0.66596173  0.49950747
  -0.00030776  0.49937979  0.59704918
   0.58333333  0.33333333  0.40830017
   0.33333333  0.58333333  0.40830017
   0.17063471  0.91686975  0.50106655
   0.33333333  0.83333333  0.40830017
   0.16619333  0.16365210  0.49983523
   0.41469426  0.67103261  0.50042378
   0.33333333  0.08333333  0.40830017
   0.08333333  0.58333333  0.40830017
   0.91827817  0.16607344  0.50007481
   0.49754740  0.74856571  0.59583813
   0.08333333  0.33333333  0.40830017
   0.83333333  0.83333333  0.40830017
   0.83333333  0.58333333  0.40830017
   0.33333333  0.33333333  0.40830017
   0.83333333  0.33333333  0.40830017
  -0.00011283  0.25066134  0.59603173
   0.66895119  0.16768142  0.49969205
   0.83333333  0.08333333  0.40830017
   0.41210683  0.91646109  0.50039090
   0.49797072  0.50426493  0.59673864
   0.25358952  0.74860597  0.59588654
Direct configuration=     5
   0.08333333  0.08333333  0.40830017
   0.08333333  0.83333333  0.40830017
   0.16880836  0.41771246  0.50323123
   0.00230781  0.74839373  0.60812630
   0.00439285 -0.00158627  0.60576947
   0.25079603 -0.00240252  0.60478368
   0.91681381  0.92128537  0.50471752
   0.75129793  0.74520946  0.60869129
   0.24410985  0.25338179  0.60849838
   0.16843256  0.66740317  0.50525307
   0.25228844  0.50018331  0.61048892
   0.66917020  0.91463376  0.50684213
   0.91145095  0.41437289  0.50395800
   0.41064054  0.16657973  0.50496167
   0.49804685 -0.00399363  0.60779560
   0.41472549  0.41732609  0.50355590
   0.49697286  0.25482037  0.60798315
   0.58333333  0.83333333  0.40830017
   0.75112781 -0.00032401  0.60898567
   0.67130246  0.41673536  0.50299647
   0.75189631  0.25428332  0.60642332
   0.66515487  0.66296026  0.50515178
   0.74950269  0.49881119  0.60968593
   0.58333333  0.08333333  0.40830017
   0.58333333  0.58333333  0.40830017
   0.91577177  0.66825956  0.50267494
  -0.00007453  0.49837898  0.60159574
   0.58333333  0.33333333  0.40830017
   0.33333333  0.58333333  0.40830017
   0.16996033  0.91833188  0.50432826
   0.33333333  0.83333333  0.40830017
   0.16767043  0.16050136  0.50277000
   0.41435577  0.67306758  0.50226570
   0.33333333  0.08333333  0.40830017
   0.08333333  0.58333333  0.40830017
   0.91908404  0.16533669  0.50322341
   0.49829283  0.74632144  0.59979682
   0.08333333  0.33333333  0.40830017
   0.83333333  0.83333333  0.40830017
   0.83333333  0.58333333  0.40830017
   0.33333333  0.33333333  0.40830017
   0.83333333  0.33333333  0.40830017
  -0.00171523  0.25222037  0.59997332
   0.66877118  0.16740277  0.50363412
   0.83333333  0.08333333  0.40830017
   0.41087357  0.91822949  0.50345826
   0.49784933  0.50613932  0.60094911
   0.25406911  0.74739482  0.59997803
Direct configuration=     6
   0.08333333  0.08333333  0.40830017
   0.08333333  0.83333333  0.40830017
   0.16318272  0.41785957  0.50545568
   0.00234171  0.74750343  0.61042702
   0.00328072 -0.00079661  0.60788393
   0.25031867 -0.00130042  0.60686945
   0.91717910  0.91981173  0.50702931
   0.75131328  0.74572145  0.61119220
   0.24516470  0.25208615  0.61091043
   0.16650475  0.66920111  0.50729885
   0.25061940  0.50149409  0.61328915
   0.66714543  0.91564278  0.50925267
   0.91968151  0.41463014  0.50562241
   0.41413005  0.16435649  0.50749794
   0.49887151 -0.00305224  0.61003844
   0.41958634  0.41671179  0.50571699
   0.49967657  0.25241576  0.61005625
   0.58333333  0.83333333  0.40830017
   0.74975829  0.00121532  0.61151032
   0.66436343  0.41456851  0.50502582
   0.75025775  0.25199004  0.60843668
   0.66477307  0.66810281  0.50712375
   0.74958716  0.50023981  0.61268427
   0.58333333  0.08333333  0.40830017
   0.58333333  0.58333333  0.40830017
   0.91650233  0.66726779  0.50485487
  -0.00019429  0.49968188  0.60267951
   0.58333333  0.33333333  0.40830017
   0.33333333  0.58333333  0.40830017
   0.16811182  0.91780378  0.50621450
   0.33333333  0.83333333  0.40830017
   0.16559047  0.16474484  0.50480812
   0.41482943  0.67024388  0.50330283
   0.33333333  0.08333333  0.40830017
   0.08333333  0.58333333  0.40830017
   0.91888999  0.16398319  0.50527896
   0.49913793  0.74754393  0.60136193
   0.08333333  0.33333333  0.40830017
   0.83333333  0.83333333  0.40830017
   0.83333333  0.58333333  0.40830017
   0.33333333  0.33333333  0.40830017
   0.83333333  0.33333333  0.40830017
  -0.00018482  0.25080397  0.60142205
   0.66677845  0.16852924  0.50614312
   0.83333333  0.08333333  0.40830017
   0.41479572  0.91736179  0.50539541
   0.49883418  0.50343785  0.60198620
   0.25281403  0.74775210  0.60156015
Direct configuration=     7
   0.08333333  0.08333333  0.40830017
   0.08333333  0.83333333  0.40830017
   0.16403646  0.41783725  0.50511810
   0.00233657  0.74763854  0.61007786
   0.00344950 -0.00091645  0.60756304
   0.25039111 -0.00146767  0.60655291
   0.91712366  0.92003537  0.50667848
   0.75131095  0.74564375  0.61081267
   0.24500462  0.25228277  0.61054438
   0.16679731  0.66892825  0.50698839
   0.25087269  0.50129517  0.61286419
   0.66745270  0.91548966  0.50888685
   0.91843246  0.41459110  0.50536982
   0.41360048  0.16469389  0.50711304
   0.49874636 -0.00319510  0.60969807
   0.41884867  0.41680501  0.50538903
   0.49926626  0.25278068  0.60974164
   0.58333333  0.83333333  0.40830017
   0.74996613  0.00098171  0.61112718
   0.66541649  0.41489734  0.50471785
   0.75050641  0.25233807  0.60813114
   0.66483101  0.66732238  0.50682448
   0.74957434  0.50002300  0.61222925
   0.58333333  0.08333333  0.40830017
   0.58333333  0.58333333  0.40830017
   0.91639146  0.66741830  0.50452405
  -0.00017611  0.49948415  0.60251504
   0.58333333  0.33333333  0.40830017
   0.33333333  0.58333333  0.40830017
   0.16839234  0.91788392  0.50592825
   0.33333333  0.83333333  0.40830017
   0.16590612  0.16410086  0.50449882
   0.41475755  0.67067240  0.50314544
   0.33333333  0.08333333  0.40830017
   0.08333333  0.58333333  0.40830017
   0.91891944  0.16418859  0.50496702
   0.49900968  0.74735841  0.60112441
   0.08333333  0.33333333  0.40830017
   0.83333333  0.83333333  0.40830017
   0.83333333  0.58333333  0.40830017
   0.33333333  0.33333333  0.40830017
   0.83333333  0.33333333  0.40830017
  -0.00041707  0.25101892  0.60120219
   0.66708086  0.16835829  0.50576236
   0.83333333  0.08333333  0.40830017
   0.41420050  0.91749347  0.50510143
   0.49868472  0.50384782  0.60182882
   0.25300450  0.74769788  0.60132005
Direct configuration=     8
   0.08333333  0.08333333  0.40830017
   0.08333333  0.83333333  0.40830017
   0.16464715  0.41729080  0.50566699
   0.00136836  0.74773390  0.61065484
   0.00240000 -0.00006615  0.60812628
   0.25032715 -0.00136659  0.60682174
   0.91526073  0.91939967  0.50714547
   0.75146621  0.74680295  0.61151547
   0.24604920  0.25163997  0.61110381
   0.16692836  0.66769005  0.50729853
   0.25047894  0.50120556  0.61342635
   0.66778190  0.91654663  0.50926297
   0.91784068  0.41549026  0.50559797
   0.41452598  0.16543822  0.50756368
   0.49914153 -0.00248302  0.61040598
   0.41726143  0.41713690  0.50585936
   0.50001308  0.25174126  0.61024101
   0.58333333  0.83333333  0.40830017
   0.74973862  0.00101804  0.61179673
   0.66629768  0.41526073  0.50526313
   0.75026779  0.25120940  0.60852328
   0.66590368  0.66677701  0.50714812
   0.75007498  0.49965116  0.61276682
   0.58333333  0.08333333  0.40830017
   0.58333333  0.58333333  0.40830017
   0.91615520  0.66809168  0.50543490
  -0.00015782  0.50019644  0.60302193
   0.58333333  0.33333333  0.40830017
   0.33333333  0.58333333  0.40830017
   0.16877467  0.91783562  0.50668301
   0.33333333  0.83333333  0.40830017
   0.16613575  0.16500600  0.50538239
   0.41496756  0.66968542  0.50364161
   0.33333333  0.08333333  0.40830017
   0.08333333  0.58333333  0.40830017
   0.91765437  0.16529230  0.50581056
   0.49883428  0.74852416  0.60174918
   0.08333333  0.33333333  0.40830017
   0.83333333  0.83333333  0.40830017
   0.83333333  0.58333333  0.40830017
   0.33333333  0.33333333  0.40830017
   0.83333333  0.33333333  0.40830017
  -0.00025476  0.25034315  0.60186250
   0.66710635  0.16653653  0.50676010
   0.83333333  0.08333333  0.40830017
   0.41460267  0.91714120  0.50593508
   0.49910896  0.50233000  0.60229740
   0.25267504  0.74831118  0.60197297
Direct configuration=     9
   0.08333333  0.08333333  0.40830017
   0.08333333  0.83333333  0.40830017
   0.16475866  0.41719102  0.50576721
   0.00119157  0.74775131  0.61076019
   0.00220836  0.00008911  0.60822913
   0.25031547 -0.00134813  0.60687082
   0.91492057  0.91928359  0.50723073
   0.75149457  0.74701461  0.61164380
   0.24623994  0.25152260  0.61120596
   0.16695229  0.66746396  0.50735516
   0.25040704  0.50118920  0.61352900
   0.66784200  0.91673963  0.50933164
   0.91773262  0.41565444  0.50563962
   0.41469497  0.16557413  0.50764597
   0.49921368 -0.00235300  0.61053524
   0.41697161  0.41719750  0.50594525
   0.50014944  0.25155146  0.61033219
   0.58333333  0.83333333  0.40830017
   0.74969708  0.00102467  0.61191899
   0.66645859  0.41532708  0.50536270
   0.75022422  0.25100331  0.60859488
   0.66609954  0.66667743  0.50720721
   0.75016640  0.49958326  0.61286497
   0.58333333  0.08333333  0.40830017
   0.58333333  0.58333333  0.40830017
   0.91611206  0.66821464  0.50560122
  -0.00015448  0.50032650  0.60311449
   0.58333333  0.33333333  0.40830017
   0.33333333  0.58333333  0.40830017
   0.16884448  0.91782680  0.50682082
   0.33333333  0.83333333  0.40830017
   0.16617768  0.16517128  0.50554373
   0.41500591  0.66950520  0.50373221
   0.33333333  0.08333333  0.40830017
   0.08333333  0.58333333  0.40830017
   0.91742338  0.16549383  0.50596459
   0.49880225  0.74873702  0.60186326
   0.08333333  0.33333333  0.40830017
   0.83333333  0.83333333  0.40830017
   0.83333333  0.58333333  0.40830017
   0.33333333  0.33333333  0.40830017
   0.83333333  0.33333333  0.40830017
  -0.00022512  0.25021976  0.60198307
   0.66711100  0.16620389  0.50694228
   0.83333333  0.08333333  0.40830017
   0.41467611  0.91707687  0.50608730
   0.49918643  0.50205286  0.60238296
   0.25261488  0.74842317  0.60209219
Direct configuration=    10
   0.08333333  0.08333333  0.40830017
   0.08333333  0.83333333  0.40830017
   0.16521979  0.41691241  0.50580783
   0.00117115  0.74827478  0.61104746
   0.00209490 -0.00015682  0.60841878
   0.25034678 -0.00135043  0.60689931
   0.91556264  0.91912449  0.50715849
   0.75104826  0.74736781  0.61201977
   0.24631373  0.25157032  0.61144615
   0.16674155  0.66760581  0.50733243
   0.25064306  0.50097218  0.61370090
   0.66734500  0.91635909  0.50920083
   0.91677869  0.41585717  0.50564461
   0.41445718  0.16586384  0.50750576
   0.49913651 -0.00224497  0.61093777
   0.41685122  0.41703869  0.50592663
   0.49957556  0.25181449  0.61065107
   0.58333333  0.83333333  0.40830017
   0.75016257  0.00040024  0.61244955
   0.66709908  0.41527804  0.50543231
   0.75040615  0.25124642  0.60874186
   0.66615647  0.66653016  0.50724056
   0.75034629  0.49926892  0.61289776
   0.58333333  0.08333333  0.40830017
   0.58333333  0.58333333  0.40830017
   0.91605993  0.66825745  0.50596370
  -0.00002008  0.49990633  0.60347715
   0.58333333  0.33333333  0.40830017
   0.33333333  0.58333333  0.40830017
   0.16853982  0.91796566  0.50709061
   0.33333333  0.83333333  0.40830017
   0.16673492  0.16489074  0.50590755
   0.41530296  0.66931004  0.50407761
   0.33333333  0.08333333  0.40830017
   0.08333333  0.58333333  0.40830017
   0.91707283  0.16556378  0.50624213
   0.49903667  0.74864209  0.60221451
   0.08333333  0.33333333  0.40830017
   0.83333333  0.83333333  0.40830017
   0.83333333  0.58333333  0.40830017
   0.33333333  0.33333333  0.40830017
   0.83333333  0.33333333  0.40830017
  -0.00048218  0.25062170  0.60242520
   0.66695001  0.16673033  0.50723214
   0.83333333  0.08333333  0.40830017
   0.41465494  0.91711080  0.50642136
   0.49922162  0.50193571  0.60267673
   0.25247699  0.74844776  0.60247077
Direct configuration=    11
   0.08333333  0.08333333  0.40830017
   0.08333333  0.83333333  0.40830017
   0.16540334  0.41680151  0.50582399
   0.00116302  0.74848315  0.61116181
   0.00204973 -0.00025472  0.60849427
   0.25035924 -0.00135134  0.60691065
   0.91581822  0.91906115  0.50712973
   0.75087061  0.74750840  0.61216943
   0.24634311  0.25158931  0.61154176
   0.16665766  0.66766227  0.50732338
   0.25073701  0.50088580  0.61376932
   0.66714717  0.91620761  0.50914876
   0.91639899  0.41593787  0.50564660
   0.41436253  0.16597915  0.50744995
   0.49910579 -0.00220196  0.61109800
   0.41680329  0.41697547  0.50591921
   0.49934713  0.25191919  0.61077801
   0.58333333  0.83333333  0.40830017
   0.75034786  0.00015169  0.61266074
   0.66735402  0.41525851  0.50546003
   0.75047856  0.25134320  0.60880037
   0.66617913  0.66647154  0.50725384
   0.75041789  0.49914380  0.61291081
   0.58333333  0.08333333  0.40830017
   0.58333333  0.58333333  0.40830017
   0.91603918  0.66827449  0.50610799
   0.00003342  0.49973908  0.60362150
   0.58333333  0.33333333  0.40830017
   0.33333333  0.58333333  0.40830017
   0.16841854  0.91802094  0.50719799
   0.33333333  0.83333333  0.40830017
   0.16695673  0.16477907  0.50605237
   0.41542120  0.66923236  0.50421509
   0.33333333  0.08333333  0.40830017
   0.08333333  0.58333333  0.40830017
   0.91693329  0.16559162  0.50635261
   0.49912998  0.74860430  0.60235432
   0.08333333  0.33333333  0.40830017
   0.83333333  0.83333333  0.40830017
   0.83333333  0.58333333  0.40830017
   0.33333333  0.33333333  0.40830017
   0.83333333  0.33333333  0.40830017
  -0.00058450  0.25078170  0.60260119
   0.66688593  0.16693988  0.50734751
   0.83333333  0.08333333  0.40830017
   0.41464652  0.91712430  0.50655434
   0.49923563  0.50188908  0.60279366
   0.25242210  0.74845755  0.60262147
Direct configuration=    12
   0.08333333  0.08333333  0.40830017
   0.08333333  0.83333333  0.40830017
   0.16462327  0.41703070  0.50581618
   0.00159678  0.74821771  0.61148577
   0.00219524 -0.00029509  0.60870950
   0.25022200 -0.00131475  0.60698249
   0.91580840  0.91936257  0.50697786
   0.75074850  0.74721881  0.61257580
   0.24614469  0.25163280  0.61180172
   0.16681427  0.66781250  0.50732922
   0.25060107  0.50117330  0.61390763
   0.66692861  0.91610805  0.50901430
   0.91697757  0.41549521  0.50568253
   0.41448274  0.16563864  0.50725277
   0.49901256 -0.00208945  0.61152023
   0.41742193  0.41710750  0.50586037
   0.49941245  0.25187023  0.61112955
   0.58333333  0.83333333  0.40830017
   0.75025504  0.00017871  0.61320974
   0.66684093  0.41526376  0.50544702
   0.75040589  0.25137401  0.60899624
   0.66565921  0.66677572  0.50728849
   0.75033837  0.49939085  0.61290264
   0.58333333  0.08333333  0.40830017
   0.58333333  0.58333333  0.40830017
   0.91616200  0.66795590  0.50645707
   0.00003311  0.49960206  0.60400288
   0.58333333  0.33333333  0.40830017
   0.33333333  0.58333333  0.40830017
   0.16829779  0.91812207  0.50736664
   0.33333333  0.83333333  0.40830017
   0.16680902  0.16468733  0.50632194
   0.41551138  0.66921996  0.50457366
   0.33333333  0.08333333  0.40830017
   0.08333333  0.58333333  0.40830017
   0.91725725  0.16527678  0.50655852
   0.49944219  0.74809692  0.60274228
   0.08333333  0.33333333  0.40830017
   0.83333333  0.83333333  0.40830017
   0.83333333  0.58333333  0.40830017
   0.33333333  0.33333333  0.40830017
   0.83333333  0.33333333  0.40830017
  -0.00056037  0.25101678  0.60305236
   0.66687989  0.16722088  0.50758233
   0.83333333  0.08333333  0.40830017
   0.41445656  0.91709336  0.50679474
   0.49914377  0.50215774  0.60305419
   0.25253336  0.74815584  0.60299332
Direct configuration=    13
   0.08333333  0.08333333  0.40830017
   0.08333333  0.83333333  0.40830017
   0.16450594  0.41706517  0.50581501
   0.00166201  0.74817779  0.61153449
   0.00221712 -0.00030116  0.60874187
   0.25020136 -0.00130925  0.60699330
   0.91580692  0.91940790  0.50695502
   0.75073013  0.74717526  0.61263692
   0.24611485  0.25163934  0.61184082
   0.16683783  0.66783510  0.50733010
   0.25058062  0.50121654  0.61392844
   0.66689574  0.91609308  0.50899408
   0.91706459  0.41542864  0.50568793
   0.41450082  0.16558743  0.50722312
   0.49899854 -0.00207253  0.61158373
   0.41751498  0.41712736  0.50585152
   0.49942227  0.25186287  0.61118243
   0.58333333  0.83333333  0.40830017
   0.75024107  0.00018277  0.61329231
   0.66676376  0.41526455  0.50544507
   0.75039496  0.25137865  0.60902570
   0.66558101  0.66682147  0.50729370
   0.75032641  0.49942800  0.61290141
   0.58333333  0.08333333  0.40830017
   0.58333333  0.58333333  0.40830017
   0.91618047  0.66790798  0.50650957
   0.00003307  0.49958145  0.60406024
   0.58333333  0.33333333  0.40830017
   0.33333333  0.58333333  0.40830017
   0.16827963  0.91813728  0.50739200
   0.33333333  0.83333333  0.40830017
   0.16678680  0.16467354  0.50636248
   0.41552494  0.66921809  0.50462759
   0.33333333  0.08333333  0.40830017
   0.08333333  0.58333333  0.40830017
   0.91730598  0.16522942  0.50658948
   0.49948914  0.74802061  0.60280063
   0.08333333  0.33333333  0.40830017
   0.83333333  0.83333333  0.40830017
   0.83333333  0.58333333  0.40830017
   0.33333333  0.33333333  0.40830017
   0.83333333  0.33333333  0.40830017
  -0.00055674  0.25105214  0.60312021
   0.66687898  0.16726314  0.50761764
   0.83333333  0.08333333  0.40830017
   0.41442799  0.91708870  0.50683090
   0.49912995  0.50219814  0.60309337
   0.25255009  0.74811047  0.60304925
Direct configuration=    14
   0.08333333  0.08333333  0.40830017
   0.08333333  0.83333333  0.40830017
   0.16451324  0.41719226  0.50584662
   0.00157093  0.74793024  0.61170963
   0.00219810 -0.00017284  0.60887276
   0.25027897 -0.00147712  0.60710789
   0.91511657  0.91953780  0.50695769
   0.75104902  0.74706268  0.61286389
   0.24617030  0.25169344  0.61196502
   0.16711227  0.66770721  0.50739402
   0.25057170  0.50115150  0.61395042
   0.66736934  0.91627506  0.50909511
   0.91728003  0.41513490  0.50578497
   0.41444193  0.16566672  0.50721383
   0.49896417 -0.00216493  0.61178876
   0.41726298  0.41721501  0.50586371
   0.49955892  0.25184785  0.61136233
   0.58333333  0.83333333  0.40830017
   0.75010014  0.00023044  0.61352659
   0.66673405  0.41530999  0.50541551
   0.75025959  0.25130008  0.60916573
   0.66552383  0.66672582  0.50733601
   0.75026354  0.49949809  0.61285581
   0.58333333  0.08333333  0.40830017
   0.58333333  0.58333333  0.40830017
   0.91606440  0.66797501  0.50669496
  -0.00004239  0.49979064  0.60431040
   0.58333333  0.33333333  0.40830017
   0.33333333  0.58333333  0.40830017
   0.16851253  0.91798120  0.50741222
   0.33333333  0.83333333  0.40830017
   0.16645825  0.16468416  0.50641720
   0.41516025  0.66960906  0.50478097
   0.33333333  0.08333333  0.40830017
   0.08333333  0.58333333  0.40830017
   0.91762391  0.16525614  0.50667906
   0.49937675  0.74801031  0.60305758
   0.08333333  0.33333333  0.40830017
   0.83333333  0.83333333  0.40830017
   0.83333333  0.58333333  0.40830017
   0.33333333  0.33333333  0.40830017
   0.83333333  0.33333333  0.40830017
  -0.00054536  0.25099011  0.60337665
   0.66705601  0.16678097  0.50769621
   0.83333333  0.08333333  0.40830017
   0.41417652  0.91703285  0.50690183
   0.49910221  0.50223706  0.60323700
   0.25273190  0.74802225  0.60323449
Direct configuration=    15
   0.08333333  0.08333333  0.40830017
   0.08333333  0.83333333  0.40830017
   0.16451296  0.41718744  0.50584542
   0.00157439  0.74793964  0.61170298
   0.00219882 -0.00017771  0.60886779
   0.25027603 -0.00147075  0.60710354
   0.91514276  0.91953287  0.50695759
   0.75103692  0.74706695  0.61285528
   0.24616819  0.25169139  0.61196031
   0.16710185  0.66771207  0.50739159
   0.25057204  0.50115397  0.61394958
   0.66735137  0.91626815  0.50909128
   0.91727185  0.41514604  0.50578129
   0.41444416  0.16566371  0.50721418
   0.49896548 -0.00216142  0.61178098
   0.41727254  0.41721168  0.50586325
   0.49955373  0.25184842  0.61135550
   0.58333333  0.83333333  0.40830017
   0.75010549  0.00022863  0.61351770
   0.66673518  0.41530827  0.50541663
   0.75026472  0.25130306  0.60916042
   0.66552600  0.66672945  0.50733440
   0.75026593  0.49949543  0.61285754
   0.58333333  0.08333333  0.40830017
   0.58333333  0.58333333  0.40830017
   0.91606881  0.66797246  0.50668793
  -0.00003953  0.49978270  0.60430091
   0.58333333  0.33333333  0.40830017
   0.33333333  0.58333333  0.40830017
   0.16850370  0.91798712  0.50741145
   0.33333333  0.83333333  0.40830017
   0.16647072  0.16468376  0.50641512
   0.41517409  0.66959422  0.50477515
   0.33333333  0.08333333  0.40830017
   0.08333333  0.58333333  0.40830017
   0.91761184  0.16525513  0.50667566
   0.49938102  0.74801070  0.60304783
   0.08333333  0.33333333  0.40830017
   0.83333333  0.83333333  0.40830017
   0.83333333  0.58333333  0.40830017
   0.33333333  0.33333333  0.40830017
   0.83333333  0.33333333  0.40830017
  -0.00054579  0.25099247  0.60336692
   0.66704929  0.16679927  0.50769323
   0.83333333  0.08333333  0.40830017
   0.41418607  0.91703497  0.50689914
   0.49910326  0.50223558  0.60323155
   0.25272500  0.74802560  0.60322746
Direct configuration=    16
   0.08333333  0.08333333  0.40830017
   0.08333333  0.83333333  0.40830017
   0.16465506  0.41720128  0.50590554
   0.00144954  0.74803099  0.61179275
   0.00212398 -0.00026433  0.60890894
   0.25036640 -0.00155015  0.60722893
   0.91524167  0.91935464  0.50704312
   0.75107547  0.74716165  0.61298078
   0.24628703  0.25167172  0.61200111
   0.16689531  0.66789740  0.50747398
   0.25067128  0.50097064  0.61393830
   0.66730235  0.91625434  0.50926945
   0.91722231  0.41522705  0.50589703
   0.41431873  0.16568115  0.50730674
   0.49900904 -0.00235216  0.61185227
   0.41717807  0.41709304  0.50592394
   0.49956831  0.25185454  0.61144754
   0.58333333  0.83333333  0.40830017
   0.75006584  0.00020265  0.61364847
   0.66676493  0.41520528  0.50541975
   0.75023659  0.25128627  0.60924522
   0.66560946  0.66674872  0.50738551
   0.75024574  0.49942370  0.61280198
   0.58333333  0.08333333  0.40830017
   0.58333333  0.58333333  0.40830017
   0.91602205  0.66795600  0.50675631
  -0.00002906  0.49981159  0.60447170
   0.58333333  0.33333333  0.40830017
   0.33333333  0.58333333  0.40830017
   0.16838469  0.91784757  0.50739992
   0.33333333  0.83333333  0.40830017
   0.16640882  0.16472395  0.50640666
   0.41502216  0.66977217  0.50483157
   0.33333333  0.08333333  0.40830017
   0.08333333  0.58333333  0.40830017
   0.91768291  0.16524378  0.50670822
   0.49930509  0.74818025  0.60320667
   0.08333333  0.33333333  0.40830017
   0.83333333  0.83333333  0.40830017
   0.83333333  0.58333333  0.40830017
   0.33333333  0.33333333  0.40830017
   0.83333333  0.33333333  0.40830017
  -0.00054902  0.25094265  0.60353109
   0.66704291  0.16676949  0.50771155
   0.83333333  0.08333333  0.40830017
   0.41429445  0.91706786  0.50690689
   0.49913371  0.50211721  0.60328635
   0.25264818  0.74811128  0.60333054
Direct configuration=    17
   0.08333333  0.08333333  0.40830017
   0.08333333  0.83333333  0.40830017
   0.16474857  0.41721038  0.50594509
   0.00136739  0.74809110  0.61185181