unknown system                          
           1
    11.002582    0.000000    0.000000
     5.501291    9.528515    0.000000
     0.000000    0.000000   26.191785
   Au   O    Pd
  24   8  24
Direct configuration=     1
   0.08333333  0.08333333  0.38179910
   0.16734591  0.66411951  0.47124860
   0.58333333  0.83333333  0.38179910
   0.91678710  0.16923153  0.51575415
   0.03078466  0.93868620  0.60913178
   0.08333333  0.33333333  0.38179910
   0.77448963  0.99000071  0.56361947
   0.83333333  0.08333333  0.38179910
   0.83333333  0.58333333  0.38179910
   0.08333333  0.58333333  0.38179910
   0.50866447  0.72691859  0.56524625
   0.58333333  0.58333333  0.38179910
   0.41167806  0.91516119  0.47577464
   0.91938959  0.91757233  0.47446984
   0.77398486  0.46983723  0.55860792
   0.41483413  0.41303397  0.47473349
   0.58333333  0.33333333  0.38179910
   0.15910837  0.17527814  0.48024166
   0.48228546  0.98626999  0.56695081
   0.41315729  0.16844614  0.47342836
   0.75280312  0.74390021  0.56047886
   0.25617757  0.74453578  0.56033071
   0.33333333  0.83333333  0.38179910
   0.27016561  0.51167500  0.59415565
   0.12611582  0.05866258  0.63213268
   0.06294375  0.61588373  0.62783718
   0.10233593  0.32547526  0.64015946
   0.35532898  0.31121140  0.62117714
   0.76516099  0.40318098  0.63707428
   0.77716242  0.69055431  0.63558767
   0.83302829  0.06605287  0.64209413
   0.58712784  0.06065672  0.61075085
   0.16016740  0.92449696  0.47323127
   0.24430146  0.23970395  0.58344567
   0.16134791  0.42228376  0.49792650
   0.58333333  0.08333333  0.38179910
   0.33333333  0.33333333  0.38179910
   0.83333333  0.83333333  0.38179910
   0.23071057  0.00324184  0.56599467
   0.33333333  0.08333333  0.38179910
   0.66688748  0.91664528  0.47410048
   0.50983372  0.23848839  0.56878589
   0.00810184  0.72916382  0.56334607
   0.08333333  0.83333333  0.38179910
   0.73273060  0.25228091  0.61080435
   0.52069786  0.47296316  0.56022771
   0.66987382  0.66001376  0.47309183
   0.95128220  0.51987977  0.63340071
   0.91794003  0.66175145  0.47211851
   0.96583186  0.25682378  0.62943421
   0.67071837  0.16680242  0.47789671
   0.92121939  0.41374550  0.47261441
   0.83333333  0.33333333  0.38179910
   0.67761525  0.40445606  0.47072374
   0.33333333  0.58333333  0.38179910
   0.42120339  0.65893938  0.47274298
Direct configuration=     2
   0.08333333  0.08333333  0.38179910
   0.16733134  0.66409535  0.47128529
   0.58333333  0.83333333  0.38179910
   0.91672477  0.16925265  0.51571731
   0.03075730  0.93894512  0.60924145
   0.08333333  0.33333333  0.38179910
   0.77421826  0.99019601  0.56357009
   0.83333333  0.08333333  0.38179910
   0.83333333  0.58333333  0.38179910
   0.08333333  0.58333333  0.38179910
   0.50868891  0.72686518  0.56522401
   0.58333333  0.58333333  0.38179910
   0.41178847  0.91516487  0.47572975
   0.91930081  0.91765099  0.47450721
   0.77396379  0.46993789  0.55861318
   0.41469780  0.41310417  0.47475005
   0.58333333  0.33333333  0.38179910
   0.15903005  0.17510372  0.48030344
   0.48252582  0.98695234  0.56703226
   0.41306472  0.16856241  0.47344664
   0.75284740  0.74381004  0.56042762
   0.25619746  0.74443195  0.56033711
   0.33333333  0.83333333  0.38179910
   0.27022707  0.51173831  0.59407129
   0.12594647  0.05896865  0.63209755
   0.06305689  0.61597198  0.62771994
   0.10260408  0.32489649  0.64014946
   0.35571903  0.31097947  0.62104739
   0.76473831  0.40357412  0.63715757
   0.77717199  0.69056106  0.63566619
   0.83290191  0.06628384  0.64209692
   0.58668863  0.06074715  0.61063754
   0.15998923  0.92459698  0.47325229
   0.24408600  0.23983055  0.58334943
   0.16159269  0.42208645  0.49776281
   0.58333333  0.08333333  0.38179910
   0.33333333  0.33333333  0.38179910
   0.83333333  0.83333333  0.38179910
   0.23042014  0.00357628  0.56609021
   0.33333333  0.08333333  0.38179910
   0.66701728  0.91653471  0.47407642
   0.50979778  0.23808372  0.56896750
   0.00826957  0.72894571  0.56334277
   0.08333333  0.83333333  0.38179910
   0.73292935  0.25205159  0.61081792
   0.52065467  0.47333557  0.56023502
   0.66992232  0.66005180  0.47310358
   0.95106422  0.51996518  0.63326522
   0.91792971  0.66189775  0.47211429
   0.96670613  0.25594740  0.62944245
   0.67064012  0.16670803  0.47794523
   0.92116471  0.41375024  0.47255702
   0.83333333  0.33333333  0.38179910
   0.67776117  0.40442664  0.47074948
   0.33333333  0.58333333  0.38179910
   0.42113454  0.65882696  0.47277425
Direct configuration=     3
   0.08333333  0.08333333  0.38179910
   0.16732514  0.66408506  0.47130090
   0.58333333  0.83333333  0.38179910
   0.91669823  0.16926164  0.51570163
   0.03074566  0.93905533  0.60928813
   0.08333333  0.33333333  0.38179910
   0.77410276  0.99027914  0.56354908
   0.83333333  0.08333333  0.38179910
   0.83333333  0.58333333  0.38179910
   0.08333333  0.58333333  0.38179910
   0.50869932  0.72684245  0.56521454
   0.58333333  0.58333333  0.38179910
   0.41183546  0.91516644  0.47571064
   0.91926302  0.91768447  0.47452312
   0.77395482  0.46998073  0.55861542
   0.41463977  0.41313405  0.47475710
   0.58333333  0.33333333  0.38179910
   0.15899671  0.17502948  0.48032973
   0.48262813  0.98724278  0.56706692
   0.41302532  0.16861190  0.47345442
   0.75286625  0.74377166  0.56040581
   0.25620592  0.74438776  0.56033983
   0.33333333  0.83333333  0.38179910
   0.27025323  0.51176526  0.59403538
   0.12587438  0.05909892  0.63208260
   0.06310505  0.61600954  0.62767003
   0.10271822  0.32465014  0.64014521
   0.35588506  0.31088075  0.62099217
   0.76455839  0.40374146  0.63719301
   0.77717606  0.69056394  0.63569961
   0.83284812  0.06638215  0.64209811
   0.58650168  0.06078564  0.61058932
   0.15991340  0.92463955  0.47326124
   0.24399429  0.23988443  0.58330846
   0.16169688  0.42200247  0.49769313
   0.58333333  0.08333333  0.38179910
   0.33333333  0.33333333  0.38179910
   0.83333333  0.83333333  0.38179910
   0.23029652  0.00371863  0.56613088
   0.33333333  0.08333333  0.38179910
   0.66707253  0.91648765  0.47406618
   0.50978248  0.23791147  0.56904481
   0.00834096  0.72885288  0.56334136
   0.08333333  0.83333333  0.38179910
   0.73301394  0.25195398  0.61082370
   0.52063628  0.47349409  0.56023814
   0.66994296  0.66006799  0.47310858
   0.95097144  0.52000154  0.63320754
   0.91792532  0.66196001  0.47211250
   0.96707826  0.25557437  0.62944596
   0.67060682  0.16666786  0.47796588
   0.92114143  0.41375226  0.47253259
   0.83333333  0.33333333  0.38179910
   0.67782329  0.40441411  0.47076044
   0.33333333  0.58333333  0.38179910
   0.42110523  0.65877911  0.47278756
Direct configuration=     4
   0.08333333  0.08333333  0.38179910
   0.16726308  0.66410958  0.47133264
   0.58333333  0.83333333  0.38179910
   0.91658426  0.16929910  0.51566322
   0.03067858  0.93912515  0.60935974
   0.08333333  0.33333333  0.38179910
   0.77404499  0.99037129  0.56348043
   0.83333333  0.08333333  0.38179910
   0.83333333  0.58333333  0.38179910
   0.08333333  0.58333333  0.38179910
   0.50865764  0.72710541  0.56518311
   0.58333333  0.58333333  0.38179910
   0.41195302  0.91519426  0.47572438
   0.91919997  0.91775885  0.47456136
   0.77401537  0.46998503  0.55868304
   0.41460660  0.41316557  0.47479718
   0.58333333  0.33333333  0.38179910
   0.15889696  0.17486275  0.48039282
   0.48248936  0.98747424  0.56697529
   0.41293466  0.16868919  0.47346588
   0.75290739  0.74368013  0.56040207
   0.25616118  0.74448920  0.56035681
   0.33333333  0.83333333  0.38179910
   0.27045766  0.51161752  0.59394194
   0.12607796  0.05904886  0.63214641
   0.06319954  0.61596661  0.62756702
   0.10287732  0.32433380  0.64011846
   0.35601122  0.31080672  0.62089966
   0.76463029  0.40368914  0.63721429
   0.77711332  0.69068601  0.63573978
   0.83270526  0.06652981  0.64216147
   0.58631518  0.06081763  0.61069904
   0.15976698  0.92471287  0.47329473
   0.24374167  0.24012204  0.58317114
   0.16192862  0.42176413  0.49746458
   0.58333333  0.08333333  0.38179910
   0.33333333  0.33333333  0.38179910
   0.83333333  0.83333333  0.38179910
   0.23021541  0.00395737  0.56617489
   0.33333333  0.08333333  0.38179910
   0.66716967  0.91639070  0.47402440
   0.50984634  0.23793683  0.56910012
   0.00838436  0.72883191  0.56330398
   0.08333333  0.83333333  0.38179910
   0.73322370  0.25204736  0.61082079
   0.52063877  0.47370042  0.56025351
   0.66997573  0.66009439  0.47310987
   0.95105661  0.51970597  0.63307993
   0.91795915  0.66207257  0.47210652
   0.96690861  0.25551469  0.62942739
   0.67045717  0.16664645  0.47801064
   0.92112540  0.41375071  0.47247163
   0.83333333  0.33333333  0.38179910
   0.67794718  0.40435023  0.47079048
   0.33333333  0.58333333  0.38179910
   0.42104133  0.65870547  0.47280915
Direct configuration=     5
   0.08333333  0.08333333  0.38179910
   0.16714390  0.66415667  0.47139361
   0.58333333  0.83333333  0.38179910
   0.91636539  0.16937103  0.51558946
   0.03054975  0.93925923  0.60949724
   0.08333333  0.33333333  0.38179910
   0.77393407  0.99054825  0.56334861
   0.83333333  0.08333333  0.38179910
   0.83333333  0.58333333  0.38179910
   0.08333333  0.58333333  0.38179910
   0.50857762  0.72761039  0.56512275
   0.58333333  0.58333333  0.38179910
   0.41217876  0.91524768  0.47575078
   0.91907891  0.91790167  0.47463480
   0.77413164  0.46999328  0.55881291
   0.41454292  0.41322610  0.47487415
   0.58333333  0.33333333  0.38179910
   0.15870540  0.17454256  0.48051397
   0.48222287  0.98791873  0.56679932
   0.41276056  0.16883762  0.47348790
   0.75298639  0.74350436  0.56039490
   0.25607527  0.74468399  0.56038943
   0.33333333  0.83333333  0.38179910
   0.27085022  0.51133383  0.59376249
   0.12646888  0.05895271  0.63226896
   0.06338100  0.61588416  0.62736919
   0.10318286  0.32372632  0.64006711
   0.35625350  0.31066456  0.62072201
   0.76476834  0.40358868  0.63725516
   0.77699285  0.69092045  0.63581693
   0.83243093  0.06681336  0.64228313
   0.58595703  0.06087905  0.61090973
   0.15948582  0.92485365  0.47335904
   0.24325657  0.24057831  0.58290744
   0.16237364  0.42130642  0.49702568
   0.58333333  0.08333333  0.38179910
   0.33333333  0.33333333  0.38179910
   0.83333333  0.83333333  0.38179910
   0.23005964  0.00441583  0.56625940
   0.33333333  0.08333333  0.38179910
   0.66735622  0.91620454  0.47394416
   0.50996897  0.23798551  0.56920635
   0.00846768  0.72879164  0.56323218
   0.08333333  0.83333333  0.38179910
   0.73362652  0.25222667  0.61081521
   0.52064355  0.47409665  0.56028302
   0.67003867  0.66014507  0.47311235
   0.95122016  0.51913838  0.63283488
   0.91802412  0.66228872  0.47209504
   0.96658282  0.25540008  0.62939174
   0.67016980  0.16660533  0.47809660
   0.92109460  0.41374773  0.47235456
   0.83333333  0.33333333  0.38179910
   0.67818510  0.40422756  0.47084817
   0.33333333  0.58333333  0.38179910
   0.42091864  0.65856406  0.47285061
Direct configuration=     6
   0.08333333  0.08333333  0.38179910
   0.16709889  0.66423062  0.47141164
   0.58333333  0.83333333  0.38179910
   0.91616906  0.16940890  0.51555282
   0.03044275  0.93928331  0.60957118
   0.08333333  0.33333333  0.38179910
   0.77380186  0.99068179  0.56338253
   0.83333333  0.08333333  0.38179910
   0.83333333  0.58333333  0.38179910
   0.08333333  0.58333333  0.38179910
   0.50846939  0.72797403  0.56508860
   0.58333333  0.58333333  0.38179910
   0.41215893  0.91522720  0.47573697
   0.91905353  0.91797259  0.47463544
   0.77422511  0.47007969  0.55881258
   0.41465287  0.41323378  0.47492754
   0.58333333  0.33333333  0.38179910
   0.15854095  0.17445968  0.48056013
   0.48218261  0.98808531  0.56667256
   0.41270636  0.16882783  0.47348656
   0.75305012  0.74345687  0.56047494
   0.25597767  0.74496796  0.56043128
   0.33333333  0.83333333  0.38179910
   0.27094383  0.51128861  0.59363314
   0.12660393  0.05885518  0.63237588
   0.06347411  0.61558398  0.62723512
   0.10313810  0.32355955  0.63998600
   0.35604957  0.31070654  0.62066857
   0.76488983  0.40363269  0.63731929
   0.77737254  0.69066026  0.63575524
   0.83223871  0.06704343  0.64235156
   0.58585492  0.06087830  0.61103051
   0.15947190  0.92486803  0.47340307
   0.24296915  0.24097907  0.58269329
   0.16250815  0.42107604  0.49666053
   0.58333333  0.08333333  0.38179910
   0.33333333  0.33333333  0.38179910
   0.83333333  0.83333333  0.38179910
   0.23001944  0.00450912  0.56630413
   0.33333333  0.08333333  0.38179910
   0.66738207  0.91617214  0.47388132
   0.51037429  0.23795872  0.56920822
   0.00839920  0.72894418  0.56318645
   0.08333333  0.83333333  0.38179910
   0.73362843  0.25212325  0.61078473
   0.52075370  0.47426585  0.56030055
   0.67006132  0.66010096  0.47310875
   0.95121144  0.51910619  0.63272259
   0.91810328  0.66228380  0.47209254
   0.96675823  0.25529712  0.62943175
   0.66994801  0.16669696  0.47811216
   0.92109561  0.41376289  0.47232829
   0.83333333  0.33333333  0.38179910
   0.67822137  0.40416159  0.47088936
   0.33333333  0.58333333  0.38179910
   0.42088739  0.65859582  0.47286075
Direct configuration=     7
   0.08333333  0.08333333  0.38179910
   0.16702166  0.66435752  0.47144259
   0.58333333  0.83333333  0.38179910
   0.91583219  0.16947387  0.51548995
   0.03025914  0.93932463  0.60969804
   0.08333333  0.33333333  0.38179910
   0.77357501  0.99091093  0.56344074
   0.83333333  0.08333333  0.38179910
   0.83333333  0.58333333  0.38179910
   0.08333333  0.58333333  0.38179910
   0.50828368  0.72859798  0.56502999
   0.58333333  0.58333333  0.38179910
   0.41212490  0.91519206  0.47571327
   0.91900998  0.91809429  0.47463655
   0.77438547  0.47022797  0.55881200
   0.41484154  0.41324696  0.47501916
   0.58333333  0.33333333  0.38179910
   0.15825877  0.17431748  0.48063934
   0.48211352  0.98837116  0.56645505
   0.41261334  0.16881104  0.47348425
   0.75315947  0.74337538  0.56061230
   0.25581021  0.74545521  0.56050310
   0.33333333  0.83333333  0.38179910
   0.27110446  0.51121103  0.59341117
   0.12683566  0.05868783  0.63255936
   0.06363387  0.61506891  0.62700507
   0.10306129  0.32327341  0.63984683
   0.35569964  0.31077856  0.62057687
   0.76509830  0.40370822  0.63742934
   0.77802406  0.69021381  0.63564939
   0.83190889  0.06743821  0.64246898
   0.58567971  0.06087701  0.61123777
   0.15944802  0.92489270  0.47347860
   0.24247597  0.24166674  0.58232582
   0.16273897  0.42068074  0.49603396
   0.58333333  0.08333333  0.38179910
   0.33333333  0.33333333  0.38179910
   0.83333333  0.83333333  0.38179910
   0.22995045  0.00466921  0.56638087
   0.33333333  0.08333333  0.38179910
   0.66742642  0.91611654  0.47377350
   0.51106977  0.23791274  0.56921144
   0.00828169  0.72920594  0.56310798
   0.08333333  0.83333333  0.38179910
   0.73363171  0.25194580  0.61073243
   0.52094272  0.47455618  0.56033062
   0.67010020  0.66002526  0.47310256
   0.95119647  0.51905096  0.63252993
   0.91823911  0.66227536  0.47208827
   0.96705920  0.25512044  0.62950039
   0.66956746  0.16685420  0.47813887
   0.92109733  0.41378890  0.47228321
   0.83333333  0.33333333  0.38179910
   0.67828363  0.40404839  0.47096005
   0.33333333  0.58333333  0.38179910
   0.42083376  0.65865033  0.47287814
Direct configuration=     8
   0.08333333  0.08333333  0.38179910
   0.16686719  0.66461131  0.47150448
   0.58333333  0.83333333  0.38179910
   0.91515846  0.16960380  0.51536420
   0.02989192  0.93940727  0.60995178
   0.08333333  0.33333333  0.38179910
   0.77312132  0.99136921  0.56355715
   0.83333333  0.08333333  0.38179910
   0.83333333  0.58333333  0.38179910
   0.08333333  0.58333333  0.38179910
   0.50791226  0.72984590  0.56491278
   0.58333333  0.58333333  0.38179910
   0.41205685  0.91512178  0.47566588
   0.91892288  0.91833769  0.47463875
   0.77470621  0.47052452  0.55881083
   0.41521887  0.41327332  0.47520241
   0.58333333  0.33333333  0.38179910
   0.15769442  0.17403307  0.48079775
   0.48197533  0.98894285  0.56602004
   0.41242731  0.16877744  0.47347964
   0.75337817  0.74321239  0.56088700
   0.25547530  0.74642971  0.56064675
   0.33333333  0.83333333  0.38179910
   0.27142572  0.51105586  0.59296725
   0.12729912  0.05835313  0.63292632
   0.06395339  0.61403876  0.62654497
   0.10290766  0.32270111  0.63956849
   0.35499979  0.31092262  0.62039348
   0.76551522  0.40385926  0.63764943
   0.77932709  0.68932090  0.63543768
   0.83124924  0.06822777  0.64270382
   0.58532929  0.06087442  0.61165229
   0.15940025  0.92494204  0.47362968
   0.24148961  0.24304208  0.58159089
   0.16320059  0.41989013  0.49478084
   0.58333333  0.08333333  0.38179910
   0.33333333  0.33333333  0.38179910
   0.83333333  0.83333333  0.38179910
   0.22981246  0.00498938  0.56653434
   0.33333333  0.08333333  0.38179910
   0.66751513  0.91600536  0.47355784
   0.51246073  0.23782080  0.56921788
   0.00804668  0.72972945  0.56295104
   0.08333333  0.83333333  0.38179910
   0.73363827  0.25159089  0.61062782
   0.52132074  0.47513682  0.56039077
   0.67017795  0.65987387  0.47309020
   0.95116654  0.51894050  0.63214460
   0.91851077  0.66225847  0.47207972
   0.96766115  0.25476708  0.62963768
   0.66880635  0.16716866  0.47819228
   0.92110078  0.41384091  0.47219304
   0.83333333  0.33333333  0.38179910
   0.67840813  0.40382199  0.47110142
   0.33333333  0.58333333  0.38179910
   0.42072649  0.65875935  0.47291292
Direct configuration=     9
   0.08333333  0.08333333  0.38179910
   0.16696478  0.66445098  0.47146538
   0.58333333  0.83333333  0.38179910
   0.91558410  0.16952171  0.51544364
   0.03012391  0.93935506  0.60979148
   0.08333333  0.33333333  0.38179910
   0.77340794  0.99107969  0.56348361
   0.83333333  0.08333333  0.38179910
   0.83333333  0.58333333  0.38179910
   0.08333333  0.58333333  0.38179910
   0.50814691  0.72905752  0.56498683
   0.58333333  0.58333333  0.38179910
   0.41209984  0.91516618  0.47569582
   0.91897791  0.91818392  0.47463736
   0.77450358  0.47033717  0.55881157
   0.41498049  0.41325667  0.47508664
   0.58333333  0.33333333  0.38179910
   0.15805095  0.17421275  0.48069767
   0.48206263  0.98858168  0.56629486
   0.41254484  0.16879867  0.47348255
   0.75324000  0.74331536  0.56071346
   0.25568688  0.74581406  0.56055600
   0.33333333  0.83333333  0.38179910
   0.27122277  0.51115389  0.59324770
   0.12700633  0.05856458  0.63269449
   0.06375153  0.61468956  0.62683564
   0.10300471  0.32306266  0.63974433
   0.35544193  0.31083161  0.62050934
   0.76525183  0.40376384  0.63751038
   0.77850389  0.68988500  0.63557143
   0.83166598  0.06772896  0.64255546
   0.58555068  0.06087605  0.61139042
   0.15943043  0.92491087  0.47353424
   0.24211275  0.24217320  0.58205519
   0.16290895  0.42038961  0.49557251
   0.58333333  0.08333333  0.38179910
   0.33333333  0.33333333  0.38179910
   0.83333333  0.83333333  0.38179910
   0.22989963  0.00478711  0.56643738
   0.33333333  0.08333333  0.38179910
   0.66745909  0.91607560  0.47369408
   0.51158198  0.23787889  0.56921381
   0.00819515  0.72939872  0.56305019
   0.08333333  0.83333333  0.38179910
   0.73363413  0.25181511  0.61069391
   0.52108192  0.47476999  0.56035277
   0.67012883  0.65996951  0.47309801
   0.95118545  0.51901028  0.63238804
   0.91833915  0.66226914  0.47208512
   0.96728086  0.25499032  0.62955094
   0.66928719  0.16696999  0.47815854
   0.92109860  0.41380805  0.47225001
   0.83333333  0.33333333  0.38179910
   0.67832947  0.40396502  0.47101210
   0.33333333  0.58333333  0.38179910
   0.42079426  0.65869047  0.47289095
Direct configuration=    10
   0.08333333  0.08333333  0.38179910
   0.16697294  0.66447920  0.47147325
   0.58333333  0.83333333  0.38179910
   0.91547880  0.16953511  0.51542928
   0.03005384  0.93939401  0.60983593
   0.08333333  0.33333333  0.38179910
   0.77334877  0.99112239  0.56350919
   0.83333333  0.08333333  0.38179910
   0.83333333  0.58333333  0.38179910
   0.08333333  0.58333333  0.38179910
   0.50808877  0.72920994  0.56497240
   0.58333333  0.58333333  0.38179910
   0.41206876  0.91515686  0.47567855
   0.91894276  0.91823380  0.47463743
   0.77454907  0.47036772  0.55881252
   0.41503027  0.41327217  0.47511213
   0.58333333  0.33333333  0.38179910
   0.15796807  0.17418519  0.48071428
   0.48208681  0.98870330  0.56624474
   0.41252652  0.16878017  0.47347954
   0.75324285  0.74335709  0.56071167
   0.25564704  0.74593233  0.56057917
   0.33333333  0.83333333  0.38179910
   0.27125416  0.51115908  0.59317294
   0.12706360  0.05850073  0.63274227
   0.06381920  0.61452835  0.62676052
   0.10301105  0.32303577  0.63969495
   0.35534731  0.31084691  0.62045989
   0.76533948  0.40372345  0.63752763
   0.77862754  0.68982042  0.63556574
   0.83160392  0.06780301  0.64259763
   0.58547602  0.06089650  0.61142404
   0.15943538  0.92490384  0.47355324
   0.24198125  0.24240177  0.58193129
   0.16295801  0.42029142  0.49536021
   0.58333333  0.08333333  0.38179910
   0.33333333  0.33333333  0.38179910
   0.83333333  0.83333333  0.38179910
   0.22988073  0.00481836  0.56647140
   0.33333333  0.08333333  0.38179910
   0.66746961  0.91606046  0.47367225
   0.51171764  0.23785352  0.56924355
   0.00814893  0.72949766  0.56302939
   0.08333333  0.83333333  0.38179910
   0.73362161  0.25187466  0.61068138
   0.52114928  0.47485684  0.56036700
   0.67014238  0.65994816  0.47310005
   0.95130541  0.51884643  0.63234259
   0.91835827  0.66225833  0.47208731
   0.96733301  0.25491450  0.62957357
   0.66920383  0.16699494  0.47815841
   0.92109096  0.41381497  0.47224275
   0.83333333  0.33333333  0.38179910
   0.67833331  0.40394817  0.47102783
   0.33333333  0.58333333  0.38179910
   0.42078303  0.65871867  0.47289684
Direct configuration=    11
   0.08333333  0.08333333  0.38179910
   0.16699743  0.66456386  0.47149686
   0.58333333  0.83333333  0.38179910
   0.91516292  0.16957528  0.51538618
   0.02984361  0.93951088  0.60996928
   0.08333333  0.33333333  0.38179910
   0.77317124  0.99125048  0.56358592
   0.83333333  0.08333333  0.38179910
   0.83333333  0.58333333  0.38179910
   0.08333333  0.58333333  0.38179910
   0.50791435  0.72966720  0.56492913
   0.58333333  0.58333333  0.38179910
   0.41197550  0.91512890  0.47562673
   0.91883731  0.91838342  0.47463763
   0.77468551  0.47045935  0.55881538
   0.41517963  0.41331866  0.47518858
   0.58333333  0.33333333  0.38179910
   0.15771940  0.17410253  0.48076412
   0.48215936  0.98906814  0.56609438
   0.41247158  0.16872467  0.47347050
   0.75325139  0.74348228  0.56070630
   0.25552750  0.74628714  0.56064866
   0.33333333  0.83333333  0.38179910
   0.27134833  0.51117464  0.59294865
   0.12723540  0.05830918  0.63288561
   0.06402223  0.61404472  0.62653514
   0.10303005  0.32295507  0.63954679
   0.35506346  0.31089281  0.62031153
   0.76560246  0.40360230  0.63757937
   0.77899849  0.68962667  0.63554869
   0.83141774  0.06802515  0.64272413
   0.58525205  0.06095783  0.61152491
   0.15945023  0.92488275  0.47361027
   0.24158675  0.24308748  0.58155961
   0.16310517  0.41999686  0.49472333
   0.58333333  0.08333333  0.38179910
   0.33333333  0.33333333  0.38179910
   0.83333333  0.83333333  0.38179910
   0.22982403  0.00491213  0.56657345
   0.33333333  0.08333333  0.38179910
   0.66750119  0.91601502  0.47360674
   0.51212463  0.23777743  0.56933275
   0.00801028  0.72979450  0.56296701
   0.08333333  0.83333333  0.38179910
   0.73358407  0.25205331  0.61064379
   0.52135134  0.47511737  0.56040969
   0.67018302  0.65988410  0.47310617
   0.95166528  0.51835487  0.63220627
   0.91841563  0.66222592  0.47209390
   0.96748944  0.25468706  0.62964145
   0.66895377  0.16706979  0.47815803
   0.92106805  0.41383572  0.47222100
   0.83333333  0.33333333  0.38179910
   0.67834482  0.40389763  0.47107501
   0.33333333  0.58333333  0.38179910
   0.42074934  0.65880324  0.47291452
Direct configuration=    12
   0.08333333  0.08333333  0.38179910
   0.16704640  0.66473320  0.47154409
   0.58333333  0.83333333  0.38179910
   0.91453116  0.16965563  0.51529999
   0.02942314  0.93974460  0.61023598
   0.08333333  0.33333333  0.38179910
   0.77281619  0.99150668  0.56373939
   0.83333333  0.08333333  0.38179910
   0.83333333  0.58333333  0.38179910
   0.08333333  0.58333333  0.38179910
   0.50756552  0.73058172  0.56484260
   0.58333333  0.58333333  0.38179910
   0.41178899  0.91507299  0.47552308
   0.91862641  0.91868266  0.47463802
   0.77495841  0.47064262  0.55882110
   0.41547834  0.41341166  0.47534150
   0.58333333  0.33333333  0.38179910
   0.15722206  0.17393720  0.48086379
   0.48230446  0.98979784  0.56579366
   0.41236170  0.16861367  0.47345242
   0.75326848  0.74373266  0.56069557
   0.25528842  0.74699677  0.56078766
   0.33333333  0.83333333  0.38179910
   0.27153668  0.51120577  0.59250008
   0.12757902  0.05792608  0.63317229
   0.06442828  0.61307745  0.62608439
   0.10306804  0.32279369  0.63925047
   0.35449576  0.31098461  0.62001481
   0.76612840  0.40336000  0.63768284
   0.77974040  0.68923918  0.63551457
   0.83104539  0.06846942  0.64297714
   0.58480410  0.06108050  0.61172664
   0.15947993  0.92484057  0.47372432
   0.24079776  0.24445890  0.58081623
   0.16339950  0.41940775  0.49344956
   0.58333333  0.08333333  0.38179910
   0.33333333  0.33333333  0.38179910
   0.83333333  0.83333333  0.38179910
   0.22971063  0.00509967  0.56677756
   0.33333333  0.08333333  0.38179910
   0.66756434  0.91592416  0.47347571
   0.51293860  0.23762524  0.56951115
   0.00773297  0.73038816  0.56284225
   0.08333333  0.83333333  0.38179910
   0.73350900  0.25241061  0.61056861
   0.52175546  0.47563843  0.56049507
   0.67026429  0.65975599  0.47311841
   0.95238501  0.51737174  0.63193362
   0.91853035  0.66216110  0.47210706
   0.96780229  0.25423218  0.62977721
   0.66845364  0.16721947  0.47815728
   0.92102224  0.41387722  0.47217748
   0.83333333  0.33333333  0.38179910
   0.67836784  0.40379655  0.47116937
   0.33333333  0.58333333  0.38179910
   0.42068195  0.65897239  0.47294988
Direct configuration=    13
   0.08333333  0.08333333  0.38179910
   0.16714433  0.66507186  0.47163853
   0.58333333  0.83333333  0.38179910
   0.91326763  0.16981632  0.51512762
   0.02858222  0.94021205  0.61076937
   0.08333333  0.33333333  0.38179910
   0.77210609  0.99201906  0.56404634
   0.83333333  0.08333333  0.38179910
   0.83333333  0.58333333  0.38179910
   0.08333333  0.58333333  0.38179910
   0.50686785  0.73241076  0.56466952
   0.58333333  0.58333333  0.38179910
   0.41141598  0.91496115  0.47531580
   0.91820461  0.91928114  0.47463882
   0.77550419  0.47100915  0.55883253
   0.41607577  0.41359765  0.47564732
   0.58333333  0.33333333  0.38179910
   0.15622740  0.17360655  0.48106314
   0.48259464  0.99125723  0.56519222
   0.41214193  0.16839167  0.47341627
   0.75330266  0.74423343  0.56067410
   0.25481027  0.74841603  0.56106566
   0.33333333  0.83333333  0.38179910
   0.27191337  0.51126802  0.59160294
   0.12826626  0.05715989  0.63374566
   0.06524039  0.61114291  0.62518290
   0.10314404  0.32247092  0.63865783
   0.35336036  0.31116822  0.61942136
   0.76718029  0.40287541  0.63788978
   0.78122421  0.68846419  0.63544635
   0.83030069  0.06935798  0.64348316
   0.58390822  0.06132584  0.61213011
   0.15953932  0.92475622  0.47395242
   0.23921978  0.24720173  0.57932949
   0.16398817  0.41822953  0.49090203
   0.58333333  0.08333333  0.38179910
   0.33333333  0.33333333  0.38179910
   0.83333333  0.83333333  0.38179910
   0.22948382  0.00547474  0.56718576
   0.33333333  0.08333333  0.38179910
   0.66769064  0.91574243  0.47321367
   0.51456655  0.23732086  0.56986796
   0.00717835  0.73157549  0.56259272
   0.08333333  0.83333333  0.38179910
   0.73335884  0.25312521  0.61041824
   0.52256371  0.47668056  0.56066583
   0.67042685  0.65949976  0.47314290
   0.95382449  0.51540549  0.63138832
   0.91875979  0.66203145  0.47213338
   0.96842800  0.25332241  0.63004872
   0.66745337  0.16751885  0.47815577
   0.92093060  0.41396022  0.47209046
   0.83333333  0.33333333  0.38179910
   0.67841389  0.40359439  0.47135808
   0.33333333  0.58333333  0.38179910
   0.42054719  0.65931069  0.47302060
Direct configuration=    14
   0.08333333  0.08333333  0.38179910
   0.16718942  0.66511459  0.47165508
   0.58333333  0.83333333  0.38179910
   0.91306582  0.16982405  0.51510637
   0.02842556  0.94033063  0.61087019
   0.08333333  0.33333333  0.38179910
   0.77205479  0.99205708  0.56409220
   0.83333333  0.08333333  0.38179910
   0.83333333  0.58333333  0.38179910
   0.08333333  0.58333333  0.38179910
   0.50677966  0.73267621  0.56464891
   0.58333333  0.58333333  0.38179910
   0.41135923  0.91497690  0.47528356
   0.91810398  0.91938439  0.47464736
   0.77559154  0.47106709  0.55884701
   0.41614232  0.41363835  0.47569867
   0.58333333  0.33333333  0.38179910
   0.15607664  0.17354607  0.48109370
   0.48261371  0.99149874  0.56509207
   0.41213265  0.16834757  0.47340475
   0.75327538  0.74436399  0.56064839
   0.25472978  0.74859009  0.56111523
   0.33333333  0.83333333  0.38179910
   0.27199766  0.51128430  0.59143240
   0.12837075  0.05701464  0.63383020
   0.06543604  0.61085486  0.62501186
   0.10341905  0.32226779  0.63854769
   0.35318546  0.31123031  0.61928535
   0.76738556  0.40275368  0.63790291
   0.78152332  0.68828714  0.63543334
   0.83018030  0.06954013  0.64356495
   0.58375696  0.06140713  0.61218310
   0.15952059  0.92473200  0.47398352
   0.23893228  0.24765969  0.57903684
   0.16407479  0.41807881  0.49041031
   0.58333333  0.08333333  0.38179910
   0.33333333  0.33333333  0.38179910
   0.83333333  0.83333333  0.38179910
   0.22948004  0.00554781  0.56726899
   0.33333333  0.08333333  0.38179910
   0.66770175  0.91571429  0.47318676
   0.51465973  0.23735563  0.56996635
   0.00707647  0.73179733  0.56256025
   0.08333333  0.83333333  0.38179910
   0.73335892  0.25327853  0.61041302