<?xml version="1.0" encoding="ISO-8859-1"?>
<modeling>
 <generator>
  <i name="program" type="string">vasp </i>
  <i name="version" type="string">5.4.1  </i>
  <i name="subversion" type="string">24Jun15 (build Mar 14 2019 10:18:33) complex                          parallel </i>
  <i name="platform" type="string">INTEL-19.0.2+OPENMPI-3.1.3 </i>
  <i name="date" type="string">2023 01 24 </i>
  <i name="time" type="string">11:01:50 </i>
 </generator>
 <incar>
  <i type="int" name="ISTART">     0</i>
  <i type="string" name="PREC">normal</i>
  <i type="string" name="ALGO"> Fast</i>
  <i type="int" name="NELM">   500</i>
  <i type="int" name="IBRION">     2</i>
  <i type="int" name="NFREE">     2</i>
  <i name="EDIFF">      0.00000100</i>
  <i name="EDIFFG">     -0.02000000</i>
  <i type="int" name="NSW">   500</i>
  <i type="int" name="ISIF">     0</i>
  <i type="int" name="ISYM">     2</i>
  <i name="ENCUT">    400.00000000</i>
  <i name="POTIM">      0.35000000</i>
  <i type="string" name="LREAL"> Auto</i>
  <i type="logical" name="LPLANE"> T  </i>
  <i type="int" name="ISMEAR">     0</i>
  <i name="SIGMA">      0.10000000</i>
  <i type="int" name="NWRITE">     1</i>
  <i type="logical" name="LWAVE"> F  </i>
  <i type="logical" name="LCHARG"> F  </i>
  <i type="logical" name="LVTOT"> F  </i>
  <i type="logical" name="LORBIT"> F  </i>
  <i type="logical" name="LAECHG"> F  </i>
  <v type="int" name="KPOINT_BSE">    -1     0     0     0</v>
  <i type="int" name="NELM">   500</i>
  <i type="string" name="GGA"> PE          ! optPBE-vdW XC-functional</i>
  <i type="int" name="VOSKOWN">     1</i>
  <i type="logical" name="LDIPOL"> T  </i>
  <i type="logical" name="LMONO"> F  </i>
  <i type="int" name="IDIPOL">     3</i>
  <v name="DIPOL">      0.00000000      0.00000000      0.50000000</v>
 </incar>
 <kpoints>
  <generation param="Monkhorst-Pack">
   <v type="int" name="divisions">       2        2        1 </v>
   <v name="usershift">      0.00000000       0.00000000       0.00000000 </v>
   <v name="genvec1">      0.50000000       0.00000000       0.00000000 </v>
   <v name="genvec2">      0.00000000       0.50000000       0.00000000 </v>
   <v name="genvec3">      0.00000000       0.00000000       1.00000000 </v>
   <v name="shift">      0.50000000       0.50000000       0.00000000 </v>
  </generation>
  <varray name="kpointlist" >
   <v>       0.25000000       0.25000000       0.00000000 </v>
   <v>       0.00000000       0.25000000       0.00000000 </v>
   <v>      -0.25000000       0.00000000       0.00000000 </v>
   <v>      -0.25000000       0.25000000       0.00000000 </v>
   <v>       0.50000000      -0.25000000       0.00000000 </v>
   <v>      -0.25000000       0.50000000       0.00000000 </v>
  </varray>
  <varray name="weights" >
   <v>       0.16666667 </v>
   <v>       0.16666667 </v>
   <v>       0.16666667 </v>
   <v>       0.16666667 </v>
   <v>       0.16666667 </v>
   <v>       0.16666667 </v>
  </varray>
 </kpoints>
 <parameters>
  <separator name="general" >
   <i type="string" name="SYSTEM">unknown system</i>
   <i type="logical" name="LCOMPAT"> F  </i>
  </separator>
  <separator name="electronic" >
   <i type="string" name="PREC">normal</i>
   <i name="ENMAX">    400.00000000</i>
   <i name="ENAUG">    605.39200000</i>
   <i name="EDIFF">      0.00000100</i>
   <i type="int" name="IALGO">    68</i>
   <i type="int" name="IWAVPR">    11</i>
   <i type="int" name="NBANDS">   336</i>
   <i name="NELECT">    552.00000000</i>
   <i type="int" name="TURBO">     0</i>
   <i type="int" name="IRESTART">     0</i>
   <i type="int" name="NREBOOT">     0</i>
   <i type="int" name="NMIN">     0</i>
   <i name="EREF">      0.00000000</i>
   <separator name="electronic smearing" >
    <i type="int" name="ISMEAR">     0</i>
    <i name="SIGMA">      0.10000000</i>
    <i name="KSPACING">      0.50000000</i>
    <i type="logical" name="KGAMMA"> T  </i>
   </separator>
   <separator name="electronic projectors" >
    <i type="logical" name="LREAL"> T  </i>
    <v name="ROPT">     -0.00050000     -0.00050000     -0.00050000</v>
    <i type="int" name="LMAXPAW">  -100</i>
    <i type="int" name="LMAXMIX">     2</i>
    <i type="logical" name="NLSPLINE"> F  </i>
   </separator>
   <separator name="electronic startup" >
    <i type="int" name="ISTART">     0</i>
    <i type="int" name="ICHARG">     2</i>
    <i type="int" name="INIWAV">     1</i>
   </separator>
   <separator name="electronic spin" >
    <i type="int" name="ISPIN">     1</i>
    <i type="logical" name="LNONCOLLINEAR"> F  </i>
    <v name="MAGMOM">      1.00000000      1.00000000      1.00000000      1.00000000      1.00000000      1.00000000      1.00000000      1.00000000      1.00000000      1.00000000      1.00000000      1.00000000      1.00000000      1.00000000      1.00000000      1.00000000      1.00000000      1.00000000      1.00000000      1.00000000
      1.00000000      1.00000000      1.00000000      1.00000000      1.00000000      1.00000000      1.00000000      1.00000000      1.00000000      1.00000000      1.00000000      1.00000000      1.00000000      1.00000000      1.00000000      1.00000000      1.00000000      1.00000000      1.00000000      1.00000000
      1.00000000      1.00000000      1.00000000      1.00000000      1.00000000      1.00000000      1.00000000      1.00000000      1.00000000      1.00000000      1.00000000      1.00000000      1.00000000      1.00000000      1.00000000      1.00000000</v>
    <i name="NUPDOWN">     -1.00000000</i>
    <i type="logical" name="LSORBIT"> F  </i>
    <v name="SAXIS">      0.00000000      0.00000000      1.00000000</v>
    <i type="logical" name="LSPIRAL"> F  </i>
    <v name="QSPIRAL">      0.00000000      0.00000000      0.00000000</v>
    <i type="logical" name="LZEROZ"> F  </i>
   </separator>
   <separator name="electronic exchange-correlation" >
    <i type="logical" name="LASPH"> F  </i>
    <i type="logical" name="LMETAGGA"> F  </i>
   </separator>
   <separator name="electronic convergence" >
    <i type="int" name="NELM">   500</i>
    <i type="int" name="NELMDL">    -5</i>
    <i type="int" name="NELMIN">     2</i>
    <i name="ENINI">    400.00000000</i>
    <separator name="electronic convergence detail" >
     <i type="logical" name="LDIAG"> T  </i>
     <i type="logical" name="LSUBROT"> F  </i>
     <i name="WEIMIN">      0.00100000</i>
     <i name="EBREAK">      0.00000000</i>
     <i name="DEPER">      0.30000000</i>
     <i type="int" name="NRMM">     4</i>
     <i name="TIME">      0.40000000</i>
    </separator>
   </separator>
   <separator name="electronic mixer" >
    <i name="AMIX">      0.40000000</i>
    <i name="BMIX">      1.00000000</i>
    <i name="AMIN">      0.10000000</i>
    <i name="AMIX_MAG">      1.60000000</i>
    <i name="BMIX_MAG">      1.00000000</i>
    <separator name="electronic mixer details" >
     <i type="int" name="IMIX">     4</i>
     <i type="logical" name="MIXFIRST"> F  </i>
     <i type="int" name="MAXMIX">   -45</i>
     <i name="WC">    100.00000000</i>
     <i type="int" name="INIMIX">     1</i>
     <i type="int" name="MIXPRE">     1</i>
     <i type="int" name="MREMOVE">     5</i>
    </separator>
   </separator>
   <separator name="electronic dipolcorrection" >
    <i type="logical" name="LDIPOL"> T  </i>
    <i type="logical" name="LMONO"> F  </i>
    <i type="int" name="IDIPOL">     3</i>
    <i name="EPSILON">      1.00000000</i>
    <v name="DIPOL">      0.00000000      0.00000000      0.50000000</v>
    <i name="EFIELD">      0.00000000</i>
   </separator>
  </separator>
  <separator name="grids" >
   <i type="int" name="NGX">    54</i>
   <i type="int" name="NGY">    54</i>
   <i type="int" name="NGZ">   128</i>
   <i type="int" name="NGXF">   108</i>
   <i type="int" name="NGYF">   108</i>
   <i type="int" name="NGZF">   256</i>
   <i type="logical" name="ADDGRID"> F  </i>
  </separator>
  <separator name="ionic" >
   <i type="int" name="NSW">   500</i>
   <i type="int" name="IBRION">     2</i>
   <i type="int" name="ISIF">     0</i>
   <i name="PSTRESS">      0.00000000</i>
   <i name="EDIFFG">     -0.02000000</i>
   <i type="int" name="NFREE">     2</i>
   <i name="POTIM">      0.35000000</i>
   <i name="SMASS">     -3.00000000</i>
   <i name="SCALEE">      1.00000000</i>
  </separator>
  <separator name="ionic md" >
   <i name="TEBEG">      0.00010000</i>
   <i name="TEEND">      0.00010000</i>
   <i type="int" name="NBLOCK">     1</i>
   <i type="int" name="KBLOCK">   500</i>
   <i type="int" name="NPACO">   256</i>
   <i name="APACO">     16.00000000</i>
  </separator>
  <separator name="symmetry" >
   <i type="int" name="ISYM">     2</i>
   <i name="SYMPREC">      0.00001000</i>
  </separator>
  <separator name="dos" >
   <i type="logical" name="LORBIT"> F  </i>
   <v name="RWIGS">     -1.00000000     -1.00000000     -1.00000000</v>
   <i type="int" name="NEDOS">   301</i>
   <i name="EMIN">     10.00000000</i>
   <i name="EMAX">    -10.00000000</i>
   <i name="EFERMI">      0.00000000</i>
  </separator>
  <separator name="writing" >
   <i type="int" name="NWRITE">     1</i>
   <i type="logical" name="LWAVE"> F  </i>
   <i type="logical" name="LCHARG"> F  </i>
   <i type="logical" name="LPARD"> F  </i>
   <i type="logical" name="LVTOT"> F  </i>
   <i type="logical" name="LVHAR"> F  </i>
   <i type="logical" name="LELF"> F  </i>
   <i type="logical" name="LOPTICS"> F  </i>
   <v name="STM">      0.00000000      0.00000000      0.00000000      0.00000000      0.00000000      0.00000000      0.00000000</v>
  </separator>
  <separator name="performance" >
   <i type="int" name="NPAR">     6</i>
   <i type="int" name="NSIM">     4</i>
   <i type="int" name="NBLK">    -1</i>
   <i type="logical" name="LPLANE"> T  </i>
   <i type="logical" name="LSCALAPACK"> T  </i>
   <i type="logical" name="LSCAAWARE"> F  </i>
   <i type="logical" name="LSCALU"> F  </i>
   <i type="logical" name="LASYNC"> F  </i>
   <i type="logical" name="LORBITALREAL"> F  </i>
  </separator>
  <separator name="miscellaneous" >
   <i type="int" name="IDIOT">     3</i>
   <i type="logical" name="LMUSIC"> F  </i>
   <v name="POMASS">    196.96600000     16.00000000    106.42000000</v>
   <v name="DARWINR">      0.00000000      0.00000000      0.00000000</v>
   <v name="DARWINV">      1.00000000      1.00000000      1.00000000</v>
   <i type="logical" name="LCORR"> T  </i>
  </separator>
  <i type="logical" name="GGA_COMPAT"> T  </i>
  <i type="logical" name="LBERRY"> F  </i>
  <i type="int" name="ICORELEVEL">     0</i>
  <i type="logical" name="LDAU"> F  </i>
  <i type="int" name="I_CONSTRAINED_M">     0</i>
  <separator name="electronic exchange-correlation" >
   <i type="string" name="GGA">PE</i>
   <i type="int" name="VOSKOWN">     1</i>
   <i type="logical" name="LHFCALC"> F  </i>
   <i type="string" name="PRECFOCK"></i>
   <i type="logical" name="LSYMGRAD"> F  </i>
   <i type="logical" name="LHFONE"> F  </i>
   <i type="logical" name="LRHFCALC"> F  </i>
   <i type="logical" name="LTHOMAS"> F  </i>
   <i type="logical" name="LMODELHF"> F  </i>
   <i name="ENCUT4O">     -1.00000000</i>
   <i type="int" name="EXXOEP">     0</i>
   <i type="int" name="FOURORBIT">     0</i>
   <i name="AEXX">      0.00000000</i>
   <i name="HFALPHA">      0.00000000</i>
   <i name="MCALPHA">      0.00000000</i>
   <i name="ALDAX">      1.00000000</i>
   <i name="AGGAX">      1.00000000</i>
   <i name="ALDAC">      1.00000000</i>
   <i name="AGGAC">      1.00000000</i>
   <i type="int" name="NKREDX">     1</i>
   <i type="int" name="NKREDY">     1</i>
   <i type="int" name="NKREDZ">     1</i>
   <i type="logical" name="SHIFTRED"> F  </i>
   <i type="logical" name="ODDONLY"> F  </i>
   <i type="logical" name="EVENONLY"> F  </i>
   <i type="int" name="LMAXFOCK">     0</i>
   <i type="int" name="NMAXFOCKAE">     0</i>
   <i type="logical" name="LFOCKAEDFT"> F  </i>
   <i name="HFSCREEN">      0.00000000</i>
   <i name="HFSCREENC">      0.00000000</i>
   <i type="int" name="NBANDSGWLOW">     0</i>
  </separator>
  <separator name="vdW DFT" >
   <i type="logical" name="LUSE_VDW"> F  </i>
   <i name="Zab_VDW">     -0.84910000</i>
   <i name="PARAM1">      0.12340000</i>
   <i name="PARAM2">      1.00000000</i>
   <i name="PARAM3">      0.00000000</i>
  </separator>
  <separator name="model GW" >
   <i type="int" name="MODEL_GW">     0</i>
   <i name="MODEL_EPS0">     29.42037089</i>
   <i name="MODEL_ALPHA">      1.00000000</i>
  </separator>
  <separator name="linear response parameters" >
   <i type="logical" name="LEPSILON"> F  </i>
   <i type="logical" name="LRPA"> F  </i>
   <i type="logical" name="LNABLA"> F  </i>
   <i type="logical" name="LVEL"> F  </i>
   <i type="int" name="KINTER">     0</i>
   <i name="CSHIFT">      0.10000000</i>
   <i name="OMEGAMAX">     -1.00000000</i>
   <i name="DEG_THRESHOLD">      0.00200000</i>
  </separator>
  <separator name="orbital magnetization" >
   <i type="logical" name="NUCIND"> F  </i>
   <v name="MAGPOS">      0.00000000      0.00000000      0.00000000</v>
   <i type="logical" name="LNICSALL"> T  </i>
   <i type="logical" name="ORBITALMAG"> F  </i>
   <i type="logical" name="LMAGBLOCH"> F  </i>
   <i type="logical" name="LCHIMAG"> F  </i>
   <i type="logical" name="LGAUGE"> T  </i>
   <i type="int" name="MAGATOM">     0</i>
   <v name="MAGDIPOL">      0.00000000      0.00000000      0.00000000</v>
   <v name="AVECCONST">      0.00000000      0.00000000      0.00000000</v>
  </separator>
  <separator name="response functions" >
   <i type="logical" name="LADDER"> F  </i>
   <i type="logical" name="LFXC"> F  </i>
   <i type="logical" name="LHARTREE"> T  </i>
   <i type="int" name="IBSE">     0</i>
   <v type="int" name="KPOINT">    -1     0     0     0</v>
   <i type="logical" name="LTCTE"> F  </i>
   <i type="logical" name="LTETE"> F  </i>
   <i type="logical" name="LTRIPLET"> F  </i>
   <i type="logical" name="LFXCEPS"> F  </i>
   <i type="logical" name="LFXHEG"> F  </i>
   <i type="int" name="NATURALO">     0</i>
   <i type="logical" name="L2ORDER"> F  </i>
   <i type="logical" name="LUSEW"> F  </i>
   <i name="ENCUTGW">     -2.00000000</i>
   <i name="ENCUTGWSOFT">     -2.00000000</i>
   <i name="ENCUTLF">     -1.00000000</i>
   <i type="int" name="LMAXMP2">    -1</i>
   <i name="SCISSOR">      0.00000000</i>
   <i type="int" name="NOMEGA">     0</i>
   <i type="int" name="NOMEGAR">     0</i>
   <i type="int" name="NBANDSGW">    -1</i>
   <i type="int" name="NBANDSO">    -1</i>
   <i type="int" name="NBANDSV">    -1</i>
   <i type="int" name="NELM">   500</i>
   <i type="int" name="NELMHF">     1</i>
   <i type="int" name="DIM">     3</i>
   <i type="int" name="ANTIRES">     0</i>
   <i name="OMEGAMAX">    -30.00000000</i>
   <i name="OMEGAMIN">    -30.00000000</i>
   <i name="OMEGATL">   -200.00000000</i>
   <i type="int" name="OMEGAGRID">     0</i>
   <i name="CSHIFT">     -0.10000000</i>
   <i type="logical" name="SELFENERGY"> F  </i>
   <i type="logical" name="LSPECTRAL"> F  </i>
   <i type="logical" name="LSPECTRALGW"> F  </i>
   <i type="logical" name="LSINGLES"> F  </i>
   <i type="logical" name="LFERMIGW"> F  </i>
   <i type="logical" name="ODDONLYGW"> F  </i>
   <i type="logical" name="EVENONLYGW"> F  </i>
   <i type="int" name="NKREDLFX">     1</i>
   <i type="int" name="NKREDLFY">     1</i>
   <i type="int" name="NKREDLFZ">     1</i>
   <i type="int" name="MAXMEM">  1800</i>
   <i type="int" name="TELESCOPE">     0</i>
   <i type="int" name="TAUPAR">     1</i>
   <i type="int" name="OMEGAPAR">    -1</i>
   <i name="LAMBDA">      1.00000000</i>
  </separator>
  <separator name="External order field" >
   <i name="OFIELD_KAPPA">      0.00000000</i>
   <v name="OFIELD_K">      0.00000000      0.00000000      0.00000000</v>
   <i name="OFIELD_Q6_NEAR">      0.00000000</i>
   <i name="OFIELD_Q6_FAR">      0.00000000</i>
   <i name="OFIELD_A">      0.00000000</i>
  </separator>
 </parameters>
 <atominfo>
  <atoms>      56 </atoms>
  <types>       3 </types>
  <array name="atoms" >
   <dimension dim="1">ion</dimension>
   <field type="string">element</field>
   <field type="int">atomtype</field>
   <set>
    <rc><c>Au</c><c>   1</c></rc>
    <rc><c>Au</c><c>   1</c></rc>
    <rc><c>Au</c><c>   1</c></rc>
    <rc><c>Au</c><c>   1</c></rc>
    <rc><c>Au</c><c>   1</c></rc>
    <rc><c>Au</c><c>   1</c></rc>
    <rc><c>Au</c><c>   1</c></rc>
    <rc><c>Au</c><c>   1</c></rc>
    <rc><c>Au</c><c>   1</c></rc>
    <rc><c>Au</c><c>   1</c></rc>
    <rc><c>Au</c><c>   1</c></rc>
    <rc><c>Au</c><c>   1</c></rc>
    <rc><c>Au</c><c>   1</c></rc>
    <rc><c>Au</c><c>   1</c></rc>
    <rc><c>Au</c><c>   1</c></rc>
    <rc><c>Au</c><c>   1</c></rc>
    <rc><c>Au</c><c>   1</c></rc>
    <rc><c>Au</c><c>   1</c></rc>
    <rc><c>Au</c><c>   1</c></rc>
    <rc><c>Au</c><c>   1</c></rc>
    <rc><c>Au</c><c>   1</c></rc>
    <rc><c>Au</c><c>   1</c></rc>
    <rc><c>Au</c><c>   1</c></rc>
    <rc><c>Au</c><c>   1</c></rc>
    <rc><c>O </c><c>   2</c></rc>
    <rc><c>O </c><c>   2</c></rc>
    <rc><c>O </c><c>   2</c></rc>
    <rc><c>O </c><c>   2</c></rc>
    <rc><c>O </c><c>   2</c></rc>
    <rc><c>O </c><c>   2</c></rc>
    <rc><c>O </c><c>   2</c></rc>
    <rc><c>O </c><c>   2</c></rc>
    <rc><c>Pd</c><c>   3</c></rc>
    <rc><c>Pd</c><c>   3</c></rc>
    <rc><c>Pd</c><c>   3</c></rc>
    <rc><c>Pd</c><c>   3</c></rc>
    <rc><c>Pd</c><c>   3</c></rc>
    <rc><c>Pd</c><c>   3</c></rc>
    <rc><c>Pd</c><c>   3</c></rc>
    <rc><c>Pd</c><c>   3</c></rc>
    <rc><c>Pd</c><c>   3</c></rc>
    <rc><c>Pd</c><c>   3</c></rc>
    <rc><c>Pd</c><c>   3</c></rc>
    <rc><c>Pd</c><c>   3</c></rc>
    <rc><c>Pd</c><c>   3</c></rc>
    <rc><c>Pd</c><c>   3</c></rc>
    <rc><c>Pd</c><c>   3</c></rc>
    <rc><c>Pd</c><c>   3</c></rc>
    <rc><c>Pd</c><c>   3</c></rc>
    <rc><c>Pd</c><c>   3</c></rc>
    <rc><c>Pd</c><c>   3</c></rc>
    <rc><c>Pd</c><c>   3</c></rc>
    <rc><c>Pd</c><c>   3</c></rc>
    <rc><c>Pd</c><c>   3</c></rc>
    <rc><c>Pd</c><c>   3</c></rc>
    <rc><c>Pd</c><c>   3</c></rc>
   </set>
  </array>
  <array name="atomtypes" >
   <dimension dim="1">type</dimension>
   <field type="int">atomspertype</field>
   <field type="string">element</field>
   <field>mass</field>
   <field>valence</field>
   <field type="string">pseudopotential</field>
   <set>
    <rc><c>  24</c><c>Au</c><c>    196.96600000</c><c>     11.00000000</c><c>  PAW_PBE Au 04Oct2007                  </c></rc>
    <rc><c>   8</c><c>O </c><c>     16.00000000</c><c>      6.00000000</c><c>  PAW_PBE O 08Apr2002                   </c></rc>
    <rc><c>  24</c><c>Pd</c><c>    106.42000000</c><c>     10.00000000</c><c>  PAW_PBE Pd 04Jan2005                  </c></rc>
   </set>
  </array>
 </atominfo>
 <structure name="initialpos" >
  <crystal>
   <varray name="basis" >
    <v>      11.00258152       0.00000000       0.00000000 </v>
    <v>       5.50129076       9.52851510       0.00000000 </v>
    <v>       0.00000000       0.00000000      26.19178509 </v>
   </varray>
   <i name="volume">   2745.90128299 </i>
   <varray name="rec_basis" >
    <v>       0.09088776      -0.05247407       0.00000000 </v>
    <v>       0.00000000       0.10494815       0.00000000 </v>
    <v>       0.00000000       0.00000000       0.03817991 </v>
   </varray>
  </crystal>
  <varray name="positions" >
   <v>       0.08333333       0.08333333       0.38179910 </v>
   <v>       0.16749886       0.92082127       0.47635617 </v>
   <v>       0.08333333       0.83333333       0.38179910 </v>
   <v>       0.67341505       0.91801783       0.52132320 </v>
   <v>       0.83333333       0.83333333       0.38179910 </v>
   <v>       0.08333333       0.33333333       0.38179910 </v>
   <v>       0.91693994       0.41940530       0.47330504 </v>
   <v>       0.00316739       0.24287070       0.56113491 </v>
   <v>       0.67193345       0.67443205       0.47432908 </v>
   <v>       0.08333333       0.58333333       0.38179910 </v>
   <v>       0.74459580       0.22972395       0.56350705 </v>
   <v>       0.91016570       0.91978415       0.47460235 </v>
   <v>       0.97294217       0.76689294       0.56210827 </v>
   <v>       0.66615855       0.16326871       0.47429539 </v>
   <v>       0.42448881       0.91966050       0.47229916 </v>
   <v>       0.51113444       0.50559089       0.57205060 </v>
   <v>       0.42064884       0.66665165       0.47194075 </v>
   <v>       0.33333333       0.33333333       0.38179910 </v>
   <v>       0.41787385       0.41719238       0.47826973 </v>
   <v>       0.24599706       0.25367984       0.56698916 </v>
   <v>       0.49554402       0.98239122       0.60905158 </v>
   <v>       0.42076075       0.16362544       0.47843434 </v>
   <v>       0.58333333       0.08333333       0.38179910 </v>
   <v>       0.25610627       0.74884226       0.56692911 </v>
   <v>       0.78765794       0.84890639       0.66127684 </v>
   <v>       0.27567637       0.10015038       0.62443229 </v>
   <v>       0.09205211       0.58663969       0.61263820 </v>
   <v>       0.85148673       0.55457041       0.62130163 </v>
   <v>       0.57821556       0.10963178       0.63703247 </v>
   <v>       0.41650123       0.40956705       0.61844896 </v>
   <v>       0.82871447       0.32450882       0.61020413 </v>
   <v>       0.97001649       0.97717558       0.63915498 </v>
   <v>       0.73256867       0.75633837       0.61168691 </v>
   <v>       0.25898537       0.49916187       0.56835798 </v>
   <v>       0.16575214       0.66832720       0.47493627 </v>
   <v>       0.33333333       0.58333333       0.38179910 </v>
   <v>       0.91491458       0.16849746       0.47116190 </v>
   <v>       0.58333333       0.33333333       0.38179910 </v>
   <v>       0.16470732       0.42143253       0.47907637 </v>
   <v>       0.50265160       0.23304474       0.57442760 </v>
   <v>       0.58333333       0.58333333       0.38179910 </v>
   <v>       0.25078627       0.99662692       0.56725817 </v>
   <v>       0.00386932       0.99288738       0.56785979 </v>
   <v>       0.91538027       0.66953982       0.47287896 </v>
   <v>       0.58333333       0.83333333       0.38179910 </v>
   <v>       0.33333333       0.08333333       0.38179910 </v>
   <v>       0.33333333       0.83333333       0.38179910 </v>
   <v>       0.83333333       0.08333333       0.38179910 </v>
   <v>       0.74751969       0.50965024       0.56725315 </v>
   <v>       0.78372687       0.01616614       0.63447376 </v>
   <v>       0.83333333       0.33333333       0.38179910 </v>
   <v>       0.66833218       0.41907886       0.47556102 </v>
   <v>       0.00174307       0.50127807       0.56983495 </v>
   <v>       0.50634104       0.76045194       0.56254668 </v>
   <v>       0.16907360       0.16841275       0.47431365 </v>
   <v>       0.83333333       0.58333333       0.38179910 </v>
  </varray>
  <varray name="selective"  type="logical" >
   <v type="logical" >  F  F  F </v>
   <v type="logical" >  T  T  T </v>
   <v type="logical" >  F  F  F </v>
   <v type="logical" >  T  T  T </v>
   <v type="logical" >  F  F  F </v>
   <v type="logical" >  F  F  F </v>
   <v type="logical" >  T  T  T </v>
   <v type="logical" >  T  T  T </v>
   <v type="logical" >  T  T  T </v>
   <v type="logical" >  F  F  F </v>
   <v type="logical" >  T  T  T </v>
   <v type="logical" >  T  T  T </v>
   <v type="logical" >  T  T  T </v>
   <v type="logical" >  T  T  T </v>
   <v type="logical" >  T  T  T </v>
   <v type="logical" >  T  T  T </v>
   <v type="logical" >  T  T  T </v>
   <v type="logical" >  F  F  F </v>
   <v type="logical" >  T  T  T </v>
   <v type="logical" >  T  T  T </v>
   <v type="logical" >  T  T  T </v>
   <v type="logical" >  T  T  T </v>
   <v type="logical" >  F  F  F </v>
   <v type="logical" >  T  T  T </v>
   <v type="logical" >  T  T  T </v>
   <v type="logical" >  T  T  T </v>
   <v type="logical" >  T  T  T </v>
   <v type="logical" >  T  T  T </v>
   <v type="logical" >  T  T  T </v>
   <v type="logical" >  T  T  T </v>
   <v type="logical" >  T  T  T </v>
   <v type="logical" >  T  T  T </v>
   <v type="logical" >  T  T  T </v>
   <v type="logical" >  T  T  T </v>
   <v type="logical" >  T  T  T </v>
   <v type="logical" >  F  F  F </v>
   <v type="logical" >  T  T  T </v>
   <v type="logical" >  F  F  F </v>
   <v type="logical" >  T  T  T </v>
   <v type="logical" >  T  T  T </v>
   <v type="logical" >  F  F  F </v>
   <v type="logical" >  T  T  T </v>
   <v type="logical" >  T  T  T </v>
   <v type="logical" >  T  T  T </v>
   <v type="logical" >  F  F  F </v>
   <v type="logical" >  F  F  F </v>
   <v type="logical" >  F  F  F </v>
   <v type="logical" >  F  F  F </v>
   <v type="logical" >  T  T  T </v>
   <v type="logical" >  T  T  T </v>
   <v type="logical" >  F  F  F </v>
   <v type="logical" >  T  T  T </v>
   <v type="logical" >  T  T  T </v>
   <v type="logical" >  T  T  T </v>
   <v type="logical" >  T  T  T </v>
   <v type="logical" >  F  F  F </v>
  </varray>
  <nose>
   <v>      -3.00000000       0.00000000       0.00010000       0.00010000 </v>
  </nose>
 </structure>
 <calculation>
  <scstep>
   <time name="dav">   10.94   10.95</time>
   <time name="total">   11.01   11.03</time>
   <dipole>
    <v name="dipole">      0.00000000       0.00000000       0.00007668 </v>
    <i name="Tr[quadrupol]"> -11036.74415458 </i>
    <i name="Echarged">      0.00000000 </i>
    <i name="Edipol_quadrupol">      0.00000000 </i>
    <i name="Eion">      0.00000000 </i>
   </dipole>
   <energy>
    <i name="alphaZ">    862.57709151 </i>
    <i name="ewald"> 233571.47633459 </i>
    <i name="hartreedc">-279203.22339127 </i>
    <i name="XCdc">   -117.40208383 </i>
    <i name="pawpsdc">  43112.45544455 </i>
    <i name="pawaedc"> -41079.41300390 </i>
    <i name="eentropy">     -0.13607813 </i>
    <i name="bandstr">   1344.25613776 </i>
    <i name="atom">  45117.89144060 </i>
    <i name="e_fr_energy">   3608.48189188 </i>
    <i name="e_wo_entrp">   3608.61797001 </i>
    <i name="e_0_energy">   3608.54993094 </i>
   </energy>
  </scstep>
  <scstep>
   <time name="dav">   13.12   13.20</time>
   <time name="total">   13.12   13.21</time>
   <dipole>
    <v name="dipole">      0.00000000       0.00000000       0.00007668 </v>
    <i name="Tr[quadrupol]"> -11036.74415458 </i>
    <i name="Echarged">      0.00000000 </i>
    <i name="Edipol_quadrupol">      0.00000000 </i>
    <i name="Eion">      0.00000000 </i>
   </dipole>
   <energy>
    <i name="e_fr_energy">     51.22266741 </i>
    <i name="e_wo_entrp">     51.35902217 </i>
    <i name="e_0_energy">     51.29084479 </i>
   </energy>
  </scstep>
  <scstep>
   <time name="dav">   13.33   13.38</time>
   <time name="total">   13.33   13.39</time>
   <dipole>
    <v name="dipole">      0.00000000       0.00000000       0.00007668 </v>
    <i name="Tr[quadrupol]"> -11036.74415458 </i>
    <i name="Echarged">      0.00000000 </i>
    <i name="Edipol_quadrupol">      0.00000000 </i>
    <i name="Eion">      0.00000000 </i>
   </dipole>
   <energy>
    <i name="e_fr_energy">   -253.66057832 </i>
    <i name="e_wo_entrp">   -253.43199789 </i>
    <i name="e_0_energy">   -253.54628811 </i>
   </energy>
  </scstep>
  <scstep>
   <time name="dav">   12.35   12.36</time>
   <time name="total">   12.36   12.37</time>
   <dipole>
    <v name="dipole">      0.00000000       0.00000000       0.00007668 </v>
    <i name="Tr[quadrupol]"> -11036.74415458 </i>
    <i name="Echarged">      0.00000000 </i>
    <i name="Edipol_quadrupol">      0.00000000 </i>
    <i name="Eion">      0.00000000 </i>
   </dipole>
   <energy>
    <i name="e_fr_energy">   -264.34487568 </i>
    <i name="e_wo_entrp">   -264.10090400 </i>
    <i name="e_0_energy">   -264.22288984 </i>
   </energy>
  </scstep>
  <scstep>
   <time name="dav">   12.86   12.87</time>
   <time name="total">   13.21   13.25</time>
   <dipole>
    <v name="dipole">      0.00000000       0.00000000       0.00007668 </v>
    <i name="Tr[quadrupol]"> -11036.74415458 </i>
    <i name="Echarged">      0.00000000 </i>
    <i name="Edipol_quadrupol">      0.00000000 </i>
    <i name="Eion">      0.00000000 </i>
   </dipole>
   <energy>
    <i name="e_fr_energy">   -264.64215200 </i>
    <i name="e_wo_entrp">   -264.39638253 </i>
    <i name="e_0_energy">   -264.51926727 </i>
   </energy>
  </scstep>
  <scstep>
   <time name="diag">    1.95    1.99</time>
   <time name="diis">    5.00    5.00</time>
   <time name="orth">    0.52    0.52</time>
   <time name="total">    7.89    7.94</time>
   <dipole>
    <v name="dipole">      0.00000000       0.00000000       1.00810152 </v>
    <i name="Tr[quadrupol]"> -11030.72585124 </i>
    <i name="Echarged">      0.00000000 </i>
    <i name="Edipol_quadrupol">      0.00000000 </i>
    <i name="Eion">      0.00000000 </i>
   </dipole>
   <energy>
    <i name="e_fr_energy">   -254.08808053 </i>
    <i name="e_wo_entrp">   -253.93622854 </i>
    <i name="e_0_energy">   -254.01215453 </i>
   </energy>
  </scstep>
  <scstep>
   <time name="diag">    2.01    2.01</time>
   <time name="diis">    5.06    5.07</time>
   <time name="orth">    0.52    0.52</time>
   <time name="total">    8.02    8.02</time>
   <dipole>
    <v name="dipole">      0.00000000       0.00000000      -1.84876542 </v>
    <i name="Tr[quadrupol]"> -11036.51560638 </i>
    <i name="Echarged">      0.00000000 </i>
    <i name="Edipol_quadrupol">      0.00000000 </i>
    <i name="Eion">      0.00000000 </i>
   </dipole>
   <energy>
    <i name="e_fr_energy">   -283.27003039 </i>
    <i name="e_wo_entrp">   -282.93793289 </i>
    <i name="e_0_energy">   -283.10398164 </i>
   </energy>
  </scstep>
  <scstep>
   <time name="diag">    1.99    1.99</time>
   <time name="diis">    5.07    5.08</time>
   <time name="orth">    0.52    0.52</time>
   <time name="total">    8.00    8.01</time>
   <dipole>
    <v name="dipole">      0.00000000       0.00000000       0.28436939 </v>
    <i name="Tr[quadrupol]"> -11038.40833225 </i>
    <i name="Echarged">      0.00000000 </i>
    <i name="Edipol_quadrupol">      0.00000000 </i>
    <i name="Eion">      0.00000000 </i>
   </dipole>
   <energy>
    <i name="e_fr_energy">   -244.29374230 </i>
    <i name="e_wo_entrp">   -244.08723054 </i>
    <i name="e_0_energy">   -244.19048642 </i>
   </energy>
  </scstep>
  <scstep>
   <time name="diag">    2.30    2.32</time>
   <time name="diis">    5.48    5.51</time>
   <time name="orth">    0.52    0.52</time>
   <time name="total">    8.71    8.77</time>
   <dipole>
    <v name="dipole">      0.00000000       0.00000000      -0.20476587 </v>
    <i name="Tr[quadrupol]"> -11032.95223257 </i>
    <i name="Echarged">      0.00000000 </i>
    <i name="Edipol_quadrupol">      0.00000000 </i>
    <i name="Eion">      0.00000000 </i>
   </dipole>
   <energy>
    <i name="e_fr_energy">   -252.13510204 </i>
    <i name="e_wo_entrp">   -251.92220050 </i>
    <i name="e_0_energy">   -252.02865127 </i>
   </energy>
  </scstep>
  <scstep>
   <time name="diag">    1.98    1.98</time>
   <time name="diis">    5.17    5.21</time>
   <time name="orth">    0.50    0.54</time>
   <time name="total">    8.07    8.15</time>
   <dipole>
    <v name="dipole">      0.00000000       0.00000000       0.52176798 </v>
    <i name="Tr[quadrupol]"> -11035.68056696 </i>
    <i name="Echarged">      0.00000000 </i>
    <i name="Edipol_quadrupol">      0.00000000 </i>
    <i name="Eion">      0.00000000 </i>
   </dipole>
   <energy>
    <i name="e_fr_energy">   -241.73724753 </i>
    <i name="e_wo_entrp">   -241.56696340 </i>
    <i name="e_0_energy">   -241.65210546 </i>
   </energy>
  </scstep>
  <scstep>
   <time name="diag">    2.00    2.00</time>
   <time name="diis">    5.15    5.16</time>
   <time name="orth">    0.52    0.52</time>
   <time name="total">    8.09    8.10</time>
   <dipole>
    <v name="dipole">      0.00000000       0.00000000       0.43396793 </v>
    <i name="Tr[quadrupol]"> -11035.94519974 </i>
    <i name="Echarged">      0.00000000 </i>
    <i name="Edipol_quadrupol">      0.00000000 </i>
    <i name="Eion">      0.00000000 </i>
   </dipole>
   <energy>
    <i name="e_fr_energy">   -233.43559158 </i>
    <i name="e_wo_entrp">   -233.25100226 </i>
    <i name="e_0_energy">   -233.34329692 </i>
   </energy>
  </scstep>
  <scstep>
   <time name="diag">    1.98    1.98</time>
   <time name="diis">    5.06    5.07</time>
   <time name="orth">    0.52    0.52</time>
   <time name="total">    7.96    7.98</time>
   <dipole>
    <v name="dipole">      0.00000000       0.00000000       0.57758239 </v>
    <i name="Tr[quadrupol]"> -11036.05511338 </i>
    <i name="Echarged">      0.00000000 </i>
    <i name="Edipol_quadrupol">      0.00000000 </i>
    <i name="Eion">      0.00000000 </i>
   </dipole>
   <energy>
    <i name="e_fr_energy">   -232.78879118 </i>
    <i name="e_wo_entrp">   -232.60230073 </i>
    <i name="e_0_energy">   -232.69554595 </i>
   </energy>
  </scstep>
  <scstep>
   <time name="diag">    2.01    2.01</time>
   <time name="diis">    5.15    5.16</time>
   <time name="orth">    0.52    0.52</time>
   <time name="total">    8.09    8.10</time>
   <dipole>
    <v name="dipole">      0.00000000       0.00000000       0.64998318 </v>
    <i name="Tr[quadrupol]"> -11036.20322064 </i>
    <i name="Echarged">      0.00000000 </i>
    <i name="Edipol_quadrupol">      0.00000000 </i>
    <i name="Eion">      0.00000000 </i>
   </dipole>
   <energy>
    <i name="e_fr_energy">   -232.39076413 </i>
    <i name="e_wo_entrp">   -232.25546998 </i>
    <i name="e_0_energy">   -232.32311706 </i>
   </energy>
  </scstep>
  <scstep>
   <time name="diag">    1.99    1.99</time>
   <time name="diis">    5.19    5.20</time>
   <time name="orth">    0.51    0.51</time>
   <time name="total">    8.11    8.12</time>
   <dipole>
    <v name="dipole">      0.00000000       0.00000000       0.56229667 </v>
    <i name="Tr[quadrupol]"> -11036.37050117 </i>
    <i name="Echarged">      0.00000000 </i>
    <i name="Edipol_quadrupol">      0.00000000 </i>
    <i name="Eion">      0.00000000 </i>
   </dipole>
   <energy>
    <i name="e_fr_energy">   -232.16320802 </i>
    <i name="e_wo_entrp">   -231.96557423 </i>
    <i name="e_0_energy">   -232.06439112 </i>
   </energy>
  </scstep>
  <scstep>
   <time name="diag">    2.01    2.01</time>
   <time name="diis">    5.07    5.13</time>
   <time name="orth">    0.50    0.52</time>
   <time name="total">    7.99    8.08</time>
   <dipole>
    <v name="dipole">      0.00000000       0.00000000       0.55915733 </v>
    <i name="Tr[quadrupol]"> -11036.49163579 </i>
    <i name="Echarged">      0.00000000 </i>
    <i name="Edipol_quadrupol">      0.00000000 </i>
    <i name="Eion">      0.00000000 </i>
   </dipole>
   <energy>
    <i name="e_fr_energy">   -232.08257199 </i>
    <i name="e_wo_entrp">   -231.89579817 </i>
    <i name="e_0_energy">   -231.98918508 </i>
   </energy>
  </scstep>
  <scstep>
   <time name="diag">    1.97    1.97</time>
   <time name="diis">    5.77    5.80</time>
   <time name="orth">    0.61    0.61</time>
   <time name="total">    8.81    8.86</time>
   <dipole>
    <v name="dipole">      0.00000000       0.00000000       0.54903057 </v>
    <i name="Tr[quadrupol]"> -11036.59203174 </i>
    <i name="Echarged">      0.00000000 </i>
    <i name="Edipol_quadrupol">      0.00000000 </i>
    <i name="Eion">      0.00000000 </i>
   </dipole>
   <energy>
    <i name="e_fr_energy">   -232.03290407 </i>
    <i name="e_wo_entrp">   -231.83799437 </i>
    <i name="e_0_energy">   -231.93544922 </i>
   </energy>
  </scstep>
  <scstep>
   <time name="diag">    1.99    1.99</time>
   <time name="diis">    5.13    5.13</time>
   <time name="orth">    0.50    0.50</time>
   <time name="total">    8.04    8.04</time>
   <dipole>
    <v name="dipole">      0.00000000       0.00000000       0.56304172 </v>
    <i name="Tr[quadrupol]"> -11036.64493400 </i>
    <i name="Echarged">      0.00000000 </i>
    <i name="Edipol_quadrupol">      0.00000000 </i>
    <i name="Eion">      0.00000000 </i>
   </dipole>
   <energy>
    <i name="e_fr_energy">   -231.99786242 </i>
    <i name="e_wo_entrp">   -231.80086311 </i>
    <i name="e_0_energy">   -231.89936276 </i>
   </energy>
  </scstep>
  <scstep>
   <time name="diag">    1.96    1.97</time>
   <time name="diis">    5.20    5.20</time>
   <time name="orth">    0.50    0.50</time>
   <time name="total">    8.08    8.09</time>
   <dipole>
    <v name="dipole">      0.00000000       0.00000000       0.57843499 </v>
    <i name="Tr[quadrupol]"> -11036.71826710 </i>
    <i name="Echarged">      0.00000000 </i>
    <i name="Edipol_quadrupol">      0.00000000 </i>
    <i name="Eion">      0.00000000 </i>
   </dipole>
   <energy>
    <i name="e_fr_energy">   -231.98141683 </i>
    <i name="e_wo_entrp">   -231.78408892 </i>
    <i name="e_0_energy">   -231.88275287 </i>
   </energy>
  </scstep>
  <scstep>
   <time name="diag">    1.99    1.99</time>
   <time name="diis">    5.16    5.17</time>
   <time name="orth">    0.50    0.50</time>
   <time name="total">    8.07    8.08</time>
   <dipole>
    <v name="dipole">      0.00000000       0.00000000       0.58905873 </v>
    <i name="Tr[quadrupol]"> -11036.87677335 </i>
    <i name="Echarged">      0.00000000 </i>
    <i name="Edipol_quadrupol">      0.00000000 </i>
    <i name="Eion">      0.00000000 </i>
   </dipole>
   <energy>
    <i name="e_fr_energy">   -231.97842727 </i>
    <i name="e_wo_entrp">   -231.78177679 </i>
    <i name="e_0_energy">   -231.88010203 </i>
   </energy>
  </scstep>
  <scstep>
   <time name="diag">    1.97    1.97</time>
   <time name="diis">    5.01    5.10</time>
   <time name="orth">    0.50    0.50</time>
   <time name="total">    7.89    7.99</time>
   <dipole>
    <v name="dipole">      0.00000000       0.00000000       0.59239131 </v>
    <i name="Tr[quadrupol]"> -11036.98621961 </i>
    <i name="Echarged">      0.00000000 </i>
    <i name="Edipol_quadrupol">      0.00000000 </i>
    <i name="Eion">      0.00000000 </i>
   </dipole>
   <energy>
    <i name="e_fr_energy">   -231.97517717 </i>
    <i name="e_wo_entrp">   -231.77605500 </i>
    <i name="e_0_energy">   -231.87561609 </i>
   </energy>
  </scstep>
  <scstep>
   <time name="diag">    2.00    2.00</time>
   <time name="diis">    5.13    5.13</time>
   <time name="orth">    0.50    0.50</time>
   <time name="total">    8.03    8.04</time>
   <dipole>
    <v name="dipole">      0.00000000       0.00000000       0.60198195 </v>
    <i name="Tr[quadrupol]"> -11037.07075920 </i>
    <i name="Echarged">      0.00000000 </i>
    <i name="Edipol_quadrupol">      0.00000000 </i>
    <i name="Eion">      0.00000000 </i>
   </dipole>
   <energy>
    <i name="e_fr_energy">   -231.97334751 </i>
    <i name="e_wo_entrp">   -231.77494921 </i>
    <i name="e_0_energy">   -231.87414836 </i>
   </energy>
  </scstep>
  <scstep>
   <time name="diag">    1.96    1.97</time>
   <time name="diis">    5.06    5.08</time>
   <time name="orth">    0.50    0.50</time>
   <time name="total">    7.94    7.96</time>
   <dipole>
    <v name="dipole">      0.00000000       0.00000000       0.61005852 </v>
    <i name="Tr[quadrupol]"> -11037.15650541 </i>
    <i name="Echarged">      0.00000000 </i>
    <i name="Edipol_quadrupol">      0.00000000 </i>
    <i name="Eion">      0.00000000 </i>
   </dipole>
   <energy>
    <i name="e_fr_energy">   -231.97321597 </i>
    <i name="e_wo_entrp">   -231.77437488 </i>
    <i name="e_0_energy">   -231.87379542 </i>
   </energy>
  </scstep>
  <scstep>
   <time name="diag">    1.98    1.99</time>
   <time name="diis">    5.13    5.14</time>
   <time name="orth">    0.57    0.58</time>
   <time name="total">    8.25    8.28</time>
   <dipole>
    <v name="dipole">      0.00000000       0.00000000       0.61666019 </v>
    <i name="Tr[quadrupol]"> -11037.23824746 </i>
    <i name="Echarged">      0.00000000 </i>
    <i name="Edipol_quadrupol">      0.00000000 </i>
    <i name="Eion">      0.00000000 </i>
   </dipole>
   <energy>
    <i name="e_fr_energy">   -231.97380214 </i>
    <i name="e_wo_entrp">   -231.77495089 </i>
    <i name="e_0_energy">   -231.87437652 </i>
   </energy>
  </scstep>
  <scstep>
   <time name="diag">    2.42    2.42</time>
   <time name="diis">    5.13    5.14</time>
   <time name="orth">    0.50    0.50</time>
   <time name="total">    8.49    8.49</time>
   <dipole>
    <v name="dipole">      0.00000000       0.00000000       0.61918398 </v>
    <i name="Tr[quadrupol]"> -11037.27297904 </i>
    <i name="Echarged">      0.00000000 </i>
    <i name="Edipol_quadrupol">      0.00000000 </i>
    <i name="Eion">      0.00000000 </i>
   </dipole>
   <energy>
    <i name="e_fr_energy">   -231.97401488 </i>
    <i name="e_wo_entrp">   -231.77531353 </i>
    <i name="e_0_energy">   -231.87466421 </i>
   </energy>
  </scstep>
  <scstep>
   <time name="diag">    1.98    1.98</time>
   <time name="diis">    5.06    5.14</time>
   <time name="orth">    0.50    0.50</time>
   <time name="total">    7.96    8.05</time>
   <dipole>
    <v name="dipole">      0.00000000       0.00000000       0.62321264 </v>
    <i name="Tr[quadrupol]"> -11037.30994429 </i>
    <i name="Echarged">      0.00000000 </i>
    <i name="Edipol_quadrupol">      0.00000000 </i>
    <i name="Eion">      0.00000000 </i>
   </dipole>
   <energy>
    <i name="e_fr_energy">   -231.97425162 </i>
    <i name="e_wo_entrp">   -231.77539973 </i>
    <i name="e_0_energy">   -231.87482568 </i>
   </energy>
  </scstep>
  <scstep>
   <time name="diag">    1.96    1.96</time>
   <time name="diis">    5.26    5.27</time>
   <time name="orth">    0.50    0.50</time>
   <time name="total">    8.13    8.14</time>
   <dipole>
    <v name="dipole">      0.00000000       0.00000000       0.62778117 </v>
    <i name="Tr[quadrupol]"> -11037.35877499 </i>
    <i name="Echarged">      0.00000000 </i>
    <i name="Edipol_quadrupol">      0.00000000 </i>
    <i name="Eion">      0.00000000 </i>
   </dipole>
   <energy>
    <i name="e_fr_energy">   -231.97457885 </i>
    <i name="e_wo_entrp">   -231.77582425 </i>
    <i name="e_0_energy">   -231.87520155 </i>
   </energy>
  </scstep>
  <scstep>
   <time name="diag">    1.99    1.99</time>
   <time name="diis">    5.10    5.11</time>
   <time name="orth">    0.50    0.50</time>
   <time name="total">    8.00    8.01</time>
   <dipole>
    <v name="dipole">      0.00000000       0.00000000       0.63212867 </v>
    <i name="Tr[quadrupol]"> -11037.40550351 </i>
    <i name="Echarged">      0.00000000 </i>
    <i name="Edipol_quadrupol">      0.00000000 </i>
    <i name="Eion">      0.00000000 </i>
   </dipole>
   <energy>
    <i name="e_fr_energy">   -231.97488784 </i>
    <i name="e_wo_entrp">   -231.77611331 </i>
    <i name="e_0_energy">   -231.87550057 </i>
   </energy>
  </scstep>
  <scstep>
   <time name="diag">    1.95    1.96</time>
   <time name="diis">    4.90    4.90</time>
   <time name="orth">    0.50    0.50</time>
   <time name="total">    7.77    7.77</time>
   <dipole>
    <v name="dipole">      0.00000000       0.00000000       0.63497715 </v>
    <i name="Tr[quadrupol]"> -11037.43853716 </i>
    <i name="Echarged">      0.00000000 </i>
    <i name="Edipol_quadrupol">      0.00000000 </i>
    <i name="Eion">      0.00000000 </i>
   </dipole>
   <energy>
    <i name="e_fr_energy">   -231.97509969 </i>
    <i name="e_wo_entrp">   -231.77632922 </i>
    <i name="e_0_energy">   -231.87571446 </i>
   </energy>
  </scstep>
  <scstep>
   <time name="diag">    1.98    1.98</time>
   <time name="diis">    4.72    4.72</time>
   <time name="orth">    0.50    0.50</time>
   <time name="total">    7.61    7.61</time>
   <dipole>
    <v name="dipole">      0.00000000       0.00000000       0.63902344 </v>
    <i name="Tr[quadrupol]"> -11037.47626178 </i>
    <i name="Echarged">      0.00000000 </i>
    <i name="Edipol_quadrupol">      0.00000000 </i>
    <i name="Eion">      0.00000000 </i>
   </dipole>
   <energy>
    <i name="e_fr_energy">   -231.97534266 </i>
    <i name="e_wo_entrp">   -231.77654778 </i>
    <i name="e_0_energy">   -231.87594522 </i>
   </energy>
  </scstep>
  <scstep>
   <time name="diag">    1.97    1.97</time>
   <time name="diis">    4.48    4.55</time>
   <time name="orth">    0.49    0.50</time>
   <time name="total">    7.36    7.44</time>
   <dipole>
    <v name="dipole">      0.00000000       0.00000000       0.64354583 </v>
    <i name="Tr[quadrupol]"> -11037.51741413 </i>
    <i name="Echarged">      0.00000000 </i>
    <i name="Edipol_quadrupol">      0.00000000 </i>
    <i name="Eion">      0.00000000 </i>
   </dipole>
   <energy>
    <i name="e_fr_energy">   -231.97558835 </i>
    <i name="e_wo_entrp">   -231.77681917 </i>
    <i name="e_0_energy">   -231.87620376 </i>
   </energy>
  </scstep>
  <scstep>
   <time name="diag">    1.99    1.99</time>
   <time name="diis">    5.55    5.58</time>
   <time name="orth">    0.61    0.61</time>
   <time name="total">    8.65    8.69</time>
   <dipole>
    <v name="dipole">      0.00000000       0.00000000       0.65022256 </v>
    <i name="Tr[quadrupol]"> -11037.57696783 </i>
    <i name="Echarged">      0.00000000 </i>
    <i name="Edipol_quadrupol">      0.00000000 </i>
    <i name="Eion">      0.00000000 </i>
   </dipole>
   <energy>
    <i name="e_fr_energy">   -231.97587209 </i>
    <i name="e_wo_entrp">   -231.77711431 </i>
    <i name="e_0_energy">   -231.87649320 </i>
   </energy>
  </scstep>
  <scstep>
   <time name="diag">    1.96    1.97</time>
   <time name="diis">    4.02    4.02</time>
   <time name="orth">    0.50    0.50</time>
   <time name="total">    6.90    6.91</time>
   <dipole>
    <v name="dipole">      0.00000000       0.00000000       0.65377608 </v>
    <i name="Tr[quadrupol]"> -11037.60763640 </i>
    <i name="Echarged">      0.00000000 </i>
    <i name="Edipol_quadrupol">      0.00000000 </i>
    <i name="Eion">      0.00000000 </i>
   </dipole>
   <energy>
    <i name="e_fr_energy">   -231.97596478 </i>
    <i name="e_wo_entrp">   -231.77718107 </i>
    <i name="e_0_energy">   -231.87657293 </i>
   </energy>
  </scstep>
  <scstep>
   <time name="diag">    1.98    1.98</time>
   <time name="diis">    3.61    3.61</time>
   <time name="orth">    0.50    0.50</time>
   <time name="total">    6.50    6.51</time>
   <dipole>
    <v name="dipole">      0.00000000       0.00000000       0.65678532 </v>
    <i name="Tr[quadrupol]"> -11037.62968577 </i>
    <i name="Echarged">      0.00000000 </i>
    <i name="Edipol_quadrupol">      0.00000000 </i>
    <i name="Eion">      0.00000000 </i>
   </dipole>
   <energy>
    <i name="e_fr_energy">   -231.97601514 </i>
    <i name="e_wo_entrp">   -231.77723953 </i>
    <i name="e_0_energy">   -231.87662734 </i>
   </energy>
  </scstep>
  <scstep>
   <time name="diag">    1.96    1.97</time>
   <time name="diis">    3.30    3.31</time>
   <time name="orth">    0.49    0.49</time>
   <time name="total">    6.18    6.19</time>
   <dipole>
    <v name="dipole">      0.00000000       0.00000000       0.65916180 </v>
    <i name="Tr[quadrupol]"> -11037.64497979 </i>
    <i name="Echarged">      0.00000000 </i>
    <i name="Edipol_quadrupol">      0.00000000 </i>
    <i name="Eion">      0.00000000 </i>
   </dipole>
   <energy>
    <i name="e_fr_energy">   -231.97604675 </i>
    <i name="e_wo_entrp">   -231.77725641 </i>
    <i name="e_0_energy">   -231.87665158 </i>
   </energy>
  </scstep>
  <scstep>
   <time name="diag">    1.99    1.99</time>
   <time name="diis">    3.20    3.20</time>
   <time name="orth">    0.49    0.49</time>
   <time name="total">    6.10    6.11</time>
   <dipole>
    <v name="dipole">      0.00000000       0.00000000       0.66072699 </v>
    <i name="Tr[quadrupol]"> -11037.65338616 </i>
    <i name="Echarged">      0.00000000 </i>
    <i name="Edipol_quadrupol">      0.00000000 </i>
    <i name="Eion">      0.00000000 </i>
   </dipole>
   <energy>
    <i name="e_fr_energy">   -231.97606827 </i>
    <i name="e_wo_entrp">   -231.77727626 </i>
    <i name="e_0_energy">   -231.87667227 </i>
   </energy>
  </scstep>
  <scstep>
   <time name="diag">    1.96    1.96</time>
   <time name="diis">    3.00    3.08</time>
   <time name="orth">    0.49    0.49</time>
   <time name="total">    5.87    5.95</time>
   <dipole>
    <v name="dipole">      0.00000000       0.00000000       0.66215904 </v>
    <i name="Tr[quadrupol]"> -11037.66004058 </i>
    <i name="Echarged">      0.00000000 </i>
    <i name="Edipol_quadrupol">      0.00000000 </i>
    <i name="Eion">      0.00000000 </i>
   </dipole>
   <energy>
    <i name="e_fr_energy">   -231.97608810 </i>
    <i name="e_wo_entrp">   -231.77729373 </i>
    <i name="e_0_energy">   -231.87669092 </i>
   </energy>
  </scstep>
  <scstep>
   <time name="diag">    1.98    1.98</time>
   <time name="diis">    3.12    3.12</time>
   <time name="orth">    0.50    0.50</time>
   <time name="total">    6.02    6.02</time>
   <dipole>
    <v name="dipole">      0.00000000       0.00000000       0.66361523 </v>
    <i name="Tr[quadrupol]"> -11037.66556197 </i>
    <i name="Echarged">      0.00000000 </i>
    <i name="Edipol_quadrupol">      0.00000000 </i>
    <i name="Eion">      0.00000000 </i>
   </dipole>
   <energy>
    <i name="e_fr_energy">   -231.97610822 </i>
    <i name="e_wo_entrp">   -231.77731313 </i>
    <i name="e_0_energy">   -231.87671068 </i>
   </energy>
  </scstep>
  <scstep>
   <time name="diag">    1.96    1.96</time>
   <time name="diis">    3.12    3.12</time>
   <time name="orth">    0.49    0.49</time>
   <time name="total">    5.99    5.99</time>
   <dipole>
    <v name="dipole">      0.00000000       0.00000000       0.66527941 </v>
    <i name="Tr[quadrupol]"> -11037.67168148 </i>
    <i name="Echarged">      0.00000000 </i>
    <i name="Edipol_quadrupol">      0.00000000 </i>
    <i name="Eion">      0.00000000 </i>
   </dipole>
   <energy>
    <i name="e_fr_energy">   -231.97612691 </i>
    <i name="e_wo_entrp">   -231.77733105 </i>
    <i name="e_0_energy">   -231.87672898 </i>
   </energy>
  </scstep>
  <scstep>
   <time name="diag">    1.98    1.99</time>
   <time name="diis">    2.73    2.73</time>
   <time name="orth">    0.49    0.49</time>
   <time name="total">    5.63    5.63</time>
   <dipole>
    <v name="dipole">      0.00000000       0.00000000       0.66636725 </v>
    <i name="Tr[quadrupol]"> -11037.67564994 </i>
    <i name="Echarged">      0.00000000 </i>
    <i name="Edipol_quadrupol">      0.00000000 </i>
    <i name="Eion">      0.00000000 </i>
   </dipole>
   <energy>
    <i name="e_fr_energy">   -231.97613484 </i>
    <i name="e_wo_entrp">   -231.77733445 </i>
    <i name="e_0_energy">   -231.87673465 </i>
   </energy>
  </scstep>
  <scstep>
   <time name="diag">    1.95    1.96</time>
   <time name="diis">    2.71    2.71</time>
   <time name="orth">    0.49    0.49</time>
   <time name="total">    5.58    5.58</time>
   <dipole>
    <v name="dipole">      0.00000000       0.00000000       0.66684594 </v>
    <i name="Tr[quadrupol]"> -11037.67738061 </i>
    <i name="Echarged">      0.00000000 </i>
    <i name="Edipol_quadrupol">      0.00000000 </i>
    <i name="Eion">      0.00000000 </i>
   </dipole>
   <energy>
    <i name="e_fr_energy">   -231.97613710 </i>
    <i name="e_wo_entrp">   -231.77733715 </i>
    <i name="e_0_energy">   -231.87673713 </i>
   </energy>
  </scstep>
  <scstep>
   <time name="diag">    2.25    2.26</time>
   <time name="diis">    2.80    2.82</time>
   <time name="orth">    0.60    0.61</time>
   <time name="total">    6.10    6.15</time>
   <dipole>
    <v name="dipole">      0.00000000       0.00000000       0.66703502 </v>
    <i name="Tr[quadrupol]"> -11037.67792070 </i>
    <i name="Echarged">      0.00000000 </i>
    <i name="Edipol_quadrupol">      0.00000000 </i>
    <i name="Eion">      0.00000000 </i>
   </dipole>
   <energy>
    <i name="e_fr_energy">   -231.97613831 </i>
    <i name="e_wo_entrp">   -231.77733772 </i>
    <i name="e_0_energy">   -231.87673801 </i>
   </energy>
  </scstep>
  <scstep>
   <time name="diag">    1.95    1.95</time>
   <time name="diis">    2.19    2.19</time>
   <time name="orth">    0.49    0.49</time>
   <time name="total">    4.69    4.70</time>
   <dipole>
    <v name="dipole">      0.00000000       0.00000000       0.66709748 </v>
    <i name="Tr[quadrupol]"> -11037.67815715 </i>
    <i name="Echarged">      0.00000000 </i>
    <i name="Edipol_quadrupol">      0.00000000 </i>
    <i name="Eion">      0.00000000 </i>
   </dipole>
   <energy>
    <i name="alphaZ">    867.87007585 </i>
    <i name="ewald"> 233571.47633459 </i>
    <i name="hartreedc">-278802.71327901 </i>
    <i name="XCdc">   -129.30100541 </i>
    <i name="pawpsdc">  51895.75796953 </i>
    <i name="pawaedc"> -49985.84454214 </i>
    <i name="eentropy">     -0.19880053 </i>
    <i name="bandstr">  -2766.91433226 </i>
    <i name="atom">  45117.89144060 </i>
    <i name="e_fr_energy">   -231.97613878 </i>
    <i name="e_wo_entrp">   -231.77733825 </i>
    <i name="e_0_energy">   -231.87673852 </i>
   </energy>
  </scstep>
  <structure>
   <crystal>
    <varray name="basis" >
     <v>      11.00258152       0.00000000       0.00000000 </v>
     <v>       5.50129076       9.52851510       0.00000000 </v>
     <v>       0.00000000       0.00000000      26.19178509 </v>
    </varray>
    <i name="volume">   2745.90128299 </i>
    <varray name="rec_basis" >
     <v>       0.09088776      -0.05247407       0.00000000 </v>
     <v>       0.00000000       0.10494815       0.00000000 </v>
     <v>       0.00000000       0.00000000       0.03817991 </v>
    </varray>
   </crystal>
   <varray name="positions" >
    <v>       0.08333333       0.08333333       0.38179910 </v>
    <v>       0.16749886       0.92082127       0.47635617 </v>
    <v>       0.08333333       0.83333333       0.38179910 </v>
    <v>       0.67341505       0.91801783       0.52132320 </v>
    <v>       0.83333333       0.83333333       0.38179910 </v>
    <v>       0.08333333       0.33333333       0.38179910 </v>
    <v>       0.91693994       0.41940530       0.47330504 </v>
    <v>       0.00316739       0.24287070       0.56113491 </v>
    <v>       0.67193345       0.67443205       0.47432908 </v>
    <v>       0.08333333       0.58333333       0.38179910 </v>
    <v>       0.74459580       0.22972395       0.56350705 </v>
    <v>       0.91016570       0.91978415       0.47460235 </v>
    <v>       0.97294217       0.76689294       0.56210827 </v>
    <v>       0.66615855       0.16326871       0.47429539 </v>
    <v>       0.42448881       0.91966050       0.47229916 </v>
    <v>       0.51113444       0.50559089       0.57205060 </v>
    <v>       0.42064884       0.66665165       0.47194075 </v>
    <v>       0.33333333       0.33333333       0.38179910 </v>
    <v>       0.41787385       0.41719238       0.47826973 </v>
    <v>       0.24599706       0.25367984       0.56698916 </v>
    <v>       0.49554402       0.98239122       0.60905158 </v>
    <v>       0.42076075       0.16362544       0.47843434 </v>
    <v>       0.58333333       0.08333333       0.38179910 </v>
    <v>       0.25610627       0.74884226       0.56692911 </v>
    <v>       0.78765794       0.84890639       0.66127684 </v>
    <v>       0.27567637       0.10015038       0.62443229 </v>
    <v>       0.09205211       0.58663969       0.61263820 </v>
    <v>       0.85148673       0.55457041       0.62130163 </v>
    <v>       0.57821556       0.10963178       0.63703247 </v>
    <v>       0.41650123       0.40956705       0.61844896 </v>
    <v>       0.82871447       0.32450882       0.61020413 </v>
    <v>       0.97001649       0.97717558       0.63915498 </v>
    <v>       0.73256867       0.75633837       0.61168691 </v>
    <v>       0.25898537       0.49916187       0.56835798 </v>
    <v>       0.16575214       0.66832720       0.47493627 </v>
    <v>       0.33333333       0.58333333       0.38179910 </v>
    <v>       0.91491458       0.16849746       0.47116190 </v>
    <v>       0.58333333       0.33333333       0.38179910 </v>
    <v>       0.16470732       0.42143253       0.47907637 </v>
    <v>       0.50265160       0.23304474       0.57442760 </v>
    <v>       0.58333333       0.58333333       0.38179910 </v>
    <v>       0.25078627       0.99662692       0.56725817 </v>
    <v>       0.00386932       0.99288738       0.56785979 </v>
    <v>       0.91538027       0.66953982       0.47287896 </v>
    <v>       0.58333333       0.83333333       0.38179910 </v>
    <v>       0.33333333       0.08333333       0.38179910 </v>
    <v>       0.33333333       0.83333333       0.38179910 </v>
    <v>       0.83333333       0.08333333       0.38179910 </v>
    <v>       0.74751969       0.50965024       0.56725315 </v>
    <v>       0.78372687       0.01616614       0.63447376 </v>
    <v>       0.83333333       0.33333333       0.38179910 </v>
    <v>       0.66833218       0.41907886       0.47556102 </v>
    <v>       0.00174307       0.50127807       0.56983495 </v>
    <v>       0.50634104       0.76045194       0.56254668 </v>
    <v>       0.16907360       0.16841275       0.47431365 </v>
    <v>       0.83333333       0.58333333       0.38179910 </v>
   </varray>
  </structure>
  <varray name="forces" >
   <v>       0.08215114       0.00642708      -0.27024149 </v>
   <v>      -0.02480301       0.00665074       0.02026979 </v>
   <v>       0.34396683      -0.03067335      -0.28323497 </v>
   <v>      -0.03106818      -0.00551007       0.03949410 </v>
   <v>      -0.52530018       0.10408853      -0.19127837 </v>
   <v>       0.00603466      -0.01731360      -0.20826600 </v>
   <v>       0.00702601      -0.00205469       0.01311049 </v>
   <v>      -0.00322975       0.00854599       0.00201252 </v>
   <v>      -0.03504923       0.02520115       0.03676011 </v>
   <v>       0.07034949      -0.16560497      -0.02770443 </v>
   <v>       0.01670495       0.05358309       0.01726980 </v>
   <v>       0.00304085      -0.00632950       0.05650887 </v>
   <v>       0.00420856       0.00600034      -0.00393372 </v>
   <v>       0.00308564      -0.01004800      -0.00591025 </v>
   <v>      -0.01673428      -0.00203070       0.00700732 </v>
   <v>      -0.00712353       0.03290362       0.01575547 </v>
   <v>      -0.00460890       0.01234949      -0.03615560 </v>
   <v>       0.11329120       0.06520637      -0.14783407 </v>
   <v>      -0.00899657      -0.00905395      -0.04281780 </v>
   <v>       0.01511633      -0.03017111      -0.02090262 </v>
   <v>       0.04514732      -0.02655961       0.02299241 </v>
   <v>       0.00878295      -0.00718726       0.00071052 </v>
   <v>      -0.00208272      -0.22136920      -0.18262197 </v>
   <v>      -0.00513872       0.02109400       0.03070032 </v>
   <v>      -0.05173811      -0.01257454       0.03282201 </v>
   <v>       0.01735148       0.01168403      -0.01117644 </v>
   <v>      -0.06417305      -0.00873528       0.01016883 </v>
   <v>       0.02715297      -0.06746262      -0.08502363 </v>
   <v>       0.10753042      -0.02716988      -0.05999858 </v>
   <v>      -0.02455437      -0.01703593      -0.04268700 </v>
   <v>       0.00943431      -0.00076895       0.02684360 </v>
   <v>       0.14063050      -0.00131933       0.04270782 </v>
   <v>      -0.02292006       0.07329335       0.00997553 </v>
   <v>      -0.02521682      -0.00408383       0.01260833 </v>
   <v>       0.00357133       0.00042878       0.04071480 </v>
   <v>       0.21998461      -0.08120910       0.21663426 </v>
   <v>       0.00735766       0.00038073       0.01007267 </v>
   <v>       0.23375758       0.21037735       0.31697653 </v>
   <v>       0.01029761      -0.01415460       0.00700084 </v>
   <v>       0.01612870       0.01446406      -0.09119058 </v>
   <v>       0.09052727      -0.07119088       0.17767968 </v>
   <v>       0.01745763      -0.01327456       0.00567629 </v>
   <v>       0.06452852       0.00651729      -0.05107351 </v>
   <v>       0.01660578       0.00719611       0.01208802 </v>
   <v>      -0.07447628      -0.11076884       0.08774535 </v>
   <v>       0.07526215      -0.19033791       0.15813989 </v>
   <v>       0.14257987      -0.04797140       0.06816457 </v>
   <v>      -0.07162572       0.20286219       0.10017670 </v>
   <v>       0.00304261      -0.00096149       0.03420869 </v>
   <v>      -0.27309661       0.01233770      -0.00301924 </v>
   <v>      -0.32071261       0.16232533       0.14220410 </v>
   <v>      -0.00154083      -0.00838498      -0.02347901 </v>
   <v>      -0.02008310      -0.00657992      -0.08363146 </v>
   <v>      -0.01237563       0.03427347       0.01818950 </v>
   <v>      -0.00904495       0.00471699      -0.01573818 </v>
   <v>      -0.28641372       0.13498226       0.09452919 </v>
  </varray>
  <energy>
   <i name="e_fr_energy">   -231.97613878 </i>
   <i name="e_wo_entrp">   -231.87673852 </i>
   <i name="e_0_energy">     -0.19880053 </i>
  </energy>
  <time name="totalsc">  342.13  343.35</time>
 </calculation>
 <calculation>
  <scstep>
   <time name="dav">   11.32   11.40</time>
   <time name="total">   11.74   11.82</time>
   <dipole>
    <v name="dipole">      0.00000000       0.00000000       0.66715445 </v>
    <i name="Tr[quadrupol]"> -11038.05165703 </i>
    <i name="Echarged">      0.00000000 </i>
    <i name="Edipol_quadrupol">      0.00000000 </i>
    <i name="Eion">      0.00000000 </i>
   </dipole>
   <energy>
    <i name="alphaZ">    867.87054517 </i>
    <i name="ewald"> 233579.76788603 </i>
    <i name="hartreedc">-278811.08821688 </i>
    <i name="XCdc">   -129.30373815 </i>
    <i name="pawpsdc">  51895.75939961 </i>
    <i name="pawaedc"> -49985.84594765 </i>
    <i name="eentropy">     -0.19894280 </i>
    <i name="bandstr">  -2766.82965053 </i>
    <i name="atom">  45117.89144060 </i>
    <i name="e_fr_energy">   -231.97722460 </i>
    <i name="e_wo_entrp">   -231.77828180 </i>
    <i name="e_0_energy">   -231.87775320 </i>
   </energy>
  </scstep>
  <scstep>
   <time name="diag">    1.98    1.98</time>
   <time name="diis">    5.09    5.09</time>
   <time name="orth">    0.49    0.49</time>
   <time name="total">    7.97    7.98</time>
   <dipole>
    <v name="dipole">      0.00000000       0.00000000       0.67917231 </v>
    <i name="Tr[quadrupol]"> -11038.03884708 </i>
    <i name="Echarged">      0.00000000 </i>
    <i name="Edipol_quadrupol">      0.00000000 </i>
    <i name="Eion">      0.00000000 </i>
   </dipole>
   <energy>
    <i name="e_fr_energy">   -231.98422801 </i>
    <i name="e_wo_entrp">   -231.78732719 </i>
    <i name="e_0_energy">   -231.88577760 </i>
   </energy>
  </scstep>
  <scstep>
   <time name="diag">    1.96    1.96</time>
   <time name="diis">    5.07    5.08</time>
   <time name="orth">    0.49    0.49</time>
   <time name="total">    7.93    7.94</time>
   <dipole>
    <v name="dipole">      0.00000000       0.00000000       0.66357938 </v>
    <i name="Tr[quadrupol]"> -11038.04190518 </i>
    <i name="Echarged">      0.00000000 </i>
    <i name="Edipol_quadrupol">      0.00000000 </i>
    <i name="Eion">      0.00000000 </i>
   </dipole>
   <energy>
    <i name="e_fr_energy">   -231.98025989 </i>
    <i name="e_wo_entrp">   -231.78128737 </i>
    <i name="e_0_energy">   -231.88077363 </i>
   </energy>
  </scstep>
  <scstep>
   <time name="diag">    1.97    1.97</time>
   <time name="diis">    5.16    5.16</time>
   <time name="orth">    0.49    0.49</time>
   <time name="total">    8.03    8.04</time>
   <dipole>
    <v name="dipole">      0.00000000       0.00000000       0.67997210 </v>
    <i name="Tr[quadrupol]"> -11038.05258597 </i>
    <i name="Echarged">      0.00000000 </i>
    <i name="Edipol_quadrupol">      0.00000000 </i>
    <i name="Eion">      0.00000000 </i>
   </dipole>
   <energy>
    <i name="e_fr_energy">   -231.98200480 </i>
    <i name="e_wo_entrp">   -231.78413510 </i>
    <i name="e_0_energy">   -231.88306995 </i>
   </energy>
  </scstep>
  <scstep>
   <time name="diag">    1.98    1.98</time>
   <time name="diis">    5.16    5.16</time>
   <time name="orth">    0.49    0.49</time>
   <time name="total">    8.04    8.05</time>
   <dipole>
    <v name="dipole">      0.00000000       0.00000000       0.66894799 </v>
    <i name="Tr[quadrupol]"> -11038.03399287 </i>
    <i name="Echarged">      0.00000000 </i>
    <i name="Edipol_quadrupol">      0.00000000 </i>
    <i name="Eion">      0.00000000 </i>
   </dipole>
   <energy>
    <i name="e_fr_energy">   -231.98022708 </i>
    <i name="e_wo_entrp">   -231.78163063 </i>
    <i name="e_0_energy">   -231.88092885 </i>
   </energy>
  </scstep>
  <scstep>
   <time name="diag">    1.96    1.99</time>
   <time name="diis">    5.62    5.68</time>
   <time name="orth">    0.49    0.49</time>
   <time name="total">    8.48    8.58</time>
   <dipole>
    <v name="dipole">      0.00000000       0.00000000       0.67086495 </v>
    <i name="Tr[quadrupol]"> -11038.04499587 </i>
    <i name="Echarged">      0.00000000 </i>
    <i name="Edipol_quadrupol">      0.00000000 </i>
    <i name="Eion">      0.00000000 </i>
   </dipole>
   <energy>
    <i name="e_fr_energy">   -231.98002705 </i>
    <i name="e_wo_entrp">   -231.78163022 </i>
    <i name="e_0_energy">   -231.88082864 </i>
   </energy>
  </scstep>
  <scstep>
   <time name="diag">    1.96    1.96</time>
   <time name="diis">    5.16    5.16</time>
   <time name="orth">    0.49    0.49</time>
   <time name="total">    8.02    8.03</time>
   <dipole>
    <v name="dipole">      0.00000000       0.00000000       0.66908024 </v>
    <i name="Tr[quadrupol]"> -11038.03881789 </i>
    <i name="Echarged">      0.00000000 </i>
    <i name="Edipol_quadrupol">      0.00000000 </i>
    <i name="Eion">      0.00000000 </i>
   </dipole>
   <energy>
    <i name="e_fr_energy">   -231.97997605 </i>
    <i name="e_wo_entrp">   -231.78095909 </i>
    <i name="e_0_energy">   -231.88046757 </i>
   </energy>
  </scstep>
  <scstep>
   <time name="diag">    1.97    1.97</time>
   <time name="diis">    5.14    5.14</time>
   <time name="orth">    0.49    0.49</time>
   <time name="total">    8.01    8.02</time>
   <dipole>
    <v name="dipole">      0.00000000       0.00000000       0.66903348 </v>
    <i name="Tr[quadrupol]"> -11038.04290936 </i>
    <i name="Echarged">      0.00000000 </i>
    <i name="Edipol_quadrupol">      0.00000000 </i>
    <i name="Eion">      0.00000000 </i>
   </dipole>
   <energy>
    <i name="e_fr_energy">   -231.97989574 </i>
    <i name="e_wo_entrp">   -231.78117095 </i>
    <i name="e_0_energy">   -231.88053334 </i>
   </energy>
  </scstep>
  <scstep>
   <time name="diag">    1.96    1.97</time>
   <time name="diis">    5.07    5.07</time>
   <time name="orth">    0.49    0.49</time>
   <time name="total">    7.93    7.94</time>
   <dipole>
    <v name="dipole">      0.00000000       0.00000000       0.66910687 </v>
    <i name="Tr[quadrupol]"> -11038.04238916 </i>
    <i name="Echarged">      0.00000000 </i>
    <i name="Edipol_quadrupol">      0.00000000 </i>
    <i name="Eion">      0.00000000 </i>
   </dipole>
   <energy>
    <i name="e_fr_energy">   -231.97989072 </i>
    <i name="e_wo_entrp">   -231.78110758 </i>
    <i name="e_0_energy">   -231.88049915 </i>
   </energy>
  </scstep>
  <scstep>
   <time name="diag">    1.97    1.98</time>
   <time name="diis">    4.72    4.72</time>
   <time name="orth">    0.49    0.49</time>
   <time name="total">    7.60    7.61</time>
   <dipole>
    <v name="dipole">      0.00000000       0.00000000       0.66892946 </v>
    <i name="Tr[quadrupol]"> -11038.04294918 </i>
    <i name="Echarged">      0.00000000 </i>
    <i name="Edipol_quadrupol">      0.00000000 </i>
    <i name="Eion">      0.00000000 </i>
   </dipole>
   <energy>
    <i name="e_fr_energy">   -231.97989187 </i>
    <i name="e_wo_entrp">   -231.78109745 </i>
    <i name="e_0_energy">   -231.88049466 </i>
   </energy>
  </scstep>
  <scstep>
   <time name="diag">    1.93    1.98</time>
   <time name="diis">    3.71    3.74</time>
   <time name="orth">    0.49    0.49</time>
   <time name="total">    6.54    6.62</time>
   <dipole>
    <v name="dipole">      0.00000000       0.00000000       0.66896576 </v>
    <i name="Tr[quadrupol]"> -11038.04238174 </i>
    <i name="Echarged">      0.00000000 </i>
    <i name="Edipol_quadrupol">      0.00000000 </i>
    <i name="Eion">      0.00000000 </i>
   </dipole>
   <energy>
    <i name="e_fr_energy">   -231.97989335 </i>
    <i name="e_wo_entrp">   -231.78110990 </i>
    <i name="e_0_energy">   -231.88050163 </i>
   </energy>
  </scstep>
  <scstep>
   <time name="diag">    1.97    1.97</time>
   <time name="diis">    3.05    3.05</time>
   <time name="orth">    0.50    0.50</time>
   <time name="total">    5.94    5.94</time>
   <dipole>
    <v name="dipole">      0.00000000       0.00000000       0.66893798 </v>
    <i name="Tr[quadrupol]"> -11038.04264143 </i>
    <i name="Echarged">      0.00000000 </i>
    <i name="Edipol_quadrupol">      0.00000000 </i>
    <i name="Eion">      0.00000000 </i>
   </dipole>
   <energy>
    <i name="e_fr_energy">   -231.97989456 </i>
    <i name="e_wo_entrp">   -231.78110130 </i>
    <i name="e_0_energy">   -231.88049793 </i>
   </energy>
  </scstep>
  <scstep>
   <time name="diag">    1.96    1.96</time>
   <time name="diis">    2.96    2.96</time>
   <time name="orth">    0.49    0.49</time>
   <time name="total">    5.48    5.49</time>
   <dipole>
    <v name="dipole">      0.00000000       0.00000000       0.66893018 </v>
    <i name="Tr[quadrupol]"> -11038.04256841 </i>
    <i name="Echarged">      0.00000000 </i>
    <i name="Edipol_quadrupol">      0.00000000 </i>
    <i name="Eion">      0.00000000 </i>
   </dipole>
   <energy>
    <i name="alphaZ">    867.88459693 </i>
    <i name="ewald"> 233579.76788603 </i>
    <i name="hartreedc">-278810.65478456 </i>
    <i name="XCdc">   -129.30688689 </i>
    <i name="pawpsdc">  51893.12346840 </i>
    <i name="pawaedc"> -49983.19888014 </i>
    <i name="eentropy">     -0.19879712 </i>
    <i name="bandstr">  -2767.28793869 </i>
    <i name="atom">  45117.89144060 </i>
    <i name="e_fr_energy">   -231.97989543 </i>
    <i name="e_wo_entrp">   -231.78109831 </i>
    <i name="e_0_energy">   -231.88049687 </i>
   </energy>
  </scstep>
  <structure>
   <crystal>
    <varray name="basis" >
     <v>      11.00258152       0.00000000       0.00000000 </v>
     <v>       5.50129076       9.52851510       0.00000000 </v>
     <v>       0.00000000       0.00000000      26.19178509 </v>
    </varray>
    <i name="volume">   2745.90128299 </i>
    <varray name="rec_basis" >
     <v>       0.09088776      -0.05247407       0.00000000 </v>
     <v>       0.00000000       0.10494815       0.00000000 </v>
     <v>       0.00000000       0.00000000       0.03817991 </v>
    </varray>
   </crystal>
   <varray name="positions" >
    <v>       0.08333333       0.08333333       0.38179910 </v>
    <v>       0.16741095       0.92084484       0.47638230 </v>
    <v>       0.08333333       0.83333333       0.38179910 </v>
    <v>       0.67332945       0.91799830       0.52137412 </v>
    <v>       0.83333333       0.83333333       0.38179910 </v>
    <v>       0.08333333       0.33333333       0.38179910 </v>
    <v>       0.91696515       0.41939802       0.47332195 </v>
    <v>       0.00314233       0.24290099       0.56113750 </v>
    <v>       0.67178122       0.67452136       0.47437648 </v>
    <v>       0.08333333       0.58333333       0.38179910 </v>
    <v>       0.74455212       0.22991385       0.56352932 </v>
    <v>       0.91018625       0.91976172       0.47467521 </v>
    <v>       0.97294446       0.76691421       0.56210320 </v>
    <v>       0.66618583       0.16323310       0.47428777 </v>
    <v>       0.42444105       0.91965330       0.47230819 </v>
    <v>       0.51105426       0.50570750       0.57207091 </v>
    <v>       0.42061281       0.66669542       0.47189413 </v>
    <v>       0.33333333       0.33333333       0.38179910 </v>
    <v>       0.41786228       0.41716029       0.47821452 </v>
    <v>       0.24609692       0.25357291       0.56696221 </v>
    <v>       0.49572965       0.98229709       0.60908123 </v>
    <v>       0.42080045       0.16359996       0.47843525 </v>
    <v>       0.58333333       0.08333333       0.38179910 </v>
    <v>       0.25605312       0.74891702       0.56696870 </v>
    <v>       0.78752142       0.84886183       0.66131915 </v>
    <v>       0.27570892       0.10019179       0.62441788 </v>
    <v>       0.09187063       0.58660873       0.61265131 </v>
    <v>       0.85168961       0.55433132       0.62119200 </v>
    <v>       0.57859375       0.10953549       0.63695511 </v>
    <v>       0.41645606       0.40950667       0.61839392 </v>
    <v>       0.82874479       0.32450609       0.61023874 </v>
    <v>       0.97045046       0.97717090       0.63921004 </v>
    <v>       0.73236845       0.75659813       0.61169977 </v>
    <v>       0.25891521       0.49914740       0.56837424 </v>
    <v>       0.16576234       0.66832872       0.47498876 </v>
    <v>       0.33333333       0.58333333       0.38179910 </v>
    <v>       0.91493649       0.16849881       0.47117488 </v>
    <v>       0.58333333       0.33333333       0.38179910 </v>
    <v>       0.16476401       0.42138236       0.47908540 </v>
    <v>       0.50267547       0.23309600       0.57431002 </v>
    <v>       0.58333333       0.58333333       0.38179910 </v>
    <v>       0.25086337       0.99657988       0.56726548 </v>
    <v>       0.00405583       0.99291048       0.56779394 </v>
    <v>       0.91541848       0.66956532       0.47289454 </v>
    <v>       0.58333333       0.83333333       0.38179910 </v>
    <v>       0.33333333       0.08333333       0.38179910 </v>
    <v>       0.33333333       0.83333333       0.38179910 </v>
    <v>       0.83333333       0.08333333       0.38179910 </v>
    <v>       0.74753073       0.50964683       0.56729725 </v>
    <v>       0.78286680       0.01620986       0.63446987 </v>
    <v>       0.83333333       0.33333333       0.38179910 </v>
    <v>       0.66834231       0.41904915       0.47553075 </v>
    <v>       0.00169309       0.50125475       0.56972712 </v>
    <v>       0.50624232       0.76057341       0.56257013 </v>
    <v>       0.16903748       0.16842947       0.47429336 </v>
    <v>       0.83333333       0.58333333       0.38179910 </v>
   </varray>
  </structure>
  <varray name="forces" >
   <v>       0.08126738       0.00580652      -0.26988047 </v>
   <v>      -0.01728414       0.00449887       0.01351784 </v>
   <v>       0.34253476      -0.03060517      -0.27945702 </v>
   <v>      -0.02577406      -0.00225571       0.02966493 </v>
   <v>      -0.52353837       0.10478368      -0.18732787 </v>
   <v>       0.00536175      -0.01632961      -0.20849590 </v>
   <v>       0.00219896       0.00723740       0.00926232 </v>
   <v>       0.00293175       0.00276182       0.00239688 </v>
   <v>      -0.01731425       0.01124564       0.03018958 </v>
   <v>       0.07050254      -0.16448516      -0.02541303 </v>
   <v>       0.01543633       0.03759951       0.01614710 </v>
   <v>       0.00009338       0.00084058       0.04246079 </v>
   <v>       0.00671112       0.00806272       0.01657572 </v>
   <v>       0.00693217      -0.00995614       0.00000925 </v>
   <v>      -0.01562094       0.00621346       0.00427451 </v>
   <v>      -0.00781682       0.03349162       0.01163473 </v>
   <v>      -0.00871214       0.00766405      -0.02749879 </v>
   <v>       0.11199919       0.06461522      -0.14936727 </v>
   <v>      -0.00342709      -0.00273885      -0.03538287 </v>
   <v>       0.01110543      -0.02578830      -0.01865450 </v>
   <v>       0.00901615       0.00059633       0.02501870 </v>
   <v>       0.00576377      -0.01242434      -0.00414289 </v>
   <v>      -0.00225032      -0.22183242      -0.18341692 </v>
   <v>      -0.00643713       0.00817820       0.03224394 </v>
   <v>      -0.04825802      -0.02051761       0.05239434 </v>
   <v>       0.02604956       0.00933317      -0.01169383 </v>
   <v>      -0.05697006      -0.01065864      -0.00236268 </v>
   <v>       0.02388942      -0.01986181      -0.06926763 </v>
   <v>      -0.00396268       0.03232946      -0.04435942 </v>
   <v>      -0.02357675      -0.01268066      -0.03268319 </v>
   <v>       0.01020373       0.00268772       0.02959585 </v>
   <v>      -0.06474654       0.03535185      -0.02802403 </v>
   <v>      -0.02021741      -0.01533116      -0.00505448 </v>
   <v>      -0.02686690      -0.00049800       0.01344597 </v>
   <v>       0.00332251      -0.00149193       0.03450069 </v>
   <v>       0.21795106      -0.08051069       0.21609391 </v>
   <v>       0.00208109       0.00255754       0.00718895 </v>
   <v>       0.23376387       0.20963795       0.31520063 </v>
   <v>       0.00850286      -0.01221243       0.00319132 </v>
   <v>       0.01604694       0.00544284      -0.09762859 </v>
   <v>       0.09238361      -0.07088338       0.17635036 </v>
   <v>       0.01778292      -0.00321022       0.00506548 </v>
   <v>       0.02028156       0.01006759       0.01674698 </v>
   <v>       0.00098614       0.00354714       0.00716943 </v>
   <v>      -0.07462882      -0.11113937       0.09012189 </v>
   <v>       0.07546091      -0.19050191       0.15835168 </v>
   <v>       0.14141411      -0.04582159       0.06685239 </v>
   <v>      -0.07125504       0.20177608       0.10364814 </v>
   <v>      -0.01387946       0.00356247       0.02281290 </v>
   <v>       0.10428855      -0.05232667      -0.01730401 </v>
   <v>      -0.31969454       0.16208010       0.14299158 </v>
   <v>      -0.00213933      -0.00385887      -0.02203655 </v>
   <v>      -0.00822335      -0.00437984      -0.08118421 </v>
   <v>      -0.00985809       0.02250518       0.01903885 </v>
   <v>      -0.00639685       0.00211459      -0.01375985 </v>
   <v>      -0.28741442       0.13571119       0.10023839 </v>
  </varray>
  <energy>
   <i name="e_fr_energy">   -231.97989543 </i>
   <i name="e_wo_entrp">   -231.88049687 </i>
   <i name="e_0_energy">     -0.19879712 </i>
  </energy>
  <time name="totalsc">  105.25  105.59</time>
 </calculation>
 <calculation>
  <scstep>
   <time name="dav">   12.15   12.19</time>
   <time name="total">   12.56   12.60</time>
   <dipole>
    <v name="dipole">      0.00000000       0.00000000       0.66894294 </v>
    <i name="Tr[quadrupol]"> -11038.08702105 </i>
    <i name="Echarged">      0.00000000 </i>
    <i name="Edipol_quadrupol">      0.00000000 </i>
    <i name="Eion">      0.00000000 </i>
   </dipole>
   <energy>
    <i name="alphaZ">    867.88470008 </i>
    <i name="ewald"> 233580.76037949 </i>
    <i name="hartreedc">-278811.64735737 </i>
    <i name="XCdc">   -129.30709087 </i>
    <i name="pawpsdc">  51893.12489074 </i>
    <i name="pawaedc"> -49983.20026433 </i>
    <i name="eentropy">     -0.19880791 </i>
    <i name="bandstr">  -2767.28779795 </i>
    <i name="atom">  45117.89144060 </i>
    <i name="e_fr_energy">   -231.97990750 </i>
    <i name="e_wo_entrp">   -231.78109959 </i>
    <i name="e_0_energy">   -231.88050355 </i>
   </energy>
  </scstep>
  <scstep>
   <time name="diag">    1.98    1.98</time>
   <time name="diis">    5.08    5.08</time>
   <time name="orth">    0.48    0.50</time>
   <time name="total">    7.95    8.00</time>
   <dipole>
    <v name="dipole">      0.00000000       0.00000000       0.67019488 </v>
    <i name="Tr[quadrupol]"> -11038.08566353 </i>
    <i name="Echarged">      0.00000000 </i>
[...]
       <r>   -19.3017     8.3560    13.9327 </r>
       <r>   -19.2081     6.9761    14.5851 </r>
       <r>   -19.1146    10.4938    15.5665 </r>
       <r>   -19.0211     4.2589    15.9648 </r>
       <r>   -18.9276     0.3701    15.9994 </r>
       <r>   -18.8341     0.0065    16.0000 </r>
       <r>   -18.7405     0.0000    16.0000 </r>
       <r>   -18.6470     0.0000    16.0000 </r>
       <r>   -18.5535     0.0000    16.0000 </r>
       <r>   -18.4600     0.0000    16.0000 </r>
       <r>   -18.3664     0.0000    16.0000 </r>
       <r>   -18.2729     0.0000    16.0000 </r>
       <r>   -18.1794     0.0000    16.0000 </r>
       <r>   -18.0859     0.0000    16.0000 </r>
       <r>   -17.9924     0.0000    16.0000 </r>
       <r>   -17.8988     0.0000    16.0000 </r>
       <r>   -17.8053     0.0000    16.0000 </r>
       <r>   -17.7118     0.0000    16.0000 </r>
       <r>   -17.6183     0.0000    16.0000 </r>
       <r>   -17.5248     0.0000    16.0000 </r>
       <r>   -17.4312     0.0000    16.0000 </r>
       <r>   -17.3377     0.0000    16.0000 </r>
       <r>   -17.2442     0.0000    16.0000 </r>
       <r>   -17.1507     0.0000    16.0000 </r>
       <r>   -17.0571     0.0000    16.0000 </r>
       <r>   -16.9636     0.0000    16.0000 </r>
       <r>   -16.8701     0.0000    16.0000 </r>
       <r>   -16.7766     0.0000    16.0000 </r>
       <r>   -16.6831     0.0000    16.0000 </r>
       <r>   -16.5895     0.0000    16.0000 </r>
       <r>   -16.4960     0.0000    16.0000 </r>
       <r>   -16.4025     0.0000    16.0000 </r>
       <r>   -16.3090     0.0000    16.0000 </r>
       <r>   -16.2155     0.0000    16.0000 </r>
       <r>   -16.1219     0.0000    16.0000 </r>
       <r>   -16.0284     0.0000    16.0000 </r>
       <r>   -15.9349     0.0000    16.0000 </r>
       <r>   -15.8414     0.0000    16.0000 </r>
       <r>   -15.7478     0.0000    16.0000 </r>
       <r>   -15.6543     0.0000    16.0000 </r>
       <r>   -15.5608     0.0000    16.0000 </r>
       <r>   -15.4673     0.0000    16.0000 </r>
       <r>   -15.3738     0.0000    16.0000 </r>
       <r>   -15.2802     0.0000    16.0000 </r>
       <r>   -15.1867     0.0000    16.0000 </r>
       <r>   -15.0932     0.0000    16.0000 </r>
       <r>   -14.9997     0.0000    16.0000 </r>
       <r>   -14.9062     0.0000    16.0000 </r>
       <r>   -14.8126     0.0000    16.0000 </r>
       <r>   -14.7191     0.0000    16.0000 </r>
       <r>   -14.6256     0.0000    16.0000 </r>
       <r>   -14.5321     0.0000    16.0000 </r>
       <r>   -14.4385     0.0000    16.0000 </r>
       <r>   -14.3450     0.0000    16.0000 </r>
       <r>   -14.2515     0.0000    16.0000 </r>
       <r>   -14.1580     0.0000    16.0000 </r>
       <r>   -14.0645     0.0000    16.0000 </r>
       <r>   -13.9709     0.0000    16.0000 </r>
       <r>   -13.8774     0.0000    16.0000 </r>
       <r>   -13.7839     0.0000    16.0000 </r>
       <r>   -13.6904     0.0000    16.0000 </r>
       <r>   -13.5969     0.0000    16.0000 </r>
       <r>   -13.5033     0.0000    16.0000 </r>
       <r>   -13.4098     0.0000    16.0000 </r>
       <r>   -13.3163     0.0000    16.0000 </r>
       <r>   -13.2228     0.0000    16.0000 </r>
       <r>   -13.1292     0.0000    16.0000 </r>
       <r>   -13.0357     0.0000    16.0000 </r>
       <r>   -12.9422     0.0000    16.0000 </r>
       <r>   -12.8487     0.0000    16.0000 </r>
       <r>   -12.7552     0.0000    16.0000 </r>
       <r>   -12.6616     0.0000    16.0000 </r>
       <r>   -12.5681     0.0000    16.0000 </r>
       <r>   -12.4746     0.0000    16.0000 </r>
       <r>   -12.3811     0.0000    16.0000 </r>
       <r>   -12.2876     0.0000    16.0000 </r>
       <r>   -12.1940     0.0000    16.0000 </r>
       <r>   -12.1005     0.0000    16.0000 </r>
       <r>   -12.0070     0.0000    16.0000 </r>
       <r>   -11.9135     0.0000    16.0000 </r>
       <r>   -11.8199     0.0000    16.0000 </r>
       <r>   -11.7264     0.0000    16.0000 </r>
       <r>   -11.6329     0.0000    16.0000 </r>
       <r>   -11.5394     0.0000    16.0000 </r>
       <r>   -11.4459     0.0000    16.0000 </r>
       <r>   -11.3523     0.0000    16.0000 </r>
       <r>   -11.2588     0.0000    16.0000 </r>
       <r>   -11.1653     0.0000    16.0000 </r>
       <r>   -11.0718     0.0000    16.0000 </r>
       <r>   -10.9783     0.0000    16.0000 </r>
       <r>   -10.8847     0.0000    16.0000 </r>
       <r>   -10.7912     0.0000    16.0000 </r>
       <r>   -10.6977     0.0000    16.0000 </r>
       <r>   -10.6042     0.0000    16.0000 </r>
       <r>   -10.5106     0.0000    16.0000 </r>
       <r>   -10.4171     0.0000    16.0000 </r>
       <r>   -10.3236     0.0000    16.0000 </r>
       <r>   -10.2301     0.0000    16.0000 </r>
       <r>   -10.1366     0.0000    16.0000 </r>
       <r>   -10.0430     0.0000    16.0000 </r>
       <r>    -9.9495     0.0000    16.0000 </r>
       <r>    -9.8560     0.0000    16.0000 </r>
       <r>    -9.7625     0.0000    16.0000 </r>
       <r>    -9.6690     0.0000    16.0000 </r>
       <r>    -9.5754     0.0000    16.0000 </r>
       <r>    -9.4819     0.0009    16.0001 </r>
       <r>    -9.3884     0.0779    16.0074 </r>
       <r>    -9.2949     1.3316    16.1319 </r>
       <r>    -9.2013     4.8286    16.5835 </r>
       <r>    -9.1078     4.5634    17.0103 </r>
       <r>    -9.0143     4.6469    17.4449 </r>
       <r>    -8.9208     4.6663    17.8813 </r>
       <r>    -8.8273     1.3050    18.0033 </r>
       <r>    -8.7337     1.6119    18.1540 </r>
       <r>    -8.6402     5.0826    18.6294 </r>
       <r>    -8.5467     5.5659    19.1499 </r>
       <r>    -8.4532     9.1636    20.0069 </r>
       <r>    -8.3597     9.0148    20.8500 </r>
       <r>    -8.2661     5.4766    21.3622 </r>
       <r>    -8.1726     8.4531    22.1527 </r>
       <r>    -8.0791    14.6507    23.5229 </r>
       <r>    -7.9856    21.3975    25.5240 </r>
       <r>    -7.8920    26.3709    27.9902 </r>
       <r>    -7.7985    31.0213    30.8914 </r>
       <r>    -7.7050    27.4484    33.4584 </r>
       <r>    -7.6115    27.3969    36.0206 </r>
       <r>    -7.5180    37.3480    39.5134 </r>
       <r>    -7.4244    50.6268    44.2481 </r>
       <r>    -7.3309    58.1267    49.6842 </r>
       <r>    -7.2374    62.2563    55.5065 </r>
       <r>    -7.1439    68.1747    61.8823 </r>
       <r>    -7.0504    70.2814    68.4551 </r>
       <r>    -6.9568    75.1222    75.4806 </r>
       <r>    -6.8633    77.2648    82.7066 </r>
       <r>    -6.7698    75.2307    89.7422 </r>
       <r>    -6.6763    76.2056    96.8691 </r>
       <r>    -6.5828    82.2496   104.5612 </r>
       <r>    -6.4892    84.0637   112.4229 </r>
       <r>    -6.3957    83.5006   120.2320 </r>
       <r>    -6.3022    82.7926   127.9749 </r>
       <r>    -6.2087    83.6685   135.7997 </r>
       <r>    -6.1151    85.9137   143.8345 </r>
       <r>    -6.0216    81.9813   151.5015 </r>
       <r>    -5.9281    76.4287   158.6492 </r>
       <r>    -5.8346    80.8196   166.2075 </r>
       <r>    -5.7411    84.7942   174.1376 </r>
       <r>    -5.6475    82.7557   181.8771 </r>
       <r>    -5.5540    86.0383   189.9235 </r>
       <r>    -5.4605    86.9489   198.0551 </r>
       <r>    -5.3670    81.6651   205.6925 </r>
       <r>    -5.2735    83.4677   213.4985 </r>
       <r>    -5.1799    85.9774   221.5392 </r>
       <r>    -5.0864    87.0719   229.6823 </r>
       <r>    -4.9929    89.3128   238.0350 </r>
       <r>    -4.8994    91.4966   246.5919 </r>
       <r>    -4.8058    91.6210   255.1604 </r>
       <r>    -4.7123    89.1518   263.4980 </r>
       <r>    -4.6188    91.2321   272.0301 </r>
       <r>    -4.5253    94.9683   280.9117 </r>
       <r>    -4.4318    93.1841   289.6264 </r>
       <r>    -4.3382    94.3179   298.4471 </r>
       <r>    -4.2447    98.6266   307.6709 </r>
       <r>    -4.1512    97.7032   316.8082 </r>
       <r>    -4.0577    95.3375   325.7243 </r>
       <r>    -3.9642    91.4714   334.2788 </r>
       <r>    -3.8706    87.4257   342.4550 </r>
       <r>    -3.7771    82.9476   350.2124 </r>
       <r>    -3.6836    83.9610   358.0645 </r>
       <r>    -3.5901    88.4724   366.3386 </r>
       <r>    -3.4965    93.8802   375.1184 </r>
       <r>    -3.4030    96.2567   384.1204 </r>
       <r>    -3.3095    97.0017   393.1922 </r>
       <r>    -3.2160    98.0766   402.3644 </r>
       <r>    -3.1225    98.5463   411.5806 </r>
       <r>    -3.0289    96.4238   420.5983 </r>
       <r>    -2.9354    95.2987   429.5108 </r>
       <r>    -2.8419    92.0596   438.1203 </r>
       <r>    -2.7484    84.0470   445.9805 </r>
       <r>    -2.6549    81.1596   453.5707 </r>
       <r>    -2.5613    80.4140   461.0911 </r>
       <r>    -2.4678    84.9749   469.0380 </r>
       <r>    -2.3743    97.1302   478.1218 </r>
       <r>    -2.2808   105.6739   488.0046 </r>
       <r>    -2.1872   106.0145   497.9192 </r>
       <r>    -2.0937   101.6884   507.4292 </r>
       <r>    -2.0002   101.5337   516.9248 </r>
       <r>    -1.9067    99.1909   526.2013 </r>
       <r>    -1.8132    84.8279   534.1345 </r>
       <r>    -1.7196    65.7701   540.2854 </r>
       <r>    -1.6261    53.8077   545.3176 </r>
       <r>    -1.5326    45.8005   549.6009 </r>
       <r>    -1.4391    40.1567   553.3564 </r>
       <r>    -1.3456    33.7326   556.5111 </r>
       <r>    -1.2520    25.5947   558.9048 </r>
       <r>    -1.1585    24.6200   561.2073 </r>
       <r>    -1.0650    26.2275   563.6601 </r>
       <r>    -0.9715    24.7303   565.9729 </r>
       <r>    -0.8779    24.3619   568.2513 </r>
       <r>    -0.7844    24.1222   570.5072 </r>
       <r>    -0.6909    25.2337   572.8671 </r>
       <r>    -0.5974    27.9112   575.4774 </r>
       <r>    -0.5039    24.7925   577.7960 </r>
       <r>    -0.4103    20.0360   579.6698 </r>
       <r>    -0.3168    18.0738   581.3601 </r>
       <r>    -0.2233    15.6549   582.8242 </r>
       <r>    -0.1298    14.5762   584.1874 </r>
       <r>    -0.0363    13.8174   585.4796 </r>
       <r>     0.0573    12.8986   586.6859 </r>
       <r>     0.1508    10.0320   587.6241 </r>
       <r>     0.2443    14.0827   588.9411 </r>
       <r>     0.3378    19.1544   590.7325 </r>
       <r>     0.4314    21.8208   592.7732 </r>
       <r>     0.5249    19.6847   594.6141 </r>
       <r>     0.6184    16.3055   596.1390 </r>
       <r>     0.7119    17.1336   597.7414 </r>
       <r>     0.8054    15.6882   599.2086 </r>
       <r>     0.8990    12.1458   600.3445 </r>
       <r>     0.9925    10.5018   601.3266 </r>
       <r>     1.0860     7.7329   602.0498 </r>
       <r>     1.1795     9.4006   602.9290 </r>
       <r>     1.2730    13.0964   604.1538 </r>
       <r>     1.3666    14.8773   605.5451 </r>
       <r>     1.4601    15.4326   606.9884 </r>
       <r>     1.5536    17.1093   608.5885 </r>
       <r>     1.6471    18.6973   610.3371 </r>
       <r>     1.7407    18.3808   612.0561 </r>
       <r>     1.8342    18.2559   613.7634 </r>
       <r>     1.9277    17.6132   615.4106 </r>
       <r>     2.0212    17.4915   617.0464 </r>
       <r>     2.1147    14.8302   618.4334 </r>
       <r>     2.2083    11.2511   619.4856 </r>
       <r>     2.3018    10.9576   620.5104 </r>
       <r>     2.3953    13.5732   621.7798 </r>
       <r>     2.4888    11.2977   622.8363 </r>
       <r>     2.5823    13.3253   624.0825 </r>
       <r>     2.6759    16.9101   625.6640 </r>
       <r>     2.7694    15.4293   627.1070 </r>
       <r>     2.8629    13.5020   628.3697 </r>
       <r>     2.9564    14.8023   629.7540 </r>
       <r>     3.0500    11.3371   630.8143 </r>
       <r>     3.1435    11.6450   631.9033 </r>
       <r>     3.2370    18.4635   633.6301 </r>
       <r>     3.3305    19.1405   635.4201 </r>
       <r>     3.4240    17.6638   637.0721 </r>
       <r>     3.5176    13.4816   638.3329 </r>
       <r>     3.6111    10.2325   639.2898 </r>
       <r>     3.7046    13.5136   640.5536 </r>
       <r>     3.7981    18.3105   642.2661 </r>
       <r>     3.8916    20.9429   644.2247 </r>
       <r>     3.9852    17.4196   645.8538 </r>
       <r>     4.0787    13.5679   647.1227 </r>
       <r>     4.1722    13.3149   648.3679 </r>
       <r>     4.2657    16.8270   649.9416 </r>
       <r>     4.3593    19.4207   651.7578 </r>
       <r>     4.4528    21.6283   653.7805 </r>
       <r>     4.5463    23.5416   655.9822 </r>
       <r>     4.6398    24.7521   658.2970 </r>
       <r>     4.7333    24.0295   660.5443 </r>
       <r>     4.8269    27.6273   663.1280 </r>
       <r>     4.9204    29.8720   665.9217 </r>
       <r>     5.0139    26.0585   668.3587 </r>
       <r>     5.1074    23.0915   670.5183 </r>
       <r>     5.2009    13.0855   671.7421 </r>
       <r>     5.2945     2.6101   671.9862 </r>
       <r>     5.3880     0.1460   671.9998 </r>
       <r>     5.4815     0.0020   672.0000 </r>
       <r>     5.5750     0.0000   672.0000 </r>
       <r>     5.6686     0.0000   672.0000 </r>
       <r>     5.7621     0.0000   672.0000 </r>
       <r>     5.8556     0.0000   672.0000 </r>
       <r>     5.9491     0.0000   672.0000 </r>
       <r>     6.0426     0.0000   672.0000 </r>
       <r>     6.1362     0.0000   672.0000 </r>
       <r>     6.2297     0.0000   672.0000 </r>
       <r>     6.3232     0.0000   672.0000 </r>
       <r>     6.4167     0.0000   672.0000 </r>
      </set>
     </set>
    </array>
   </total>
  </dos>
 </calculation>
 <structure name="finalpos" >
  <crystal>
   <varray name="basis" >
    <v>      11.00258152       0.00000000       0.00000000 </v>
    <v>       5.50129076       9.52851510       0.00000000 </v>
    <v>       0.00000000       0.00000000      26.19178509 </v>
   </varray>
   <i name="volume">   2745.90128299 </i>
   <varray name="rec_basis" >
    <v>       0.09088776      -0.05247407       0.00000000 </v>
    <v>       0.00000000       0.10494815       0.00000000 </v>
    <v>       0.00000000       0.00000000       0.03817991 </v>
   </varray>
  </crystal>
  <varray name="positions" >
   <v>       0.08333333       0.08333333       0.38179910 </v>
   <v>       0.16639430       0.92077048       0.47680324 </v>
   <v>       0.08333333       0.83333333       0.38179910 </v>
   <v>       0.67187059       0.91701150       0.52172411 </v>
   <v>       0.83333333       0.83333333       0.38179910 </v>
   <v>       0.08333333       0.33333333       0.38179910 </v>
   <v>       0.91609185       0.41956974       0.47296515 </v>
   <v>       0.00336034       0.24320601       0.56067908 </v>
   <v>       0.67060588       0.67417150       0.47472725 </v>
   <v>       0.08333333       0.58333333       0.38179910 </v>
   <v>       0.74323586       0.23343330       0.56475271 </v>
   <v>       0.90974261       0.91993101       0.47509394 </v>
   <v>       0.96994103       0.76949597       0.56278284 </v>
   <v>       0.66684246       0.16287391       0.47469279 </v>
   <v>       0.42316049       0.91884456       0.47255591 </v>
   <v>       0.50790005       0.50830063       0.57288177 </v>
   <v>       0.41944900       0.66659461       0.47206899 </v>
   <v>       0.33333333       0.33333333       0.38179910 </v>
   <v>       0.41738202       0.41684981       0.47759287 </v>
   <v>       0.24634621       0.25421141       0.56515460 </v>
   <v>       0.49469834       0.98287346       0.60988974 </v>
   <v>       0.42170485       0.16159527       0.47680344 </v>
   <v>       0.58333333       0.08333333       0.38179910 </v>
   <v>       0.25416472       0.75065013       0.56784940 </v>
   <v>       0.78044796       0.85371580       0.66261509 </v>
   <v>       0.27490743       0.10507536       0.62383034 </v>
   <v>       0.08955880       0.58544993       0.61163001 </v>
   <v>       0.85320351       0.55449399       0.61902420 </v>
   <v>       0.57945893       0.11139321       0.63377212 </v>
   <v>       0.41452205       0.40627008       0.61678772 </v>
   <v>       0.83083110       0.32558172       0.61084231 </v>
   <v>       0.97091677       0.97747089       0.63963412 </v>
   <v>       0.73054078       0.75683652       0.61349185 </v>
   <v>       0.25694281       0.50054573       0.56747615 </v>
   <v>       0.16466687       0.66857758       0.47562742 </v>
   <v>       0.33333333       0.58333333       0.38179910 </v>
   <v>       0.91443476       0.16857221       0.47133828 </v>
   <v>       0.58333333       0.33333333       0.38179910 </v>
   <v>       0.16485605       0.42077526       0.47776715 </v>
   <v>       0.50330321       0.23300525       0.57056937 </v>
   <v>       0.58333333       0.58333333       0.38179910 </v>
   <v>       0.25094499       0.99724386       0.56783008 </v>
   <v>       0.00320905       0.99466759       0.56812945 </v>
   <v>       0.91393862       0.67061609       0.47283003 </v>
   <v>       0.58333333       0.83333333       0.38179910 </v>
   <v>       0.33333333       0.08333333       0.38179910 </v>
   <v>       0.33333333       0.83333333       0.38179910 </v>
   <v>       0.83333333       0.08333333       0.38179910 </v>
   <v>       0.74580944       0.50890533       0.56695194 </v>
   <v>       0.78422793       0.01523500       0.63362868 </v>
   <v>       0.83333333       0.33333333       0.38179910 </v>
   <v>       0.66759350       0.41857028       0.47531487 </v>
   <v>       0.00018795       0.50294499       0.56656377 </v>
   <v>       0.50555636       0.76082322       0.56325037 </v>
   <v>       0.16847272       0.16786150       0.47379738 </v>
   <v>       0.83333333       0.58333333       0.38179910 </v>
  </varray>
  <varray name="selective"  type="logical" >
   <v type="logical" >  F  F  F </v>
   <v type="logical" >  T  T  T </v>
   <v type="logical" >  F  F  F </v>
   <v type="logical" >  T  T  T </v>
   <v type="logical" >  F  F  F </v>
   <v type="logical" >  F  F  F </v>
   <v type="logical" >  T  T  T </v>
   <v type="logical" >  T  T  T </v>
   <v type="logical" >  T  T  T </v>
   <v type="logical" >  F  F  F </v>
   <v type="logical" >  T  T  T </v>
   <v type="logical" >  T  T  T </v>
   <v type="logical" >  T  T  T </v>
   <v type="logical" >  T  T  T </v>
   <v type="logical" >  T  T  T </v>
   <v type="logical" >  T  T  T </v>
   <v type="logical" >  T  T  T </v>
   <v type="logical" >  F  F  F </v>
   <v type="logical" >  T  T  T </v>
   <v type="logical" >  T  T  T </v>
   <v type="logical" >  T  T  T </v>
   <v type="logical" >  T  T  T </v>
   <v type="logical" >  F  F  F </v>
   <v type="logical" >  T  T  T </v>
   <v type="logical" >  T  T  T </v>
   <v type="logical" >  T  T  T </v>
   <v type="logical" >  T  T  T </v>
   <v type="logical" >  T  T  T </v>
   <v type="logical" >  T  T  T </v>
   <v type="logical" >  T  T  T </v>
   <v type="logical" >  T  T  T </v>
   <v type="logical" >  T  T  T </v>
   <v type="logical" >  T  T  T </v>
   <v type="logical" >  T  T  T </v>
   <v type="logical" >  T  T  T </v>
   <v type="logical" >  F  F  F </v>
   <v type="logical" >  T  T  T </v>
   <v type="logical" >  F  F  F </v>
   <v type="logical" >  T  T  T </v>
   <v type="logical" >  T  T  T </v>
   <v type="logical" >  F  F  F </v>
   <v type="logical" >  T  T  T </v>
   <v type="logical" >  T  T  T </v>
   <v type="logical" >  T  T  T </v>
   <v type="logical" >  F  F  F </v>
   <v type="logical" >  F  F  F </v>
   <v type="logical" >  F  F  F </v>
   <v type="logical" >  F  F  F </v>
   <v type="logical" >  T  T  T </v>
   <v type="logical" >  T  T  T </v>
   <v type="logical" >  F  F  F </v>
   <v type="logical" >  T  T  T </v>
   <v type="logical" >  T  T  T </v>
   <v type="logical" >  T  T  T </v>
   <v type="logical" >  T  T  T </v>
   <v type="logical" >  F  F  F </v>
  </varray>
  <nose>
   <v>      -3.00000000       0.00000000       0.00010000       0.00010000 </v>
  </nose>
 </structure>
</modeling>
