unknown system                          
           1
    11.002582    0.000000    0.000000
     5.501291    9.528515    0.000000
     0.000000    0.000000   26.191785
   Au   O    Pd
  24   8  24
Direct configuration=     1
   0.08333333  0.08333333  0.38179910
   0.16749886  0.92082127  0.47635617
   0.08333333  0.83333333  0.38179910
   0.67341505  0.91801783  0.52132320
   0.83333333  0.83333333  0.38179910
   0.08333333  0.33333333  0.38179910
   0.91693994  0.41940530  0.47330504
   0.00316739  0.24287070  0.56113491
   0.67193345  0.67443205  0.47432908
   0.08333333  0.58333333  0.38179910
   0.74459580  0.22972395  0.56350705
   0.91016570  0.91978415  0.47460235
   0.97294217  0.76689294  0.56210827
   0.66615855  0.16326871  0.47429539
   0.42448881  0.91966050  0.47229916
   0.51113444  0.50559089  0.57205060
   0.42064884  0.66665165  0.47194075
   0.33333333  0.33333333  0.38179910
   0.41787385  0.41719238  0.47826973
   0.24599706  0.25367984  0.56698916
   0.49554402  0.98239122  0.60905158
   0.42076075  0.16362544  0.47843434
   0.58333333  0.08333333  0.38179910
   0.25610627  0.74884226  0.56692911
   0.78765794  0.84890639  0.66127684
   0.27567637  0.10015038  0.62443229
   0.09205211  0.58663969  0.61263820
   0.85148673  0.55457041  0.62130163
   0.57821556  0.10963178  0.63703247
   0.41650123  0.40956705  0.61844896
   0.82871447  0.32450882  0.61020413
   0.97001649  0.97717558  0.63915498
   0.73256867  0.75633837  0.61168691
   0.25898537  0.49916187  0.56835798
   0.16575214  0.66832720  0.47493627
   0.33333333  0.58333333  0.38179910
   0.91491458  0.16849746  0.47116190
   0.58333333  0.33333333  0.38179910
   0.16470732  0.42143253  0.47907637
   0.50265160  0.23304474  0.57442760
   0.58333333  0.58333333  0.38179910
   0.25078627  0.99662692  0.56725817
   0.00386932  0.99288738  0.56785979
   0.91538027  0.66953982  0.47287896
   0.58333333  0.83333333  0.38179910
   0.33333333  0.08333333  0.38179910
   0.33333333  0.83333333  0.38179910
   0.83333333  0.08333333  0.38179910
   0.74751969  0.50965024  0.56725315
   0.78372687  0.01616614  0.63447376
   0.83333333  0.33333333  0.38179910
   0.66833218  0.41907886  0.47556102
   0.00174307  0.50127807  0.56983495
   0.50634104  0.76045194  0.56254668
   0.16907360  0.16841275  0.47431365
   0.83333333  0.58333333  0.38179910
Direct configuration=     2
   0.08333333  0.08333333  0.38179910
   0.16741095  0.92084484  0.47638230
   0.08333333  0.83333333  0.38179910
   0.67332945  0.91799830  0.52137412
   0.83333333  0.83333333  0.38179910
   0.08333333  0.33333333  0.38179910
   0.91696515  0.41939802  0.47332195
   0.00314233  0.24290099  0.56113750
   0.67178122  0.67452136  0.47437648
   0.08333333  0.58333333  0.38179910
   0.74455212  0.22991385  0.56352932
   0.91018625  0.91976172  0.47467521
   0.97294446  0.76691421  0.56210320
   0.66618583  0.16323310  0.47428777
   0.42444105  0.91965330  0.47230819
   0.51105426  0.50570750  0.57207091
   0.42061281  0.66669542  0.47189413
   0.33333333  0.33333333  0.38179910
   0.41786228  0.41716029  0.47821452
   0.24609692  0.25357291  0.56696221
   0.49572965  0.98229709  0.60908123
   0.42080045  0.16359996  0.47843525
   0.58333333  0.08333333  0.38179910
   0.25605312  0.74891702  0.56696870
   0.78752142  0.84886183  0.66131915
   0.27570892  0.10019179  0.62441788
   0.09187063  0.58660873  0.61265131
   0.85168961  0.55433132  0.62119200
   0.57859375  0.10953549  0.63695511
   0.41645606  0.40950667  0.61839392
   0.82874479  0.32450609  0.61023874
   0.97045046  0.97717090  0.63921004
   0.73236845  0.75659813  0.61169977
   0.25891521  0.49914740  0.56837424
   0.16576234  0.66832872  0.47498876
   0.33333333  0.58333333  0.38179910
   0.91493649  0.16849881  0.47117488
   0.58333333  0.33333333  0.38179910
   0.16476401  0.42138236  0.47908540
   0.50267547  0.23309600  0.57431002
   0.58333333  0.58333333  0.38179910
   0.25086337  0.99657988  0.56726548
   0.00405583  0.99291048  0.56779394
   0.91541848  0.66956532  0.47289454
   0.58333333  0.83333333  0.38179910
   0.33333333  0.08333333  0.38179910
   0.33333333  0.83333333  0.38179910
   0.83333333  0.08333333  0.38179910
   0.74753073  0.50964683  0.56729725
   0.78286680  0.01620986  0.63446987
   0.83333333  0.33333333  0.38179910
   0.66834231  0.41904915  0.47553075
   0.00169309  0.50125475  0.56972712
   0.50624232  0.76057341  0.56257013
   0.16903748  0.16842947  0.47429336
   0.83333333  0.58333333  0.38179910
Direct configuration=     3
   0.08333333  0.08333333  0.38179910
   0.16740050  0.92084764  0.47638541
   0.08333333  0.83333333  0.38179910
   0.67331928  0.91799598  0.52138018
   0.83333333  0.83333333  0.38179910
   0.08333333  0.33333333  0.38179910
   0.91696815  0.41939716  0.47332396
   0.00313935  0.24290459  0.56113781
   0.67176311  0.67453198  0.47438211
   0.08333333  0.58333333  0.38179910
   0.74454693  0.22993643  0.56353197
   0.91018869  0.91975905  0.47468387
   0.97294473  0.76691673  0.56210260
   0.66618907  0.16322886  0.47428687
   0.42443537  0.91965245  0.47230927
   0.51104473  0.50572137  0.57207333
   0.42060853  0.66670063  0.47188859
   0.33333333  0.33333333  0.38179910
   0.41786090  0.41715647  0.47820796
   0.24610880  0.25356020  0.56695901
   0.49575173  0.98228589  0.60908475
   0.42080517  0.16359693  0.47843536
   0.58333333  0.08333333  0.38179910
   0.25604680  0.74892591  0.56697340
   0.78750519  0.84885653  0.66132419
   0.27571280  0.10019671  0.62441616
   0.09184905  0.58660505  0.61265287
   0.85171374  0.55430289  0.62117897
   0.57863872  0.10952404  0.63694591
   0.41645068  0.40949950  0.61838738
   0.82874839  0.32450577  0.61024285
   0.97050207  0.97717035  0.63921659
   0.73234464  0.75662902  0.61170130
   0.25890686  0.49914568  0.56837617
   0.16576356  0.66832890  0.47499501
   0.33333333  0.58333333  0.38179910
   0.91493909  0.16849897  0.47117643
   0.58333333  0.33333333  0.38179910
   0.16477075  0.42137640  0.47908647
   0.50267831  0.23310209  0.57429604
   0.58333333  0.58333333  0.38179910
   0.25087254  0.99657428  0.56726635
   0.00407801  0.99291323  0.56778611
   0.91542303  0.66956835  0.47289640
   0.58333333  0.83333333  0.38179910
   0.33333333  0.08333333  0.38179910
   0.33333333  0.83333333  0.38179910
   0.83333333  0.08333333  0.38179910
   0.74753205  0.50964643  0.56730250
   0.78276453  0.01621506  0.63446941
   0.83333333  0.33333333  0.38179910
   0.66834352  0.41904561  0.47552715
   0.00168715  0.50125198  0.56971430
   0.50623058  0.76058785  0.56257292
   0.16903319  0.16843145  0.47429095
   0.83333333  0.58333333  0.38179910
Direct configuration=     4
   0.08333333  0.08333333  0.38179910
   0.16729883  0.92087437  0.47641473
   0.08333333  0.83333333  0.38179910
   0.67320507  0.91797692  0.52144169
   0.83333333  0.83333333  0.38179910
   0.08333333  0.33333333  0.38179910
   0.91697011  0.41942386  0.47334372
   0.00313506  0.24292665  0.56114237
   0.67162451  0.67461139  0.47444319
   0.08333333  0.58333333  0.38179910
   0.74450908  0.23015864  0.56356372
   0.91019455  0.91975432  0.47477322
   0.97295232  0.76695762  0.56212532
   0.66624341  0.16317547  0.47428395
   0.42434927  0.91967492  0.47231891
   0.51092069  0.50590081  0.57209800
   0.42054937  0.66674762  0.47183113
   0.33333333  0.33333333  0.38179910
   0.41785037  0.41713339  0.47813545
   0.24623335  0.25341670  0.56692226
   0.49584904  0.98225303  0.60913271
   0.42086531  0.16353670  0.47842953
   0.58333333  0.08333333  0.38179910
   0.25599300  0.74898368  0.56703387
   0.78732626  0.84875618  0.66141572
   0.27579547  0.10024987  0.62439370
   0.09160323  0.58655200  0.61265452
   0.85190870  0.55413980  0.62103740
   0.57869335  0.10962232  0.63685252
   0.41637921  0.40942620  0.61831998
   0.82878959  0.32451599  0.61029905
   0.97035871  0.97731309  0.63919605
   0.73223581  0.75666198  0.61170098
   0.25878922  0.49913551  0.56839963
   0.16578215  0.66832392  0.47506566
   0.33333333  0.58333333  0.38179910
   0.91494944  0.16851012  0.47119185
   0.58333333  0.33333333  0.38179910
   0.16484620  0.42130848  0.47909443
   0.50273544  0.23314490  0.57411059
   0.58333333  0.58333333  0.38179910
   0.25097087  0.99654377  0.56727683
   0.00419888  0.99296370  0.56778579
   0.91543419  0.66959250  0.47291275
   0.58333333  0.83333333  0.38179910
   0.33333333  0.08333333  0.38179910
   0.33333333  0.83333333  0.38179910
   0.83333333  0.08333333  0.38179910
   0.74747899  0.50966041  0.56735222
   0.78291818  0.01601705  0.63444176
   0.83333333  0.33333333  0.38179910
   0.66834757  0.41901901  0.47548364
   0.00164986  0.50122432  0.56955505
   0.50611487  0.76072077  0.56260881
   0.16899558  0.16844327  0.47426457
   0.83333333  0.58333333  0.38179910
Direct configuration=     5
   0.08333333  0.08333333  0.38179910
   0.16701759  0.92094830  0.47649583
   0.08333333  0.83333333  0.38179910
   0.67288917  0.91792420  0.52161183
   0.83333333  0.83333333  0.38179910
   0.08333333  0.33333333  0.38179910
   0.91697554  0.41949773  0.47339841
   0.00312320  0.24298768  0.56115500
   0.67124110  0.67483105  0.47461215
   0.08333333  0.58333333  0.38179910
   0.74440439  0.23077331  0.56365157
   0.91021074  0.91974124  0.47502039
   0.97297332  0.76707073  0.56218816
   0.66639373  0.16302776  0.47427587
   0.42411112  0.91973707  0.47234560
   0.51057756  0.50639717  0.57216626
   0.42038574  0.66687760  0.47167220
   0.33333333  0.33333333  0.38179910
   0.41782124  0.41706954  0.47793488
   0.24657788  0.25301975  0.56682061
   0.49611821  0.98216211  0.60926537
   0.42103165  0.16337009  0.47841338
   0.58333333  0.08333333  0.38179910
   0.25584419  0.74914348  0.56720114
   0.78683129  0.84847859  0.66166890
   0.27602418  0.10039693  0.62433156
   0.09092327  0.58640524  0.61265907
   0.85244800  0.55368869  0.62064581
   0.57884446  0.10989418  0.63659418
   0.41618149  0.40922346  0.61813354
   0.82890356  0.32454429  0.61045450
   0.96996216  0.97770794  0.63913922
   0.73193478  0.75675316  0.61170010
   0.25846379  0.49910737  0.56846454
   0.16583360  0.66831013  0.47526110
   0.33333333  0.58333333  0.38179910
   0.91497808  0.16854096  0.47123451
   0.58333333  0.33333333  0.38179910
   0.16505490  0.42112063  0.47911644
   0.50289347  0.23326331  0.57359761
   0.58333333  0.58333333  0.38179910
   0.25124287  0.99645937  0.56730580
   0.00453323  0.99310331  0.56778491
   0.91546505  0.66965927  0.47295799
   0.58333333  0.83333333  0.38179910
   0.33333333  0.08333333  0.38179910
   0.33333333  0.83333333  0.38179910
   0.83333333  0.08333333  0.38179910
   0.74733223  0.50969909  0.56748977
   0.78334320  0.01546933  0.63436530
   0.83333333  0.33333333  0.38179910
   0.66835879  0.41894543  0.47536326
   0.00154670  0.50114781  0.56911454
   0.50579481  0.76108844  0.56270808
   0.16889157  0.16847597  0.47419160
   0.83333333  0.58333333  0.38179910
Direct configuration=     6
   0.08333333  0.08333333  0.38179910
   0.16688533  0.92098306  0.47653397
   0.08333333  0.83333333  0.38179910
   0.67274061  0.91789941  0.52169185
   0.83333333  0.83333333  0.38179910
   0.08333333  0.33333333  0.38179910
   0.91697810  0.41953247  0.47342413
   0.00311761  0.24301639  0.56116094
   0.67106079  0.67493435  0.47469161
   0.08333333  0.58333333  0.38179910
   0.74435516  0.23106238  0.56369288
   0.91021835  0.91973509  0.47513663
   0.97298320  0.76712393  0.56221772
   0.66646442  0.16295829  0.47427207
   0.42399911  0.91976630  0.47235814
   0.51041619  0.50663060  0.57219836
   0.42030879  0.66693873  0.47159746
   0.33333333  0.33333333  0.38179910
   0.41780754  0.41703951  0.47784055
   0.24673991  0.25283308  0.56677280
   0.49624480  0.98211935  0.60932776
   0.42110989  0.16329174  0.47840579
   0.58333333  0.08333333  0.38179910
   0.25577420  0.74921863  0.56727980
   0.78659852  0.84834805  0.66178797
   0.27613173  0.10046608  0.62430233
   0.09060350  0.58633622  0.61266122
   0.85270163  0.55347653  0.62046165
   0.57891553  0.11002203  0.63647269
   0.41608850  0.40912811  0.61804586
   0.82895716  0.32455759  0.61052761
   0.96977567  0.97789363  0.63911249
   0.73179321  0.75679604  0.61169969
   0.25831074  0.49909414  0.56849507
   0.16585779  0.66830365  0.47535302
   0.33333333  0.58333333  0.38179910
   0.91499155  0.16855547  0.47125457
   0.58333333  0.33333333  0.38179910
   0.16515305  0.42103228  0.47912679
   0.50296779  0.23331899  0.57335636
   0.58333333  0.58333333  0.38179910
   0.25137079  0.99641968  0.56731943
   0.00469048  0.99316897  0.56778450
   0.91547956  0.66969068  0.47297927
   0.58333333  0.83333333  0.38179910
   0.33333333  0.08333333  0.38179910
   0.33333333  0.83333333  0.38179910
   0.83333333  0.08333333  0.38179910
   0.74726322  0.50971728  0.56755446
   0.78354308  0.01521174  0.63432933
   0.83333333  0.33333333  0.38179910
   0.66836407  0.41891082  0.47530665
   0.00149819  0.50111183  0.56890738
   0.50564429  0.76126135  0.56275476
   0.16884265  0.16849134  0.47415728
   0.83333333  0.58333333  0.38179910
Direct configuration=     7
   0.08333333  0.08333333  0.38179910
   0.16684703  0.92098992  0.47655839
   0.08333333  0.83333333  0.38179910
   0.67263485  0.91790594  0.52173188
   0.83333333  0.83333333  0.38179910
   0.08333333  0.33333333  0.38179910
   0.91689040  0.41963953  0.47342951
   0.00318812  0.24300018  0.56116584
   0.67109688  0.67489418  0.47474750
   0.08333333  0.58333333  0.38179910
   0.74430899  0.23124514  0.56372378
   0.91017536  0.91977224  0.47518706
   0.97299587  0.76713278  0.56230043
   0.66655082  0.16291769  0.47428852
   0.42384572  0.91982669  0.47235840
   0.51023425  0.50684809  0.57221159
   0.42025235  0.66694680  0.47157873
   0.33333333  0.33333333  0.38179910
   0.41781519  0.41706039  0.47778664
   0.24678896  0.25278212  0.56671556
   0.49620125  0.98225691  0.60941726
   0.42118735  0.16317470  0.47836262
   0.58333333  0.08333333  0.38179910
   0.25572866  0.74921785  0.56735460
   0.78635152  0.84844001  0.66184557
   0.27626429  0.10053556  0.62430561
   0.09038137  0.58622784  0.61262379
   0.85281196  0.55354767  0.62035369
   0.57897446  0.11016903  0.63630622
   0.41604306  0.40898057  0.61796566
   0.82903448  0.32458146  0.61060772
   0.96975795  0.97802437  0.63911088
   0.73193731  0.75645617  0.61173745
   0.25813067  0.49914391  0.56851995
   0.16586262  0.66828618  0.47541483
   0.33333333  0.58333333  0.38179910
   0.91495949  0.16859964  0.47126728
   0.58333333  0.33333333  0.38179910
   0.16520617  0.42097708  0.47911108
   0.50311295  0.23330460  0.57317467
   0.58333333  0.58333333  0.38179910
   0.25141051  0.99644495  0.56731808
   0.00469068  0.99328861  0.56780268
   0.91540129  0.66971908  0.47297532
   0.58333333  0.83333333  0.38179910
   0.33333333  0.08333333  0.38179910
   0.33333333  0.83333333  0.38179910
   0.83333333  0.08333333  0.38179910
   0.74698727  0.50976450  0.56755718
   0.78358562  0.01488708  0.63430949
   0.83333333  0.33333333  0.38179910
   0.66832852  0.41893768  0.47526429
   0.00157941  0.50107611  0.56868469
   0.50557299  0.76127880  0.56279719
   0.16882193  0.16848470  0.47413436
   0.83333333  0.58333333  0.38179910
Direct configuration=     8
   0.08333333  0.08333333  0.38179910
   0.16679745  0.92099878  0.47659000
   0.08333333  0.83333333  0.38179910
   0.67249795  0.91791440  0.52178370
   0.83333333  0.83333333  0.38179910
   0.08333333  0.33333333  0.38179910
   0.91677688  0.41977810  0.47343649
   0.00327939  0.24297920  0.56117217
   0.67114361  0.67484218  0.47481985
   0.08333333  0.58333333  0.38179910
   0.74424923  0.23148173  0.56376379
   0.91011971  0.91982034  0.47525233
   0.97301228  0.76714423  0.56240749
   0.66666267  0.16286514  0.47430981
   0.42364716  0.91990486  0.47235873
   0.50999874  0.50712961  0.57222872
   0.42017930  0.66695724  0.47155449
   0.33333333  0.33333333  0.38179910
   0.41782509  0.41708742  0.47771685
   0.24685246  0.25271616  0.56664147
   0.49614487  0.98243497  0.60953311
   0.42128761  0.16302319  0.47830673
   0.58333333  0.08333333  0.38179910
   0.25566970  0.74921684  0.56745141
   0.78603179  0.84855905  0.66192014
   0.27643589  0.10062549  0.62430984
   0.09009383  0.58608755  0.61257534
   0.85295479  0.55363975  0.62021395
   0.57905074  0.11035932  0.63609073
   0.41598423  0.40878958  0.61786185
   0.82913458  0.32461236  0.61071143
   0.96973502  0.97819362  0.63910880
   0.73212384  0.75601621  0.61178633
   0.25789758  0.49920832  0.56855216
   0.16586886  0.66826358  0.47549485
   0.33333333  0.58333333  0.38179910
   0.91491800  0.16865682  0.47128373
   0.58333333  0.33333333  0.38179910
   0.16527493  0.42090562  0.47909075
   0.50330084  0.23328596  0.57293949
   0.58333333  0.58333333  0.38179910
   0.25146193  0.99647767  0.56731634
   0.00469094  0.99344349  0.56782621
   0.91529996  0.66975584  0.47297021
   0.58333333  0.83333333  0.38179910
   0.33333333  0.08333333  0.38179910
   0.33333333  0.83333333  0.38179910
   0.83333333  0.08333333  0.38179910
   0.74663007  0.50982561  0.56756070
   0.78364069  0.01446682  0.63428379
   0.83333333  0.33333333  0.38179910
   0.66828251  0.41897244  0.47520947
   0.00168454  0.50102987  0.56839643
   0.50548069  0.76130138  0.56285211
   0.16879511  0.16847611  0.47410470
   0.83333333  0.58333333  0.38179910
Direct configuration=     9
   0.08333333  0.08333333  0.38179910
   0.16677555  0.92100270  0.47660396
   0.08333333  0.83333333  0.38179910
   0.67243749  0.91791813  0.52180659
   0.83333333  0.83333333  0.38179910
   0.08333333  0.33333333  0.38179910
   0.91672674  0.41983931  0.47343957
   0.00331970  0.24296994  0.56117497
   0.67116425  0.67481921  0.47485181
   0.08333333  0.58333333  0.38179910
   0.74422283  0.23158622  0.56378146
   0.91009513  0.91984159  0.47528116
   0.97301953  0.76714929  0.56245478
   0.66671206  0.16284193  0.47431921
   0.42355946  0.91993938  0.47235887
   0.50989472  0.50725396  0.57223629
   0.42014703  0.66696186  0.47154378
   0.33333333  0.33333333  0.38179910
   0.41782946  0.41709936  0.47768603
   0.24688051  0.25268703  0.56660875
   0.49611996  0.98251361  0.60958428
   0.42133190  0.16295628  0.47828205
   0.58333333  0.08333333  0.38179910
   0.25564366  0.74921639  0.56749418
   0.78589058  0.84861163  0.66195307
   0.27651168  0.10066521  0.62431171
   0.08996684  0.58602559  0.61255395
   0.85301787  0.55368042  0.62015222
   0.57908443  0.11044337  0.63599555
   0.41595825  0.40870522  0.61781600
   0.82917879  0.32462601  0.61075723
   0.96972489  0.97826837  0.63910788
   0.73220623  0.75582189  0.61180792
   0.25779463  0.49923677  0.56856638
   0.16587162  0.66825359  0.47553019
   0.33333333  0.58333333  0.38179910
   0.91489967  0.16868208  0.47129099
   0.58333333  0.33333333  0.38179910
   0.16530531  0.42087406  0.47908176
   0.50338383  0.23327773  0.57283561
   0.58333333  0.58333333  0.38179910
   0.25148464  0.99649212  0.56731558
   0.00469106  0.99351190  0.56783660
   0.91525521  0.66977208  0.47296795
   0.58333333  0.83333333  0.38179910
   0.33333333  0.08333333  0.38179910
   0.33333333  0.83333333  0.38179910
   0.83333333  0.08333333  0.38179910
   0.74647230  0.50985261  0.56756226
   0.78366502  0.01428120  0.63427244
   0.83333333  0.33333333  0.38179910
   0.66826218  0.41898780  0.47518525
   0.00173098  0.50100945  0.56826911
   0.50543993  0.76131136  0.56287636
   0.16878326  0.16847231  0.47409160
   0.83333333  0.58333333  0.38179910
Direct configuration=    10
   0.08333333  0.08333333  0.38179910
   0.16681290  0.92096462  0.47661416
   0.08333333  0.83333333  0.38179910
   0.67240168  0.91793535  0.52181060
   0.83333333  0.83333333  0.38179910
   0.08333333  0.33333333  0.38179910
   0.91664395  0.41987181  0.47342446
   0.00329605  0.24301058  0.56118737
   0.67121337  0.67478706  0.47486410
   0.08333333  0.58333333  0.38179910
   0.74428036  0.23164819  0.56382109
   0.91008291  0.91980620  0.47526743
   0.97297901  0.76721856  0.56253332
   0.66672959  0.16288848  0.47434888
   0.42353536  0.91985140  0.47234885
   0.50967015  0.50731472  0.57223543
   0.42013815  0.66696220  0.47159809
   0.33333333  0.33333333  0.38179910
   0.41784923  0.41711393  0.47771084
   0.24687246  0.25278060  0.56655477
   0.49616499  0.98243838  0.60963465
   0.42140186  0.16287894  0.47819409
   0.58333333  0.08333333  0.38179910
   0.25553629  0.74925129  0.56754618
   0.78560559  0.84873383  0.66194228
   0.27652168  0.10075887  0.62434824
   0.08990554  0.58587635  0.61252111
   0.85323453  0.55356741  0.62009254
   0.57914790  0.11054164  0.63585428
   0.41597550  0.40852875  0.61775937
   0.82928594  0.32466390  0.61077685
   0.96974063  0.97830443  0.63916316
   0.73214979  0.75590730  0.61190020
   0.25780766  0.49927223  0.56855324
   0.16578585  0.66827234  0.47554738
   0.33333333  0.58333333  0.38179910
   0.91484892  0.16875173  0.47129228
   0.58333333  0.33333333  0.38179910
   0.16531301  0.42086213  0.47900737
   0.50346650  0.23327420  0.57270434
   0.58333333  0.58333333  0.38179910
   0.25144878  0.99657041  0.56732003
   0.00451173  0.99361853  0.56785484
   0.91517590  0.66985570  0.47294489
   0.58333333  0.83333333  0.38179910
   0.33333333  0.08333333  0.38179910
   0.33333333  0.83333333  0.38179910
   0.83333333  0.08333333  0.38179910
   0.74631036  0.50977736  0.56754194
   0.78380018  0.01412336  0.63421500
   0.83333333  0.33333333  0.38179910
   0.66819096  0.41904100  0.47517076
   0.00166781  0.50104060  0.56811977
   0.50542929  0.76129253  0.56290132
   0.16873720  0.16849340  0.47408044
   0.83333333  0.58333333  0.38179910
Direct configuration=    11
   0.08333333  0.08333333  0.38179910
   0.16687902  0.92089721  0.47663223
   0.08333333  0.83333333  0.38179910
   0.67233830  0.91796583  0.52181769
   0.83333333  0.83333333  0.38179910
   0.08333333  0.33333333  0.38179910
   0.91649740  0.41992934  0.47339771
   0.00325419  0.24308252  0.56120933
   0.67130031  0.67473015  0.47488585
   0.08333333  0.58333333  0.38179910
   0.74438218  0.23175788  0.56389123
   0.91006127  0.91974356  0.47524311
   0.97290727  0.76734118  0.56267235
   0.66676060  0.16297087  0.47440140
   0.42349271  0.91969566  0.47233109
   0.50927262  0.50742229  0.57223391
   0.42012243  0.66696280  0.47169425
   0.33333333  0.33333333  0.38179910
   0.41788424  0.41713972  0.47775476
   0.24685823  0.25294625  0.56645922
   0.49624471  0.98230520  0.60972382
   0.42152571  0.16274203  0.47803839
   0.58333333  0.08333333  0.38179910
   0.25534622  0.74931307  0.56763825
   0.78510110  0.84895015  0.66192319
   0.27653939  0.10092468  0.62441291
   0.08979704  0.58561218  0.61246299
   0.85361805  0.55336736  0.61998689
   0.57926024  0.11071558  0.63560419
   0.41600605  0.40821636  0.61765912
   0.82947562  0.32473098  0.61081157
   0.96976847  0.97836825  0.63926101
   0.73204989  0.75605848  0.61206354
   0.25783074  0.49933498  0.56852998
   0.16563404  0.66830553  0.47557781
   0.33333333  0.58333333  0.38179910
   0.91475909  0.16887503  0.47129456
   0.58333333  0.33333333  0.38179910
   0.16532664  0.42084102  0.47887569
   0.50361283  0.23326796  0.57247198
   0.58333333  0.58333333  0.38179910
   0.25138530  0.99670900  0.56732790
   0.00419428  0.99380728  0.56788711
   0.91503550  0.67000373  0.47290406
   0.58333333  0.83333333  0.38179910
   0.33333333  0.08333333  0.38179910
   0.33333333  0.83333333  0.38179910
   0.83333333  0.08333333  0.38179910
   0.74602370  0.50964415  0.56750598
   0.78403943  0.01384395  0.63411332
   0.83333333  0.33333333  0.38179910
   0.66806487  0.41913517  0.47514510
   0.00155598  0.50109573  0.56785541
   0.50541045  0.76125919  0.56294549
   0.16865567  0.16853073  0.47406067
   0.83333333  0.58333333  0.38179910
Direct configuration=    12
   0.08333333  0.08333333  0.38179910
   0.16701125  0.92076239  0.47666835
   0.08333333  0.83333333  0.38179910
   0.67221153  0.91802678  0.52183187
   0.83333333  0.83333333  0.38179910
   0.08333333  0.33333333  0.38179910
   0.91620430  0.42004441  0.47334422
   0.00317047  0.24322642  0.56125324
   0.67147421  0.67461634  0.47492936
   0.08333333  0.58333333  0.38179910
   0.74458583  0.23197725  0.56403151
   0.91001799  0.91961828  0.47519448
   0.97276380  0.76758641  0.56295041
   0.66682263  0.16313566  0.47450645
   0.42340740  0.91938418  0.47229559
   0.50847757  0.50763741  0.57223088
   0.42009099  0.66696400  0.47188655
   0.33333333  0.33333333  0.38179910
   0.41795425  0.41719129  0.47784260
   0.24682976  0.25327753  0.56626812
   0.49640414  0.98203883  0.60990215
   0.42177339  0.16246823  0.47772699
   0.58333333  0.08333333  0.38179910
   0.25496607  0.74943664  0.56782237
   0.78409214  0.84938279  0.66188501
   0.27657480  0.10125629  0.62454224
   0.08958003  0.58508384  0.61234675
   0.85438508  0.55296725  0.61977559
   0.57948494  0.11106348  0.63510403
   0.41606714  0.40759158  0.61745862
   0.82985499  0.32486513  0.61088102
   0.96982417  0.97849590  0.63945670
   0.73185007  0.75636083  0.61239024
   0.25787689  0.49946049  0.56848345
   0.16533041  0.66837191  0.47563867
   0.33333333  0.58333333  0.38179910
   0.91457941  0.16912163  0.47129911
   0.58333333  0.33333333  0.38179910
   0.16535392  0.42079879  0.47861231
   0.50390548  0.23325546  0.57200726
   0.58333333  0.58333333  0.38179910
   0.25125835  0.99698619  0.56734366
   0.00355939  0.99418478  0.56795166
   0.91475470  0.67029980  0.47282241
   0.58333333  0.83333333  0.38179910
   0.33333333  0.08333333  0.38179910
   0.33333333  0.83333333  0.38179910
   0.83333333  0.08333333  0.38179910
   0.74545037  0.50937774  0.56743405
   0.78451794  0.01328514  0.63390996
   0.83333333  0.33333333  0.38179910
   0.66781271  0.41932351  0.47509380
   0.00133233  0.50120601  0.56732669
   0.50537277  0.76119253  0.56303383
   0.16849260  0.16860538  0.47402114
   0.83333333  0.58333333  0.38179910
Direct configuration=    13
   0.08333333  0.08333333  0.38179910
   0.16691388  0.92086166  0.47664175
   0.08333333  0.83333333  0.38179910
   0.67230488  0.91798190  0.52182143
   0.83333333  0.83333333  0.38179910
   0.08333333  0.33333333  0.38179910
   0.91642012  0.41995968  0.47338361
   0.00323212  0.24312046  0.56122091
   0.67134616  0.67470015  0.47489732
   0.08333333  0.58333333  0.38179910
   0.74443588  0.23181572  0.56392821
   0.91004986  0.91971053  0.47523029
   0.97286944  0.76740584  0.56274566
   0.66677696  0.16301432  0.47442910
   0.42347021  0.91961353  0.47232173
   0.50906300  0.50747901  0.57223311
   0.42011414  0.66696311  0.47174495
   0.33333333  0.33333333  0.38179910
   0.41790270  0.41715331  0.47777792
   0.24685072  0.25303359  0.56640884
   0.49628675  0.98223497  0.60977084
   0.42159101  0.16266984  0.47795629
   0.58333333  0.08333333  0.38179910
   0.25524599  0.74934565  0.56768679
   0.78483508  0.84906422  0.66191313
   0.27654872  0.10101211  0.62444701
   0.08973982  0.58547288  0.61243235
   0.85382028  0.55326186  0.61993118
   0.57931949  0.11080731  0.63547232
   0.41602216  0.40805163  0.61760625
   0.82957565  0.32476635  0.61082988
   0.96978316  0.97840191  0.63931260
   0.73199720  0.75613820  0.61214968
   0.25784291  0.49936807  0.56851771
   0.16555398  0.66832303  0.47559386
   0.33333333  0.58333333  0.38179910
   0.91471171  0.16894005  0.47129576
   0.58333333  0.33333333  0.38179910
   0.16533383  0.42082988  0.47880624
   0.50368999  0.23326466  0.57234945
   0.58333333  0.58333333  0.38179910
   0.25135183  0.99678209  0.56733206
   0.00402688  0.99390681  0.56790413
   0.91496146  0.67008179  0.47288253
   0.58333333  0.83333333  0.38179910
   0.33333333  0.08333333  0.38179910
   0.33333333  0.83333333  0.38179910
   0.83333333  0.08333333  0.38179910
   0.74587253  0.50957391  0.56748702
   0.78416560  0.01369662  0.63405970
   0.83333333  0.33333333  0.38179910
   0.66799839  0.41918483  0.47513158
   0.00149702  0.50112481  0.56771601
   0.50540051  0.76124162  0.56296878
   0.16861267  0.16855041  0.47405025
   0.83333333  0.58333333  0.38179910
Direct configuration=    14
   0.08333333  0.08333333  0.38179910
   0.16690206  0.92084287  0.47665919
   0.08333333  0.83333333  0.38179910
   0.67228607  0.91799631  0.52181217
   0.83333333  0.83333333  0.38179910
   0.08333333  0.33333333  0.38179910
   0.91638561  0.41993387  0.47335872
   0.00326859  0.24313902  0.56121678
   0.67131168  0.67471982  0.47489846
   0.08333333  0.58333333  0.38179910
   0.74445708  0.23189881  0.56397761
   0.91005392  0.91968849  0.47520934
   0.97277336  0.76750775  0.56279524
   0.66680993  0.16306239  0.47446129
   0.42350325  0.91949692  0.47231594
   0.50889533  0.50747945  0.57222759
   0.42010710  0.66694765  0.47182185
   0.33333333  0.33333333  0.38179910
   0.41788360  0.41716163  0.47781528
   0.24689787  0.25306378  0.56635900
   0.49619637  0.98220386  0.60981078
   0.42162520  0.16257755  0.47784216
   0.58333333  0.08333333  0.38179910
   0.25503648  0.74952444  0.56773308
   0.78453693  0.84935401  0.66196947
   0.27654678  0.10112140  0.62443583
   0.08975553  0.58525797  0.61238812
   0.85390778  0.55323181  0.61983085
   0.57945448  0.11081488  0.63532814
   0.41604834  0.40782835  0.61758299
   0.82966517  0.32485021  0.61084442
   0.96989995  0.97837841  0.63938063
   0.73196362  0.75593001  0.61220244
   0.25779946  0.49943936  0.56847662
   0.16546369  0.66834259  0.47560217
   0.33333333  0.58333333  0.38179910
   0.91468172  0.16896850  0.47129538
   0.58333333  0.33333333  0.38179910
   0.16532126  0.42084424  0.47870136
   0.50372535  0.23325220  0.57219216
   0.58333333  0.58333333  0.38179910
   0.25128330  0.99692812  0.56736851
   0.00386673  0.99398905  0.56792878
   0.91491930  0.67017166  0.47286833
   0.58333333  0.83333333  0.38179910