  56  56   0   0
  0.4903395E+02  0.1100258E-08  0.1100258E-08  0.2619179E-08  0.3500000E-15
  1.000000000000000E-004
  CAR 
 unknown system                          
      6.31521168    -21.51431377  301     -1.23148167      1.00000000
    -21.514  0.0000E+00  0.0000E+00
    -21.422  0.0000E+00  0.0000E+00
    -21.329  0.0000E+00  0.0000E+00
    -21.236  0.0000E+00  0.0000E+00
    -21.143  0.0000E+00  0.0000E+00
    -21.050  0.0000E+00  0.0000E+00
    -20.958  0.0000E+00  0.0000E+00
    -20.865  0.0000E+00  0.0000E+00
    -20.772  0.2858E-14  0.2652E-15
    -20.679  0.2409E-10  0.2235E-11
    -20.587  0.3784E-07  0.3512E-08
    -20.494  0.1132E-04  0.1054E-05
    -20.401  0.6755E-03  0.6372E-04
    -20.308  0.8944E-02  0.8934E-03
    -20.216  0.3479E-01  0.4121E-02
    -20.123  0.6400E-01  0.1006E-01
    -20.030  0.7959E-01  0.1744E-01
    -19.937  0.9222E-01  0.2600E-01
    -19.845  0.5499E-01  0.3110E-01
    -19.752  0.9346E-02  0.3196E-01
    -19.659  0.3775E-03  0.3200E-01
    -19.566  0.3310E-05  0.3200E-01
    -19.473  0.5913E-08  0.3200E-01
    -19.381  0.2063E-11  0.3200E-01
    -19.288  0.1340E-15  0.3200E-01
    -19.195  0.0000E+00  0.3200E-01
    -19.102  0.0000E+00  0.3200E-01
    -19.010  0.0000E+00  0.3200E-01
    -18.917  0.0000E+00  0.3200E-01
    -18.824  0.0000E+00  0.3200E-01
    -18.731  0.0000E+00  0.3200E-01
    -18.639  0.0000E+00  0.3200E-01
    -18.546  0.0000E+00  0.3200E-01
    -18.453  0.0000E+00  0.3200E-01
    -18.360  0.0000E+00  0.3200E-01
    -18.268  0.0000E+00  0.3200E-01
    -18.175  0.0000E+00  0.3200E-01
    -18.082  0.0000E+00  0.3200E-01
    -17.989  0.0000E+00  0.3200E-01
    -17.896  0.0000E+00  0.3200E-01
    -17.804  0.0000E+00  0.3200E-01
    -17.711  0.0000E+00  0.3200E-01
    -17.618  0.0000E+00  0.3200E-01
    -17.525  0.0000E+00  0.3200E-01
    -17.433  0.0000E+00  0.3200E-01
    -17.340  0.0000E+00  0.3200E-01
    -17.247  0.0000E+00  0.3200E-01
    -17.154  0.0000E+00  0.3200E-01
    -17.062  0.0000E+00  0.3200E-01
    -16.969  0.0000E+00  0.3200E-01
    -16.876  0.0000E+00  0.3200E-01
    -16.783  0.0000E+00  0.3200E-01
    -16.691  0.0000E+00  0.3200E-01
    -16.598  0.0000E+00  0.3200E-01
    -16.505  0.0000E+00  0.3200E-01
    -16.412  0.0000E+00  0.3200E-01
    -16.319  0.0000E+00  0.3200E-01
    -16.227  0.0000E+00  0.3200E-01
    -16.134  0.0000E+00  0.3200E-01
    -16.041  0.0000E+00  0.3200E-01
    -15.948  0.0000E+00  0.3200E-01
    -15.856  0.0000E+00  0.3200E-01
    -15.763  0.0000E+00  0.3200E-01
    -15.670  0.0000E+00  0.3200E-01
    -15.577  0.0000E+00  0.3200E-01
    -15.485  0.0000E+00  0.3200E-01
    -15.392  0.0000E+00  0.3200E-01
    -15.299  0.0000E+00  0.3200E-01
    -15.206  0.0000E+00  0.3200E-01
    -15.114  0.0000E+00  0.3200E-01
    -15.021  0.0000E+00  0.3200E-01
    -14.928  0.0000E+00  0.3200E-01
    -14.835  0.0000E+00  0.3200E-01
    -14.742  0.0000E+00  0.3200E-01
    -14.650  0.0000E+00  0.3200E-01
    -14.557  0.0000E+00  0.3200E-01
    -14.464  0.0000E+00  0.3200E-01
    -14.371  0.0000E+00  0.3200E-01
    -14.279  0.0000E+00  0.3200E-01
    -14.186  0.0000E+00  0.3200E-01
    -14.093  0.0000E+00  0.3200E-01
    -14.000  0.0000E+00  0.3200E-01
    -13.908  0.0000E+00  0.3200E-01
    -13.815  0.0000E+00  0.3200E-01
    -13.722  0.0000E+00  0.3200E-01
    -13.629  0.0000E+00  0.3200E-01
    -13.537  0.0000E+00  0.3200E-01
    -13.444  0.0000E+00  0.3200E-01
    -13.351  0.0000E+00  0.3200E-01
    -13.258  0.0000E+00  0.3200E-01
    -13.165  0.0000E+00  0.3200E-01
    -13.073  0.0000E+00  0.3200E-01
    -12.980  0.0000E+00  0.3200E-01
    -12.887  0.0000E+00  0.3200E-01
    -12.794  0.0000E+00  0.3200E-01
    -12.702  0.0000E+00  0.3200E-01
    -12.609  0.0000E+00  0.3200E-01
    -12.516  0.0000E+00  0.3200E-01
    -12.423  0.0000E+00  0.3200E-01
    -12.331  0.0000E+00  0.3200E-01
    -12.238  0.0000E+00  0.3200E-01
    -12.145  0.0000E+00  0.3200E-01
    -12.052  0.0000E+00  0.3200E-01
    -11.960  0.0000E+00  0.3200E-01
    -11.867  0.0000E+00  0.3200E-01
    -11.774  0.0000E+00  0.3200E-01
    -11.681  0.0000E+00  0.3200E-01
    -11.588  0.0000E+00  0.3200E-01
    -11.496  0.0000E+00  0.3200E-01
    -11.403  0.0000E+00  0.3200E-01
    -11.310  0.0000E+00  0.3200E-01
    -11.217  0.0000E+00  0.3200E-01
    -11.125  0.0000E+00  0.3200E-01
    -11.032  0.0000E+00  0.3200E-01
    -10.939  0.0000E+00  0.3200E-01
    -10.846  0.0000E+00  0.3200E-01
    -10.754  0.0000E+00  0.3200E-01
    -10.661  0.0000E+00  0.3200E-01
    -10.568  0.0000E+00  0.3200E-01
    -10.475  0.0000E+00  0.3200E-01
    -10.383  0.0000E+00  0.3200E-01
    -10.290  0.0000E+00  0.3200E-01
    -10.197  0.0000E+00  0.3200E-01
    -10.104  0.0000E+00  0.3200E-01
    -10.011  0.1480E-15  0.3200E-01
     -9.919  0.1825E-11  0.3200E-01
     -9.826  0.4176E-08  0.3200E-01
     -9.733  0.1805E-05  0.3200E-01
     -9.640  0.1517E-03  0.3201E-01
     -9.548  0.2591E-02  0.3225E-01
     -9.455  0.9516E-02  0.3314E-01
     -9.362  0.8061E-02  0.3389E-01
     -9.269  0.4789E-02  0.3433E-01
     -9.177  0.1015E-01  0.3527E-01
     -9.084  0.6810E-02  0.3590E-01
     -8.991  0.1027E-02  0.3600E-01
     -8.898  0.4854E-03  0.3604E-01
     -8.805  0.4562E-02  0.3647E-01
     -8.713  0.1169E-01  0.3755E-01
     -8.620  0.1451E-01  0.3890E-01
     -8.527  0.1821E-01  0.4059E-01
     -8.434  0.1240E-01  0.4174E-01
     -8.342  0.4142E-02  0.4212E-01
     -8.249  0.7739E-02  0.4284E-01
     -8.156  0.1476E-01  0.4421E-01
     -8.063  0.2450E-01  0.4648E-01
     -7.971  0.3744E-01  0.4995E-01
     -7.878  0.4457E-01  0.5409E-01
     -7.785  0.6126E-01  0.5977E-01
     -7.692  0.8200E-01  0.6738E-01
     -7.600  0.1109E+00  0.7766E-01
     -7.507  0.1094E+00  0.8781E-01
     -7.414  0.9726E-01  0.9683E-01
     -7.321  0.1010E+00  0.1062E+00
     -7.228  0.8636E-01  0.1142E+00
     -7.136  0.8250E-01  0.1219E+00
     -7.043  0.1279E+00  0.1337E+00
     -6.950  0.1604E+00  0.1486E+00
     -6.857  0.1569E+00  0.1632E+00
     -6.765  0.1604E+00  0.1780E+00
     -6.672  0.1622E+00  0.1931E+00
     -6.579  0.1743E+00  0.2093E+00
     -6.486  0.1848E+00  0.2264E+00
     -6.394  0.1790E+00  0.2430E+00
     -6.301  0.1714E+00  0.2589E+00
     -6.208  0.1469E+00  0.2725E+00
     -6.115  0.1332E+00  0.2849E+00
     -6.023  0.1457E+00  0.2984E+00
     -5.930  0.1643E+00  0.3137E+00
     -5.837  0.1614E+00  0.3286E+00
     -5.744  0.1542E+00  0.3429E+00
     -5.651  0.1555E+00  0.3574E+00
     -5.559  0.1739E+00  0.3735E+00
     -5.466  0.1795E+00  0.3901E+00
     -5.373  0.1816E+00  0.4070E+00
     -5.280  0.1856E+00  0.4242E+00
     -5.188  0.1741E+00  0.4404E+00
     -5.095  0.1737E+00  0.4565E+00
     -5.002  0.1773E+00  0.4729E+00
     -4.909  0.1798E+00  0.4896E+00
     -4.817  0.1909E+00  0.5073E+00
     -4.724  0.1976E+00  0.5256E+00
     -4.631  0.1980E+00  0.5440E+00
     -4.538  0.1876E+00  0.5614E+00
     -4.446  0.1861E+00  0.5787E+00
     -4.353  0.2056E+00  0.5977E+00
     -4.260  0.2193E+00  0.6181E+00
     -4.167  0.2149E+00  0.6380E+00
     -4.074  0.2107E+00  0.6576E+00
     -3.982  0.2068E+00  0.6768E+00
     -3.889  0.2041E+00  0.6957E+00
     -3.796  0.2002E+00  0.7143E+00
     -3.703  0.2031E+00  0.7331E+00
     -3.611  0.2082E+00  0.7524E+00
     -3.518  0.2123E+00  0.7721E+00
     -3.425  0.2033E+00  0.7910E+00
     -3.332  0.1843E+00  0.8081E+00
     -3.240  0.1659E+00  0.8235E+00
     -3.147  0.1579E+00  0.8381E+00
     -3.054  0.1594E+00  0.8529E+00
     -2.961  0.1658E+00  0.8683E+00
     -2.869  0.1730E+00  0.8843E+00
     -2.776  0.1725E+00  0.9003E+00
     -2.683  0.1613E+00  0.9153E+00
     -2.590  0.1598E+00  0.9301E+00
     -2.497  0.1729E+00  0.9462E+00
     -2.405  0.1734E+00  0.9622E+00
     -2.312  0.1708E+00  0.9781E+00
     -2.219  0.1687E+00  0.9937E+00
     -2.126  0.1658E+00  0.1009E+01
     -2.034  0.1627E+00  0.1024E+01
     -1.941  0.1506E+00  0.1038E+01
     -1.848  0.1405E+00  0.1051E+01
     -1.755  0.1227E+00  0.1063E+01
     -1.663  0.1028E+00  0.1072E+01
     -1.570  0.8901E-01  0.1080E+01
     -1.477  0.8101E-01  0.1088E+01
     -1.384  0.6726E-01  0.1094E+01
     -1.292  0.6078E-01  0.1100E+01
     -1.199  0.7244E-01  0.1107E+01
     -1.106  0.8435E-01  0.1114E+01
     -1.013  0.8976E-01  0.1123E+01
     -0.920  0.8050E-01  0.1130E+01
     -0.828  0.7049E-01  0.1137E+01
     -0.735  0.6917E-01  0.1143E+01
     -0.642  0.6127E-01  0.1149E+01
     -0.549  0.5027E-01  0.1153E+01
     -0.457  0.4696E-01  0.1158E+01
     -0.364  0.4246E-01  0.1162E+01
     -0.271  0.2271E-01  0.1164E+01
     -0.178  0.1203E-01  0.1165E+01
     -0.086  0.1620E-01  0.1166E+01
      0.007  0.2629E-01  0.1169E+01
      0.100  0.3856E-01  0.1172E+01
      0.193  0.4537E-01  0.1177E+01
      0.285  0.4997E-01  0.1181E+01
      0.378  0.4331E-01  0.1185E+01
      0.471  0.3622E-01  0.1189E+01
      0.564  0.3292E-01  0.1192E+01
      0.657  0.2678E-01  0.1194E+01
      0.749  0.1663E-01  0.1196E+01
      0.842  0.1048E-01  0.1197E+01
      0.935  0.1070E-01  0.1198E+01
      1.028  0.9102E-02  0.1199E+01
      1.120  0.1913E-01  0.1200E+01
      1.213  0.2712E-01  0.1203E+01
      1.306  0.3138E-01  0.1206E+01
      1.399  0.3552E-01  0.1209E+01
      1.491  0.4046E-01  0.1213E+01
      1.584  0.4672E-01  0.1217E+01
      1.677  0.5251E-01  0.1222E+01
      1.770  0.4071E-01  0.1226E+01
      1.862  0.3219E-01  0.1229E+01
      1.955  0.3231E-01  0.1232E+01
      2.048  0.2568E-01  0.1234E+01
      2.141  0.1522E-01  0.1236E+01
      2.234  0.4574E-02  0.1236E+01
      2.326  0.5105E-02  0.1236E+01
      2.419  0.1339E-01  0.1238E+01
      2.512  0.2055E-01  0.1240E+01
      2.605  0.2762E-01  0.1242E+01
      2.697  0.3039E-01  0.1245E+01
      2.790  0.3216E-01  0.1248E+01
      2.883  0.3756E-01  0.1251E+01
      2.976  0.3579E-01  0.1255E+01
      3.068  0.3003E-01  0.1258E+01
      3.161  0.2692E-01  0.1260E+01
      3.254  0.2616E-01  0.1263E+01
      3.347  0.2609E-01  0.1265E+01
      3.439  0.2486E-01  0.1267E+01
      3.532  0.2572E-01  0.1270E+01
      3.625  0.3627E-01  0.1273E+01
      3.718  0.4639E-01  0.1277E+01
      3.811  0.4898E-01  0.1282E+01
      3.903  0.4644E-01  0.1286E+01
      3.996  0.4525E-01  0.1290E+01
      4.089  0.4440E-01  0.1294E+01
      4.182  0.3700E-01  0.1298E+01
      4.274  0.3765E-01  0.1301E+01
      4.367  0.4352E-01  0.1305E+01
      4.460  0.4205E-01  0.1309E+01
      4.553  0.4196E-01  0.1313E+01
      4.645  0.5242E-01  0.1318E+01
      4.738  0.6046E-01  0.1324E+01
      4.831  0.6155E-01  0.1329E+01
      4.924  0.6536E-01  0.1335E+01
      5.017  0.5360E-01  0.1340E+01
      5.109  0.3038E-01  0.1343E+01
      5.202  0.7462E-02  0.1344E+01
      5.295  0.4951E-03  0.1344E+01
      5.388  0.7275E-05  0.1344E+01
      5.480  0.2175E-07  0.1344E+01
      5.573  0.1266E-10  0.1344E+01
      5.666  0.1398E-14  0.1344E+01
      5.759  0.0000E+00  0.1344E+01
      5.851  0.0000E+00  0.1344E+01
      5.944  0.0000E+00  0.1344E+01
      6.037  0.0000E+00  0.1344E+01
      6.130  0.0000E+00  0.1344E+01
      6.222  0.0000E+00  0.1344E+01
      6.315  0.0000E+00  0.1344E+01
