unknown system                          
           1
    11.002582    0.000000    0.000000
     5.501291    9.528515    0.000000
     0.000000    0.000000   26.191785
   Au   O    Pd
  24   8  24
Direct configuration=     1
   0.08333333  0.08333333  0.38179910
   0.33333333  0.83333333  0.38179910
   0.58333333  0.08333333  0.38179910
   0.83333333  0.83333333  0.38179910
   0.66666667  0.66666667  0.46754708
   0.83333333  0.58333333  0.38179910
   0.08333333  0.33333333  0.38179910
   0.91666667  0.41666667  0.46754708
   0.83333333  0.33333333  0.38179910
   0.66666667  0.16666667  0.46754708
   0.08333333  0.58333333  0.38179910
   0.41666667  0.91666667  0.46754708
   0.83333333  0.08333333  0.38179910
   0.08333333  0.83333333  0.38179910
   0.16666667  0.66666667  0.46754708
   0.41666667  0.66666667  0.46754708
   0.58333333  0.58333333  0.38179910
   0.33333333  0.08333333  0.38179910
   0.16666667  0.16666667  0.46754708
   0.58333333  0.33333333  0.38179910
   0.33333333  0.58333333  0.38179910
   0.33333333  0.33333333  0.38179910
   0.16666667  0.41666667  0.46754708
   0.58333333  0.83333333  0.38179910
   0.08333333  0.08333333  0.61820090
   0.08333333  0.33333333  0.61820090
   0.33333333  0.08333333  0.61820090
   0.83333333  0.83333333  0.61820090
   0.33333333  0.83333333  0.61820090
   0.33333333  0.58333333  0.61820090
   0.58333333  0.08333333  0.61820090
   0.58333333  0.58333333  0.61820090
   0.50000000  0.00000000  0.55329505
   0.91666667  0.91666667  0.46754708
   0.41666667  0.41666667  0.46754708
   0.75000000  0.75000000  0.55329505
   0.50000000  0.25000000  0.55329505
   0.25000000  0.75000000  0.55329505
   0.16666667  0.91666667  0.46754708
   0.00000000  0.75000000  0.55329505
   0.50000000  0.50000000  0.55329505
   0.25000000  0.00000000  0.55329505
   0.00000000  0.50000000  0.55329505
   0.25000000  0.50000000  0.55329505
   0.50000000  0.75000000  0.55329505
   0.91666667  0.66666667  0.46754708
   0.75000000  0.00000000  0.55329505
   0.00000000  0.25000000  0.55329505
   0.66666667  0.41666667  0.46754708
   0.75000000  0.25000000  0.55329505
   0.00000000  0.00000000  0.55329505
   0.75000000  0.50000000  0.55329505
   0.91666667  0.16666667  0.46754708
   0.66666667  0.91666667  0.46754708
   0.25000000  0.25000000  0.55329505
   0.41666667  0.16666667  0.46754708
Direct configuration=     2
   0.08333333  0.08333333  0.38179910
   0.33333333  0.83333333  0.38179910
   0.58333333  0.08333333  0.38179910
   0.83333333  0.83333333  0.38179910
   0.66746765  0.66696480  0.46909725
   0.83333333  0.58333333  0.38179910
   0.08333333  0.33333333  0.38179910
   0.91534283  0.41651540  0.46906364
   0.83333333  0.33333333  0.38179910
   0.66693774  0.16646634  0.46881208
   0.08333333  0.58333333  0.38179910
   0.41676918  0.91759105  0.46920302
   0.83333333  0.08333333  0.38179910
   0.08333333  0.83333333  0.38179910
   0.16548874  0.66794646  0.46909730
   0.41668478  0.66577916  0.46842764
   0.58333333  0.58333333  0.38179910
   0.33333333  0.08333333  0.38179910
   0.16677754  0.16548082  0.46855625
   0.58333333  0.33333333  0.38179910
   0.33333333  0.58333333  0.38179910
   0.33333333  0.33333333  0.38179910
   0.16811733  0.41649398  0.46909623
   0.58333333  0.83333333  0.38179910
   0.08160445  0.08277824  0.61390985
   0.08222408  0.33565828  0.61388257
   0.33441786  0.08295503  0.61425086
   0.83459873  0.83184124  0.61370412
   0.33359771  0.83302162  0.61436525
   0.33190626  0.58270838  0.61381276
   0.58273722  0.08457320  0.61379296
   0.58532868  0.58266281  0.61377708
   0.49982880  0.00120950  0.55674798
   0.91641086  0.91712079  0.46880944
   0.41764812  0.41580708  0.46878378
   0.75159268  0.75089290  0.55550632
   0.50052756  0.24896626  0.55533735
   0.25018362  0.74974469  0.55705925
   0.16576213  0.91709960  0.46864552
  -0.00231411  0.75113272  0.55545109
   0.50022814  0.49984555  0.55670623
   0.24985081 -0.00028713  0.55770652
   0.00043388  0.49901670  0.55557239
   0.25125699  0.50017218  0.55556613
   0.50006558  0.74947621  0.55722169
   0.91627549  0.66742406  0.46854357
   0.75000870 -0.00086724  0.55668928
  -0.00018907  0.24969130  0.55694027
   0.66644356  0.41598834  0.46853775
   0.75011670  0.25007801  0.55396552
   0.00013006  0.00091399  0.55510881
   0.74858169  0.50016526  0.55558180
   0.91674395  0.16638199  0.46852608
   0.66696818  0.91688885  0.46836921
   0.24993714  0.25014067  0.55695826
   0.41682134  0.16696416  0.46834774
Direct configuration=     3
   0.08333333  0.08333333  0.38179910
   0.33333333  0.83333333  0.38179910
   0.58333333  0.08333333  0.38179910
   0.83333333  0.83333333  0.38179910
   0.66893221  0.66750993  0.47193168
   0.83333333  0.58333333  0.38179910
   0.08333333  0.33333333  0.38179910
   0.91292225  0.41623880  0.47183661
   0.83333333  0.33333333  0.38179910
   0.66743339  0.16610007  0.47112510
   0.08333333  0.58333333  0.38179910
   0.41695664  0.91928123  0.47223084
   0.83333333  0.08333333  0.38179910
   0.08333333  0.83333333  0.38179910
   0.16333495  0.67028650  0.47193181
   0.41671791  0.66415638  0.47003772
   0.58333333  0.58333333  0.38179910
   0.33333333  0.08333333  0.38179910
   0.16698027  0.16331254  0.47040149
   0.58333333  0.33333333  0.38179910
   0.33333333  0.58333333  0.38179910
   0.33333333  0.33333333  0.38179910
   0.17076982  0.41617824  0.47192879
   0.58333333  0.83333333  0.38179910
   0.07844326  0.08176329  0.60606384
   0.08019587  0.33990935  0.60598669
   0.33640087  0.08226333  0.60702838
   0.83691246  0.82911302  0.60548195
   0.33408111  0.83245167  0.60735193
   0.32929692  0.58156568  0.60578923
   0.58164726  0.08684024  0.60573323
   0.58897708  0.58143679  0.60568830
   0.49951577  0.00342103  0.56306152
   0.91594312  0.91795114  0.47111763
   0.41944267  0.41423535  0.47104505
   0.75450482  0.75252552  0.55954954
   0.50149219  0.24707612  0.55907160
   0.25051936  0.74927788  0.56394194
   0.16410822  0.91789121  0.47065398
  -0.00654535  0.75320384  0.55939331
   0.50064528  0.49956313  0.56294342
   0.24957801 -0.00081213  0.56577271
   0.00122722  0.49721878  0.55973641
   0.25355535  0.50048700  0.55971870
   0.50018548  0.74851850  0.56440139
   0.91556024  0.66880893  0.47036562
   0.75002462 -0.00245296  0.56289549
  -0.00053478  0.24912687  0.56360539
   0.66603561  0.41474804  0.47034915
   0.75033009  0.25022064  0.55519144
   0.00036786  0.00258518  0.55842519
   0.74598836  0.50046743  0.55976301
   0.91688527  0.16586147  0.47031616
   0.66751949  0.91729511  0.46987243
   0.24982219  0.25039788  0.56365628
   0.41710415  0.16750811  0.46981171
Direct configuration=     4
   0.08333333  0.08333333  0.38179910
   0.33333333  0.83333333  0.38179910
   0.58333333  0.08333333  0.38179910
   0.83333333  0.83333333  0.38179910
   0.66862688  0.66739628  0.47134075
   0.83333333  0.58333333  0.38179910
   0.08333333  0.33333333  0.38179910
   0.91342690  0.41629647  0.47125849
   0.83333333  0.33333333  0.38179910
   0.66733006  0.16617643  0.47064287
   0.08333333  0.58333333  0.38179910
   0.41691755  0.91892886  0.47159959
   0.83333333  0.08333333  0.38179910
   0.08333333  0.83333333  0.38179910
   0.16378398  0.66979864  0.47134086
   0.41671100  0.66449470  0.46970204
   0.58333333  0.58333333  0.38179910
   0.33333333  0.08333333  0.38179910
   0.16693801  0.16376459  0.47001679
   0.58333333  0.33333333  0.38179910
   0.33333333  0.58333333  0.38179910
   0.33333333  0.33333333  0.38179910
   0.17021682  0.41624407  0.47133825
   0.58333333  0.83333333  0.38179910
   0.07910232  0.08197489  0.60769960
   0.08061872  0.33902307  0.60763285
   0.33598744  0.08240754  0.60853414
   0.83643009  0.82968181  0.60719613
   0.33398033  0.83257050  0.60881410
   0.32984093  0.58180392  0.60746201
   0.58187450  0.08636760  0.60741355
   0.58821645  0.58169240  0.60737468
   0.49958103  0.00295996  0.56174525
   0.91604064  0.91777802  0.47063641
   0.41906854  0.41456303  0.47057361
   0.75389769  0.75218515  0.55870659
   0.50129108  0.24747018  0.55829307
   0.25044936  0.74937520  0.56250701
   0.16445303  0.91772617  0.47023525
  -0.00566321  0.75277204  0.55857142
   0.50055831  0.49962201  0.56164307
   0.24963489 -0.00070267  0.56409104
   0.00106182  0.49759362  0.55886828
   0.25307618  0.50042137  0.55885296
   0.50016048  0.74871816  0.56290454
   0.91570936  0.66852021  0.46998576
   0.75002130 -0.00212236  0.56160160
  -0.00046270  0.24924454  0.56221582
   0.66612066  0.41500662  0.46997150
   0.75028560  0.25019091  0.55493586
   0.00031828  0.00223676  0.55773378
   0.74652903  0.50040443  0.55889130
   0.91685581  0.16596999  0.46994296
   0.66740455  0.91721041  0.46955904
   0.24984616  0.25034425  0.56225985
   0.41704519  0.16739471  0.46950650
Direct configuration=     5
   0.08333333  0.08333333  0.38179910
   0.33333333  0.83333333  0.38179910
   0.58333333  0.08333333  0.38179910
   0.83333333  0.83333333  0.38179910
   0.66872154  0.66743151  0.47152395
   0.83333333  0.58333333  0.38179910
   0.08333333  0.33333333  0.38179910
   0.91327044  0.41627859  0.47143772
   0.83333333  0.33333333  0.38179910
   0.66736209  0.16615275  0.47079237
   0.08333333  0.58333333  0.38179910
   0.41692967  0.91903810  0.47179529
   0.83333333  0.08333333  0.38179910
   0.08333333  0.83333333  0.38179910
   0.16364477  0.66994989  0.47152407
   0.41671314  0.66438981  0.46980611
   0.58333333  0.58333333  0.38179910
   0.33333333  0.08333333  0.38179910
   0.16695111  0.16362444  0.47013606
   0.58333333  0.33333333  0.38179910
   0.33333333  0.58333333  0.38179910
   0.33333333  0.33333333  0.38179910
   0.17038826  0.41622366  0.47152133
   0.58333333  0.83333333  0.38179910
   0.07889799  0.08190929  0.60719247
   0.08048762  0.33929784  0.60712250
   0.33611562  0.08236283  0.60806732
   0.83657964  0.82950547  0.60666469
   0.33401157  0.83253366  0.60836079
   0.32967227  0.58173006  0.60694340
   0.58180405  0.08651413  0.60689261
   0.58845226  0.58161315  0.60685186
   0.49956080  0.00310291  0.56215333
   0.91601041  0.91783169  0.47078560
   0.41918453  0.41446144  0.47071977
   0.75408592  0.75229067  0.55896793
   0.50135343  0.24734801  0.55853443
   0.25047107  0.74934503  0.56295187
   0.16434613  0.91777734  0.47036507
  -0.00593670  0.75290591  0.55882623
   0.50058528  0.49960376  0.56204621
   0.24961725 -0.00073661  0.56461240
   0.00111310  0.49747741  0.55913742
   0.25322474  0.50044172  0.55912136
   0.50016823  0.74865626  0.56336860
   0.91566313  0.66860972  0.47010352
   0.75002233 -0.00222485  0.56200274
  -0.00048505  0.24920806  0.56264663
   0.66609429  0.41492645  0.47008858
   0.75029939  0.25020012  0.55501510
   0.00033365  0.00234478  0.55794814
   0.74636141  0.50042396  0.55916155
   0.91686494  0.16593635  0.47005866
   0.66744018  0.91723667  0.46965620
   0.24983873  0.25036088  0.56269278
   0.41706347  0.16742986  0.46960112
Direct configuration=     6
   0.08333333  0.08333333  0.38179910
   0.33333333  0.83333333  0.38179910
   0.58333333  0.08333333  0.38179910
   0.83333333  0.83333333  0.38179910
   0.66752452  0.66857679  0.47347384
   0.83333333  0.58333333  0.38179910
   0.08333333  0.33333333  0.38179910
   0.91377258  0.41548994  0.47330870
   0.83333333  0.33333333  0.38179910
   0.66756711  0.16513617  0.47207691
   0.08333333  0.58333333  0.38179910
   0.41736224  0.91821990  0.47423460
   0.83333333  0.08333333  0.38179910
   0.08333333  0.83333333  0.38179910
   0.16330844  0.67077313  0.47351875
   0.41663472  0.66500755  0.47166238
   0.58333333  0.58333333  0.38179910
   0.33333333  0.08333333  0.38179910
   0.16666634  0.16406577  0.47218596
   0.58333333  0.33333333  0.38179910
   0.33333333  0.58333333  0.38179910
   0.33333333  0.33333333  0.38179910
   0.17044922  0.41594150  0.47336877
   0.58333333  0.83333333  0.38179910
   0.07359102  0.08219433  0.60646679
   0.07858988  0.34263640  0.60630202
   0.33701511  0.08387779  0.60744595
   0.83829861  0.82790337  0.60641160
   0.33411277  0.83164169  0.60788071
   0.32909053  0.57933390  0.60624194
   0.58193289  0.08902868  0.60588084
   0.59192595  0.57907742  0.60639219
   0.50206158 -0.00263438  0.56287562
   0.91566011  0.91864016  0.47238375
   0.41963120  0.41434314  0.47233503
   0.75133218  0.74859297  0.55942261
   0.49986455  0.25241664  0.55908250
   0.24339368  0.75299408  0.56394760
   0.16517092  0.91707592  0.47188494
  -0.00029827  0.75047776  0.55923371
   0.50316687  0.49328654  0.56312165
   0.25106121 -0.00240180  0.56512774
  -0.00075035  0.50115122  0.55968661
   0.25082195  0.49806636  0.55973361
   0.50387879  0.75241054  0.56409897
   0.91624408  0.66791682  0.47137309
   0.75227628  0.00128863  0.56296421
  -0.00665660  0.25280574  0.56363193
   0.66544000  0.41522498  0.47120283
   0.75034862  0.24971214  0.55622080
  -0.00244966  0.00069007  0.55835051
   0.75107584  0.49817542  0.55979015
   0.91703535  0.16587205  0.47114675
   0.66725598  0.91787649  0.47101385
   0.25268656  0.25341303  0.56390820
   0.41728077  0.16718665  0.47101516
Direct configuration=     7
   0.08333333  0.08333333  0.38179910
   0.33333333  0.83333333  0.38179910
   0.58333333  0.08333333  0.38179910
   0.83333333  0.83333333  0.38179910
   0.66662311  0.66943923  0.47494221
   0.83333333  0.58333333  0.38179910
   0.08333333  0.33333333  0.38179910
   0.91415071  0.41489605  0.47471763
   0.83333333  0.33333333  0.38179910
   0.66772150  0.16437063  0.47304422
   0.08333333  0.58333333  0.38179910
   0.41768798  0.91760376  0.47607152
   0.83333333  0.08333333  0.38179910
   0.08333333  0.83333333  0.38179910
   0.16305517  0.67139307  0.47502084
   0.41657566  0.66547273  0.47306024
   0.58333333  0.58333333  0.38179910
   0.33333333  0.08333333  0.38179910
   0.16645190  0.16439811  0.47372963
   0.58333333  0.33333333  0.38179910
   0.33333333  0.58333333  0.38179910
   0.33333333  0.33333333  0.38179910
   0.17049513  0.41572902  0.47475997
   0.58333333  0.83333333  0.38179910
   0.06959462  0.08240897  0.60592031
   0.07716079  0.34515049  0.60568416
   0.33769247  0.08501863  0.60697804
   0.83959307  0.82669691  0.60622102
   0.33418897  0.83096999  0.60751918
   0.32865245  0.57752949  0.60571370
   0.58202992  0.09092226  0.60511892
   0.59454181  0.57716790  0.60604604
   0.50394479 -0.00695483  0.56341955
   0.91539632  0.91924896  0.47358723
   0.41996755  0.41425406  0.47355140
   0.74925849  0.74580842  0.55976500
   0.49874335  0.25623356  0.55949523
   0.23806407  0.75574198  0.56469743
   0.16579203  0.91654771  0.47302947
   0.00394772  0.74864926  0.55954057
   0.50511092  0.48852938  0.56393150
   0.25214857 -0.00365577  0.56551581
  -0.00215361  0.50391777  0.56010018
   0.24901254  0.49627760  0.56019467
   0.50667302  0.75523769  0.56464897
   0.91668156  0.66739503  0.47232913
   0.75397361  0.00393445  0.56368825
  -0.01130407  0.25551496  0.56437392
   0.66494730  0.41544979  0.47204192
   0.75038569  0.24934466  0.55712875
  -0.00454563 -0.00055601  0.55865351
   0.75462603  0.49648216  0.56026351
   0.91716368  0.16582364  0.47196614
   0.66711726  0.91835831  0.47203623
   0.25483112  0.25571145  0.56482346
   0.41744441  0.16700349  0.47207999
Direct configuration=     8
   0.08333333  0.08333333  0.38179910
   0.33333333  0.83333333  0.38179910
   0.58333333  0.08333333  0.38179910
   0.83333333  0.83333333  0.38179910
   0.66639101  0.66882360  0.47522169
   0.83333333  0.58333333  0.38179910
   0.08333333  0.33333333  0.38179910
   0.91440540  0.41486761  0.47510385
   0.83333333  0.33333333  0.38179910
   0.66760149  0.16433719  0.47357177
   0.08333333  0.58333333  0.38179910
   0.41702739  0.91799550  0.47679286
   0.83333333  0.08333333  0.38179910
   0.08333333  0.83333333  0.38179910
   0.16411842  0.67091942  0.47544597
   0.41638969  0.66562244  0.47475081
   0.58333333  0.58333333  0.38179910
   0.33333333  0.08333333  0.38179910
   0.16686247  0.16432524  0.47546255
   0.58333333  0.33333333  0.38179910
   0.33333333  0.58333333  0.38179910
   0.33333333  0.33333333  0.38179910
   0.17028333  0.41529624  0.47515104
   0.58333333  0.83333333  0.38179910
   0.06676236  0.08229948  0.60612421
   0.07615039  0.34660328  0.60652853
   0.33771579  0.08646811  0.60790076
   0.84055227  0.82516856  0.60575015
   0.33603710  0.82754213  0.60845732
   0.32815458  0.57635327  0.60611898
   0.58172635  0.09299344  0.60515441
   0.59607770  0.57613423  0.60626796
   0.50852789 -0.00753842  0.56414417
   0.91536891  0.91890725  0.47426005
   0.41941764  0.41506712  0.47406942
   0.75102090  0.74610123  0.56108256
   0.49794617  0.25678017  0.56008923
   0.23696857  0.75607799  0.56560484
   0.16625235  0.91682390  0.47386024
   0.00339348  0.74748774  0.56066010
   0.50661581  0.48835092  0.56492828
   0.24710573  0.00067046  0.56539155
  -0.00441370  0.50910233  0.56034305
   0.24700117  0.49542746  0.56095736
   0.50791371  0.75226484  0.56595758
   0.91658522  0.66744215  0.47294757
   0.75672685  0.00254849  0.56447483
  -0.01346661  0.25648184  0.56499362
   0.66496379  0.41563195  0.47272686
   0.75042160  0.24932631  0.55852217
  -0.00672326 -0.00108011  0.55887703
   0.75670787  0.49454550  0.56103302
   0.91712920  0.16561735  0.47252279
   0.66753436  0.91811986  0.47308700
   0.25665006  0.25689085  0.56529734
   0.41768350  0.16657672  0.47313336
Direct configuration=     9
   0.08333333  0.08333333  0.38179910
   0.33333333  0.83333333  0.38179910
   0.58333333  0.08333333  0.38179910
   0.83333333  0.83333333  0.38179910
   0.66632827  0.66865717  0.47529724
   0.83333333  0.58333333  0.38179910
   0.08333333  0.33333333  0.38179910
   0.91447425  0.41485992  0.47520826
   0.83333333  0.33333333  0.38179910
   0.66756904  0.16432815  0.47371438
   0.08333333  0.58333333  0.38179910
   0.41684880  0.91810141  0.47698787
   0.83333333  0.08333333  0.38179910
   0.08333333  0.83333333  0.38179910
   0.16440586  0.67079137  0.47556090
   0.41633941  0.66566291  0.47520784
   0.58333333  0.58333333  0.38179910
   0.33333333  0.08333333  0.38179910
   0.16697346  0.16430554  0.47593104
   0.58333333  0.33333333  0.38179910
   0.33333333  0.58333333  0.38179910
   0.33333333  0.33333333  0.38179910
   0.17022607  0.41517924  0.47525676
   0.58333333  0.83333333  0.38179910
   0.06599668  0.08226987  0.60617933
   0.07587724  0.34699603  0.60675680
   0.33772209  0.08685997  0.60815022
   0.84081158  0.82475538  0.60562285
   0.33653673  0.82661543  0.60871094
   0.32801998  0.57603529  0.60622854
   0.58164428  0.09355337  0.60516400
   0.59649291  0.57585478  0.60632796
   0.50976690 -0.00769619  0.56434007
   0.91536150  0.91881487  0.47444195
   0.41926898  0.41528693  0.47420946
   0.75149735  0.74618039  0.56143875
   0.49773066  0.25692794  0.56024982
   0.23667241  0.75616883  0.56585015
   0.16637679  0.91689856  0.47408483
   0.00324364  0.74717373  0.56096276
   0.50702264  0.48830268  0.56519775
   0.24574243  0.00184002  0.56535796
  -0.00502470  0.51050394  0.56040871
   0.24645740  0.49519763  0.56116354
   0.50824912  0.75146116  0.56631135
   0.91655918  0.66745488  0.47311477
   0.75747117  0.00217381  0.56468747
  -0.01405123  0.25674323  0.56516115
   0.66496825  0.41568119  0.47291203
   0.75043131  0.24932135  0.55889887
  -0.00731196 -0.00122179  0.55893746
   0.75727068  0.49402194  0.56124105
   0.91711987  0.16556158  0.47267328
   0.66764712  0.91805540  0.47337106
   0.25714180  0.25720969  0.56542545
   0.41774813  0.16646134  0.47341813
Direct configuration=    10
   0.08333333  0.08333333  0.38179910
   0.33333333  0.83333333  0.38179910
   0.58333333  0.08333333  0.38179910
   0.83333333  0.83333333  0.38179910
   0.66650541  0.66804834  0.47546226
   0.83333333  0.58333333  0.38179910
   0.08333333  0.33333333  0.38179910
   0.91477263  0.41496077  0.47512865
   0.83333333  0.33333333  0.38179910
   0.66729705  0.16507466  0.47417196
   0.08333333  0.58333333  0.38179910
   0.41686643  0.91824674  0.47764384
   0.83333333  0.08333333  0.38179910
   0.08333333  0.83333333  0.38179910
   0.16512635  0.67016460  0.47567522
   0.41628378  0.66577155  0.47661917
   0.58333333  0.58333333  0.38179910
   0.33333333  0.08333333  0.38179910
   0.16699924  0.16462684  0.47711323
   0.58333333  0.33333333  0.38179910
   0.33333333  0.58333333  0.38179910
   0.33333333  0.33333333  0.38179910
   0.16991684  0.41485571  0.47505906
   0.58333333  0.83333333  0.38179910
   0.06319587  0.08263100  0.60692559
   0.07479410  0.34925596  0.60710487
   0.33794685  0.08725545  0.60849738
   0.84091363  0.82396950  0.60678198
   0.33627476  0.82711029  0.60924622
   0.32747743  0.57555362  0.60685998
   0.58315479  0.09471041  0.60617693
   0.59821688  0.57430859  0.60774499
   0.50999669 -0.00711726  0.56533630
   0.91593605  0.91757800  0.47461069
   0.41858770  0.41610834  0.47448100
   0.75138100  0.74671431  0.56241883
   0.49755762  0.25739574  0.56064248
   0.23787670  0.75463490  0.56699578
   0.16624753  0.91739283  0.47453999
   0.00445560  0.74588689  0.56162176
   0.50670945  0.48921445  0.56611713
   0.24518083  0.00227567  0.56666348
  -0.00510331  0.51071108  0.56132467
   0.24546987  0.49612146  0.56217725
   0.50781492  0.75024812  0.56720097
   0.91617596  0.66804789  0.47324887
   0.75776222  0.00204721  0.56530887
  -0.01345385  0.25700579  0.56597966
   0.66528403  0.41544158  0.47344978
   0.74991977  0.24903137  0.56022938
  -0.00744984 -0.00135258  0.55926953
   0.75799102  0.49366073  0.56198009
   0.91689014  0.16543630  0.47299466
   0.66803136  0.91730947  0.47409074
   0.25668309  0.25687009  0.56639667
   0.41813993  0.16605794  0.47407747
Direct configuration=    11
   0.08333333  0.08333333  0.38179910
   0.33333333  0.83333333  0.38179910
   0.58333333  0.08333333  0.38179910
   0.83333333  0.83333333  0.38179910
   0.66680213  0.66702856  0.47573866
   0.83333333  0.58333333  0.38179910
   0.08333333  0.33333333  0.38179910
   0.91527242  0.41512968  0.47499529
   0.83333333  0.33333333  0.38179910
   0.66684147  0.16632507  0.47493838
   0.08333333  0.58333333  0.38179910
   0.41689596  0.91849016  0.47874260
   0.83333333  0.08333333  0.38179910
   0.08333333  0.83333333  0.38179910
   0.16633315  0.66911478  0.47586672
   0.41619058  0.66595353  0.47898313
   0.58333333  0.58333333  0.38179910
   0.33333333  0.08333333  0.38179910
   0.16704241  0.16516502  0.47909340
   0.58333333  0.33333333  0.38179910
   0.33333333  0.58333333  0.38179910
   0.33333333  0.33333333  0.38179910
   0.16939889  0.41431380  0.47472791
   0.58333333  0.83333333  0.38179910
   0.05850454  0.08323588  0.60817558
   0.07297984  0.35304132  0.60768787
   0.33832332  0.08791788  0.60907888
   0.84108456  0.82265317  0.60872350
   0.33583596  0.82793918  0.61014282
   0.32656866  0.57474685  0.60791762
   0.58568490  0.09664845  0.60787359
   0.60110451  0.57171873  0.61011851
   0.51038159 -0.00614756  0.56700498
   0.91689842  0.91550624  0.47489332
   0.41744655  0.41748419  0.47493584
   0.75118611  0.74760861  0.56406045
   0.49726777  0.25817931  0.56130018
   0.23989388  0.75206559  0.56891468
   0.16603101  0.91822072  0.47530237
   0.00648563  0.74373145  0.56272557
   0.50618485  0.49074167  0.56765709
   0.24424014  0.00300537  0.56885021
  -0.00523499  0.51105802  0.56285888
   0.24381577  0.49766887  0.56387519
   0.50708762  0.74821629  0.56869108
   0.91553406  0.66904116  0.47347349
   0.75824972  0.00183517  0.56634971
  -0.01245323  0.25744558  0.56735065
   0.66581297  0.41504023  0.47435050
   0.74906293  0.24854564  0.56245798
  -0.00768078 -0.00157165  0.55982574
   0.75919759  0.49305571  0.56321797
   0.91650533  0.16522647  0.47353297
   0.66867495  0.91606004  0.47529619
   0.25591475  0.25630126  0.56802347
   0.41879618  0.16538224  0.47518185
Direct configuration=    12
   0.08333333  0.08333333  0.38179910
   0.33333333  0.83333333  0.38179910
   0.58333333  0.08333333  0.38179910
   0.83333333  0.83333333  0.38179910
   0.66689656  0.66687841  0.47617223
   0.83333333  0.58333333  0.38179910
   0.08333333  0.33333333  0.38179910
   0.91526480  0.41523825  0.47519733
   0.83333333  0.33333333  0.38179910
   0.66698665  0.16639771  0.47534544
   0.08333333  0.58333333  0.38179910
   0.41724324  0.91831767  0.47944620
   0.83333333  0.08333333  0.38179910
   0.08333333  0.83333333  0.38179910
   0.16646615  0.66886172  0.47608879
   0.41628373  0.66623654  0.47981119
   0.58333333  0.58333333  0.38179910
   0.33333333  0.08333333  0.38179910
   0.16700240  0.16507757  0.47976952
   0.58333333  0.33333333  0.38179910
   0.33333333  0.58333333  0.38179910
   0.33333333  0.33333333  0.38179910
   0.16942115  0.41445390  0.47495647
   0.58333333  0.83333333  0.38179910
   0.05655333  0.08371409  0.60925614
   0.07282160  0.35367590  0.60877958
   0.33900716  0.08715851  0.61007256
   0.84168488  0.82235345  0.60983594
   0.33520067  0.82911681  0.61113675
   0.32708298  0.57407245  0.60937687
   0.58665624  0.09759262  0.60886363
   0.60259568  0.57062487  0.61156024
   0.51030304 -0.00570876  0.56804925
   0.91721641  0.91491454  0.47507888
   0.41707895  0.41772939  0.47527933
   0.75032139  0.74756562  0.56465463
   0.49703925  0.25864092  0.56170327
   0.23952058  0.75252670  0.56954791
   0.16595911  0.91831598  0.47567752
   0.00617469  0.74413479  0.56336186
   0.50645065  0.49052818  0.56845305
   0.24421692  0.00204857  0.57015725
  -0.00561685  0.51168632  0.56304596
   0.24336725  0.49677311  0.56421112
   0.50802134  0.74775826  0.56933281
   0.91551740  0.66904824  0.47371506
   0.75847476  0.00105396  0.56694854
  -0.01221788  0.25725981  0.56791171
   0.66604253  0.41481441  0.47492373
   0.74883896  0.24859259  0.56345107
  -0.00706061 -0.00219515  0.55991186
   0.75860621  0.49368925  0.56379859
   0.91627964  0.16526252  0.47388962
   0.66870429  0.91585767  0.47578383
   0.25488121  0.25771241  0.56847204
   0.41905241  0.16530687  0.47560226
Direct configuration=    13
   0.08333333  0.08333333  0.38179910
   0.33333333  0.83333333  0.38179910
   0.58333333  0.08333333  0.38179910
   0.83333333  0.83333333  0.38179910
   0.66704212  0.66664698  0.47684051
   0.83333333  0.58333333  0.38179910
   0.08333333  0.33333333  0.38179910
   0.91525305  0.41540561  0.47550875
   0.83333333  0.33333333  0.38179910
   0.66721042  0.16650969  0.47597285
   0.08333333  0.58333333  0.38179910
   0.41777851  0.91805181  0.48053071
   0.83333333  0.08333333  0.38179910
   0.08333333  0.83333333  0.38179910
   0.16667114  0.66847167  0.47643109
   0.41642730  0.66667276  0.48108753
   0.58333333  0.58333333  0.38179910
   0.33333333  0.08333333  0.38179910
   0.16694073  0.16494279  0.48081166
   0.58333333  0.33333333  0.38179910
   0.33333333  0.58333333  0.38179910
   0.33333333  0.33333333  0.38179910
   0.16945545  0.41466983  0.47530875
   0.58333333  0.83333333  0.38179910
   0.05354583  0.08445116  0.61092165
   0.07257768  0.35465402  0.61046230
   0.34006121  0.08598804  0.61160416
   0.84261018  0.82189146  0.61155061
   0.33422145  0.83093194  0.61266875
   0.32787572  0.57303295  0.61162609
   0.58815343  0.09904793  0.61038964
   0.60489409  0.56893883  0.61378244
   0.51018198 -0.00503242  0.56965884
   0.91770655  0.91400252  0.47536489
   0.41651236  0.41810734  0.47580878
   0.74898856  0.74749936  0.56557048
   0.49668703  0.25935242  0.56232458
   0.23894519  0.75323744  0.57052392
   0.16584829  0.91846281  0.47625574
   0.00569542  0.74475648  0.56434261
   0.50686035  0.49019911  0.56967991
   0.24418113  0.00057381  0.57217187
  -0.00620543  0.51265474  0.56333431
   0.24267594  0.49539243  0.56472890
   0.50946052  0.74705229  0.57032195
   0.91549171  0.66905916  0.47408742
   0.75882162 -0.00015017  0.56787154
  -0.01185511  0.25697348  0.56877650
   0.66639637  0.41446633  0.47580728
   0.74849375  0.24866496  0.56498178
  -0.00610470 -0.00315619  0.56004458
   0.75769469  0.49466576  0.56469354
   0.91593177  0.16531810  0.47443934
   0.66874950  0.91554574  0.47653547
   0.25328816  0.25988748  0.56916345
   0.41944734  0.16519070  0.47625026
Direct configuration=    14
   0.08333333  0.08333333  0.38179910
   0.33333333  0.83333333  0.38179910
   0.58333333  0.08333333  0.38179910
   0.83333333  0.83333333  0.38179910
   0.66708271  0.66687503  0.47750489
   0.83333333  0.58333333  0.38179910
   0.08333333  0.33333333  0.38179910
   0.91495526  0.41536252  0.47615149
   0.83333333  0.33333333  0.38179910
   0.66786272  0.16569759  0.47649626
   0.08333333  0.58333333  0.38179910
   0.41810192  0.91796626  0.48154603
   0.83333333  0.08333333  0.38179910
   0.08333333  0.83333333  0.38179910
   0.16631203  0.66883456  0.47704052
   0.41656915  0.66687743  0.48157306
   0.58333333  0.58333333  0.38179910
   0.33333333  0.08333333  0.38179910
   0.16715722  0.16417329  0.48131801
   0.58333333  0.33333333  0.38179910
   0.33333333  0.58333333  0.38179910
   0.33333333  0.33333333  0.38179910
   0.16969999  0.41488985  0.47584687
   0.58333333  0.83333333  0.38179910
   0.05179897  0.08472216  0.61200333
   0.07231206  0.35517172  0.61171619
   0.33964531  0.08624228  0.61281602
   0.84330993  0.82158639  0.61231487
   0.33514480  0.82985600  0.61414471
   0.32802847  0.57195877  0.61267993
   0.58826855  0.10032177  0.61116196
   0.60589943  0.56850508  0.61504472
   0.51032256 -0.00435155  0.57113181
   0.91755781  0.91430883  0.47565968
   0.41686922  0.41780072  0.47631164
   0.74874152  0.74771009  0.56639327
   0.49702645  0.25893779  0.56304238
   0.23883511  0.75327577  0.57161888
   0.16618293  0.91805483  0.47653764
   0.00400965  0.74636483  0.56509997
   0.50670774  0.49031623  0.57117796
   0.24335219  0.00141906  0.57370143
  -0.00680551  0.51201270  0.56340541
   0.24424734  0.49588302  0.56539307
   0.50961534  0.74748786  0.57177301