unknown system                          
           1
    11.002582    0.000000    0.000000
     5.501291    9.528515    0.000000
     0.000000    0.000000   24.491785
   Au   Pd
  24  24
Direct configuration=     1
   0.08333333  0.08333333  0.40830017
   0.91666667  0.16666667  0.50000000
   0.91666667  0.41666667  0.50000000
   0.00000000  0.00000000  0.59169983
   0.25000000  0.00000000  0.59169983
   0.91666667  0.91666667  0.50000000
   0.00000000  0.25000000  0.59169983
   0.75000000  0.75000000  0.59169983
   0.25000000  0.75000000  0.59169983
   0.33333333  0.33333333  0.40830017
   0.16666667  0.41666667  0.50000000
   0.25000000  0.50000000  0.59169983
   0.33333333  0.08333333  0.40830017
   0.58333333  0.33333333  0.40830017
   0.41666667  0.41666667  0.50000000
   0.50000000  0.25000000  0.59169983
   0.50000000  0.50000000  0.59169983
   0.58333333  0.83333333  0.40830017
   0.50000000  0.75000000  0.59169983
   0.83333333  0.33333333  0.40830017
   0.75000000  0.25000000  0.59169983
   0.83333333  0.58333333  0.40830017
   0.75000000  0.50000000  0.59169983
   0.41666667  0.16666667  0.50000000
   0.50000000  0.00000000  0.59169983
   0.00000000  0.75000000  0.59169983
   0.58333333  0.08333333  0.40830017
   0.66666667  0.91666667  0.50000000
   0.25000000  0.25000000  0.59169983
   0.33333333  0.83333333  0.40830017
   0.16666667  0.66666667  0.50000000
   0.33333333  0.58333333  0.40830017
   0.08333333  0.83333333  0.40830017
   0.16666667  0.91666667  0.50000000
   0.00000000  0.50000000  0.59169983
   0.83333333  0.83333333  0.40830017
   0.16666667  0.16666667  0.50000000
   0.08333333  0.58333333  0.40830017
   0.41666667  0.91666667  0.50000000
   0.83333333  0.08333333  0.40830017
   0.66666667  0.16666667  0.50000000
   0.75000000  0.00000000  0.59169983
   0.66666667  0.66666667  0.50000000
   0.66666667  0.41666667  0.50000000
   0.08333333  0.33333333  0.40830017
   0.91666667  0.66666667  0.50000000
   0.58333333  0.58333333  0.40830017
   0.41666667  0.66666667  0.50000000
Direct configuration=     2
   0.08333333  0.08333333  0.40830017
   0.91629253  0.16602341  0.49952706
   0.91703854  0.41765718  0.49994642
  -0.00024414 -0.00121561  0.59387923
   0.25074257  0.00069721  0.59325404
   0.91628826  0.91537148  0.49957474
   0.00134023  0.25044872  0.59392418
   0.75064701  0.75078583  0.59316850
   0.24927055  0.74999088  0.59329832
   0.33333333  0.33333333  0.40830017
   0.16464185  0.41772614  0.49997253
   0.24808980  0.50068017  0.59388117
   0.33333333  0.08333333  0.40830017
   0.58333333  0.33333333  0.40830017
   0.41709233  0.41840261  0.49950448
   0.50065873  0.24807316  0.59386053
   0.50022596  0.50034339  0.59362288
   0.58333333  0.83333333  0.40830017
   0.49996059  0.75085248  0.59322553
   0.83333333  0.33333333  0.40830017
   0.74941265  0.24949676  0.59366723
   0.83333333  0.58333333  0.40830017
   0.75025388  0.50035654  0.59358304
   0.41803340  0.16401999  0.50038674
   0.50019483  0.00013442  0.59255611
  -0.00030319  0.74980110  0.59264379
   0.58333333  0.08333333  0.40830017
   0.66679610  0.91674107  0.50001956
   0.24993470  0.24971662  0.59291100
   0.33333333  0.83333333  0.40830017
   0.16595895  0.66769644  0.49940878
   0.33333333  0.58333333  0.40830017
   0.08333333  0.83333333  0.40830017
   0.16817391  0.91533716  0.49944325
   0.00027685  0.50041076  0.59286770
   0.83333333  0.83333333  0.40830017
   0.16749342  0.16596908  0.50005394
   0.08333333  0.58333333  0.40830017
   0.41662751  0.91615822  0.50003475
   0.83333333  0.08333333  0.40830017
   0.66729703  0.16527459  0.49978520
   0.74977884 -0.00032111  0.59266949
   0.66563498  0.66735270  0.49969059
   0.66570966  0.41788258  0.49966813
   0.08333333  0.33333333  0.40830017
   0.91672659  0.66754027  0.49996612
   0.58333333  0.58333333  0.40830017
   0.41662863  0.66728167  0.49918563
Direct configuration=     3
   0.08333333  0.08333333  0.40830017
   0.91544752  0.16457058  0.49845891
   0.91787844  0.41989429  0.49982540
  -0.00079553 -0.00396114  0.59880152
   0.25241971  0.00227188  0.59676430
   0.91543361  0.91244622  0.49861426
   0.00436719  0.25146219  0.59894798
   0.75210831  0.75256066  0.59648557
   0.24762304  0.74997029  0.59690858
   0.33333333  0.33333333  0.40830017
   0.16006871  0.42011903  0.49991050
   0.24377554  0.50221635  0.59880783
   0.33333333  0.08333333  0.40830017
   0.58333333  0.33333333  0.40830017
   0.41805372  0.42232333  0.49838531
   0.50214652  0.24372131  0.59874059
   0.50073630  0.50111894  0.59796619
   0.58333333  0.83333333  0.40830017
   0.49987158  0.75277784  0.59667139
   0.83333333  0.33333333  0.40830017
   0.74808610  0.24836018  0.59811070
   0.83333333  0.58333333  0.40830017
   0.75082727  0.50116181  0.59783635
   0.42112022  0.15804235  0.50126021
   0.50063486  0.00043800  0.59449007
  -0.00098796  0.74935188  0.59477576
   0.58333333  0.08333333  0.40830017
   0.66708844  0.91690911  0.50006374
   0.24978721  0.24907658  0.59564648
   0.33333333  0.83333333  0.40830017
   0.16436053  0.67002222  0.49807348
   0.33333333  0.58333333  0.40830017
   0.08333333  0.83333333  0.40830017
   0.17157809  0.91233439  0.49818581
   0.00090215  0.50133846  0.59550540
   0.83333333  0.83333333  0.40830017
   0.16936067  0.16439356  0.50017576
   0.08333333  0.58333333  0.40830017
   0.41653909  0.91500988  0.50011322
   0.83333333  0.08333333  0.40830017
   0.66872074  0.16213052  0.49930008
   0.74927935 -0.00104634  0.59485950
   0.66330486  0.66890213  0.49899178
   0.66354823  0.42062877  0.49891859
   0.08333333  0.33333333  0.40830017
   0.91686194  0.66951336  0.49988959
   0.58333333  0.58333333  0.40830017
   0.41654271  0.66867069  0.49734634
Direct configuration=     4
   0.08333333  0.08333333  0.40830017
   0.91568000  0.16401284  0.50081423
   0.91615179  0.41965904  0.50176415
  -0.00121266 -0.00368293  0.60129897
   0.25208646  0.00221247  0.59892819
   0.91616509  0.91274171  0.49983273
   0.00389462  0.25150583  0.60162957
   0.75238897  0.75271574  0.59853805
   0.24772530  0.74983743  0.59883750
   0.33333333  0.33333333  0.40830017
   0.16263804  0.41990677  0.50137187
   0.24433737  0.50126843  0.60138890
   0.33333333  0.08333333  0.40830017
   0.58333333  0.33333333  0.40830017
   0.41674445  0.42235456  0.50071529
   0.50092163  0.24438745  0.60139534
   0.49980570  0.50117439  0.60038703
   0.58333333  0.83333333  0.40830017
   0.49999486  0.75309985  0.59872122
   0.83333333  0.33333333  0.40830017
   0.74901056  0.24787961  0.60040919
   0.83333333  0.58333333  0.40830017
   0.75168643  0.50111645  0.60017307
   0.42106803  0.15955081  0.50278508
   0.50136920 -0.00036868  0.59610392
  -0.00137871  0.74953007  0.59613906
   0.58333333  0.08333333  0.40830017
   0.66770859  0.91509197  0.50096995
   0.25052054  0.24984571  0.59720419
   0.33333333  0.83333333  0.40830017
   0.16495912  0.66988098  0.49891774
   0.33333333  0.58333333  0.40830017
   0.08333333  0.83333333  0.40830017
   0.17184034  0.91181589  0.49945222
   0.00028688  0.50198402  0.59729223
   0.83333333  0.83333333  0.40830017
   0.16879180  0.16384453  0.50159931
   0.08333333  0.58333333  0.40830017
   0.41652695  0.91353390  0.50130195
   0.83333333  0.08333333  0.40830017
   0.66815165  0.16240556  0.50060195
   0.74982610 -0.00159646  0.59624355
   0.66290449  0.66943059  0.50037323
   0.66430132  0.42126157  0.50053527
   0.08333333  0.33333333  0.40830017
   0.91542099  0.67052913  0.50084371
   0.58333333  0.58333333  0.40830017
   0.41635990  0.66976025  0.49827546
Direct configuration=     5
   0.08333333  0.08333333  0.40830017
   0.91637743  0.16233961  0.50788019
   0.91097185  0.41895330  0.50758041
  -0.00246405 -0.00284830  0.60879132
   0.25108672  0.00203425  0.60541986
   0.91835954  0.91362818  0.50348812
   0.00247691  0.25163676  0.60967435
   0.75323096  0.75318097  0.60469546
   0.24803207  0.74943886  0.60462426
   0.33333333  0.33333333  0.40830017
   0.17034601  0.41926999  0.50575597
   0.24602287  0.49842464  0.60913213
   0.33333333  0.08333333  0.40830017
   0.58333333  0.33333333  0.40830017
   0.41281664  0.42244824  0.50770523
   0.49724695  0.24638590  0.60935959
   0.49701391  0.50134073  0.60764954
   0.58333333  0.83333333  0.40830017
   0.50036470  0.75406586  0.60487070
   0.83333333  0.33333333  0.40830017
   0.75178394  0.24643791  0.60730467
   0.83333333  0.58333333  0.40830017
   0.75426393  0.50098039  0.60718323
   0.42091144  0.16407618  0.50735966
   0.50357220 -0.00278873  0.60094548
  -0.00255098  0.75006462  0.60022895
   0.58333333  0.08333333  0.40830017
   0.66956902  0.90964057  0.50368857
   0.25272051  0.25215308  0.60187731
   0.33333333  0.83333333  0.40830017
   0.16675486  0.66945727  0.50145052
   0.33333333  0.58333333  0.40830017
   0.08333333  0.83333333  0.40830017
   0.17262710  0.91026038  0.50325146
  -0.00155892  0.50392067  0.60265270
   0.83333333  0.83333333  0.40830017
   0.16708519  0.16219744  0.50586997
   0.08333333  0.58333333  0.40830017
   0.41649055  0.90910596  0.50486815
   0.83333333  0.08333333  0.40830017
   0.66644438  0.16323069  0.50450759
   0.75146634 -0.00324683  0.60039570
   0.66170337  0.67101597  0.50451758
   0.66656060  0.42315997  0.50538532
   0.08333333  0.33333333  0.40830017
   0.91109813  0.67357647  0.50370608
   0.58333333  0.58333333  0.40830017
   0.41581147  0.67302891  0.50106283
Direct configuration=     6
   0.08333333  0.08333333  0.40830017
   0.91647791  0.16306868  0.51036633
   0.91598748  0.41787660  0.50960000
  -0.00054759 -0.00334612  0.61184888
   0.24993466  0.00276192  0.60772255
   0.91856271  0.91518253  0.50520831
   0.00384398  0.25081719  0.61279359
   0.75220035  0.75200808  0.60738005
   0.24790725  0.74948725  0.60660198
   0.33333333  0.33333333  0.40830017
   0.16422915  0.41996815  0.50763629
   0.24513496  0.50121848  0.61249803
   0.33333333  0.08333333  0.40830017
   0.58333333  0.33333333  0.40830017
   0.41804029  0.42235216  0.51028935
   0.50107883  0.24590747  0.61263414
   0.49926376  0.50049640  0.61033812
   0.58333333  0.83333333  0.40830017
   0.50113501  0.75111336  0.60743764
   0.83333333  0.33333333  0.40830017
   0.74897431  0.24865993  0.60995703
   0.83333333  0.58333333  0.40830017
   0.75109565  0.50185273  0.61027979
   0.42105565  0.16173220  0.50884351
   0.50293176 -0.00188302  0.60278567
   0.00032454  0.74912478  0.60182050
   0.58333333  0.08333333  0.40830017
   0.66675686  0.91263940  0.50540139
   0.25037808  0.25065992  0.60389530
   0.33333333  0.83333333  0.40830017
   0.16689683  0.66897688  0.50370932
   0.33333333  0.58333333  0.40830017
   0.08333333  0.83333333  0.40830017
   0.16976952  0.91275820  0.50591851
  -0.00025806  0.50274680  0.60435352
   0.83333333  0.83333333  0.40830017
   0.16647503  0.16362895  0.50816966
   0.08333333  0.58333333  0.40830017
   0.41540598  0.91446242  0.50697247
   0.83333333  0.08333333  0.40830017
   0.66587525  0.16539362  0.50682442
   0.75007735 -0.00075445  0.60197141
   0.66314581  0.66963263  0.50700476
   0.66312502  0.42197619  0.50808173
   0.08333333  0.33333333  0.40830017
   0.91416269  0.66838351  0.50540078
   0.58333333  0.58333333  0.40830017
   0.41713356  0.66776225  0.50363413
Direct configuration=     7
   0.08333333  0.08333333  0.40830017
   0.91647158  0.16302274  0.51020967
   0.91567142  0.41794445  0.50947273
  -0.00066836 -0.00331475  0.61165621
   0.25000725  0.00271606  0.60757744
   0.91854990  0.91508458  0.50509991
   0.00375784  0.25086883  0.61259703
   0.75226530  0.75208199  0.60721088
   0.24791511  0.74948420  0.60647735
   0.33333333  0.33333333  0.40830017
   0.16461461  0.41992416  0.50751781
   0.24519091  0.50104243  0.61228593
   0.33333333  0.08333333  0.40830017
   0.58333333  0.33333333  0.40830017
   0.41771112  0.42235821  0.51012651
   0.50083736  0.24593762  0.61242780
   0.49912199  0.50054961  0.61016870
   0.58333333  0.83333333  0.40830017
   0.50108647  0.75129941  0.60727589
   0.83333333  0.33333333  0.40830017
   0.74915136  0.24851991  0.60978989
   0.83333333  0.58333333  0.40830017
   0.75129530  0.50179776  0.61008466
   0.42104656  0.16187991  0.50875001
   0.50297211 -0.00194009  0.60266971
   0.00014334  0.74918401  0.60172021
   0.58333333  0.08333333  0.40830017
   0.66693407  0.91245043  0.50529346
   0.25052569  0.25075401  0.60376814
   0.33333333  0.83333333  0.40830017
   0.16688788  0.66900715  0.50356698
   0.33333333  0.58333333  0.40830017
   0.08333333  0.83333333  0.40830017
   0.16994959  0.91260081  0.50575045
  -0.00034003  0.50282077  0.60424635
   0.83333333  0.83333333  0.40830017
   0.16651348  0.16353874  0.50802475
   0.08333333  0.58333333  0.40830017
   0.41547432  0.91412488  0.50683987
   0.83333333  0.08333333  0.40830017
   0.66591112  0.16525732  0.50667842
   0.75016488 -0.00091150  0.60187212
   0.66305491  0.66971980  0.50684803
   0.66334152  0.42205079  0.50791182
   0.08333333  0.33333333  0.40830017
   0.91396958  0.66871074  0.50529399
   0.58333333  0.58333333  0.40830017
   0.41705025  0.66809412  0.50347210
Direct configuration=     8
   0.08333333  0.08333333  0.40830017
   0.91552512  0.16566251  0.51001389
   0.91613756  0.41693234  0.50927621
  -0.00078352 -0.00282674  0.61217696
   0.25127036  0.00135047  0.60772119
   0.91693171  0.91443069  0.50514267
   0.00256271  0.25155529  0.61305913
   0.75240588  0.75200762  0.60739134
   0.24893035  0.74948393  0.60657712
   0.33333333  0.33333333  0.40830017
   0.16486916  0.41921874  0.50747271
   0.24592083  0.50084684  0.61268948
   0.33333333  0.08333333  0.40830017
   0.58333333  0.33333333  0.40830017
   0.41732414  0.42053666  0.50997180
   0.50079938  0.24597988  0.61277180
   0.49971061  0.50067690  0.61078554
   0.58333333  0.83333333  0.40830017
   0.49975975  0.75145847  0.60748566
   0.83333333  0.33333333  0.40830017
   0.74928999  0.24913835  0.61023192
   0.83333333  0.58333333  0.40830017
   0.75114356  0.50075466  0.61054657
   0.41952638  0.16307253  0.50861420
   0.50170758 -0.00091649  0.60316903
   0.00004165  0.74947156  0.60184408
   0.58333333  0.08333333  0.40830017
   0.66722702  0.91390692  0.50577906
   0.25060342  0.25034427  0.60422801
   0.33333333  0.83333333  0.40830017
   0.16687974  0.66804463  0.50428761
   0.33333333  0.58333333  0.40830017
   0.08333333  0.83333333  0.40830017
   0.16994844  0.91356312  0.50642592
   0.00009179  0.50190617  0.60471627
   0.83333333  0.83333333  0.40830017
   0.16672757  0.16433116  0.50824947
   0.08333333  0.58333333  0.40830017
   0.41480689  0.91541646  0.50731985
   0.83333333  0.08333333  0.40830017
   0.66627070  0.16585474  0.50707054
   0.75027936 -0.00063210  0.60205687
   0.66380965  0.66849976  0.50734839
   0.66502293  0.42019949  0.50828936
   0.08333333  0.33333333  0.40830017
   0.91490023  0.66840802  0.50577214
   0.58333333  0.58333333  0.40830017
   0.41702676  0.66832162  0.50435035
Direct configuration=     9
   0.08333333  0.08333333  0.40830017
   0.91549314  0.16575170  0.51000728
   0.91615331  0.41689815  0.50926957
  -0.00078741 -0.00281025  0.61219456
   0.25131304  0.00130433  0.60772605
   0.91687703  0.91440859  0.50514411
   0.00252233  0.25157849  0.61307474
   0.75241063  0.75200511  0.60739744
   0.24896466  0.74948392  0.60658049
   0.33333333  0.33333333  0.40830017
   0.16487776  0.41919491  0.50747118
   0.24594549  0.50084023  0.61270311
   0.33333333  0.08333333  0.40830017
   0.58333333  0.33333333  0.40830017
   0.41731106  0.42047511  0.50996657
   0.50079809  0.24598131  0.61278342
   0.49973049  0.50068120  0.61080638
   0.58333333  0.83333333  0.40830017
   0.49971492  0.75146385  0.60749275
   0.83333333  0.33333333  0.40830017
   0.74929468  0.24915924  0.61024686
   0.83333333  0.58333333  0.40830017
   0.75113843  0.50071941  0.61056217
   0.41947502  0.16311283  0.50860961
   0.50166485 -0.00088190  0.60318590
   0.00003822  0.74948128  0.60184827
   0.58333333  0.08333333  0.40830017
   0.66723691  0.91395613  0.50579547
   0.25060605  0.25033043  0.60424355
   0.33333333  0.83333333  0.40830017
   0.16687947  0.66801211  0.50431195
   0.33333333  0.58333333  0.40830017
   0.08333333  0.83333333  0.40830017
   0.16994840  0.91359563  0.50644874
   0.00010638  0.50187527  0.60473215
   0.83333333  0.83333333  0.40830017
   0.16673480  0.16435793  0.50825706
   0.08333333  0.58333333  0.40830017
   0.41478434  0.91546010  0.50733607
   0.83333333  0.08333333  0.40830017
   0.66628285  0.16587493  0.50708379
   0.75028323 -0.00062266  0.60206311
   0.66383515  0.66845854  0.50736529
   0.66507974  0.42013694  0.50830212
   0.08333333  0.33333333  0.40830017
   0.91493167  0.66839779  0.50578830
   0.58333333  0.58333333  0.40830017
   0.41702597  0.66832931  0.50438002
Direct configuration=    10
   0.08333333  0.08333333  0.40830017
   0.91568768  0.16536785  0.50962271
   0.91613900  0.41732769  0.50900895
  -0.00089930 -0.00249380  0.61227314
   0.25098009  0.00163330  0.60775729
   0.91679626  0.91491321  0.50499289
   0.00267660  0.25116061  0.61323869
   0.75209974  0.75198437  0.60726923
   0.24880797  0.74939108  0.60654218
   0.33333333  0.33333333  0.40830017
   0.16498807  0.41902556  0.50737223
   0.24644624  0.50052279  0.61273075
   0.33333333  0.08333333  0.40830017
   0.58333333  0.33333333  0.40830017
   0.41712261  0.41994715  0.50967514
   0.50050078  0.24616783  0.61278705
   0.49961465  0.50045065  0.61103764
   0.58333333  0.83333333  0.40830017
   0.50017898  0.75150525  0.60748059
   0.83333333  0.33333333  0.40830017
   0.74953922  0.24878046  0.61048117
   0.83333333  0.58333333  0.40830017
   0.75124056  0.50093823  0.61070112
   0.41928996  0.16352168  0.50847344
   0.50141929 -0.00052841  0.60341553
   0.00008426  0.74963120  0.60193143
   0.58333333  0.08333333  0.40830017
   0.66684830  0.91442676  0.50602536
   0.25063911  0.25033545  0.60453033
   0.33333333  0.83333333  0.40830017
   0.16709171  0.66776679  0.50469276
   0.33333333  0.58333333  0.40830017
   0.08333333  0.83333333  0.40830017
   0.16912612  0.91424966  0.50667532
   0.00026591  0.50145612  0.60496081
   0.83333333  0.83333333  0.40830017
   0.16670201  0.16460036  0.50828138
   0.08333333  0.58333333  0.40830017
   0.41523781  0.91532766  0.50742653
   0.83333333  0.08333333  0.40830017
   0.66639609  0.16608361  0.50716969
   0.75040408 -0.00053625  0.60221560
   0.66413927  0.66823636  0.50754009
   0.66512502  0.41981147  0.50834373
   0.08333333  0.33333333  0.40830017
   0.91501848  0.66806926  0.50601588
   0.58333333  0.58333333  0.40830017
   0.41715109  0.66820554  0.50474380
Direct configuration=    11
   0.08333333  0.08333333  0.40830017
   0.91573655  0.16527142  0.50952610
   0.91613540  0.41743560  0.50894347
  -0.00092741 -0.00241431  0.61229288
   0.25089645  0.00171594  0.60776513
   0.91677596  0.91503998  0.50495490
   0.00271536  0.25105563  0.61327987
   0.75202164  0.75197915  0.60723702
   0.24876861  0.74936776  0.60653255
   0.33333333  0.33333333  0.40830017
   0.16501578  0.41898302  0.50734737
   0.24657204  0.50044305  0.61273769
   0.33333333  0.08333333  0.40830017
   0.58333333  0.33333333  0.40830017
   0.41707526  0.41981452  0.50960192
   0.50042609  0.24621469  0.61278797
   0.49958555  0.50039273  0.61109573
   0.58333333  0.83333333  0.40830017
   0.50029556  0.75151565  0.60747753
   0.83333333  0.33333333  0.40830017
   0.74960065  0.24868531  0.61054004
   0.83333333  0.58333333  0.40830017
   0.75126622  0.50099320  0.61073603
   0.41924346  0.16362440  0.50843923
   0.50135760 -0.00043960  0.60347322
   0.00009582  0.74966886  0.60195233
   0.58333333  0.08333333  0.40830017
   0.66675067  0.91454500  0.50608312
   0.25064742  0.25033671  0.60460238
   0.33333333  0.83333333  0.40830017
   0.16714503  0.66770516  0.50478843
   0.33333333  0.58333333  0.40830017
   0.08333333  0.83333333  0.40830017
   0.16891954  0.91441397  0.50673224
   0.00030598  0.50135082  0.60501825
   0.83333333  0.83333333  0.40830017
   0.16669377  0.16466126  0.50828748
   0.08333333  0.58333333  0.40830017
   0.41535173  0.91529439  0.50744926
   0.83333333  0.08333333  0.40830017
   0.66642454  0.16613604  0.50719127
   0.75043444 -0.00051455  0.60225391
   0.66421567  0.66818054  0.50758400
   0.66513640  0.41972970  0.50835418
   0.08333333  0.33333333  0.40830017
   0.91504029  0.66798673  0.50607305
   0.58333333  0.58333333  0.40830017
   0.41718252  0.66817444  0.50483519
Direct configuration=    12
   0.08333333  0.08333333  0.40830017
   0.91582409  0.16531735  0.50931486
   0.91606456  0.41742665  0.50889180
  -0.00091868 -0.00246203  0.61229395
   0.25086169  0.00171970  0.60776681
   0.91689304  0.91482863  0.50487360
   0.00268657  0.25102118  0.61331977
   0.75216118  0.75214377  0.60710876
   0.24873793  0.74945838  0.60651004
   0.33333333  0.33333333  0.40830017
   0.16480934  0.41909168  0.50738336
   0.24640813  0.50036148  0.61268486
   0.33333333  0.08333333  0.40830017
   0.58333333  0.33333333  0.40830017
   0.41723576  0.42004757  0.50941153
   0.50050351  0.24615380  0.61273253
   0.49972672  0.50023871  0.61116112
   0.58333333  0.83333333  0.40830017
   0.50024701  0.75165292  0.60746772
   0.83333333  0.33333333  0.40830017
   0.74960472  0.24870516  0.61066976
   0.83333333  0.58333333  0.40830017
   0.75150473  0.50074628  0.61077843
   0.41943040  0.16339219  0.50845573
   0.50135533 -0.00018213  0.60358792
  -0.00001416  0.74966139  0.60200976
   0.58333333  0.08333333  0.40830017
   0.66667186  0.91463225  0.50619323
   0.25055395  0.25042054  0.60474150
   0.33333333  0.83333333  0.40830017
   0.16714269  0.66787011  0.50499826
   0.33333333  0.58333333  0.40830017
   0.08333333  0.83333333  0.40830017
   0.16893225  0.91434866  0.50680144
   0.00047825  0.50120941  0.60513726
   0.83333333  0.83333333  0.40830017
   0.16666685  0.16469876  0.50830321
   0.08333333  0.58333333  0.40830017
   0.41552357  0.91509659  0.50747134
   0.83333333  0.08333333  0.40830017
   0.66634887  0.16618011  0.50724229
   0.75045091 -0.00058960  0.60235652
   0.66416940  0.66824748  0.50758193
   0.66489937  0.41980197  0.50840395
   0.08333333  0.33333333  0.40830017
   0.91492336  0.66832666  0.50619867
   0.58333333  0.58333333  0.40830017
   0.41718010  0.66808354  0.50498580
Direct configuration=    13
   0.08333333  0.08333333  0.40830017
   0.91583884  0.16532509  0.50927926
   0.91605262  0.41742515  0.50888309
  -0.00091720 -0.00247008  0.61229413
   0.25085584  0.00172033  0.60776709
   0.91691277  0.91479301  0.50485990
   0.00268172  0.25101537  0.61332649
   0.75218469  0.75217152  0.60708714
   0.24873275  0.74947365  0.60650624
   0.33333333  0.33333333  0.40830017
   0.16477455  0.41910999  0.50738943
   0.24638050  0.50034774  0.61267596
   0.33333333  0.08333333  0.40830017
   0.58333333  0.33333333  0.40830017
   0.41726281  0.42008685  0.50937944
   0.50051656  0.24614354  0.61272318
   0.49975051  0.50021275  0.61117214
   0.58333333  0.83333333  0.40830017
   0.50023883  0.75167605  0.60746606
   0.83333333  0.33333333  0.40830017
   0.74960540  0.24870850  0.61069163
   0.83333333  0.58333333  0.40830017
   0.75154493  0.50070466  0.61078558
   0.41946190  0.16335305  0.50845851
   0.50135494 -0.00013874  0.60360725
  -0.00003269  0.74966013  0.60201944
   0.58333333  0.08333333  0.40830017
   0.66665858  0.91464695  0.50621179
   0.25053820  0.25043467  0.60476495
   0.33333333  0.83333333  0.40830017
   0.16714229  0.66789791  0.50503362
   0.33333333  0.58333333  0.40830017
   0.08333333  0.83333333  0.40830017
   0.16893439  0.91433766  0.50681310
   0.00050728  0.50118557  0.60515732
   0.83333333  0.83333333  0.40830017
   0.16666232  0.16470508  0.50830586
   0.08333333  0.58333333  0.40830017
   0.41555253  0.91506326  0.50747506
   0.83333333  0.08333333  0.40830017
   0.66633612  0.16618754  0.50725089
   0.75045368 -0.00060225  0.60237381
   0.66416160  0.66825876  0.50758158
   0.66485942  0.41981415  0.50841233
   0.08333333  0.33333333  0.40830017
   0.91490365  0.66838395  0.50621984
   0.58333333  0.58333333  0.40830017
   0.41717969  0.66806821  0.50501118
Direct configuration=    14
   0.08333333  0.08333333  0.40830017
   0.91575103  0.16537177  0.50922194
   0.91590243  0.41750674  0.50892319
  -0.00099289 -0.00250229  0.61225116
   0.25092898  0.00172634  0.60776024
   0.91688430  0.91483106  0.50485938
   0.00267796  0.25099574  0.61331705
   0.75221395  0.75209070  0.60702727
   0.24882224  0.74938009  0.60653468
   0.33333333  0.33333333  0.40830017
   0.16475982  0.41921737  0.50743973
   0.24639370  0.50039133  0.61261132
   0.33333333  0.08333333  0.40830017
   0.58333333  0.33333333  0.40830017
   0.41716205  0.42023894  0.50928966
   0.50056648  0.24621279  0.61265561
   0.49974630  0.50025302  0.61119459
   0.58333333  0.83333333  0.40830017
   0.50031565  0.75164605  0.60747333
   0.83333333  0.33333333  0.40830017
   0.74968739  0.24863845  0.61075765
   0.83333333  0.58333333  0.40830017
   0.75160494  0.50071615  0.61078892
   0.41940013  0.16334265  0.50852233
   0.50132455 -0.00005551  0.60369981
  -0.00003501  0.74964452  0.60210150
   0.58333333  0.08333333  0.40830017
   0.66674416  0.91459209  0.50623731
   0.25050642  0.25041974  0.60481097
   0.33333333  0.83333333  0.40830017
   0.16710646  0.66791679  0.50510800
   0.33333333  0.58333333  0.40830017
   0.08333333  0.83333333  0.40830017
   0.16914834  0.91421516  0.50680529
   0.00044727  0.50116040  0.60522451
   0.83333333  0.83333333  0.40830017
   0.16676915  0.16464477  0.50833487
   0.08333333  0.58333333  0.40830017
   0.41547647  0.91502098  0.50747661
   0.83333333  0.08333333  0.40830017
   0.66641592  0.16610692  0.50728816
   0.75051167 -0.00056572  0.60244133
   0.66411769  0.66828166  0.50753938
   0.66494376  0.41987845  0.50845722
   0.08333333  0.33333333  0.40830017
   0.91483845  0.66848120  0.50624733
   0.58333333  0.58333333  0.40830017
   0.41712064  0.66819884  0.50504895
