  48  48   0   0
  0.5349325E+02  0.1100258E-08  0.1100258E-08  0.2449179E-08  0.3500000E-15
  1.000000000000000E-004
  CAR 
 unknown system                          
      6.32657491     -9.73284882  301     -1.08946956      1.00000000
     -9.733  0.0000E+00  0.0000E+00
     -9.679  0.0000E+00  0.0000E+00
     -9.626  0.0000E+00  0.0000E+00
     -9.572  0.0000E+00  0.0000E+00
     -9.519  0.0000E+00  0.0000E+00
     -9.465  0.0000E+00  0.0000E+00
     -9.412  0.0000E+00  0.0000E+00
     -9.358  0.0000E+00  0.0000E+00
     -9.305  0.6222E-17  0.3331E-18
     -9.251  0.2124E-14  0.1140E-15
     -9.198  0.4754E-12  0.2556E-13
     -9.144  0.6087E-10  0.3284E-11
     -9.090  0.4467E-08  0.2424E-09
     -9.037  0.1883E-06  0.1032E-07
     -8.983  0.4572E-05  0.2551E-06
     -8.930  0.6407E-04  0.3685E-05
     -8.876  0.5194E-03  0.3149E-04
     -8.823  0.2443E-02  0.1623E-03
     -8.769  0.6687E-02  0.5202E-03
     -8.716  0.1078E-01  0.1098E-02
     -8.662  0.1093E-01  0.1683E-02
     -8.609  0.9277E-02  0.2179E-02
     -8.555  0.1010E-01  0.2720E-02
     -8.502  0.1097E-01  0.3307E-02
     -8.448  0.8104E-02  0.3741E-02
     -8.395  0.3666E-02  0.3937E-02
     -8.341  0.1003E-02  0.3991E-02
     -8.288  0.2427E-03  0.4004E-02
     -8.234  0.5544E-03  0.4034E-02
     -8.180  0.2159E-02  0.4149E-02
     -8.127  0.5378E-02  0.4437E-02
     -8.073  0.8720E-02  0.4904E-02
     -8.020  0.1003E-01  0.5441E-02
     -7.966  0.1040E-01  0.5997E-02
     -7.913  0.1397E-01  0.6745E-02
     -7.859  0.2109E-01  0.7874E-02
     -7.806  0.2583E-01  0.9256E-02
     -7.752  0.2415E-01  0.1055E-01
     -7.699  0.1860E-01  0.1154E-01
     -7.645  0.1506E-01  0.1235E-01
     -7.592  0.1681E-01  0.1325E-01
     -7.538  0.1981E-01  0.1431E-01
     -7.485  0.1848E-01  0.1530E-01
     -7.431  0.1473E-01  0.1609E-01
     -7.377  0.1471E-01  0.1688E-01
     -7.324  0.1901E-01  0.1789E-01
     -7.270  0.2394E-01  0.1918E-01
     -7.217  0.2764E-01  0.2066E-01
     -7.163  0.2955E-01  0.2224E-01
     -7.110  0.3122E-01  0.2391E-01
     -7.056  0.3534E-01  0.2580E-01
     -7.003  0.4074E-01  0.2798E-01
     -6.949  0.4658E-01  0.3047E-01
     -6.896  0.5468E-01  0.3340E-01
     -6.842  0.6498E-01  0.3688E-01
     -6.789  0.7663E-01  0.4098E-01
     -6.735  0.8814E-01  0.4570E-01
     -6.682  0.9550E-01  0.5081E-01
     -6.628  0.9705E-01  0.5601E-01
     -6.574  0.9598E-01  0.6115E-01
     -6.521  0.9605E-01  0.6629E-01
     -6.467  0.1006E+00  0.7167E-01
     -6.414  0.1108E+00  0.7760E-01
     -6.360  0.1230E+00  0.8419E-01
     -6.307  0.1318E+00  0.9124E-01
     -6.253  0.1371E+00  0.9858E-01
     -6.200  0.1422E+00  0.1062E+00
     -6.146  0.1497E+00  0.1142E+00
     -6.093  0.1571E+00  0.1226E+00
     -6.039  0.1608E+00  0.1312E+00
     -5.986  0.1607E+00  0.1398E+00
     -5.932  0.1580E+00  0.1483E+00
     -5.879  0.1553E+00  0.1566E+00
     -5.825  0.1523E+00  0.1647E+00
     -5.772  0.1472E+00  0.1726E+00
     -5.718  0.1431E+00  0.1803E+00
     -5.664  0.1408E+00  0.1878E+00
     -5.611  0.1382E+00  0.1952E+00
     -5.557  0.1349E+00  0.2024E+00
     -5.504  0.1329E+00  0.2096E+00
     -5.450  0.1359E+00  0.2168E+00
     -5.397  0.1418E+00  0.2244E+00
     -5.343  0.1477E+00  0.2323E+00
     -5.290  0.1564E+00  0.2407E+00
     -5.236  0.1669E+00  0.2496E+00
     -5.183  0.1734E+00  0.2589E+00
     -5.129  0.1734E+00  0.2682E+00
     -5.076  0.1688E+00  0.2772E+00
     -5.022  0.1649E+00  0.2861E+00
     -4.969  0.1658E+00  0.2949E+00
     -4.915  0.1709E+00  0.3041E+00
     -4.861  0.1752E+00  0.3135E+00
     -4.808  0.1747E+00  0.3228E+00
     -4.754  0.1708E+00  0.3320E+00
     -4.701  0.1680E+00  0.3410E+00
     -4.647  0.1683E+00  0.3500E+00
     -4.594  0.1707E+00  0.3591E+00
     -4.540  0.1739E+00  0.3684E+00
     -4.487  0.1743E+00  0.3777E+00
     -4.433  0.1711E+00  0.3869E+00
     -4.380  0.1699E+00  0.3960E+00
     -4.326  0.1729E+00  0.4053E+00
     -4.273  0.1770E+00  0.4147E+00
     -4.219  0.1816E+00  0.4244E+00
     -4.166  0.1870E+00  0.4345E+00
     -4.112  0.1913E+00  0.4447E+00
     -4.059  0.1934E+00  0.4551E+00
     -4.005  0.1956E+00  0.4655E+00
     -3.951  0.1982E+00  0.4761E+00
     -3.898  0.1991E+00  0.4868E+00
     -3.844  0.1982E+00  0.4974E+00
     -3.791  0.1966E+00  0.5079E+00
     -3.737  0.1954E+00  0.5184E+00
     -3.684  0.1964E+00  0.5289E+00
     -3.630  0.1998E+00  0.5396E+00
     -3.577  0.2026E+00  0.5504E+00
     -3.523  0.2040E+00  0.5614E+00
     -3.470  0.2062E+00  0.5724E+00
     -3.416  0.2084E+00  0.5836E+00
     -3.363  0.2072E+00  0.5946E+00
     -3.309  0.2033E+00  0.6055E+00
     -3.256  0.2013E+00  0.6163E+00
     -3.202  0.2001E+00  0.6270E+00
     -3.148  0.1955E+00  0.6375E+00
     -3.095  0.1890E+00  0.6476E+00
     -3.041  0.1850E+00  0.6575E+00
     -2.988  0.1824E+00  0.6673E+00
     -2.934  0.1782E+00  0.6768E+00
     -2.881  0.1735E+00  0.6861E+00
     -2.827  0.1707E+00  0.6952E+00
     -2.774  0.1708E+00  0.7044E+00
     -2.720  0.1719E+00  0.7136E+00
     -2.667  0.1719E+00  0.7228E+00
     -2.613  0.1723E+00  0.7320E+00
     -2.560  0.1732E+00  0.7413E+00
     -2.506  0.1723E+00  0.7505E+00
     -2.453  0.1713E+00  0.7597E+00
     -2.399  0.1725E+00  0.7689E+00
     -2.346  0.1742E+00  0.7782E+00
     -2.292  0.1757E+00  0.7876E+00
     -2.238  0.1797E+00  0.7973E+00
     -2.185  0.1857E+00  0.8072E+00
     -2.131  0.1882E+00  0.8173E+00
     -2.078  0.1866E+00  0.8272E+00
     -2.024  0.1871E+00  0.8373E+00
     -1.971  0.1917E+00  0.8475E+00
     -1.917  0.1950E+00  0.8580E+00
     -1.864  0.1941E+00  0.8684E+00
     -1.810  0.1928E+00  0.8787E+00
     -1.757  0.1947E+00  0.8891E+00
     -1.703  0.1982E+00  0.8997E+00
     -1.650  0.1994E+00  0.9104E+00
     -1.596  0.1984E+00  0.9210E+00
     -1.543  0.1985E+00  0.9316E+00
     -1.489  0.1990E+00  0.9423E+00
     -1.435  0.1977E+00  0.9529E+00
     -1.382  0.1931E+00  0.9632E+00
     -1.328  0.1837E+00  0.9730E+00
     -1.275  0.1709E+00  0.9822E+00
     -1.221  0.1575E+00  0.9906E+00
     -1.168  0.1436E+00  0.9983E+00
     -1.114  0.1281E+00  0.1005E+01
     -1.061  0.1075E+00  0.1011E+01
     -1.007  0.7864E-01  0.1015E+01
     -0.954  0.4740E-01  0.1018E+01
     -0.900  0.2612E-01  0.1019E+01
     -0.847  0.1880E-01  0.1020E+01
     -0.793  0.1924E-01  0.1021E+01
     -0.740  0.2079E-01  0.1022E+01
     -0.686  0.2109E-01  0.1023E+01
     -0.633  0.2165E-01  0.1025E+01
     -0.579  0.2547E-01  0.1026E+01
     -0.525  0.3377E-01  0.1028E+01
     -0.472  0.4257E-01  0.1030E+01
     -0.418  0.4439E-01  0.1032E+01
     -0.365  0.3755E-01  0.1034E+01
     -0.311  0.3066E-01  0.1036E+01
     -0.258  0.3189E-01  0.1038E+01
     -0.204  0.3800E-01  0.1040E+01
     -0.151  0.3945E-01  0.1042E+01
     -0.097  0.3380E-01  0.1044E+01
     -0.044  0.2854E-01  0.1045E+01
      0.010  0.2906E-01  0.1047E+01
      0.063  0.3212E-01  0.1048E+01
      0.117  0.3449E-01  0.1050E+01
      0.170  0.3599E-01  0.1052E+01
      0.224  0.3465E-01  0.1054E+01
      0.278  0.3175E-01  0.1056E+01
      0.331  0.3257E-01  0.1058E+01
      0.385  0.3692E-01  0.1059E+01
      0.438  0.3897E-01  0.1062E+01
      0.492  0.3738E-01  0.1064E+01
      0.545  0.3688E-01  0.1066E+01
      0.599  0.4014E-01  0.1068E+01
      0.652  0.4499E-01  0.1070E+01
      0.706  0.4720E-01  0.1073E+01
      0.759  0.4328E-01  0.1075E+01
      0.813  0.3326E-01  0.1077E+01
      0.866  0.2262E-01  0.1078E+01
      0.920  0.1815E-01  0.1079E+01
      0.973  0.1957E-01  0.1080E+01
      1.027  0.2144E-01  0.1081E+01
      1.080  0.2148E-01  0.1082E+01
      1.134  0.2099E-01  0.1083E+01
      1.188  0.1988E-01  0.1084E+01
      1.241  0.1721E-01  0.1085E+01
      1.295  0.1476E-01  0.1086E+01
      1.348  0.1420E-01  0.1087E+01
      1.402  0.1597E-01  0.1088E+01
      1.455  0.2091E-01  0.1089E+01
      1.509  0.2812E-01  0.1090E+01
      1.562  0.3374E-01  0.1092E+01
      1.616  0.3441E-01  0.1094E+01
      1.669  0.3154E-01  0.1096E+01
      1.723  0.3042E-01  0.1097E+01
      1.776  0.3391E-01  0.1099E+01
      1.830  0.3693E-01  0.1101E+01
      1.883  0.3220E-01  0.1103E+01
      1.937  0.2337E-01  0.1104E+01
      1.991  0.1910E-01  0.1105E+01
      2.044  0.1842E-01  0.1106E+01
      2.098  0.1866E-01  0.1107E+01
      2.151  0.2187E-01  0.1108E+01
      2.205  0.2755E-01  0.1110E+01
      2.258  0.3493E-01  0.1112E+01
      2.312  0.4478E-01  0.1114E+01
      2.365  0.5203E-01  0.1117E+01
      2.419  0.5021E-01  0.1120E+01
      2.472  0.4202E-01  0.1122E+01
      2.526  0.3689E-01  0.1124E+01
      2.579  0.4061E-01  0.1126E+01
      2.633  0.4767E-01  0.1128E+01
      2.686  0.4942E-01  0.1131E+01
      2.740  0.4481E-01  0.1134E+01
      2.794  0.3621E-01  0.1135E+01
      2.847  0.2686E-01  0.1137E+01
      2.901  0.2047E-01  0.1138E+01
      2.954  0.1716E-01  0.1139E+01
      3.008  0.1448E-01  0.1140E+01
      3.061  0.1284E-01  0.1140E+01
      3.115  0.1442E-01  0.1141E+01
      3.168  0.1894E-01  0.1142E+01
      3.222  0.2394E-01  0.1143E+01
      3.275  0.2434E-01  0.1145E+01
      3.329  0.1879E-01  0.1146E+01
      3.382  0.1449E-01  0.1147E+01
      3.436  0.1638E-01  0.1147E+01
      3.489  0.2249E-01  0.1149E+01
      3.543  0.2955E-01  0.1150E+01
      3.596  0.3453E-01  0.1152E+01
      3.650  0.3536E-01  0.1154E+01
      3.704  0.3319E-01  0.1156E+01
      3.757  0.3212E-01  0.1157E+01
      3.811  0.3181E-01  0.1159E+01
      3.864  0.2766E-01  0.1161E+01
      3.918  0.2195E-01  0.1162E+01
      3.971  0.2205E-01  0.1163E+01
      4.025  0.2761E-01  0.1164E+01
      4.078  0.3031E-01  0.1166E+01
      4.132  0.2763E-01  0.1168E+01
      4.185  0.2495E-01  0.1169E+01
      4.239  0.2371E-01  0.1170E+01
      4.292  0.2039E-01  0.1171E+01
      4.346  0.1686E-01  0.1172E+01
      4.399  0.1918E-01  0.1173E+01
      4.453  0.2635E-01  0.1175E+01
      4.507  0.3276E-01  0.1176E+01
      4.560  0.3918E-01  0.1178E+01
      4.614  0.4889E-01  0.1181E+01
      4.667  0.5670E-01  0.1184E+01
      4.721  0.5637E-01  0.1187E+01
      4.774  0.5244E-01  0.1190E+01
      4.828  0.5070E-01  0.1193E+01
      4.881  0.4952E-01  0.1195E+01
      4.935  0.4948E-01  0.1198E+01
      4.988  0.5690E-01  0.1201E+01
      5.042  0.7061E-01  0.1205E+01
      5.095  0.7827E-01  0.1209E+01
      5.149  0.7362E-01  0.1213E+01
      5.202  0.6353E-01  0.1216E+01
      5.256  0.5411E-01  0.1219E+01
      5.309  0.4339E-01  0.1222E+01
      5.363  0.2843E-01  0.1223E+01
      5.417  0.1329E-01  0.1224E+01
      5.470  0.4068E-02  0.1224E+01
      5.524  0.7770E-03  0.1224E+01
      5.577  0.9012E-04  0.1224E+01
      5.631  0.6234E-05  0.1224E+01
      5.684  0.2540E-06  0.1224E+01
      5.738  0.6037E-08  0.1224E+01
      5.791  0.8316E-10  0.1224E+01
      5.845  0.6600E-12  0.1224E+01
      5.898  0.3004E-14  0.1224E+01
      5.952  0.6913E-17  0.1224E+01
      6.005  0.0000E+00  0.1224E+01
      6.059  0.0000E+00  0.1224E+01
      6.112  0.0000E+00  0.1224E+01
      6.166  0.0000E+00  0.1224E+01
      6.220  0.0000E+00  0.1224E+01
      6.273  0.0000E+00  0.1224E+01
      6.327  0.0000E+00  0.1224E+01
