  48  48   0   0
  0.5349325E+02  0.1100258E-08  0.1100258E-08  0.2449179E-08  0.3500000E-15
  1.000000000000000E-004
  CAR 
 unknown system                          
      6.39792526     -9.64169098  301     -1.09548880      1.00000000
     -9.642  0.0000E+00  0.0000E+00
     -9.588  0.0000E+00  0.0000E+00
     -9.535  0.0000E+00  0.0000E+00
     -9.481  0.0000E+00  0.0000E+00
     -9.428  0.0000E+00  0.0000E+00
     -9.374  0.0000E+00  0.0000E+00
     -9.321  0.0000E+00  0.0000E+00
     -9.267  0.0000E+00  0.0000E+00
     -9.214  0.6230E-17  0.3331E-18
     -9.161  0.2441E-14  0.1308E-15
     -9.107  0.5434E-12  0.2918E-13
     -9.054  0.6914E-10  0.3726E-11
     -9.000  0.5035E-08  0.2729E-09
     -8.947  0.2103E-06  0.1152E-07
     -8.893  0.5049E-05  0.2814E-06
     -8.840  0.6981E-04  0.4014E-05
     -8.786  0.5573E-03  0.3381E-04
     -8.733  0.2575E-02  0.1715E-03
     -8.679  0.6903E-02  0.5405E-03
     -8.626  0.1083E-01  0.1119E-02
     -8.572  0.1045E-01  0.1678E-02
     -8.519  0.8222E-02  0.2118E-02
     -8.465  0.9105E-02  0.2604E-02
     -8.412  0.1100E-01  0.3192E-02
     -8.359  0.9038E-02  0.3675E-02
     -8.305  0.4527E-02  0.3917E-02
     -8.252  0.1616E-02  0.4004E-02
     -8.198  0.1608E-02  0.4090E-02
     -8.145  0.4116E-02  0.4310E-02
     -8.091  0.7966E-02  0.4736E-02
     -8.038  0.1093E-01  0.5320E-02
     -7.984  0.1230E-01  0.5978E-02
     -7.931  0.1375E-01  0.6713E-02
     -7.877  0.1564E-01  0.7549E-02
     -7.824  0.1747E-01  0.8483E-02
     -7.770  0.1983E-01  0.9543E-02
     -7.717  0.2039E-01  0.1063E-01
     -7.663  0.1615E-01  0.1150E-01
     -7.610  0.1102E-01  0.1209E-01
     -7.557  0.1137E-01  0.1269E-01
     -7.503  0.1659E-01  0.1358E-01
     -7.450  0.2096E-01  0.1470E-01
     -7.396  0.2198E-01  0.1588E-01
     -7.343  0.2301E-01  0.1711E-01
     -7.289  0.2635E-01  0.1852E-01
     -7.236  0.2942E-01  0.2009E-01
     -7.182  0.2969E-01  0.2168E-01
     -7.129  0.2757E-01  0.2315E-01
     -7.075  0.2601E-01  0.2454E-01
     -7.022  0.2869E-01  0.2607E-01
     -6.968  0.3555E-01  0.2798E-01
     -6.915  0.4349E-01  0.3030E-01
     -6.861  0.5111E-01  0.3303E-01
     -6.808  0.6002E-01  0.3624E-01
     -6.755  0.7146E-01  0.4006E-01
     -6.701  0.8405E-01  0.4456E-01
     -6.648  0.9722E-01  0.4975E-01
     -6.594  0.1101E+00  0.5564E-01
     -6.541  0.1182E+00  0.6196E-01
     -6.487  0.1193E+00  0.6834E-01
     -6.434  0.1172E+00  0.7461E-01
     -6.380  0.1170E+00  0.8086E-01
     -6.327  0.1213E+00  0.8734E-01
     -6.273  0.1330E+00  0.9445E-01
     -6.220  0.1489E+00  0.1024E+00
     -6.166  0.1585E+00  0.1109E+00
     -6.113  0.1561E+00  0.1192E+00
     -6.060  0.1482E+00  0.1272E+00
     -6.006  0.1446E+00  0.1349E+00
     -5.953  0.1482E+00  0.1428E+00
     -5.899  0.1551E+00  0.1511E+00
     -5.846  0.1602E+00  0.1597E+00
     -5.792  0.1607E+00  0.1683E+00
     -5.739  0.1585E+00  0.1767E+00
     -5.685  0.1548E+00  0.1850E+00
     -5.632  0.1486E+00  0.1930E+00
     -5.578  0.1417E+00  0.2005E+00
     -5.525  0.1378E+00  0.2079E+00
     -5.471  0.1356E+00  0.2151E+00
     -5.418  0.1324E+00  0.2222E+00
     -5.364  0.1318E+00  0.2293E+00
     -5.311  0.1402E+00  0.2368E+00
     -5.258  0.1574E+00  0.2452E+00
     -5.204  0.1731E+00  0.2544E+00
     -5.151  0.1777E+00  0.2639E+00
     -5.097  0.1741E+00  0.2732E+00
     -5.044  0.1702E+00  0.2823E+00
     -4.990  0.1681E+00  0.2913E+00
     -4.937  0.1676E+00  0.3003E+00
     -4.883  0.1692E+00  0.3093E+00
     -4.830  0.1736E+00  0.3186E+00
     -4.776  0.1784E+00  0.3282E+00
     -4.723  0.1811E+00  0.3378E+00
     -4.669  0.1823E+00  0.3476E+00
     -4.616  0.1828E+00  0.3574E+00
     -4.562  0.1828E+00  0.3671E+00
     -4.509  0.1819E+00  0.3769E+00
     -4.456  0.1785E+00  0.3864E+00
     -4.402  0.1742E+00  0.3957E+00
     -4.349  0.1738E+00  0.4050E+00
     -4.295  0.1769E+00  0.4145E+00
     -4.242  0.1797E+00  0.4241E+00
     -4.188  0.1840E+00  0.4339E+00
     -4.135  0.1902E+00  0.4441E+00
     -4.081  0.1909E+00  0.4543E+00
     -4.028  0.1847E+00  0.4642E+00
     -3.974  0.1780E+00  0.4737E+00
     -3.921  0.1740E+00  0.4830E+00
     -3.867  0.1723E+00  0.4922E+00
     -3.814  0.1733E+00  0.5015E+00
     -3.760  0.1769E+00  0.5109E+00
     -3.707  0.1824E+00  0.5207E+00
     -3.654  0.1898E+00  0.5308E+00
     -3.600  0.1974E+00  0.5414E+00
     -3.547  0.2020E+00  0.5522E+00
     -3.493  0.2013E+00  0.5629E+00
     -3.440  0.1977E+00  0.5735E+00
     -3.386  0.1940E+00  0.5839E+00
     -3.333  0.1910E+00  0.5941E+00
     -3.279  0.1889E+00  0.6042E+00
     -3.226  0.1871E+00  0.6142E+00
     -3.172  0.1859E+00  0.6241E+00
     -3.119  0.1830E+00  0.6339E+00
     -3.065  0.1775E+00  0.6434E+00
     -3.012  0.1771E+00  0.6529E+00
     -2.959  0.1839E+00  0.6627E+00
     -2.905  0.1897E+00  0.6728E+00
     -2.852  0.1892E+00  0.6830E+00
     -2.798  0.1860E+00  0.6929E+00
     -2.745  0.1859E+00  0.7028E+00
     -2.691  0.1868E+00  0.7128E+00
     -2.638  0.1831E+00  0.7226E+00
     -2.584  0.1766E+00  0.7321E+00
     -2.531  0.1739E+00  0.7413E+00
     -2.477  0.1773E+00  0.7508E+00
     -2.424  0.1837E+00  0.7606E+00
     -2.370  0.1907E+00  0.7708E+00
     -2.317  0.1955E+00  0.7813E+00
     -2.263  0.1947E+00  0.7917E+00
     -2.210  0.1893E+00  0.8018E+00
     -2.157  0.1846E+00  0.8117E+00
     -2.103  0.1831E+00  0.8215E+00
     -2.050  0.1837E+00  0.8313E+00
     -1.996  0.1869E+00  0.8413E+00
     -1.943  0.1946E+00  0.8517E+00
     -1.889  0.2028E+00  0.8625E+00
     -1.836  0.2060E+00  0.8736E+00
     -1.782  0.2064E+00  0.8846E+00
     -1.729  0.2061E+00  0.8956E+00
     -1.675  0.2020E+00  0.9064E+00
     -1.622  0.1941E+00  0.9168E+00
     -1.568  0.1876E+00  0.9268E+00
     -1.515  0.1848E+00  0.9367E+00
     -1.461  0.1861E+00  0.9467E+00
     -1.408  0.1910E+00  0.9569E+00
     -1.355  0.1953E+00  0.9673E+00
     -1.301  0.1924E+00  0.9776E+00
     -1.248  0.1799E+00  0.9872E+00
     -1.194  0.1601E+00  0.9958E+00
     -1.141  0.1353E+00  0.1003E+01
     -1.087  0.1084E+00  0.1009E+01
     -1.034  0.8395E-01  0.1013E+01
     -0.980  0.6262E-01  0.1017E+01
     -0.927  0.4357E-01  0.1019E+01
     -0.873  0.2816E-01  0.1020E+01
     -0.820  0.1796E-01  0.1021E+01
     -0.766  0.1341E-01  0.1022E+01
     -0.713  0.1307E-01  0.1023E+01
     -0.660  0.1329E-01  0.1024E+01
     -0.606  0.1390E-01  0.1024E+01
     -0.553  0.1928E-01  0.1025E+01
     -0.499  0.3030E-01  0.1027E+01
     -0.446  0.4258E-01  0.1029E+01
     -0.392  0.4898E-01  0.1032E+01
     -0.339  0.4415E-01  0.1034E+01
     -0.285  0.3493E-01  0.1036E+01
     -0.232  0.3437E-01  0.1038E+01
     -0.178  0.4116E-01  0.1040E+01
     -0.125  0.4298E-01  0.1042E+01
     -0.071  0.3619E-01  0.1044E+01
     -0.018  0.2809E-01  0.1046E+01
      0.036  0.2579E-01  0.1047E+01
      0.089  0.2844E-01  0.1049E+01
      0.142  0.3219E-01  0.1050E+01
      0.196  0.3692E-01  0.1052E+01
      0.249  0.4098E-01  0.1055E+01
      0.303  0.4125E-01  0.1057E+01
      0.356  0.3885E-01  0.1059E+01
      0.410  0.3615E-01  0.1061E+01
      0.463  0.3471E-01  0.1063E+01
      0.517  0.3508E-01  0.1065E+01
      0.570  0.3509E-01  0.1066E+01
      0.624  0.3455E-01  0.1068E+01
      0.677  0.3581E-01  0.1070E+01
      0.731  0.3896E-01  0.1072E+01
      0.784  0.4061E-01  0.1074E+01
      0.838  0.3630E-01  0.1076E+01
      0.891  0.2783E-01  0.1078E+01
      0.944  0.2211E-01  0.1079E+01
      0.998  0.2060E-01  0.1080E+01
      1.051  0.2053E-01  0.1081E+01
      1.105  0.2045E-01  0.1082E+01
      1.158  0.1877E-01  0.1083E+01
      1.212  0.1594E-01  0.1084E+01
      1.265  0.1427E-01  0.1085E+01
      1.319  0.1342E-01  0.1086E+01
      1.372  0.1418E-01  0.1086E+01
      1.426  0.1939E-01  0.1088E+01
      1.479  0.2819E-01  0.1089E+01
      1.533  0.3560E-01  0.1091E+01
      1.586  0.3691E-01  0.1093E+01
      1.640  0.3444E-01  0.1095E+01
      1.693  0.3354E-01  0.1097E+01
      1.746  0.3425E-01  0.1098E+01
      1.800  0.3466E-01  0.1100E+01
      1.853  0.3202E-01  0.1102E+01
      1.907  0.2365E-01  0.1103E+01
      1.960  0.1415E-01  0.1104E+01
      2.014  0.1142E-01  0.1105E+01
      2.067  0.1509E-01  0.1105E+01
      2.121  0.1937E-01  0.1106E+01
      2.174  0.2305E-01  0.1108E+01
      2.228  0.2834E-01  0.1109E+01
      2.281  0.3539E-01  0.1111E+01
      2.335  0.4246E-01  0.1113E+01
      2.388  0.4760E-01  0.1116E+01
      2.441  0.5007E-01  0.1119E+01
      2.495  0.5033E-01  0.1121E+01
      2.548  0.4891E-01  0.1124E+01
      2.602  0.4791E-01  0.1126E+01
      2.655  0.4941E-01  0.1129E+01
      2.709  0.5161E-01  0.1132E+01
      2.762  0.4884E-01  0.1134E+01
      2.816  0.3761E-01  0.1136E+01
      2.869  0.2348E-01  0.1138E+01
      2.923  0.1534E-01  0.1138E+01
      2.976  0.1326E-01  0.1139E+01
      3.030  0.1186E-01  0.1140E+01
      3.083  0.1273E-01  0.1141E+01
      3.137  0.1945E-01  0.1142E+01
      3.190  0.2719E-01  0.1143E+01
      3.243  0.2795E-01  0.1145E+01
      3.297  0.2184E-01  0.1146E+01
      3.350  0.1590E-01  0.1147E+01
      3.404  0.1344E-01  0.1147E+01
      3.457  0.1279E-01  0.1148E+01
      3.511  0.1371E-01  0.1149E+01
      3.564  0.1699E-01  0.1150E+01
      3.618  0.2338E-01  0.1151E+01
      3.671  0.3272E-01  0.1153E+01
      3.725  0.3950E-01  0.1155E+01
      3.778  0.4045E-01  0.1157E+01
      3.832  0.3788E-01  0.1159E+01
      3.885  0.3122E-01  0.1161E+01
      3.939  0.2302E-01  0.1162E+01
      3.992  0.2241E-01  0.1163E+01
      4.045  0.2976E-01  0.1165E+01
      4.099  0.3277E-01  0.1166E+01
      4.152  0.2714E-01  0.1168E+01
      4.206  0.2265E-01  0.1169E+01
      4.259  0.2273E-01  0.1170E+01
      4.313  0.2158E-01  0.1171E+01
      4.366  0.1949E-01  0.1172E+01
      4.420  0.2117E-01  0.1174E+01
      4.473  0.2602E-01  0.1175E+01
      4.527  0.3310E-01  0.1177E+01
      4.580  0.4428E-01  0.1179E+01
      4.634  0.5561E-01  0.1182E+01
      4.687  0.5654E-01  0.1185E+01
      4.740  0.4558E-01  0.1187E+01
      4.794  0.3659E-01  0.1189E+01
      4.847  0.3931E-01  0.1192E+01
      4.901  0.4850E-01  0.1194E+01
      4.954  0.5780E-01  0.1197E+01
      5.008  0.6742E-01  0.1201E+01
      5.061  0.7538E-01  0.1205E+01
      5.115  0.7611E-01  0.1209E+01
      5.168  0.6984E-01  0.1213E+01
      5.222  0.6237E-01  0.1216E+01
      5.275  0.5438E-01  0.1219E+01
      5.329  0.4225E-01  0.1221E+01
      5.382  0.2795E-01  0.1223E+01
      5.436  0.1569E-01  0.1223E+01
      5.489  0.6916E-02  0.1224E+01
      5.542  0.2107E-02  0.1224E+01
      5.596  0.4055E-03  0.1224E+01
      5.649  0.4716E-04  0.1224E+01
      5.703  0.3249E-05  0.1224E+01
      5.756  0.1313E-06  0.1224E+01
      5.810  0.3091E-08  0.1224E+01
      5.863  0.4220E-10  0.1224E+01
      5.917  0.3326E-12  0.1224E+01
      5.970  0.1510E-14  0.1224E+01
      6.024  0.2769E-17  0.1224E+01
      6.077  0.0000E+00  0.1224E+01
      6.131  0.0000E+00  0.1224E+01
      6.184  0.0000E+00  0.1224E+01
      6.238  0.0000E+00  0.1224E+01
      6.291  0.0000E+00  0.1224E+01
      6.344  0.0000E+00  0.1224E+01
      6.398  0.0000E+00  0.1224E+01
