       N       E                     dE             d eps       ncg     rms          rms(c)
DAV:   1     0.320016433370E+04    0.32002E+04   -0.18981E+05  3672   0.112E+03
DAV:   2     0.152109683652E+02   -0.31850E+04   -0.29259E+04  4344   0.263E+02
DAV:   3    -0.201343725806E+03   -0.21655E+03   -0.20091E+03  4128   0.652E+01
DAV:   4    -0.207364708781E+03   -0.60210E+01   -0.59490E+01  4224   0.110E+01
DAV:   5    -0.207556346817E+03   -0.19164E+00   -0.19106E+00  4488   0.197E+00    0.620E+01
RMM:   6    -0.200686401091E+03    0.68699E+01   -0.96496E+01  3678   0.154E+01    0.524E+01
RMM:   7    -0.199843305304E+03    0.84310E+00   -0.54625E+01  3684   0.128E+01    0.362E+01
RMM:   8    -0.206465222364E+03   -0.66219E+01   -0.52749E+01  3677   0.118E+01    0.302E+01
RMM:   9    -0.200057807124E+03    0.64074E+01   -0.25720E+01  3677   0.777E+00    0.222E+01
RMM:  10    -0.191740953477E+03    0.83169E+01   -0.10001E+01  3679   0.488E+00    0.112E+01
RMM:  11    -0.190214980979E+03    0.15260E+01   -0.41436E+00  3678   0.311E+00    0.791E+00
RMM:  12    -0.189732450468E+03    0.48253E+00   -0.13018E+00  3679   0.182E+00    0.482E+00
RMM:  13    -0.189716836265E+03    0.15614E-01   -0.53227E-01  3678   0.114E+00    0.472E+00
RMM:  14    -0.189626898963E+03    0.89937E-01   -0.24575E-01  3681   0.792E-01    0.330E+00
RMM:  15    -0.189581220894E+03    0.45678E-01   -0.13631E-01  3678   0.582E-01    0.219E+00
RMM:  16    -0.189545283607E+03    0.35937E-01   -0.55818E-02  3678   0.366E-01    0.131E+00
RMM:  17    -0.189539849352E+03    0.54343E-02   -0.35512E-02  3680   0.288E-01    0.114E+00
RMM:  18    -0.189531710374E+03    0.81390E-02   -0.14079E-02  3678   0.195E-01    0.578E-01
RMM:  19    -0.189528967655E+03    0.27427E-02   -0.20771E-03  3680   0.720E-02    0.356E-01
RMM:  20    -0.189528156907E+03    0.81075E-03   -0.19451E-03  3678   0.655E-02    0.273E-01
RMM:  21    -0.189527701851E+03    0.45506E-03   -0.94194E-04  3678   0.475E-02    0.155E-01
RMM:  22    -0.189527774022E+03   -0.72171E-04   -0.43878E-04  3679   0.323E-02    0.113E-01
RMM:  23    -0.189527978396E+03   -0.20437E-03   -0.20107E-04  3678   0.217E-02    0.471E-02
RMM:  24    -0.189528313796E+03   -0.33540E-03   -0.11910E-04  3681   0.159E-02    0.496E-02
RMM:  25    -0.189528847421E+03   -0.53362E-03   -0.57354E-05  3677   0.105E-02    0.340E-02
RMM:  26    -0.189529290393E+03   -0.44297E-03   -0.37580E-05  3672   0.888E-03    0.314E-02
RMM:  27    -0.189530017396E+03   -0.72700E-03   -0.44349E-05  3672   0.920E-03    0.160E-02
RMM:  28    -0.189530403969E+03   -0.38657E-03   -0.18311E-05  3408   0.580E-03    0.153E-02
RMM:  29    -0.189530881697E+03   -0.47773E-03   -0.22415E-05  3352   0.637E-03    0.126E-02
RMM:  30    -0.189531176194E+03   -0.29450E-03   -0.19078E-05  3233   0.578E-03    0.748E-03
RMM:  31    -0.189531295598E+03   -0.11940E-03   -0.63197E-06  2727   0.311E-03    0.520E-03
RMM:  32    -0.189531372236E+03   -0.76638E-04   -0.19072E-06  2323   0.193E-03    0.265E-03
RMM:  33    -0.189531424345E+03   -0.52109E-04   -0.84227E-07  2156   0.127E-03    0.245E-03
RMM:  34    -0.189531453153E+03   -0.28808E-04   -0.44221E-07  2131   0.927E-04    0.126E-03
RMM:  35    -0.189531485718E+03   -0.32565E-04   -0.56966E-07  2152   0.106E-03    0.114E-03
RMM:  36    -0.189531494789E+03   -0.90704E-05   -0.22993E-07  1588   0.636E-04    0.954E-04
RMM:  37    -0.189531499559E+03   -0.47707E-05   -0.12217E-07  1397   0.520E-04    0.572E-04
RMM:  38    -0.189531500596E+03   -0.10365E-05   -0.32779E-08   848   0.384E-04    0.280E-04
RMM:  39    -0.189531501097E+03   -0.50158E-06   -0.29955E-08   978   0.381E-04
   1 F= -.18953150E+03 E0= -.18939585E+03  d E =-.189532E+03
       N       E                     dE             d eps       ncg     rms          rms(c)
DAV:   1    -0.190084475313E+03   -0.55297E+00   -0.19500E+02  3720   0.213E+01    0.238E+00
RMM:   2    -0.190296280320E+03   -0.21181E+00   -0.20706E+00  3679   0.309E+00    0.188E+00
RMM:   3    -0.190387701119E+03   -0.91421E-01   -0.21628E-01  3714   0.796E-01    0.302E+00
RMM:   4    -0.190296812335E+03    0.90889E-01   -0.90953E-02  3687   0.478E-01    0.172E+00
RMM:   5    -0.190279875327E+03    0.16937E-01   -0.49812E-02  3682   0.353E-01    0.105E+00
RMM:   6    -0.190276763743E+03    0.31116E-02   -0.20211E-02  3687   0.226E-01    0.864E-01
RMM:   7    -0.190270027094E+03    0.67366E-02   -0.84386E-03  3681   0.149E-01    0.354E-01
RMM:   8    -0.190268655447E+03    0.13716E-02   -0.22753E-03  3681   0.726E-02    0.208E-01
RMM:   9    -0.190268301284E+03    0.35416E-03   -0.10387E-03  3684   0.505E-02    0.137E-01
RMM:  10    -0.190268183152E+03    0.11813E-03   -0.44883E-04  3681   0.333E-02    0.100E-01
RMM:  11    -0.190268094855E+03    0.88297E-04   -0.14248E-04  3684   0.189E-02    0.428E-02
RMM:  12    -0.190268090790E+03    0.40654E-05   -0.26790E-05  3686   0.832E-03    0.303E-02
RMM:  13    -0.190268082104E+03    0.86853E-05   -0.13640E-05  3662   0.602E-03    0.120E-02
RMM:  14    -0.190268082317E+03   -0.21231E-06   -0.42793E-06  2781   0.339E-03
   2 F= -.19026808E+03 E0= -.19013317E+03  d E =-.736581E+00
       N       E                     dE             d eps       ncg     rms          rms(c)
DAV:   1    -0.189403197496E+03    0.86488E+00   -0.16912E+03  3672   0.637E+01    0.570E+00
RMM:   2    -0.191184023318E+03   -0.17808E+01   -0.17647E+01  3678   0.904E+00    0.442E+00
RMM:   3    -0.191575878037E+03   -0.39185E+00   -0.14566E+00  3711   0.208E+00    0.659E+00
RMM:   4    -0.191055264780E+03    0.52061E+00   -0.41426E-01  3687   0.106E+00    0.300E+00
RMM:   5    -0.191101289362E+03   -0.46025E-01   -0.23416E-01  3684   0.749E-01    0.348E+00
RMM:   6    -0.191061632972E+03    0.39656E-01   -0.20407E-01  3686   0.697E-01    0.269E+00
RMM:   7    -0.190991432894E+03    0.70200E-01   -0.80462E-02  3682   0.455E-01    0.121E+00
RMM:   8    -0.190977343696E+03    0.14089E-01   -0.25471E-02  3683   0.247E-01    0.742E-01
RMM:   9    -0.190971517423E+03    0.58263E-02   -0.97671E-03  3684   0.154E-01    0.348E-01
RMM:  10    -0.190970867222E+03    0.65020E-03   -0.32062E-03  3683   0.870E-02    0.302E-01
RMM:  11    -0.190970344712E+03    0.52251E-03   -0.12209E-03  3686   0.547E-02    0.192E-01
RMM:  12    -0.190970091226E+03    0.25349E-03   -0.41761E-04  3687   0.329E-02    0.102E-01
RMM:  13    -0.190970019880E+03    0.71346E-04   -0.20099E-04  3680   0.229E-02    0.463E-02
RMM:  14    -0.190970019687E+03    0.19258E-06   -0.51341E-05  3678   0.117E-02    0.308E-02
RMM:  15    -0.190970013505E+03    0.61825E-05   -0.17113E-05  3672   0.670E-03    0.160E-02
RMM:  16    -0.190970016251E+03   -0.27467E-05   -0.54323E-06  2924   0.381E-03    0.135E-02
RMM:  17    -0.190970017374E+03   -0.11226E-05   -0.25367E-06  2338   0.278E-03    0.503E-03
RMM:  18    -0.190970021092E+03   -0.37180E-05   -0.89838E-07  2057   0.169E-03    0.379E-03
RMM:  19    -0.190970022905E+03   -0.18134E-05   -0.29167E-07  1987   0.100E-03    0.173E-03
RMM:  20    -0.190970024888E+03   -0.19827E-05   -0.65184E-08  1175   0.493E-04    0.140E-03
RMM:  21    -0.190970026619E+03   -0.17313E-05   -0.13726E-08   622   0.408E-04    0.103E-03
RMM:  22    -0.190970029866E+03   -0.32465E-05   -0.99007E-08  1595   0.526E-04    0.136E-03
RMM:  23    -0.190970032021E+03   -0.21546E-05   -0.34797E-08   899   0.386E-04    0.121E-03
RMM:  24    -0.190970034657E+03   -0.26359E-05   -0.83904E-08  1030   0.413E-04    0.100E-03
RMM:  25    -0.190970036567E+03   -0.19108E-05   -0.61433E-08   940   0.429E-04    0.700E-04
RMM:  26    -0.190970038107E+03   -0.15392E-05   -0.12472E-07  1403   0.461E-04    0.423E-04
RMM:  27    -0.190970038747E+03   -0.64006E-06   -0.15949E-08   583   0.318E-04
   3 F= -.19097004E+03 E0= -.19083898E+03  d E =-.143854E+01
       N       E                     dE             d eps       ncg     rms          rms(c)
DAV:   1    -0.191305801742E+03   -0.33576E+00   -0.34581E+02  3672   0.286E+01    0.205E+00
RMM:   2    -0.191682459289E+03   -0.37666E+00   -0.35482E+00  3681   0.411E+00    0.215E+00
RMM:   3    -0.191736520347E+03   -0.54061E-01   -0.26221E-01  3717   0.892E-01    0.300E+00
RMM:   4    -0.191648271534E+03    0.88249E-01   -0.48779E-02  3681   0.379E-01    0.161E+00
RMM:   5    -0.191635157516E+03    0.13114E-01   -0.28808E-02  3684   0.276E-01    0.113E+00
RMM:   6    -0.191630979778E+03    0.41777E-02   -0.44175E-02  3684   0.329E-01    0.868E-01
RMM:   7    -0.191625337288E+03    0.56425E-02   -0.13305E-02  3684   0.183E-01    0.540E-01
RMM:   8    -0.191622312078E+03    0.30252E-02   -0.33901E-03  3685   0.921E-02    0.252E-01
RMM:   9    -0.191621707771E+03    0.60431E-03   -0.13195E-03  3682   0.584E-02    0.143E-01
RMM:  10    -0.191621494758E+03    0.21301E-03   -0.43383E-04  3685   0.326E-02    0.927E-02
RMM:  11    -0.191621440047E+03    0.54711E-04   -0.14693E-04  3684   0.190E-02    0.711E-02
RMM:  12    -0.191621405035E+03    0.35012E-04   -0.15695E-04  3683   0.194E-02    0.426E-02
RMM:  13    -0.191621393037E+03    0.11998E-04   -0.45492E-05  3681   0.107E-02    0.177E-02
RMM:  14    -0.191621392269E+03    0.76756E-06   -0.62057E-06  2991   0.416E-03
   4 F= -.19162139E+03 E0= -.19149127E+03  d E =-.651354E+00
       N       E                     dE             d eps       ncg     rms          rms(c)
DAV:   1    -0.189800282117E+03    0.18211E+01   -0.32515E+03  3672   0.901E+01    0.547E+00
RMM:   2    -0.192959148778E+03   -0.31589E+01   -0.31236E+01  3681   0.123E+01    0.515E+00
RMM:   3    -0.193324368560E+03   -0.36522E+00   -0.19256E+00  3713   0.241E+00    0.707E+00
RMM:   4    -0.192769025092E+03    0.55534E+00   -0.30621E-01  3677   0.949E-01    0.406E+00
RMM:   5    -0.192716198955E+03    0.52826E-01   -0.17241E-01  3684   0.658E-01    0.359E+00
RMM:   6    -0.192684552873E+03    0.31646E-01   -0.40345E-01  3682   0.987E-01    0.314E+00
RMM:   7    -0.192623177190E+03    0.61376E-01   -0.16685E-01  3682   0.650E-01    0.204E+00
RMM:   8    -0.192580693489E+03    0.42484E-01   -0.48676E-02  3685   0.350E-01    0.909E-01
RMM:   9    -0.192574104922E+03    0.65886E-02   -0.13092E-02  3682   0.182E-01    0.629E-01
RMM:  10    -0.192571232119E+03    0.28728E-02   -0.53115E-03  3682   0.117E-01    0.441E-01
RMM:  11    -0.192569754617E+03    0.14775E-02   -0.33920E-03  3682   0.908E-02    0.292E-01
RMM:  12    -0.192568988771E+03    0.76585E-03   -0.21526E-03  3683   0.721E-02    0.142E-01
RMM:  13    -0.192569033726E+03   -0.44955E-04   -0.90488E-04  3681   0.474E-02    0.131E-01
RMM:  14    -0.192568857910E+03    0.17582E-03   -0.23720E-04  3682   0.251E-02    0.387E-02
RMM:  15    -0.192568852334E+03    0.55755E-05   -0.31981E-05  3682   0.913E-03    0.300E-02
RMM:  16    -0.192568846579E+03    0.57550E-05   -0.17959E-05  3672   0.682E-03    0.162E-02
RMM:  17    -0.192568848137E+03   -0.15578E-05   -0.55257E-06  2966   0.378E-03    0.907E-03
RMM:  18    -0.192568852517E+03   -0.43800E-05   -0.22456E-06  2148   0.262E-03    0.457E-03
RMM:  19    -0.192568855239E+03   -0.27217E-05   -0.70351E-07  2020   0.157E-03    0.353E-03
RMM:  20    -0.192568858383E+03   -0.31447E-05   -0.21480E-07  2038   0.812E-04    0.196E-03
RMM:  21    -0.192568860521E+03   -0.21375E-05   -0.80499E-08  1184   0.519E-04    0.119E-03
RMM:  22    -0.192568863252E+03   -0.27315E-05   -0.64899E-08  1238   0.475E-04    0.630E-04
RMM:  23    -0.192568866915E+03   -0.36631E-05   -0.14497E-07  1660   0.535E-04    0.956E-04
RMM:  24    -0.192568869484E+03   -0.25682E-05   -0.97487E-08  1200   0.438E-04    0.678E-04
RMM:  25    -0.192568871210E+03   -0.17266E-05   -0.10803E-07  1167   0.447E-04    0.506E-04
RMM:  26    -0.192568871756E+03   -0.54546E-06   -0.47823E-08   755   0.365E-04
   5 F= -.19256887E+03 E0= -.19244178E+03  d E =-.159883E+01
       N       E                     dE             d eps       ncg     rms          rms(c)
DAV:   1    -0.192470215714E+03    0.98655E-01   -0.14469E+02  3684   0.185E+01    0.108E+00
RMM:   2    -0.192633497736E+03   -0.16328E+00   -0.15173E+00  3681   0.269E+00    0.144E+00
RMM:   3    -0.192640736244E+03   -0.72385E-02   -0.10301E-01  3722   0.565E-01    0.164E+00
RMM:   4    -0.192615564332E+03    0.25172E-01   -0.14430E-02  3675   0.210E-01    0.891E-01
RMM:   5    -0.192611121638E+03    0.44427E-02   -0.62823E-03  3684   0.131E-01    0.632E-01
RMM:   6    -0.192607994705E+03    0.31269E-02   -0.20911E-02  3684   0.225E-01    0.426E-01
RMM:   7    -0.192606893160E+03    0.11015E-02   -0.65293E-03  3684   0.126E-01    0.316E-01
RMM:   8    -0.192606024844E+03    0.86832E-03   -0.13074E-03  3685   0.587E-02    0.165E-01
RMM:   9    -0.192605787196E+03    0.23765E-03   -0.47951E-04  3681   0.351E-02    0.106E-01
RMM:  10    -0.192605650208E+03    0.13699E-03   -0.21554E-04  3683   0.230E-02    0.561E-02
RMM:  11    -0.192605628448E+03    0.21759E-04   -0.83942E-05  3680   0.141E-02    0.406E-02
RMM:  12    -0.192605613993E+03    0.14455E-04   -0.95675E-05  3684   0.149E-02    0.186E-02
RMM:  13    -0.192605613695E+03    0.29800E-06   -0.15901E-05  3672   0.632E-03    0.130E-02
RMM:  14    -0.192605612333E+03    0.13620E-05   -0.20274E-06  2153   0.259E-03    0.774E-03
RMM:  15    -0.192605611978E+03    0.35581E-06   -0.94566E-07  1981   0.175E-03
   6 F= -.19260561E+03 E0= -.19247921E+03  d E =-.163557E+01
       N       E                     dE             d eps       ncg     rms          rms(c)
DAV:   1    -0.192595765936E+03    0.98464E-02   -0.22805E+02  3672   0.234E+01    0.173E+00
RMM:   2    -0.192865308494E+03   -0.26954E+00   -0.25972E+00  3684   0.341E+00    0.189E+00
RMM:   3    -0.192925281424E+03   -0.59973E-01   -0.19934E-01  3708   0.739E-01    0.287E+00
RMM:   4    -0.192842339450E+03    0.82942E-01   -0.39756E-02  3683   0.332E-01    0.137E+00
RMM:   5    -0.192829434753E+03    0.12905E-01   -0.15328E-02  3682   0.202E-01    0.749E-01
RMM:   6    -0.192827795629E+03    0.16391E-02   -0.30159E-02  3681   0.268E-01    0.565E-01
RMM:   7    -0.192826087622E+03    0.17080E-02   -0.92022E-03  3681   0.151E-01    0.414E-01
RMM:   8    -0.192824401080E+03    0.16865E-02   -0.20929E-03  3684   0.734E-02    0.219E-01
RMM:   9    -0.192823877190E+03    0.52389E-03   -0.75174E-04  3681   0.440E-02    0.942E-02
RMM:  10    -0.192823783958E+03    0.93231E-04   -0.24154E-04  3682   0.236E-02    0.623E-02
RMM:  11    -0.192823745401E+03    0.38557E-04   -0.99187E-05  3681   0.154E-02    0.366E-02
RMM:  12    -0.192823733645E+03    0.11756E-04   -0.73276E-05  3681   0.129E-02    0.200E-02
RMM:  13    -0.192823733375E+03    0.27000E-06   -0.19890E-05  3678   0.705E-03    0.146E-02
RMM:  14    -0.192823732413E+03    0.96202E-06   -0.35853E-06  2563   0.325E-03
   7 F= -.19282373E+03 E0= -.19269776E+03  d E =-.218120E+00
       N       E                     dE             d eps       ncg     rms          rms(c)
DAV:   1    -0.192823166417E+03    0.56696E-03   -0.23808E+00  3744   0.239E+00    0.176E-01
RMM:   2    -0.192825985695E+03   -0.28193E-02   -0.27242E-02  3684   0.349E-01    0.201E-01
RMM:   3    -0.192826550589E+03   -0.56489E-03   -0.21013E-03  3712   0.759E-02    0.303E-01
RMM:   4    -0.192825611459E+03    0.93913E-03   -0.38591E-04  3681   0.332E-02    0.108E-01
RMM:   5    -0.192825601384E+03    0.10075E-04   -0.17119E-04  3682   0.213E-02    0.917E-02
RMM:   6    -0.192825594610E+03    0.67737E-05   -0.31924E-04  3682   0.281E-02    0.664E-02
RMM:   7    -0.192825564314E+03    0.30296E-04   -0.11285E-04  3681   0.168E-02    0.327E-02
RMM:   8    -0.192825556506E+03    0.78080E-05   -0.21390E-05  3678   0.743E-03    0.227E-02
RMM:   9    -0.192825550298E+03    0.62082E-05   -0.88316E-06  3632   0.477E-03    0.960E-03
RMM:  10    -0.192825549433E+03    0.86459E-06   -0.20125E-06  2065   0.231E-03
   8 F= -.19282555E+03 E0= -.19269966E+03  d E =-.219937E+00
       N       E                     dE             d eps       ncg     rms          rms(c)
DAV:   1    -0.192829202470E+03   -0.36522E-02   -0.27753E+01  3684   0.810E+00    0.631E-01
RMM:   2    -0.192866248959E+03   -0.37046E-01   -0.33610E-01  3684   0.120E+00    0.824E-01
RMM:   3    -0.192870329258E+03   -0.40803E-02   -0.27266E-02  3700   0.266E-01    0.101E+00
RMM:   4    -0.192860594987E+03    0.97343E-02   -0.48850E-03  3684   0.116E-01    0.467E-01
RMM:   5    -0.192859283437E+03    0.13116E-02   -0.19684E-03  3681   0.732E-02    0.277E-01
RMM:   6    -0.192859591209E+03   -0.30777E-03   -0.39098E-03  3681   0.965E-02    0.283E-01
RMM:   7    -0.192858823404E+03    0.76781E-03   -0.19298E-03  3681   0.684E-02    0.109E-01
RMM:   8    -0.192858758577E+03    0.64827E-04   -0.26208E-04  3684   0.257E-02    0.812E-02
RMM:   9    -0.192858672641E+03    0.85936E-04   -0.96413E-05  3679   0.157E-02    0.366E-02
RMM:  10    -0.192858657435E+03    0.15206E-04   -0.38135E-05  3679   0.962E-03    0.241E-02
RMM:  11    -0.192858651786E+03    0.56493E-05   -0.15310E-05  3672   0.589E-03    0.127E-02
RMM:  12    -0.192858650874E+03    0.91208E-06   -0.10855E-05  3671   0.486E-03    0.865E-03
RMM:  13    -0.192858650618E+03    0.25621E-06   -0.28335E-06  2404   0.273E-03
   9 F= -.19285865E+03 E0= -.19273307E+03  d E =-.331012E-01
       N       E                     dE             d eps       ncg     rms          rms(c)
DAV:   1    -0.192855229758E+03    0.34211E-02   -0.68397E+00  3684   0.402E+00    0.313E-01
RMM:   2    -0.192864377820E+03   -0.91481E-02   -0.82931E-02  3684   0.596E-01    0.417E-01
RMM:   3    -0.192865237167E+03   -0.85935E-03   -0.67365E-03  3700   0.132E-01    0.501E-01
RMM:   4    -0.192862847657E+03    0.23895E-02   -0.11766E-03  3684   0.569E-02    0.222E-01
RMM:   5    -0.192862602437E+03    0.24522E-03   -0.48764E-04  3681   0.364E-02    0.142E-01
RMM:   6    -0.192862716428E+03   -0.11399E-03   -0.97574E-04  3681   0.483E-02    0.145E-01
RMM:   7    -0.192862515400E+03    0.20103E-03   -0.48021E-04  3681   0.341E-02    0.495E-02
RMM:   8    -0.192862504844E+03    0.10555E-04   -0.62712E-05  3682   0.125E-02    0.395E-02
RMM:   9    -0.192862484036E+03    0.20809E-04   -0.22457E-05  3675   0.760E-03    0.178E-02
RMM:  10    -0.192862480635E+03    0.34012E-05   -0.94550E-06  3660   0.478E-03    0.120E-02
RMM:  11    -0.192862479301E+03    0.13339E-05   -0.37910E-06  2661   0.301E-03    0.609E-03
RMM:  12    -0.192862479218E+03    0.82735E-07   -0.26302E-06  2093   0.271E-03
  10 F= -.19286248E+03 E0= -.19273706E+03  d E =-.369298E-01
       N       E                     dE             d eps       ncg     rms          rms(c)
DAV:   1    -0.192863082138E+03   -0.60284E-03   -0.71729E+00  3684   0.410E+00    0.284E-01
RMM:   2    -0.192872717057E+03   -0.96349E-02   -0.88423E-02  3684   0.612E-01    0.418E-01
RMM:   3    -0.192872698300E+03    0.18757E-04   -0.67280E-03  3709   0.134E-01    0.402E-01
RMM:   4    -0.192871403260E+03    0.12950E-02   -0.12103E-03  3685   0.574E-02    0.236E-01
RMM:   5    -0.192871013343E+03    0.38992E-03   -0.50525E-04  3681   0.369E-02    0.141E-01
RMM:   6    -0.192871145915E+03   -0.13257E-03   -0.84209E-04  3680   0.445E-02    0.176E-01
RMM:   7    -0.192870923427E+03    0.22249E-03   -0.85794E-04  3682   0.453E-02    0.680E-02
RMM:   8    -0.192870896086E+03    0.27341E-04   -0.10949E-04  3681   0.167E-02    0.442E-02
RMM:   9    -0.192870869216E+03    0.26870E-04   -0.28137E-05  3675   0.843E-03    0.227E-02
RMM:  10    -0.192870864038E+03    0.51781E-05   -0.10263E-05  3647   0.489E-03    0.158E-02
RMM:  11    -0.192870860928E+03    0.31099E-05   -0.83517E-06  3553   0.433E-03    0.871E-03
RMM:  12    -0.192870860342E+03    0.58635E-06   -0.60598E-06  3024   0.367E-03
  11 F= -.19287086E+03 E0= -.19274568E+03  d E =-.838112E-02
       N       E                     dE             d eps       ncg     rms          rms(c)
DAV:   1    -0.192867362311E+03    0.34986E-02   -0.45572E+00  3672   0.326E+00    0.225E-01
RMM:   2    -0.192873511203E+03   -0.61489E-02   -0.56229E-02  3684   0.488E-01    0.338E-01
RMM:   3    -0.192873431285E+03    0.79918E-04   -0.42818E-03  3709   0.107E-01    0.318E-01
RMM:   4    -0.192872627877E+03    0.80341E-03   -0.75985E-04  3685   0.456E-02    0.187E-01
RMM:   5    -0.192872390627E+03    0.23725E-03   -0.31916E-04  3681   0.294E-02    0.114E-01
RMM:   6    -0.192872481035E+03   -0.90407E-04   -0.53407E-04  3680   0.355E-02    0.141E-01
RMM:   7    -0.192872342741E+03    0.13829E-03   -0.55348E-04  3682   0.363E-02    0.540E-02
RMM:   8    -0.192872325838E+03    0.16902E-04   -0.70640E-05  3680   0.134E-02    0.351E-02
RMM:   9    -0.192872309010E+03    0.16829E-04   -0.17629E-05  3672   0.668E-03    0.183E-02
RMM:  10    -0.192872305654E+03    0.33553E-05   -0.65444E-06  3158   0.395E-03    0.128E-02
RMM:  11    -0.192872303693E+03    0.19618E-05   -0.55322E-06  2956   0.366E-03    0.702E-03
RMM:  12    -0.192872303370E+03    0.32283E-06   -0.41372E-06  2665   0.320E-03
  12 F= -.19287230E+03 E0= -.19274731E+03  d E =-.982415E-02
       N       E                     dE             d eps       ncg     rms          rms(c)
DAV:   1    -0.192868844347E+03    0.34593E-02   -0.63616E+00  3672   0.386E+00    0.263E-01
RMM:   2    -0.192878008704E+03   -0.91644E-02   -0.78876E-02  3682   0.578E-01    0.464E-01
RMM:   3    -0.192877104017E+03    0.90469E-03   -0.60961E-03  3709   0.129E-01    0.342E-01
RMM:   4    -0.192876278589E+03    0.82543E-03   -0.10573E-03  3684   0.537E-02    0.242E-01
RMM:   5    -0.192875817481E+03    0.46111E-03   -0.35061E-04  3681   0.312E-02    0.116E-01
RMM:   6    -0.192875886100E+03   -0.68619E-04   -0.81564E-04  3679   0.439E-02    0.133E-01
RMM:   7    -0.192875761934E+03    0.12417E-03   -0.66348E-04  3682   0.396E-02    0.575E-02
RMM:   8    -0.192875739177E+03    0.22757E-04   -0.67419E-05  3680   0.134E-02    0.408E-02
RMM:   9    -0.192875718624E+03    0.20553E-04   -0.21487E-05  3674   0.743E-03    0.198E-02
RMM:  10    -0.192875715439E+03    0.31858E-05   -0.78625E-06  3422   0.430E-03    0.137E-02
RMM:  11    -0.192875713739E+03    0.16999E-05   -0.52293E-06  2886   0.354E-03    0.848E-03
RMM:  12    -0.192875713366E+03    0.37310E-06   -0.45964E-06  2792   0.338E-03
  13 F= -.19287571E+03 E0= -.19275114E+03  d E =-.341000E-02
       N       E                     dE             d eps       ncg     rms          rms(c)
DAV:   1    -0.192875679468E+03    0.34270E-04   -0.48132E-02  3816   0.335E-01    0.233E-02
RMM:   2    -0.192875754517E+03   -0.75048E-04   -0.60537E-04  3684   0.507E-02    0.481E-02
RMM:   3    -0.192875737718E+03    0.16799E-04   -0.48889E-05  3710   0.115E-02    0.283E-02
RMM:   4    -0.192875733439E+03    0.42793E-05   -0.80673E-06  3278   0.475E-03    0.214E-02
RMM:   5    -0.192875730261E+03    0.31777E-05   -0.25836E-06  2383   0.285E-03    0.105E-02
RMM:   6    -0.192875731868E+03   -0.16072E-05   -0.66510E-06  3109   0.410E-03    0.122E-02
RMM:   7    -0.192875730991E+03    0.87708E-06   -0.59961E-06  3007   0.397E-03
  14 F= -.19287573E+03 E0= -.19275119E+03  d E =-.342762E-02
       N       E                     dE             d eps       ncg     rms          rms(c)
DAV:   1    -0.192875635269E+03    0.96599E-04   -0.15438E+00  3672   0.191E+00    0.132E-01
RMM:   2    -0.192877748879E+03   -0.21136E-02   -0.18549E-02  3682   0.284E-01    0.224E-01
RMM:   3    -0.192877570717E+03    0.17816E-03   -0.14254E-03  3705   0.625E-02    0.170E-01
RMM:   4    -0.192877369346E+03    0.20137E-03   -0.26631E-04  3684   0.266E-02    0.117E-01
RMM:   5    -0.192877258011E+03    0.11134E-03   -0.10799E-04  3682   0.170E-02    0.604E-02
RMM:   6    -0.192877289003E+03   -0.30992E-04   -0.17500E-04  3681   0.204E-02    0.786E-02
RMM:   7    -0.192877248843E+03    0.40160E-04   -0.18166E-04  3681   0.211E-02    0.346E-02
RMM:   8    -0.192877240689E+03    0.81540E-05   -0.26094E-05  3675   0.816E-03    0.198E-02
RMM:   9    -0.192877235397E+03    0.52920E-05   -0.67383E-06  3481   0.411E-03    0.116E-02
RMM:  10    -0.192877234125E+03    0.12725E-05   -0.21229E-06  2128   0.241E-03    0.723E-03
RMM:  11    -0.192877233623E+03    0.50134E-06   -0.22060E-06  1960   0.250E-03
  15 F= -.19287723E+03 E0= -.19275283E+03  d E =-.150263E-02
       N       E                     dE             d eps       ncg     rms          rms(c)
DAV:   1    -0.192877061440E+03    0.17268E-03   -0.30597E-01  3684   0.852E-01    0.590E-02
RMM:   2    -0.192877491664E+03   -0.43022E-03   -0.37034E-03  3682   0.127E-01    0.106E-01
RMM:   3    -0.192877436591E+03    0.55073E-04   -0.28756E-04  3705   0.281E-02    0.745E-02
RMM:   4    -0.192877400614E+03    0.35977E-04   -0.52438E-05  3684   0.118E-02    0.520E-02
RMM:   5    -0.192877379949E+03    0.20665E-04   -0.21033E-05  3678   0.755E-03    0.269E-02
RMM:   6    -0.192877387917E+03   -0.79670E-05   -0.35615E-05  3679   0.921E-03    0.352E-02
RMM:   7    -0.192877380213E+03    0.77039E-05   -0.36278E-05  3681   0.942E-03    0.157E-02
RMM:   8    -0.192877378471E+03    0.17417E-05   -0.51292E-06  2867   0.367E-03    0.853E-03
RMM:   9    -0.192877377500E+03    0.97040E-06   -0.13019E-06  1968   0.196E-03
  16 F= -.19287738E+03 E0= -.19275304E+03  d E =-.164651E-02
       N       E                     dE             d eps       ncg     rms          rms(c)
DAV:   1    -0.192876916334E+03    0.46214E-03   -0.98372E-01  3672   0.153E+00    0.983E-02
RMM:   2    -0.192878087780E+03   -0.11714E-02   -0.11451E-02  3682   0.226E-01    0.128E-01
RMM:   3    -0.192878163483E+03   -0.75703E-04   -0.81919E-04  3709   0.480E-02    0.151E-01
RMM:   4    -0.192877965922E+03    0.19756E-03   -0.13493E-04  3684   0.193E-02    0.763E-02
RMM:   5    -0.192877939469E+03    0.26454E-04   -0.60736E-05  3682   0.127E-02    0.548E-02
RMM:   6    -0.192877948447E+03   -0.89784E-05   -0.10476E-04  3682   0.158E-02    0.571E-02
RMM:   7    -0.192877928017E+03    0.20430E-04   -0.10482E-04  3683   0.160E-02    0.230E-02
RMM:   8    -0.192877926077E+03    0.19395E-05   -0.13705E-05  3617   0.591E-03    0.166E-02
RMM:   9    -0.192877922462E+03    0.36155E-05   -0.35246E-06  2577   0.308E-03    0.830E-03
RMM:  10    -0.192877921801E+03    0.66050E-06   -0.12023E-06  1947   0.194E-03
  17 F= -.19287792E+03 E0= -.19275368E+03  d E =-.544301E-03
       N       E                     dE             d eps       ncg     rms          rms(c)
DAV:   1    -0.192877917917E+03    0.45451E-05   -0.34235E-03  3876   0.900E-02    0.688E-03
RMM:   2    -0.192877922561E+03   -0.46446E-05   -0.44365E-05  3683   0.139E-02    0.103E-02
RMM:   3    -0.192877922408E+03    0.15322E-06   -0.33898E-06  2510   0.325E-03
  18 F= -.19287792E+03 E0= -.19275368E+03  d E =-.544908E-03
