<?xml version="1.0" encoding="ISO-8859-1"?>
<modeling>
 <generator>
  <i name="program" type="string">vasp </i>
  <i name="version" type="string">5.4.1  </i>
  <i name="subversion" type="string">24Jun15 (build Mar 14 2019 10:18:33) complex                          parallel </i>
  <i name="platform" type="string">INTEL-19.0.2+OPENMPI-3.1.3 </i>
  <i name="date" type="string">2023 01 31 </i>
  <i name="time" type="string">00:17:08 </i>
 </generator>
 <incar>
  <i type="int" name="ISTART">     0</i>
  <i type="string" name="PREC">normal</i>
  <i type="string" name="ALGO"> Fast</i>
  <i type="int" name="NELM">   500</i>
  <i type="int" name="IBRION">     2</i>
  <i type="int" name="NFREE">     2</i>
  <i name="EDIFF">      0.00000100</i>
  <i name="EDIFFG">     -0.02000000</i>
  <i type="int" name="NSW">   500</i>
  <i type="int" name="ISIF">     0</i>
  <i type="int" name="ISYM">     2</i>
  <i name="ENCUT">    400.00000000</i>
  <i name="POTIM">      0.35000000</i>
  <i type="string" name="LREAL"> Auto</i>
  <i type="logical" name="LPLANE"> T  </i>
  <i type="int" name="ISMEAR">     0</i>
  <i name="SIGMA">      0.10000000</i>
  <i type="int" name="NWRITE">     1</i>
  <i type="logical" name="LWAVE"> F  </i>
  <i type="logical" name="LCHARG"> F  </i>
  <i type="logical" name="LVTOT"> F  </i>
  <i type="logical" name="LORBIT"> F  </i>
  <i type="logical" name="LAECHG"> F  </i>
  <v type="int" name="KPOINT_BSE">    -1     0     0     0</v>
  <i type="int" name="NELM">   500</i>
  <i type="string" name="GGA"> PE          ! optPBE-vdW XC-functional</i>
  <i type="int" name="VOSKOWN">     1</i>
  <i type="logical" name="LDIPOL"> T  </i>
  <i type="logical" name="LMONO"> F  </i>
  <i type="int" name="IDIPOL">     3</i>
  <v name="DIPOL">      0.00000000      0.00000000      0.50000000</v>
 </incar>
 <kpoints>
  <generation param="Monkhorst-Pack">
   <v type="int" name="divisions">       2        2        1 </v>
   <v name="usershift">      0.00000000       0.00000000       0.00000000 </v>
   <v name="genvec1">      0.50000000      -0.00000000       0.00000000 </v>
   <v name="genvec2">      0.00000000       0.50000000       0.00000000 </v>
   <v name="genvec3">      0.00000000       0.00000000       1.00000000 </v>
   <v name="shift">      0.50000000       0.50000000       0.00000000 </v>
  </generation>
  <varray name="kpointlist" >
   <v>       0.25000000       0.25000000       0.00000000 </v>
   <v>       0.00000000       0.25000000       0.00000000 </v>
   <v>      -0.25000000       0.00000000       0.00000000 </v>
   <v>      -0.25000000       0.25000000       0.00000000 </v>
   <v>       0.50000000      -0.25000000       0.00000000 </v>
   <v>      -0.25000000       0.50000000       0.00000000 </v>
  </varray>
  <varray name="weights" >
   <v>       0.16666667 </v>
   <v>       0.16666667 </v>
   <v>       0.16666667 </v>
   <v>       0.16666667 </v>
   <v>       0.16666667 </v>
   <v>       0.16666667 </v>
  </varray>
 </kpoints>
 <parameters>
  <separator name="general" >
   <i type="string" name="SYSTEM">unknown system</i>
   <i type="logical" name="LCOMPAT"> F  </i>
  </separator>
  <separator name="electronic" >
   <i type="string" name="PREC">normal</i>
   <i name="ENMAX">    400.00000000</i>
   <i name="ENAUG">    416.23000000</i>
   <i name="EDIFF">      0.00000100</i>
   <i type="int" name="IALGO">    68</i>
   <i type="int" name="IWAVPR">    11</i>
   <i type="int" name="NBANDS">   306</i>
   <i name="NELECT">    504.00000000</i>
   <i type="int" name="TURBO">     0</i>
   <i type="int" name="IRESTART">     0</i>
   <i type="int" name="NREBOOT">     0</i>
   <i type="int" name="NMIN">     0</i>
   <i name="EREF">      0.00000000</i>
   <separator name="electronic smearing" >
    <i type="int" name="ISMEAR">     0</i>
    <i name="SIGMA">      0.10000000</i>
    <i name="KSPACING">      0.50000000</i>
    <i type="logical" name="KGAMMA"> T  </i>
   </separator>
   <separator name="electronic projectors" >
    <i type="logical" name="LREAL"> T  </i>
    <v name="ROPT">     -0.00050000     -0.00050000</v>
    <i type="int" name="LMAXPAW">  -100</i>
    <i type="int" name="LMAXMIX">     2</i>
    <i type="logical" name="NLSPLINE"> F  </i>
   </separator>
   <separator name="electronic startup" >
    <i type="int" name="ISTART">     0</i>
    <i type="int" name="ICHARG">     2</i>
    <i type="int" name="INIWAV">     1</i>
   </separator>
   <separator name="electronic spin" >
    <i type="int" name="ISPIN">     1</i>
    <i type="logical" name="LNONCOLLINEAR"> F  </i>
    <v name="MAGMOM">      1.00000000      1.00000000      1.00000000      1.00000000      1.00000000      1.00000000      1.00000000      1.00000000      1.00000000      1.00000000      1.00000000      1.00000000      1.00000000      1.00000000      1.00000000      1.00000000      1.00000000      1.00000000      1.00000000      1.00000000
      1.00000000      1.00000000      1.00000000      1.00000000      1.00000000      1.00000000      1.00000000      1.00000000      1.00000000      1.00000000      1.00000000      1.00000000      1.00000000      1.00000000      1.00000000      1.00000000      1.00000000      1.00000000      1.00000000      1.00000000
      1.00000000      1.00000000      1.00000000      1.00000000      1.00000000      1.00000000      1.00000000      1.00000000</v>
    <i name="NUPDOWN">     -1.00000000</i>
    <i type="logical" name="LSORBIT"> F  </i>
    <v name="SAXIS">      0.00000000      0.00000000      1.00000000</v>
    <i type="logical" name="LSPIRAL"> F  </i>
    <v name="QSPIRAL">      0.00000000      0.00000000      0.00000000</v>
    <i type="logical" name="LZEROZ"> F  </i>
   </separator>
   <separator name="electronic exchange-correlation" >
    <i type="logical" name="LASPH"> F  </i>
    <i type="logical" name="LMETAGGA"> F  </i>
   </separator>
   <separator name="electronic convergence" >
    <i type="int" name="NELM">   500</i>
    <i type="int" name="NELMDL">    -5</i>
    <i type="int" name="NELMIN">     2</i>
    <i name="ENINI">    400.00000000</i>
    <separator name="electronic convergence detail" >
     <i type="logical" name="LDIAG"> T  </i>
     <i type="logical" name="LSUBROT"> F  </i>
     <i name="WEIMIN">      0.00100000</i>
     <i name="EBREAK">      0.00000000</i>
     <i name="DEPER">      0.30000000</i>
     <i type="int" name="NRMM">     4</i>
     <i name="TIME">      0.40000000</i>
    </separator>
   </separator>
   <separator name="electronic mixer" >
    <i name="AMIX">      0.40000000</i>
    <i name="BMIX">      1.00000000</i>
    <i name="AMIN">      0.10000000</i>
    <i name="AMIX_MAG">      1.60000000</i>
    <i name="BMIX_MAG">      1.00000000</i>
    <separator name="electronic mixer details" >
     <i type="int" name="IMIX">     4</i>
     <i type="logical" name="MIXFIRST"> F  </i>
     <i type="int" name="MAXMIX">   -45</i>
     <i name="WC">    100.00000000</i>
     <i type="int" name="INIMIX">     1</i>
     <i type="int" name="MIXPRE">     1</i>
     <i type="int" name="MREMOVE">     5</i>
    </separator>
   </separator>
   <separator name="electronic dipolcorrection" >
    <i type="logical" name="LDIPOL"> T  </i>
    <i type="logical" name="LMONO"> F  </i>
    <i type="int" name="IDIPOL">     3</i>
    <i name="EPSILON">      1.00000000</i>
    <v name="DIPOL">      0.00000000      0.00000000      0.50000000</v>
    <i name="EFIELD">      0.00000000</i>
   </separator>
  </separator>
  <separator name="grids" >
   <i type="int" name="NGX">    54</i>
   <i type="int" name="NGY">    54</i>
   <i type="int" name="NGZ">   120</i>
   <i type="int" name="NGXF">   108</i>
   <i type="int" name="NGYF">   108</i>
   <i type="int" name="NGZF">   240</i>
   <i type="logical" name="ADDGRID"> F  </i>
  </separator>
  <separator name="ionic" >
   <i type="int" name="NSW">   500</i>
   <i type="int" name="IBRION">     2</i>
   <i type="int" name="ISIF">     0</i>
   <i name="PSTRESS">      0.00000000</i>
   <i name="EDIFFG">     -0.02000000</i>
   <i type="int" name="NFREE">     2</i>
   <i name="POTIM">      0.35000000</i>
   <i name="SMASS">     -3.00000000</i>
   <i name="SCALEE">      1.00000000</i>
  </separator>
  <separator name="ionic md" >
   <i name="TEBEG">      0.00010000</i>
   <i name="TEEND">      0.00010000</i>
   <i type="int" name="NBLOCK">     1</i>
   <i type="int" name="KBLOCK">   500</i>
   <i type="int" name="NPACO">   256</i>
   <i name="APACO">     16.00000000</i>
  </separator>
  <separator name="symmetry" >
   <i type="int" name="ISYM">     2</i>
   <i name="SYMPREC">      0.00001000</i>
  </separator>
  <separator name="dos" >
   <i type="logical" name="LORBIT"> F  </i>
   <v name="RWIGS">     -1.00000000     -1.00000000</v>
   <i type="int" name="NEDOS">   301</i>
   <i name="EMIN">     10.00000000</i>
   <i name="EMAX">    -10.00000000</i>
   <i name="EFERMI">      0.00000000</i>
  </separator>
  <separator name="writing" >
   <i type="int" name="NWRITE">     1</i>
   <i type="logical" name="LWAVE"> F  </i>
   <i type="logical" name="LCHARG"> F  </i>
   <i type="logical" name="LPARD"> F  </i>
   <i type="logical" name="LVTOT"> F  </i>
   <i type="logical" name="LVHAR"> F  </i>
   <i type="logical" name="LELF"> F  </i>
   <i type="logical" name="LOPTICS"> F  </i>
   <v name="STM">      0.00000000      0.00000000      0.00000000      0.00000000      0.00000000      0.00000000      0.00000000</v>
  </separator>
  <separator name="performance" >
   <i type="int" name="NPAR">     6</i>
   <i type="int" name="NSIM">     4</i>
   <i type="int" name="NBLK">    -1</i>
   <i type="logical" name="LPLANE"> T  </i>
   <i type="logical" name="LSCALAPACK"> T  </i>
   <i type="logical" name="LSCAAWARE"> F  </i>
   <i type="logical" name="LSCALU"> F  </i>
   <i type="logical" name="LASYNC"> F  </i>
   <i type="logical" name="LORBITALREAL"> F  </i>
  </separator>
  <separator name="miscellaneous" >
   <i type="int" name="IDIOT">     3</i>
   <i type="logical" name="LMUSIC"> F  </i>
   <v name="POMASS">    196.96600000    106.42000000</v>
   <v name="DARWINR">      0.00000000      0.00000000</v>
   <v name="DARWINV">      1.00000000      1.00000000</v>
   <i type="logical" name="LCORR"> T  </i>
  </separator>
  <i type="logical" name="GGA_COMPAT"> T  </i>
  <i type="logical" name="LBERRY"> F  </i>
  <i type="int" name="ICORELEVEL">     0</i>
  <i type="logical" name="LDAU"> F  </i>
  <i type="int" name="I_CONSTRAINED_M">     0</i>
  <separator name="electronic exchange-correlation" >
   <i type="string" name="GGA">PE</i>
   <i type="int" name="VOSKOWN">     1</i>
   <i type="logical" name="LHFCALC"> F  </i>
   <i type="string" name="PRECFOCK"></i>
   <i type="logical" name="LSYMGRAD"> F  </i>
   <i type="logical" name="LHFONE"> F  </i>
   <i type="logical" name="LRHFCALC"> F  </i>
   <i type="logical" name="LTHOMAS"> F  </i>
   <i type="logical" name="LMODELHF"> F  </i>
   <i name="ENCUT4O">     -1.00000000</i>
   <i type="int" name="EXXOEP">     0</i>
   <i type="int" name="FOURORBIT">     0</i>
   <i name="AEXX">      0.00000000</i>
   <i name="HFALPHA">      0.00000000</i>
   <i name="MCALPHA">      0.00000000</i>
   <i name="ALDAX">      1.00000000</i>
   <i name="AGGAX">      1.00000000</i>
   <i name="ALDAC">      1.00000000</i>
   <i name="AGGAC">      1.00000000</i>
   <i type="int" name="NKREDX">     1</i>
   <i type="int" name="NKREDY">     1</i>
   <i type="int" name="NKREDZ">     1</i>
   <i type="logical" name="SHIFTRED"> F  </i>
   <i type="logical" name="ODDONLY"> F  </i>
   <i type="logical" name="EVENONLY"> F  </i>
   <i type="int" name="LMAXFOCK">     0</i>
   <i type="int" name="NMAXFOCKAE">     0</i>
   <i type="logical" name="LFOCKAEDFT"> F  </i>
   <i name="HFSCREEN">      0.00000000</i>
   <i name="HFSCREENC">      0.00000000</i>
   <i type="int" name="NBANDSGWLOW">     0</i>
  </separator>
  <separator name="vdW DFT" >
   <i type="logical" name="LUSE_VDW"> F  </i>
   <i name="Zab_VDW">     -0.84910000</i>
   <i name="PARAM1">      0.12340000</i>
   <i name="PARAM2">      1.00000000</i>
   <i name="PARAM3">      0.00000000</i>
  </separator>
  <separator name="model GW" >
   <i type="int" name="MODEL_GW">     0</i>
   <i name="MODEL_EPS0">     32.09595293</i>
   <i name="MODEL_ALPHA">      1.00000000</i>
  </separator>
  <separator name="linear response parameters" >
   <i type="logical" name="LEPSILON"> F  </i>
   <i type="logical" name="LRPA"> F  </i>
   <i type="logical" name="LNABLA"> F  </i>
   <i type="logical" name="LVEL"> F  </i>
   <i type="int" name="KINTER">     0</i>
   <i name="CSHIFT">      0.10000000</i>
   <i name="OMEGAMAX">     -1.00000000</i>
   <i name="DEG_THRESHOLD">      0.00200000</i>
  </separator>
  <separator name="orbital magnetization" >
   <i type="logical" name="NUCIND"> F  </i>
   <v name="MAGPOS">      0.00000000      0.00000000      0.00000000</v>
   <i type="logical" name="LNICSALL"> T  </i>
   <i type="logical" name="ORBITALMAG"> F  </i>
   <i type="logical" name="LMAGBLOCH"> F  </i>
   <i type="logical" name="LCHIMAG"> F  </i>
   <i type="logical" name="LGAUGE"> T  </i>
   <i type="int" name="MAGATOM">     0</i>
   <v name="MAGDIPOL">      0.00000000      0.00000000      0.00000000</v>
   <v name="AVECCONST">      0.00000000      0.00000000      0.00000000</v>
  </separator>
  <separator name="response functions" >
   <i type="logical" name="LADDER"> F  </i>
   <i type="logical" name="LFXC"> F  </i>
   <i type="logical" name="LHARTREE"> T  </i>
   <i type="int" name="IBSE">     0</i>
   <v type="int" name="KPOINT">    -1     0     0     0</v>
   <i type="logical" name="LTCTE"> F  </i>
   <i type="logical" name="LTETE"> F  </i>
   <i type="logical" name="LTRIPLET"> F  </i>
   <i type="logical" name="LFXCEPS"> F  </i>
   <i type="logical" name="LFXHEG"> F  </i>
   <i type="int" name="NATURALO">     0</i>
   <i type="logical" name="L2ORDER"> F  </i>
   <i type="logical" name="LUSEW"> F  </i>
   <i name="ENCUTGW">     -2.00000000</i>
   <i name="ENCUTGWSOFT">     -2.00000000</i>
   <i name="ENCUTLF">     -1.00000000</i>
   <i type="int" name="LMAXMP2">    -1</i>
   <i name="SCISSOR">      0.00000000</i>
   <i type="int" name="NOMEGA">     0</i>
   <i type="int" name="NOMEGAR">     0</i>
   <i type="int" name="NBANDSGW">    -1</i>
   <i type="int" name="NBANDSO">    -1</i>
   <i type="int" name="NBANDSV">    -1</i>
   <i type="int" name="NELM">   500</i>
   <i type="int" name="NELMHF">     1</i>
   <i type="int" name="DIM">     3</i>
   <i type="int" name="ANTIRES">     0</i>
   <i name="OMEGAMAX">    -30.00000000</i>
   <i name="OMEGAMIN">    -30.00000000</i>
   <i name="OMEGATL">   -200.00000000</i>
   <i type="int" name="OMEGAGRID">     0</i>
   <i name="CSHIFT">     -0.10000000</i>
   <i type="logical" name="SELFENERGY"> F  </i>
   <i type="logical" name="LSPECTRAL"> F  </i>
   <i type="logical" name="LSPECTRALGW"> F  </i>
   <i type="logical" name="LSINGLES"> F  </i>
   <i type="logical" name="LFERMIGW"> F  </i>
   <i type="logical" name="ODDONLYGW"> F  </i>
   <i type="logical" name="EVENONLYGW"> F  </i>
   <i type="int" name="NKREDLFX">     1</i>
   <i type="int" name="NKREDLFY">     1</i>
   <i type="int" name="NKREDLFZ">     1</i>
   <i type="int" name="MAXMEM">  1800</i>
   <i type="int" name="TELESCOPE">     0</i>
   <i type="int" name="TAUPAR">     1</i>
   <i type="int" name="OMEGAPAR">    -1</i>
   <i name="LAMBDA">      1.00000000</i>
  </separator>
  <separator name="External order field" >
   <i name="OFIELD_KAPPA">      0.00000000</i>
   <v name="OFIELD_K">      0.00000000      0.00000000      0.00000000</v>
   <i name="OFIELD_Q6_NEAR">      0.00000000</i>
   <i name="OFIELD_Q6_FAR">      0.00000000</i>
   <i name="OFIELD_A">      0.00000000</i>
  </separator>
 </parameters>
 <atominfo>
  <atoms>      48 </atoms>
  <types>       2 </types>
  <array name="atoms" >
   <dimension dim="1">ion</dimension>
   <field type="string">element</field>
   <field type="int">atomtype</field>
   <set>
    <rc><c>Au</c><c>   1</c></rc>
    <rc><c>Au</c><c>   1</c></rc>
    <rc><c>Au</c><c>   1</c></rc>
    <rc><c>Au</c><c>   1</c></rc>
    <rc><c>Au</c><c>   1</c></rc>
    <rc><c>Au</c><c>   1</c></rc>
    <rc><c>Au</c><c>   1</c></rc>
    <rc><c>Au</c><c>   1</c></rc>
    <rc><c>Au</c><c>   1</c></rc>
    <rc><c>Au</c><c>   1</c></rc>
    <rc><c>Au</c><c>   1</c></rc>
    <rc><c>Au</c><c>   1</c></rc>
    <rc><c>Au</c><c>   1</c></rc>
    <rc><c>Au</c><c>   1</c></rc>
    <rc><c>Au</c><c>   1</c></rc>
    <rc><c>Au</c><c>   1</c></rc>
    <rc><c>Au</c><c>   1</c></rc>
    <rc><c>Au</c><c>   1</c></rc>
    <rc><c>Au</c><c>   1</c></rc>
    <rc><c>Au</c><c>   1</c></rc>
    <rc><c>Au</c><c>   1</c></rc>
    <rc><c>Au</c><c>   1</c></rc>
    <rc><c>Au</c><c>   1</c></rc>
    <rc><c>Au</c><c>   1</c></rc>
    <rc><c>Pd</c><c>   2</c></rc>
    <rc><c>Pd</c><c>   2</c></rc>
    <rc><c>Pd</c><c>   2</c></rc>
    <rc><c>Pd</c><c>   2</c></rc>
    <rc><c>Pd</c><c>   2</c></rc>
    <rc><c>Pd</c><c>   2</c></rc>
    <rc><c>Pd</c><c>   2</c></rc>
    <rc><c>Pd</c><c>   2</c></rc>
    <rc><c>Pd</c><c>   2</c></rc>
    <rc><c>Pd</c><c>   2</c></rc>
    <rc><c>Pd</c><c>   2</c></rc>
    <rc><c>Pd</c><c>   2</c></rc>
    <rc><c>Pd</c><c>   2</c></rc>
    <rc><c>Pd</c><c>   2</c></rc>
    <rc><c>Pd</c><c>   2</c></rc>
    <rc><c>Pd</c><c>   2</c></rc>
    <rc><c>Pd</c><c>   2</c></rc>
    <rc><c>Pd</c><c>   2</c></rc>
    <rc><c>Pd</c><c>   2</c></rc>
    <rc><c>Pd</c><c>   2</c></rc>
    <rc><c>Pd</c><c>   2</c></rc>
    <rc><c>Pd</c><c>   2</c></rc>
    <rc><c>Pd</c><c>   2</c></rc>
    <rc><c>Pd</c><c>   2</c></rc>
   </set>
  </array>
  <array name="atomtypes" >
   <dimension dim="1">type</dimension>
   <field type="int">atomspertype</field>
   <field type="string">element</field>
   <field>mass</field>
   <field>valence</field>
   <field type="string">pseudopotential</field>
   <set>
    <rc><c>  24</c><c>Au</c><c>    196.96600000</c><c>     11.00000000</c><c>  PAW_PBE Au 04Oct2007                  </c></rc>
    <rc><c>  24</c><c>Pd</c><c>    106.42000000</c><c>     10.00000000</c><c>  PAW_PBE Pd 04Jan2005                  </c></rc>
   </set>
  </array>
 </atominfo>
 <structure name="initialpos" >
  <crystal>
   <varray name="basis" >
    <v>      11.00258152       0.00000000       0.00000000 </v>
    <v>       5.50129076       9.52851510       0.00000000 </v>
    <v>       0.00000000       0.00000000      24.49178509 </v>
   </varray>
   <i name="volume">   2567.67623402 </i>
   <varray name="rec_basis" >
    <v>       0.09088776      -0.05247407       0.00000000 </v>
    <v>       0.00000000       0.10494815       0.00000000 </v>
    <v>       0.00000000       0.00000000       0.04083002 </v>
   </varray>
  </crystal>
  <varray name="positions" >
   <v>       0.08333333       0.08333333       0.40830017 </v>
   <v>       0.91666667       0.41666667       0.50000000 </v>
   <v>       0.08333333       0.33333333       0.40830017 </v>
   <v>       0.00000000       0.75000000       0.59169983 </v>
   <v>       0.16666667       0.16666667       0.50000000 </v>
   <v>       0.25000000       0.00000000       0.59169983 </v>
   <v>       0.25000000       0.75000000       0.59169983 </v>
   <v>       0.25000000       0.25000000       0.59169983 </v>
   <v>       0.58333333       0.58333333       0.40830017 </v>
   <v>       0.83333333       0.83333333       0.40830017 </v>
   <v>       0.75000000       0.50000000       0.59169983 </v>
   <v>       0.75000000       0.25000000       0.59169983 </v>
   <v>       0.00000000       0.25000000       0.59169983 </v>
   <v>       0.83333333       0.08333333       0.40830017 </v>
   <v>       0.58333333       0.83333333       0.40830017 </v>
   <v>       0.50000000       0.25000000       0.59169983 </v>
   <v>       0.33333333       0.58333333       0.40830017 </v>
   <v>       0.41666667       0.41666667       0.50000000 </v>
   <v>       0.58333333       0.33333333       0.40830017 </v>
   <v>       0.66666667       0.91666667       0.50000000 </v>
   <v>       0.33333333       0.83333333       0.40830017 </v>
   <v>       0.25000000       0.50000000       0.59169983 </v>
   <v>       0.16666667       0.66666667       0.50000000 </v>
   <v>       0.66666667       0.41666667       0.50000000 </v>
   <v>       0.91666667       0.66666667       0.50000000 </v>
   <v>       0.00000000       0.50000000       0.59169983 </v>
   <v>       0.08333333       0.83333333       0.40830017 </v>
   <v>       0.91666667       0.91666667       0.50000000 </v>
   <v>       0.33333333       0.08333333       0.40830017 </v>
   <v>       0.41666667       0.16666667       0.50000000 </v>
   <v>       0.58333333       0.08333333       0.40830017 </v>
   <v>       0.16666667       0.91666667       0.50000000 </v>
   <v>       0.41666667       0.66666667       0.50000000 </v>
   <v>       0.50000000       0.00000000       0.59169983 </v>
   <v>       0.16666667       0.41666667       0.50000000 </v>
   <v>       0.75000000       0.00000000       0.59169983 </v>
   <v>       0.41666667       0.91666667       0.50000000 </v>
   <v>       0.50000000       0.75000000       0.59169983 </v>
   <v>       0.66666667       0.16666667       0.50000000 </v>
   <v>       0.83333333       0.33333333       0.40830017 </v>
   <v>       0.83333333       0.58333333       0.40830017 </v>
   <v>       0.66666667       0.66666667       0.50000000 </v>
   <v>       0.00000000       0.00000000       0.59169983 </v>
   <v>       0.91666667       0.16666667       0.50000000 </v>
   <v>       0.33333333       0.33333333       0.40830017 </v>
   <v>       0.08333333       0.58333333       0.40830017 </v>
   <v>       0.50000000       0.50000000       0.59169983 </v>
   <v>       0.75000000       0.75000000       0.59169983 </v>
  </varray>
  <varray name="selective"  type="logical" >
   <v type="logical" >  F  F  F </v>
   <v type="logical" >  T  T  T </v>
   <v type="logical" >  F  F  F </v>
   <v type="logical" >  T  T  T </v>
   <v type="logical" >  T  T  T </v>
   <v type="logical" >  T  T  T </v>
   <v type="logical" >  T  T  T </v>
   <v type="logical" >  T  T  T </v>
   <v type="logical" >  F  F  F </v>
   <v type="logical" >  F  F  F </v>
   <v type="logical" >  T  T  T </v>
   <v type="logical" >  T  T  T </v>
   <v type="logical" >  T  T  T </v>
   <v type="logical" >  F  F  F </v>
   <v type="logical" >  F  F  F </v>
   <v type="logical" >  T  T  T </v>
   <v type="logical" >  F  F  F </v>
   <v type="logical" >  T  T  T </v>
   <v type="logical" >  F  F  F </v>
   <v type="logical" >  T  T  T </v>
   <v type="logical" >  F  F  F </v>
   <v type="logical" >  T  T  T </v>
   <v type="logical" >  T  T  T </v>
   <v type="logical" >  T  T  T </v>
   <v type="logical" >  T  T  T </v>
   <v type="logical" >  T  T  T </v>
   <v type="logical" >  F  F  F </v>
   <v type="logical" >  T  T  T </v>
   <v type="logical" >  F  F  F </v>
   <v type="logical" >  T  T  T </v>
   <v type="logical" >  F  F  F </v>
   <v type="logical" >  T  T  T </v>
   <v type="logical" >  T  T  T </v>
   <v type="logical" >  T  T  T </v>
   <v type="logical" >  T  T  T </v>
   <v type="logical" >  T  T  T </v>
   <v type="logical" >  T  T  T </v>
   <v type="logical" >  T  T  T </v>
   <v type="logical" >  T  T  T </v>
   <v type="logical" >  F  F  F </v>
   <v type="logical" >  F  F  F </v>
   <v type="logical" >  T  T  T </v>
   <v type="logical" >  T  T  T </v>
   <v type="logical" >  T  T  T </v>
   <v type="logical" >  F  F  F </v>
   <v type="logical" >  F  F  F </v>
   <v type="logical" >  T  T  T </v>
   <v type="logical" >  T  T  T </v>
  </varray>
  <nose>
   <v>      -3.00000000       0.00000000       0.00010000       0.00010000 </v>
  </nose>
 </structure>
 <calculation>
  <scstep>
   <time name="dav">    6.85    6.87</time>
   <time name="total">    6.91    6.93</time>
   <dipole>
    <v name="dipole">      0.00000000       0.00000000       0.00000000 </v>
    <i name="Tr[quadrupol]"> -10277.32212614 </i>
    <i name="Echarged">      0.00000000 </i>
    <i name="Edipol_quadrupol">      0.00000000 </i>
    <i name="Eion">      0.00000000 </i>
   </dipole>
   <energy>
    <i name="alphaZ">    805.86936429 </i>
    <i name="ewald"> 199688.30332919 </i>
    <i name="hartreedc">-242100.45958786 </i>
    <i name="XCdc">   -327.75717285 </i>
    <i name="pawpsdc">  40340.05962942 </i>
    <i name="pawaedc"> -38292.62782345 </i>
    <i name="eentropy">     -0.12355621 </i>
    <i name="bandstr">   1427.11427885 </i>
    <i name="atom">  41659.78587232 </i>
    <i name="e_fr_energy">   3200.16433370 </i>
    <i name="e_wo_entrp">   3200.28788991 </i>
    <i name="e_0_energy">   3200.22611181 </i>
   </energy>
  </scstep>
  <scstep>
   <time name="dav">    7.84    7.86</time>
   <time name="total">    7.85    7.87</time>
   <dipole>
    <v name="dipole">      0.00000000       0.00000000       0.00000000 </v>
    <i name="Tr[quadrupol]"> -10277.32212614 </i>
    <i name="Echarged">      0.00000000 </i>
    <i name="Edipol_quadrupol">      0.00000000 </i>
    <i name="Eion">      0.00000000 </i>
   </dipole>
   <energy>
    <i name="e_fr_energy">     15.21096837 </i>
    <i name="e_wo_entrp">     15.33461355 </i>
    <i name="e_0_energy">     15.27279096 </i>
   </energy>
  </scstep>
  <scstep>
   <time name="dav">    7.85    7.87</time>
   <time name="total">    7.86    7.88</time>
   <dipole>
    <v name="dipole">      0.00000000       0.00000000       0.00000000 </v>
    <i name="Tr[quadrupol]"> -10277.32212614 </i>
    <i name="Echarged">      0.00000000 </i>
    <i name="Edipol_quadrupol">      0.00000000 </i>
    <i name="Eion">      0.00000000 </i>
   </dipole>
   <energy>
    <i name="e_fr_energy">   -201.34372581 </i>
    <i name="e_wo_entrp">   -201.16493469 </i>
    <i name="e_0_energy">   -201.25433025 </i>
   </energy>
  </scstep>
  <scstep>
   <time name="dav">    8.00    8.02</time>
   <time name="total">    8.00    8.03</time>
   <dipole>
    <v name="dipole">      0.00000000       0.00000000       0.00000000 </v>
    <i name="Tr[quadrupol]"> -10277.32212614 </i>
    <i name="Echarged">      0.00000000 </i>
    <i name="Edipol_quadrupol">      0.00000000 </i>
    <i name="Eion">      0.00000000 </i>
   </dipole>
   <energy>
    <i name="e_fr_energy">   -207.36470878 </i>
    <i name="e_wo_entrp">   -207.18207057 </i>
    <i name="e_0_energy">   -207.27338968 </i>
   </energy>
  </scstep>
  <scstep>
   <time name="dav">    8.37    8.46</time>
   <time name="total">    8.61    8.71</time>
   <dipole>
    <v name="dipole">      0.00000000       0.00000000       0.00000000 </v>
    <i name="Tr[quadrupol]"> -10277.32212614 </i>
    <i name="Echarged">      0.00000000 </i>
    <i name="Edipol_quadrupol">      0.00000000 </i>
    <i name="Eion">      0.00000000 </i>
   </dipole>
   <energy>
    <i name="e_fr_energy">   -207.55634682 </i>
    <i name="e_wo_entrp">   -207.37353355 </i>
    <i name="e_0_energy">   -207.46494018 </i>
   </energy>
  </scstep>
  <scstep>
   <time name="diag">    1.23    1.24</time>
   <time name="diis">    3.41    3.42</time>
   <time name="orth">    0.30    0.30</time>
   <time name="total">    5.23    5.25</time>
   <dipole>
    <v name="dipole">      0.00000000       0.00000000       0.00040423 </v>
    <i name="Tr[quadrupol]"> -10280.11173014 </i>
    <i name="Echarged">      0.00000000 </i>
    <i name="Edipol_quadrupol">      0.00000000 </i>
    <i name="Eion">      0.00000000 </i>
   </dipole>
   <energy>
    <i name="e_fr_energy">   -200.68640109 </i>
    <i name="e_wo_entrp">   -200.46219637 </i>
    <i name="e_0_energy">   -200.57429873 </i>
   </energy>
  </scstep>
  <scstep>
   <time name="diag">    1.23    1.24</time>
   <time name="diis">    3.36    3.38</time>
   <time name="orth">    0.30    0.30</time>
   <time name="total">    5.18    5.20</time>
   <dipole>
    <v name="dipole">      0.00000000       0.00000000      -0.20354334 </v>
    <i name="Tr[quadrupol]"> -10276.82215808 </i>
    <i name="Echarged">      0.00000000 </i>
    <i name="Edipol_quadrupol">      0.00000000 </i>
    <i name="Eion">      0.00000000 </i>
   </dipole>
   <energy>
    <i name="e_fr_energy">   -199.84330530 </i>
    <i name="e_wo_entrp">   -199.69116070 </i>
    <i name="e_0_energy">   -199.76723300 </i>
   </energy>
  </scstep>
  <scstep>
   <time name="diag">    1.25    1.25</time>
   <time name="diis">    3.44    3.45</time>
   <time name="orth">    0.29    0.30</time>
   <time name="total">    5.27    5.29</time>
   <dipole>
    <v name="dipole">      0.00000000       0.00000000       1.11991797 </v>
    <i name="Tr[quadrupol]"> -10280.39183968 </i>
    <i name="Echarged">      0.00000000 </i>
    <i name="Edipol_quadrupol">      0.00000000 </i>
    <i name="Eion">      0.00000000 </i>
   </dipole>
   <energy>
    <i name="e_fr_energy">   -206.46522236 </i>
    <i name="e_wo_entrp">   -206.23620755 </i>
    <i name="e_0_energy">   -206.35071496 </i>
   </energy>
  </scstep>
  <scstep>
   <time name="diag">    1.23    1.24</time>
   <time name="diis">    3.41    3.42</time>
   <time name="orth">    0.30    0.30</time>
   <time name="total">    5.23    5.25</time>
   <dipole>
    <v name="dipole">      0.00000000       0.00000000      -0.93558132 </v>
    <i name="Tr[quadrupol]"> -10280.83183104 </i>
    <i name="Echarged">      0.00000000 </i>
    <i name="Edipol_quadrupol">      0.00000000 </i>
    <i name="Eion">      0.00000000 </i>
   </dipole>
   <energy>
    <i name="e_fr_energy">   -200.05780712 </i>
    <i name="e_wo_entrp">   -199.81107345 </i>
    <i name="e_0_energy">   -199.93444028 </i>
   </energy>
  </scstep>
  <scstep>
   <time name="diag">    1.23    1.23</time>
   <time name="diis">    3.44    3.45</time>
   <time name="orth">    0.29    0.30</time>
   <time name="total">    5.25    5.27</time>
   <dipole>
    <v name="dipole">      0.00000000       0.00000000       0.21554219 </v>
    <i name="Tr[quadrupol]"> -10280.43014879 </i>
    <i name="Echarged">      0.00000000 </i>
    <i name="Edipol_quadrupol">      0.00000000 </i>
    <i name="Eion">      0.00000000 </i>
   </dipole>
   <energy>
    <i name="e_fr_energy">   -191.74095348 </i>
    <i name="e_wo_entrp">   -191.48890104 </i>
    <i name="e_0_energy">   -191.61492726 </i>
   </energy>
  </scstep>
  <scstep>
   <time name="diag">    1.23    1.24</time>
   <time name="diis">    3.45    3.46</time>
   <time name="orth">    0.29    0.30</time>
   <time name="total">    5.26    5.27</time>
   <dipole>
    <v name="dipole">      0.00000000       0.00000000      -0.06999305 </v>
    <i name="Tr[quadrupol]"> -10280.47017902 </i>
    <i name="Echarged">      0.00000000 </i>
    <i name="Edipol_quadrupol">      0.00000000 </i>
    <i name="Eion">      0.00000000 </i>
   </dipole>
   <energy>
    <i name="e_fr_energy">   -190.21498098 </i>
    <i name="e_wo_entrp">   -189.97814805 </i>
    <i name="e_0_energy">   -190.09656451 </i>
   </energy>
  </scstep>
  <scstep>
   <time name="diag">    1.23    1.24</time>
   <time name="diis">    3.36    3.41</time>
   <time name="orth">    0.29    0.31</time>
   <time name="total">    5.16    5.25</time>
   <dipole>
    <v name="dipole">      0.00000000       0.00000000      -0.00058721 </v>
    <i name="Tr[quadrupol]"> -10281.00907686 </i>
    <i name="Echarged">      0.00000000 </i>
    <i name="Edipol_quadrupol">      0.00000000 </i>
    <i name="Eion">      0.00000000 </i>
   </dipole>
   <energy>
    <i name="e_fr_energy">   -189.73245047 </i>
    <i name="e_wo_entrp">   -189.47131293 </i>
    <i name="e_0_energy">   -189.60188170 </i>
   </energy>
  </scstep>
  <scstep>
   <time name="diag">    1.23    1.23</time>
   <time name="diis">    3.37    3.38</time>
   <time name="orth">    0.29    0.29</time>
   <time name="total">    5.18    5.20</time>
   <dipole>
    <v name="dipole">      0.00000000       0.00000000      -0.00192134 </v>
    <i name="Tr[quadrupol]"> -10281.19470518 </i>
    <i name="Echarged">      0.00000000 </i>
    <i name="Edipol_quadrupol">      0.00000000 </i>
    <i name="Eion">      0.00000000 </i>
   </dipole>
   <energy>
    <i name="e_fr_energy">   -189.71683626 </i>
    <i name="e_wo_entrp">   -189.45670923 </i>
    <i name="e_0_energy">   -189.58677275 </i>
   </energy>
  </scstep>
  <scstep>
   <time name="diag">    1.23    1.24</time>
   <time name="diis">    3.44    3.45</time>
   <time name="orth">    0.29    0.29</time>
   <time name="total">    5.26    5.27</time>
   <dipole>
    <v name="dipole">      0.00000000       0.00000000      -0.04230464 </v>
    <i name="Tr[quadrupol]"> -10281.35183292 </i>
    <i name="Echarged">      0.00000000 </i>
    <i name="Edipol_quadrupol">      0.00000000 </i>
    <i name="Eion">      0.00000000 </i>
   </dipole>
   <energy>
    <i name="e_fr_energy">   -189.62689896 </i>
    <i name="e_wo_entrp">   -189.36741635 </i>
    <i name="e_0_energy">   -189.49715766 </i>
   </energy>
  </scstep>
  <scstep>
   <time name="diag">    1.23    1.23</time>
   <time name="diis">    3.46    3.47</time>
   <time name="orth">    0.29    0.29</time>
   <time name="total">    5.27    5.28</time>
   <dipole>
    <v name="dipole">      0.00000000       0.00000000      -0.01637266 </v>
    <i name="Tr[quadrupol]"> -10281.52654942 </i>
    <i name="Echarged">      0.00000000 </i>
    <i name="Edipol_quadrupol">      0.00000000 </i>
    <i name="Eion">      0.00000000 </i>
   </dipole>
   <energy>
    <i name="e_fr_energy">   -189.58122089 </i>
    <i name="e_wo_entrp">   -189.31362024 </i>
    <i name="e_0_energy">   -189.44742057 </i>
   </energy>
  </scstep>
  <scstep>
   <time name="diag">    1.23    1.24</time>
   <time name="diis">    3.46    3.47</time>
   <time name="orth">    0.29    0.29</time>
   <time name="total">    5.27    5.29</time>
   <dipole>
    <v name="dipole">      0.00000000       0.00000000       0.00687060 </v>
    <i name="Tr[quadrupol]"> -10281.70004113 </i>
    <i name="Echarged">      0.00000000 </i>
    <i name="Edipol_quadrupol">      0.00000000 </i>
    <i name="Eion">      0.00000000 </i>
   </dipole>
   <energy>
    <i name="e_fr_energy">   -189.54528361 </i>
    <i name="e_wo_entrp">   -189.27823861 </i>
    <i name="e_0_energy">   -189.41176111 </i>
   </energy>
  </scstep>
  <scstep>
   <time name="diag">    1.23    1.23</time>
   <time name="diis">    3.43    3.44</time>
   <time name="orth">    0.29    0.29</time>
   <time name="total">    5.24    5.25</time>
   <dipole>
    <v name="dipole">      0.00000000       0.00000000      -0.00542732 </v>
    <i name="Tr[quadrupol]"> -10281.90184123 </i>
    <i name="Echarged">      0.00000000 </i>
    <i name="Edipol_quadrupol">      0.00000000 </i>
    <i name="Eion">      0.00000000 </i>
   </dipole>
   <energy>
    <i name="e_fr_energy">   -189.53984935 </i>
    <i name="e_wo_entrp">   -189.26696187 </i>
    <i name="e_0_energy">   -189.40340561 </i>
   </energy>
  </scstep>
  <scstep>
   <time name="diag">    1.23    1.23</time>
   <time name="diis">    3.45    3.47</time>
   <time name="orth">    0.29    0.29</time>
   <time name="total">    5.25    5.29</time>
   <dipole>
    <v name="dipole">      0.00000000       0.00000000      -0.00402772 </v>
    <i name="Tr[quadrupol]"> -10282.03416842 </i>
    <i name="Echarged">      0.00000000 </i>
    <i name="Edipol_quadrupol">      0.00000000 </i>
    <i name="Eion">      0.00000000 </i>
   </dipole>
   <energy>
    <i name="e_fr_energy">   -189.53171037 </i>
    <i name="e_wo_entrp">   -189.26026737 </i>
    <i name="e_0_energy">   -189.39598887 </i>
   </energy>
  </scstep>
  <scstep>
   <time name="diag">    1.23    1.24</time>
   <time name="diis">    3.45    3.46</time>
   <time name="orth">    0.29    0.29</time>
   <time name="total">    5.25    5.27</time>
   <dipole>
    <v name="dipole">      0.00000000       0.00000000      -0.00759582 </v>
    <i name="Tr[quadrupol]"> -10282.08745881 </i>
    <i name="Echarged">      0.00000000 </i>
    <i name="Edipol_quadrupol">      0.00000000 </i>
    <i name="Eion">      0.00000000 </i>
   </dipole>
   <energy>
    <i name="e_fr_energy">   -189.52896766 </i>
    <i name="e_wo_entrp">   -189.25722146 </i>
    <i name="e_0_energy">   -189.39309456 </i>
   </energy>
  </scstep>
  <scstep>
   <time name="diag">    1.24    1.24</time>
   <time name="diis">    3.33    3.43</time>
   <time name="orth">    0.29    0.29</time>
   <time name="total">    5.15    5.25</time>
   <dipole>
    <v name="dipole">      0.00000000       0.00000000      -0.00896758 </v>
    <i name="Tr[quadrupol]"> -10282.20862942 </i>
    <i name="Echarged">      0.00000000 </i>
    <i name="Edipol_quadrupol">      0.00000000 </i>
    <i name="Eion">      0.00000000 </i>
   </dipole>
   <energy>
    <i name="e_fr_energy">   -189.52815691 </i>
    <i name="e_wo_entrp">   -189.25781434 </i>
    <i name="e_0_energy">   -189.39298562 </i>
   </energy>
  </scstep>
  <scstep>
   <time name="diag">    1.23    1.23</time>
   <time name="diis">    3.43    3.43</time>
   <time name="orth">    0.29    0.29</time>
   <time name="total">    5.24    5.25</time>
   <dipole>
    <v name="dipole">      0.00000000       0.00000000      -0.00617189 </v>
    <i name="Tr[quadrupol]"> -10282.29218657 </i>
    <i name="Echarged">      0.00000000 </i>
    <i name="Edipol_quadrupol">      0.00000000 </i>
    <i name="Eion">      0.00000000 </i>
   </dipole>
   <energy>
    <i name="e_fr_energy">   -189.52770185 </i>
    <i name="e_wo_entrp">   -189.25620525 </i>
    <i name="e_0_energy">   -189.39195355 </i>
   </energy>
  </scstep>
  <scstep>
   <time name="diag">    1.23    1.23</time>
   <time name="diis">    3.40    3.41</time>
   <time name="orth">    0.29    0.29</time>
   <time name="total">    5.21    5.23</time>
   <dipole>
    <v name="dipole">      0.00000000       0.00000000      -0.00500759 </v>
    <i name="Tr[quadrupol]"> -10282.35714876 </i>
    <i name="Echarged">      0.00000000 </i>
    <i name="Edipol_quadrupol">      0.00000000 </i>
    <i name="Eion">      0.00000000 </i>
   </dipole>
   <energy>
    <i name="e_fr_energy">   -189.52777402 </i>
    <i name="e_wo_entrp">   -189.25690054 </i>
    <i name="e_0_energy">   -189.39233728 </i>
   </energy>
  </scstep>
  <scstep>
   <time name="diag">    1.23    1.23</time>
   <time name="diis">    3.46    3.46</time>
   <time name="orth">    0.29    0.29</time>
   <time name="total">    5.26    5.28</time>
   <dipole>
    <v name="dipole">      0.00000000       0.00000000      -0.00402889 </v>
    <i name="Tr[quadrupol]"> -10282.44881709 </i>
    <i name="Echarged">      0.00000000 </i>
    <i name="Edipol_quadrupol">      0.00000000 </i>
    <i name="Eion">      0.00000000 </i>
   </dipole>
   <energy>
    <i name="e_fr_energy">   -189.52797840 </i>
    <i name="e_wo_entrp">   -189.25674974 </i>
    <i name="e_0_energy">   -189.39236407 </i>
   </energy>
  </scstep>
  <scstep>
   <time name="diag">    1.23    1.23</time>
   <time name="diis">    3.39    3.40</time>
   <time name="orth">    0.29    0.29</time>
   <time name="total">    5.21    5.22</time>
   <dipole>
    <v name="dipole">      0.00000000       0.00000000      -0.00423011 </v>
    <i name="Tr[quadrupol]"> -10282.50843521 </i>
    <i name="Echarged">      0.00000000 </i>
    <i name="Edipol_quadrupol">      0.00000000 </i>
    <i name="Eion">      0.00000000 </i>
   </dipole>
   <energy>
    <i name="e_fr_energy">   -189.52831380 </i>
    <i name="e_wo_entrp">   -189.25703255 </i>
    <i name="e_0_energy">   -189.39267317 </i>
   </energy>
  </scstep>
  <scstep>
   <time name="diag">    1.22    1.23</time>
   <time name="diis">    3.45    3.46</time>
   <time name="orth">    0.29    0.29</time>
   <time name="total">    5.26    5.28</time>
   <dipole>
    <v name="dipole">      0.00000000       0.00000000      -0.00342472 </v>
    <i name="Tr[quadrupol]"> -10282.57371954 </i>
    <i name="Echarged">      0.00000000 </i>
    <i name="Edipol_quadrupol">      0.00000000 </i>
    <i name="Eion">      0.00000000 </i>
   </dipole>
   <energy>
    <i name="e_fr_energy">   -189.52884742 </i>
    <i name="e_wo_entrp">   -189.25759109 </i>
    <i name="e_0_energy">   -189.39321926 </i>
   </energy>
  </scstep>
  <scstep>
   <time name="diag">    1.22    1.23</time>
   <time name="diis">    3.47    3.48</time>
   <time name="orth">    0.29    0.29</time>
   <time name="total">    5.28    5.30</time>
   <dipole>
    <v name="dipole">      0.00000000       0.00000000      -0.00329812 </v>
    <i name="Tr[quadrupol]"> -10282.61844835 </i>
    <i name="Echarged">      0.00000000 </i>
    <i name="Edipol_quadrupol">      0.00000000 </i>
    <i name="Eion">      0.00000000 </i>
   </dipole>
   <energy>
    <i name="e_fr_energy">   -189.52929039 </i>
    <i name="e_wo_entrp">   -189.25796687 </i>
    <i name="e_0_energy">   -189.39362863 </i>
   </energy>
  </scstep>
  <scstep>
   <time name="diag">    1.22    1.23</time>
   <time name="diis">    3.47    3.47</time>
   <time name="orth">    0.29    0.29</time>
   <time name="total">    5.27    5.30</time>
   <dipole>
    <v name="dipole">      0.00000000       0.00000000      -0.00264707 </v>
    <i name="Tr[quadrupol]"> -10282.67925112 </i>
    <i name="Echarged">      0.00000000 </i>
    <i name="Edipol_quadrupol">      0.00000000 </i>
    <i name="Eion">      0.00000000 </i>
   </dipole>
   <energy>
    <i name="e_fr_energy">   -189.53001740 </i>
    <i name="e_wo_entrp">   -189.25869187 </i>
    <i name="e_0_energy">   -189.39435463 </i>
   </energy>
  </scstep>
  <scstep>
   <time name="diag">    1.21    1.28</time>
   <time name="diis">    3.18    3.18</time>
   <time name="orth">    0.29    0.29</time>
   <time name="total">    4.97    5.08</time>
   <dipole>
    <v name="dipole">      0.00000000       0.00000000      -0.00245853 </v>
    <i name="Tr[quadrupol]"> -10282.70649897 </i>
    <i name="Echarged">      0.00000000 </i>
    <i name="Edipol_quadrupol">      0.00000000 </i>
    <i name="Eion">      0.00000000 </i>
   </dipole>
   <energy>
    <i name="e_fr_energy">   -189.53040397 </i>
    <i name="e_wo_entrp">   -189.25908305 </i>
    <i name="e_0_energy">   -189.39474351 </i>
   </energy>
  </scstep>
  <scstep>
   <time name="diag">    1.23    1.23</time>
   <time name="diis">    3.10    3.11</time>
   <time name="orth">    0.29    0.29</time>
   <time name="total">    4.92    4.94</time>
   <dipole>
    <v name="dipole">      0.00000000       0.00000000      -0.00215870 </v>
    <i name="Tr[quadrupol]"> -10282.74465569 </i>
    <i name="Echarged">      0.00000000 </i>
    <i name="Edipol_quadrupol">      0.00000000 </i>
    <i name="Eion">      0.00000000 </i>
   </dipole>
   <energy>
    <i name="e_fr_energy">   -189.53088170 </i>
    <i name="e_wo_entrp">   -189.25958097 </i>
    <i name="e_0_energy">   -189.39523133 </i>
   </energy>
  </scstep>
  <scstep>
   <time name="diag">    1.22    1.23</time>
   <time name="diis">    2.99    3.01</time>
   <time name="orth">    0.29    0.29</time>
   <time name="total">    4.80    4.82</time>
   <dipole>
    <v name="dipole">      0.00000000       0.00000000      -0.00183287 </v>
    <i name="Tr[quadrupol]"> -10282.77421804 </i>
    <i name="Echarged">      0.00000000 </i>
    <i name="Edipol_quadrupol">      0.00000000 </i>
    <i name="Eion">      0.00000000 </i>
   </dipole>
   <energy>
    <i name="e_fr_energy">   -189.53117619 </i>
    <i name="e_wo_entrp">   -189.25986399 </i>
    <i name="e_0_energy">   -189.39552009 </i>
   </energy>
  </scstep>
  <scstep>
   <time name="diag">    1.24    1.24</time>
   <time name="diis">    2.58    2.58</time>
   <time name="orth">    0.29    0.29</time>
   <time name="total">    4.39    4.40</time>
   <dipole>
    <v name="dipole">      0.00000000       0.00000000      -0.00173412 </v>
    <i name="Tr[quadrupol]"> -10282.78694175 </i>
    <i name="Echarged">      0.00000000 </i>
    <i name="Edipol_quadrupol">      0.00000000 </i>
    <i name="Eion">      0.00000000 </i>
   </dipole>
   <energy>
    <i name="e_fr_energy">   -189.53129560 </i>
    <i name="e_wo_entrp">   -189.25999742 </i>
    <i name="e_0_energy">   -189.39564651 </i>
   </energy>
  </scstep>
  <scstep>
   <time name="diag">    1.23    1.23</time>
   <time name="diis">    2.26    2.26</time>
   <time name="orth">    0.29    0.29</time>
   <time name="total">    4.07    4.08</time>
   <dipole>
    <v name="dipole">      0.00000000       0.00000000      -0.00170791 </v>
    <i name="Tr[quadrupol]"> -10282.79338886 </i>
    <i name="Echarged">      0.00000000 </i>
    <i name="Edipol_quadrupol">      0.00000000 </i>
    <i name="Eion">      0.00000000 </i>
   </dipole>
   <energy>
    <i name="e_fr_energy">   -189.53137224 </i>
    <i name="e_wo_entrp">   -189.26006836 </i>
    <i name="e_0_energy">   -189.39572030 </i>
   </energy>
  </scstep>
  <scstep>
   <time name="diag">    1.23    1.23</time>
   <time name="diis">    2.10    2.11</time>
   <time name="orth">    0.29    0.29</time>
   <time name="total">    3.91    3.93</time>
   <dipole>
    <v name="dipole">      0.00000000       0.00000000      -0.00158664 </v>
    <i name="Tr[quadrupol]"> -10282.79811577 </i>
    <i name="Echarged">      0.00000000 </i>
    <i name="Edipol_quadrupol">      0.00000000 </i>
    <i name="Eion">      0.00000000 </i>
   </dipole>
   <energy>
    <i name="e_fr_energy">   -189.53142434 </i>
    <i name="e_wo_entrp">   -189.26011381 </i>
    <i name="e_0_energy">   -189.39576908 </i>
   </energy>
  </scstep>
  <scstep>
   <time name="diag">    1.23    1.23</time>
   <time name="diis">    2.10    2.10</time>
   <time name="orth">    0.29    0.29</time>
   <time name="total">    3.91    3.92</time>
   <dipole>
    <v name="dipole">      0.00000000       0.00000000      -0.00150066 </v>
    <i name="Tr[quadrupol]"> -10282.80143224 </i>
    <i name="Echarged">      0.00000000 </i>
    <i name="Edipol_quadrupol">      0.00000000 </i>
    <i name="Eion">      0.00000000 </i>
   </dipole>
   <energy>
    <i name="e_fr_energy">   -189.53145315 </i>
    <i name="e_wo_entrp">   -189.26015161 </i>
    <i name="e_0_energy">   -189.39580238 </i>
   </energy>
  </scstep>
  <scstep>
   <time name="diag">    1.23    1.23</time>
   <time name="diis">    2.10    2.11</time>
   <time name="orth">    0.29    0.29</time>
   <time name="total">    3.91    3.92</time>
   <dipole>
    <v name="dipole">      0.00000000       0.00000000      -0.00140579 </v>
    <i name="Tr[quadrupol]"> -10282.80577063 </i>
    <i name="Echarged">      0.00000000 </i>
    <i name="Edipol_quadrupol">      0.00000000 </i>
    <i name="Eion">      0.00000000 </i>
   </dipole>
   <energy>
    <i name="e_fr_energy">   -189.53148572 </i>
    <i name="e_wo_entrp">   -189.26017642 </i>
    <i name="e_0_energy">   -189.39583107 </i>
   </energy>
  </scstep>
  <scstep>
   <time name="diag">    1.23    1.23</time>
   <time name="diis">    1.85    1.86</time>
   <time name="orth">    0.29    0.29</time>
   <time name="total">    3.66    3.67</time>
   <dipole>
    <v name="dipole">      0.00000000       0.00000000      -0.00136281 </v>
    <i name="Tr[quadrupol]"> -10282.80789076 </i>
    <i name="Echarged">      0.00000000 </i>
    <i name="Edipol_quadrupol">      0.00000000 </i>
    <i name="Eion">      0.00000000 </i>
   </dipole>
   <energy>
    <i name="e_fr_energy">   -189.53149479 </i>
    <i name="e_wo_entrp">   -189.26018867 </i>
    <i name="e_0_energy">   -189.39584173 </i>
   </energy>
  </scstep>
  <scstep>
   <time name="diag">    1.23    1.24</time>
   <time name="diis">    1.71    1.78</time>
   <time name="orth">    0.29    0.29</time>
   <time name="total">    3.52    3.61</time>
   <dipole>
    <v name="dipole">      0.00000000       0.00000000      -0.00129169 </v>
    <i name="Tr[quadrupol]"> -10282.81024362 </i>
    <i name="Echarged">      0.00000000 </i>
    <i name="Edipol_quadrupol">      0.00000000 </i>
    <i name="Eion">      0.00000000 </i>
   </dipole>
   <energy>
    <i name="e_fr_energy">   -189.53149956 </i>
    <i name="e_wo_entrp">   -189.26019522 </i>
    <i name="e_0_energy">   -189.39584739 </i>
   </energy>
  </scstep>
  <scstep>
   <time name="diag">    1.23    1.23</time>
   <time name="diis">    1.52    1.53</time>
   <time name="orth">    0.29    0.29</time>
   <time name="total">    3.34    3.35</time>
   <dipole>
    <v name="dipole">      0.00000000       0.00000000      -0.00126120 </v>
    <i name="Tr[quadrupol]"> -10282.81146235 </i>
    <i name="Echarged">      0.00000000 </i>
    <i name="Edipol_quadrupol">      0.00000000 </i>
    <i name="Eion">      0.00000000 </i>
   </dipole>
   <energy>
    <i name="e_fr_energy">   -189.53150060 </i>
    <i name="e_wo_entrp">   -189.26019452 </i>
    <i name="e_0_energy">   -189.39584756 </i>
   </energy>
  </scstep>
  <scstep>
   <time name="diag">    1.22    1.23</time>
   <time name="diis">    1.57    1.57</time>
   <time name="orth">    0.29    0.29</time>
   <time name="total">    3.13    3.14</time>
   <dipole>
    <v name="dipole">      0.00000000       0.00000000      -0.00122983 </v>
    <i name="Tr[quadrupol]"> -10282.81268422 </i>
    <i name="Echarged">      0.00000000 </i>
    <i name="Edipol_quadrupol">      0.00000000 </i>
    <i name="Eion">      0.00000000 </i>
   </dipole>
   <energy>
    <i name="alphaZ">    805.86936423 </i>
    <i name="ewald"> 199688.30332919 </i>
    <i name="hartreedc">-241882.89716350 </i>
    <i name="XCdc">   -343.70847019 </i>
    <i name="pawpsdc">  49272.83438106 </i>
    <i name="pawaedc"> -47351.25492049 </i>
    <i name="eentropy">     -0.27130623 </i>
    <i name="bandstr">  -2038.19258749 </i>
    <i name="atom">  41659.78587232 </i>
    <i name="e_fr_energy">   -189.53150110 </i>
    <i name="e_wo_entrp">   -189.26019487 </i>
    <i name="e_0_energy">   -189.39584798 </i>
   </energy>
  </scstep>
  <structure>
   <crystal>
    <varray name="basis" >
     <v>      11.00258152       0.00000000       0.00000000 </v>
     <v>       5.50129076       9.52851510       0.00000000 </v>
     <v>       0.00000000       0.00000000      24.49178509 </v>
    </varray>
    <i name="volume">   2567.67623402 </i>
    <varray name="rec_basis" >
     <v>       0.09088776      -0.05247407       0.00000000 </v>
     <v>       0.00000000       0.10494815       0.00000000 </v>
     <v>       0.00000000       0.00000000       0.04083002 </v>
    </varray>
   </crystal>
   <varray name="positions" >
    <v>       0.08333333       0.08333333       0.40830017 </v>
    <v>       0.91666667       0.41666667       0.50000000 </v>
    <v>       0.08333333       0.33333333       0.40830017 </v>
    <v>       0.00000000       0.75000000       0.59169983 </v>
    <v>       0.16666667       0.16666667       0.50000000 </v>
    <v>       0.25000000       0.00000000       0.59169983 </v>
    <v>       0.25000000       0.75000000       0.59169983 </v>
    <v>       0.25000000       0.25000000       0.59169983 </v>
    <v>       0.58333333       0.58333333       0.40830017 </v>
    <v>       0.83333333       0.83333333       0.40830017 </v>
    <v>       0.75000000       0.50000000       0.59169983 </v>
    <v>       0.75000000       0.25000000       0.59169983 </v>
    <v>       0.00000000       0.25000000       0.59169983 </v>
    <v>       0.83333333       0.08333333       0.40830017 </v>
    <v>       0.58333333       0.83333333       0.40830017 </v>
    <v>       0.50000000       0.25000000       0.59169983 </v>
    <v>       0.33333333       0.58333333       0.40830017 </v>
    <v>       0.41666667       0.41666667       0.50000000 </v>
    <v>       0.58333333       0.33333333       0.40830017 </v>
    <v>       0.66666667       0.91666667       0.50000000 </v>
    <v>       0.33333333       0.83333333       0.40830017 </v>
    <v>       0.25000000       0.50000000       0.59169983 </v>
    <v>       0.16666667       0.66666667       0.50000000 </v>
    <v>       0.66666667       0.41666667       0.50000000 </v>
    <v>       0.91666667       0.66666667       0.50000000 </v>
    <v>       0.00000000       0.50000000       0.59169983 </v>
    <v>       0.08333333       0.83333333       0.40830017 </v>
    <v>       0.91666667       0.91666667       0.50000000 </v>
    <v>       0.33333333       0.08333333       0.40830017 </v>
    <v>       0.41666667       0.16666667       0.50000000 </v>
    <v>       0.58333333       0.08333333       0.40830017 </v>
    <v>       0.16666667       0.91666667       0.50000000 </v>
    <v>       0.41666667       0.66666667       0.50000000 </v>
    <v>       0.50000000       0.00000000       0.59169983 </v>
    <v>       0.16666667       0.41666667       0.50000000 </v>
    <v>       0.75000000       0.00000000       0.59169983 </v>
    <v>       0.41666667       0.91666667       0.50000000 </v>
    <v>       0.50000000       0.75000000       0.59169983 </v>
    <v>       0.66666667       0.16666667       0.50000000 </v>
    <v>       0.83333333       0.33333333       0.40830017 </v>
    <v>       0.83333333       0.58333333       0.40830017 </v>
    <v>       0.66666667       0.66666667       0.50000000 </v>
    <v>       0.00000000       0.00000000       0.59169983 </v>
    <v>       0.91666667       0.16666667       0.50000000 </v>
    <v>       0.33333333       0.33333333       0.40830017 </v>
    <v>       0.08333333       0.58333333       0.40830017 </v>
    <v>       0.50000000       0.50000000       0.59169983 </v>
    <v>       0.75000000       0.75000000       0.59169983 </v>
   </varray>
  </structure>
  <varray name="forces" >
   <v>      -0.12064660      -0.11938885      -1.33980429 </v>
   <v>       0.19080319       0.54014391      -0.28856520 </v>
   <v>       0.25785604       0.29219391      -1.50687449 </v>
   <v>      -0.47290056       0.26660359       1.31830892 </v>
   <v>       0.37380282      -0.35732254      -0.26624214 </v>
   <v>       0.12624876      -0.39656828       1.33306953 </v>
   <v>       0.40506798       0.09473197       1.31971603 </v>
   <v>       0.15258332       0.05621459       1.40600629 </v>
   <v>       0.37361827      -0.00642876      -1.39315308 </v>
   <v>       0.21659516      -0.28880434      -1.30531117 </v>
   <v>      -0.00014154       0.59565928       1.55744691 </v>
   <v>      -0.14155626      -0.39922410       1.38484872 </v>
   <v>      -0.14049116      -0.08184346       1.61550553 </v>
   <v>       0.02360090      -0.00365309      -1.15053571 </v>
   <v>      -0.00036488       0.11697745      -1.31779206 </v>
   <v>       0.11428713      -0.33845519       1.36451024 </v>
   <v>      -0.38363336       0.08169757      -1.55236645 </v>
   <v>      -0.17437353      -0.25752755      -0.04150320 </v>
   <v>      -0.11936982      -0.39597230      -1.56889225 </v>
   <v>      -0.05007038       0.19270631       0.52827448 </v>
   <v>      -0.09247696       0.20267481      -1.12670291 </v>
   <v>      -0.14569376      -0.05933666       1.61035896 </v>
   <v>      -0.33519023       0.34733743      -0.53913352 </v>
   <v>       0.01789468       0.05100220       0.01095072 </v>
   <v>      -0.10734385      -0.15968096       0.00847277 </v>
   <v>      -0.02372320       0.21146031       0.74773070 </v>
   <v>      -0.10415479      -0.03240111      -0.70776095 </v>
   <v>       0.19901825       0.21577491       0.19145029 </v>
   <v>       0.28616707       0.10825195      -0.68405392 </v>
   <v>       0.02781543      -0.16716351      -0.32044969 </v>
   <v>      -0.23603235       0.23323870      -0.68126160 </v>
   <v>      -0.21547134       0.01248517       0.01170108 </v>
   <v>       0.33579262       0.33521337       0.33540092 </v>
   <v>       0.19151529      -0.26411401       0.59196941 </v>
   <v>      -0.01504212       0.12346929      -0.25261426 </v>
   <v>       0.00062850      -0.12271637       0.60867594 </v>
   <v>       0.02837738      -0.11956261       0.19577879 </v>
   <v>       0.09540372      -0.00381173       0.51744745 </v>
   <v>      -0.08063475      -0.41595140       0.03756041 </v>
   <v>       0.05867952       0.04228194      -0.91555282 </v>
   <v>       0.08421551      -0.06672405      -0.71559116 </v>
   <v>       0.04396802       0.24207580       0.23186467 </v>
   <v>      -0.22798958       0.04714897       0.60317094 </v>
   <v>      -0.25845369      -0.46387082      -0.00306335 </v>
   <v>      -0.13063790      -0.25562337      -0.68044242 </v>
   <v>      -0.10050300       0.02529984      -0.66045135 </v>
   <v>       0.11545943       0.21748718       0.90716327 </v>
   <v>      -0.04250340       0.12401458       0.58073504 </v>
  </varray>
  <energy>
   <i name="e_fr_energy">   -189.53150110 </i>
   <i name="e_wo_entrp">   -189.39584798 </i>
   <i name="e_0_energy">     -0.27130623 </i>
  </energy>
  <time name="totalsc">  205.38  206.49</time>
 </calculation>
 <calculation>
  <scstep>
   <time name="dav">    7.11    7.12</time>
   <time name="total">    7.39    7.41</time>
   <dipole>
    <v name="dipole">      0.00000000       0.00000000      -0.00120583 </v>
    <i name="Tr[quadrupol]"> -10272.39738519 </i>
    <i name="Echarged">      0.00000000 </i>
    <i name="Edipol_quadrupol">      0.00000000 </i>
    <i name="Eion">      0.00000000 </i>
   </dipole>
   <energy>
    <i name="alphaZ">    805.86989623 </i>
    <i name="ewald"> 198362.46073492 </i>
    <i name="hartreedc">-240564.95357424 </i>
    <i name="XCdc">   -344.79210636 </i>
    <i name="pawpsdc">  49272.83025204 </i>
    <i name="pawaedc"> -47351.25082670 </i>
    <i name="eentropy">     -0.26861653 </i>
    <i name="bandstr">  -2029.76610699 </i>
    <i name="atom">  41659.78587232 </i>
    <i name="e_fr_energy">   -190.08447531 </i>
    <i name="e_wo_entrp">   -189.81585878 </i>
    <i name="e_0_energy">   -189.95016705 </i>
   </energy>
  </scstep>
  <scstep>
   <time name="diag">    1.22    1.24</time>
   <time name="diis">    3.46    3.47</time>
   <time name="orth">    0.29    0.29</time>
   <time name="total">    5.25    5.28</time>
   <dipole>
    <v name="dipole">      0.00000000       0.00000000       0.03938411 </v>
    <i name="Tr[quadrupol]"> -10272.25921918 </i>
    <i name="Echarged">      0.00000000 </i>
    <i name="Edipol_quadrupol">      0.00000000 </i>
    <i name="Eion">      0.00000000 </i>
   </dipole>
   <energy>
    <i name="e_fr_energy">   -190.29628032 </i>
    <i name="e_wo_entrp">   -190.02844838 </i>
    <i name="e_0_energy">   -190.16236435 </i>
   </energy>
  </scstep>
  <scstep>
   <time name="diag">    1.22    1.22</time>
   <time name="diis">    3.51    3.52</time>
   <time name="orth">    0.29    0.29</time>
   <time name="total">    5.31    5.32</time>
   <dipole>
    <v name="dipole">      0.00000000       0.00000000      -0.07599571 </v>
    <i name="Tr[quadrupol]"> -10272.47519178 </i>
    <i name="Echarged">      0.00000000 </i>
    <i name="Edipol_quadrupol">      0.00000000 </i>
    <i name="Eion">      0.00000000 </i>
   </dipole>
   <energy>
    <i name="e_fr_energy">   -190.38770112 </i>
    <i name="e_wo_entrp">   -190.12176402 </i>
    <i name="e_0_energy">   -190.25473257 </i>
   </energy>
  </scstep>
  <scstep>
   <time name="diag">    1.22    1.23</time>
   <time name="diis">    3.39    3.44</time>
   <time name="orth">    0.29    0.29</time>
   <time name="total">    5.19    5.25</time>
   <dipole>
    <v name="dipole">      0.00000000       0.00000000       0.02446662 </v>
    <i name="Tr[quadrupol]"> -10272.49428692 </i>
    <i name="Echarged">      0.00000000 </i>
    <i name="Edipol_quadrupol">      0.00000000 </i>
    <i name="Eion">      0.00000000 </i>
   </dipole>
   <energy>
    <i name="e_fr_energy">   -190.29681233 </i>
    <i name="e_wo_entrp">   -190.03312403 </i>
    <i name="e_0_energy">   -190.16496818 </i>
   </energy>
  </scstep>
  <scstep>
   <time name="diag">    1.24    1.24</time>
   <time name="diis">    3.44    3.44</time>
   <time name="orth">    0.29    0.29</time>
   <time name="total">    5.24    5.26</time>
   <dipole>
    <v name="dipole">      0.00000000       0.00000000      -0.02229392 </v>
    <i name="Tr[quadrupol]"> -10272.42140562 </i>
    <i name="Echarged">      0.00000000 </i>
    <i name="Edipol_quadrupol">      0.00000000 </i>
    <i name="Eion">      0.00000000 </i>
   </dipole>
   <energy>
    <i name="e_fr_energy">   -190.27987533 </i>
    <i name="e_wo_entrp">   -190.00772480 </i>
    <i name="e_0_energy">   -190.14380006 </i>
   </energy>
  </scstep>
  <scstep>
   <time name="diag">    1.22    1.25</time>
   <time name="diis">    3.33    3.40</time>
   <time name="orth">    0.29    0.29</time>
   <time name="total">    5.12    5.22</time>
   <dipole>
    <v name="dipole">      0.00000000       0.00000000       0.01976931 </v>
    <i name="Tr[quadrupol]"> -10272.43335028 </i>
    <i name="Echarged">      0.00000000 </i>
    <i name="Edipol_quadrupol">      0.00000000 </i>
    <i name="Eion">      0.00000000 </i>
   </dipole>
   <energy>
    <i name="e_fr_energy">   -190.27676374 </i>
    <i name="e_wo_entrp">   -190.00827272 </i>
    <i name="e_0_energy">   -190.14251823 </i>
   </energy>
  </scstep>
  <scstep>
   <time name="diag">    1.22    1.23</time>
   <time name="diis">    3.44    3.45</time>
   <time name="orth">    0.29    0.29</time>
   <time name="total">    5.24    5.26</time>
   <dipole>
    <v name="dipole">      0.00000000       0.00000000       0.01690832 </v>
    <i name="Tr[quadrupol]"> -10272.43039326 </i>
    <i name="Echarged">      0.00000000 </i>
    <i name="Edipol_quadrupol">      0.00000000 </i>
    <i name="Eion">      0.00000000 </i>
   </dipole>
   <energy>
    <i name="e_fr_energy">   -190.27002709 </i>
    <i name="e_wo_entrp">   -190.00092840 </i>
    <i name="e_0_energy">   -190.13547775 </i>
   </energy>
  </scstep>
  <scstep>
   <time name="diag">    1.23    1.23</time>
   <time name="diis">    3.43    3.44</time>
   <time name="orth">    0.29    0.29</time>
   <time name="total">    5.24    5.25</time>
   <dipole>
    <v name="dipole">      0.00000000       0.00000000       0.00661398 </v>
    <i name="Tr[quadrupol]"> -10272.41587271 </i>
    <i name="Echarged">      0.00000000 </i>
    <i name="Edipol_quadrupol">      0.00000000 </i>
    <i name="Eion">      0.00000000 </i>
   </dipole>
   <energy>
    <i name="e_fr_energy">   -190.26865545 </i>
    <i name="e_wo_entrp">   -189.99861751 </i>
    <i name="e_0_energy">   -190.13363648 </i>
   </energy>
  </scstep>
  <scstep>
   <time name="diag">    1.22    1.23</time>
   <time name="diis">    3.42    3.42</time>
   <time name="orth">    0.29    0.29</time>
   <time name="total">    5.22    5.23</time>
   <dipole>
    <v name="dipole">      0.00000000       0.00000000       0.00486827 </v>
    <i name="Tr[quadrupol]"> -10272.41278019 </i>
    <i name="Echarged">      0.00000000 </i>
    <i name="Edipol_quadrupol">      0.00000000 </i>
    <i name="Eion">      0.00000000 </i>
   </dipole>
   <energy>
    <i name="e_fr_energy">   -190.26830128 </i>
    <i name="e_wo_entrp">   -189.99861748 </i>
    <i name="e_0_energy">   -190.13345938 </i>
   </energy>
  </scstep>
  <scstep>
   <time name="diag">    1.22    1.23</time>
   <time name="diis">    3.43    3.44</time>
   <time name="orth">    0.30    0.30</time>
   <time name="total">    5.23    5.25</time>
   <dipole>
    <v name="dipole">      0.00000000       0.00000000       0.00625981 </v>
    <i name="Tr[quadrupol]"> -10272.41027511 </i>
    <i name="Echarged">      0.00000000 </i>
    <i name="Edipol_quadrupol">      0.00000000 </i>
    <i name="Eion">      0.00000000 </i>
   </dipole>
   <energy>
    <i name="e_fr_energy">   -190.26818315 </i>
    <i name="e_wo_entrp">   -189.99807949 </i>
    <i name="e_0_energy">   -190.13313132 </i>
   </energy>
  </scstep>
  <scstep>
   <time name="diag">    1.22    1.22</time>
   <time name="diis">    3.44    3.45</time>
   <time name="orth">    0.29    0.29</time>
   <time name="total">    5.24    5.28</time>
   <dipole>
    <v name="dipole">      0.00000000       0.00000000       0.00636331 </v>
    <i name="Tr[quadrupol]"> -10272.40929495 </i>
    <i name="Echarged">      0.00000000 </i>
    <i name="Edipol_quadrupol">      0.00000000 </i>
    <i name="Eion">      0.00000000 </i>
   </dipole>
   <energy>
    <i name="e_fr_energy">   -190.26809486 </i>
    <i name="e_wo_entrp">   -189.99825175 </i>
    <i name="e_0_energy">   -190.13317330 </i>
   </energy>
  </scstep>
  <scstep>
   <time name="diag">    1.22    1.22</time>
   <time name="diis">    3.43    3.44</time>
   <time name="orth">    0.29    0.29</time>
   <time name="total">    5.23    5.25</time>
   <dipole>
    <v name="dipole">      0.00000000       0.00000000       0.00627294 </v>
    <i name="Tr[quadrupol]"> -10272.41107106 </i>
    <i name="Echarged">      0.00000000 </i>
    <i name="Edipol_quadrupol">      0.00000000 </i>
    <i name="Eion">      0.00000000 </i>
   </dipole>
   <energy>
    <i name="e_fr_energy">   -190.26809079 </i>
    <i name="e_wo_entrp">   -189.99827632 </i>
    <i name="e_0_energy">   -190.13318355 </i>
   </energy>
  </scstep>
  <scstep>
   <time name="diag">    1.22    1.22</time>
   <time name="diis">    3.39    3.44</time>
   <time name="orth">    0.28    0.31</time>
   <time name="total">    5.19    5.28</time>
   <dipole>
    <v name="dipole">      0.00000000       0.00000000       0.00652263 </v>
    <i name="Tr[quadrupol]"> -10272.41277326 </i>
    <i name="Echarged">      0.00000000 </i>
    <i name="Edipol_quadrupol">      0.00000000 </i>
    <i name="Eion">      0.00000000 </i>
   </dipole>
   <energy>
    <i name="e_fr_energy">   -190.26808210 </i>
    <i name="e_wo_entrp">   -189.99825415 </i>
    <i name="e_0_energy">   -190.13316813 </i>
   </energy>
  </scstep>
  <scstep>
   <time name="diag">    1.22    1.23</time>
   <time name="diis">    2.65    2.66</time>
   <time name="orth">    0.29    0.29</time>
   <time name="total">    4.21    4.23</time>
   <dipole>
    <v name="dipole">      0.00000000       0.00000000       0.00638467 </v>
    <i name="Tr[quadrupol]"> -10272.41409724 </i>
    <i name="Echarged">      0.00000000 </i>
    <i name="Edipol_quadrupol">      0.00000000 </i>
    <i name="Eion">      0.00000000 </i>
   </dipole>
   <energy>
    <i name="alphaZ">    805.86654601 </i>
    <i name="ewald"> 198362.46073492 </i>
    <i name="hartreedc">-240565.83644536 </i>
    <i name="XCdc">   -344.76684029 </i>
    <i name="pawpsdc">  49050.46700311 </i>
    <i name="pawaedc"> -47127.39811563 </i>
    <i name="eentropy">     -0.26982449 </i>
    <i name="bandstr">  -2030.57701291 </i>
    <i name="atom">  41659.78587232 </i>
    <i name="e_fr_energy">   -190.26808232 </i>
    <i name="e_wo_entrp">   -189.99825783 </i>
    <i name="e_0_energy">   -190.13317007 </i>
   </energy>
  </scstep>
  <structure>
   <crystal>
    <varray name="basis" >
     <v>      11.00258152       0.00000000       0.00000000 </v>
     <v>       5.50129076       9.52851510       0.00000000 </v>
     <v>       0.00000000       0.00000000      24.49178509 </v>
    </varray>
    <i name="volume">   2567.67623402 </i>
    <varray name="rec_basis" >
     <v>       0.09088776      -0.05247407       0.00000000 </v>
     <v>       0.00000000       0.10494815       0.00000000 </v>
     <v>       0.00000000       0.00000000       0.04083002 </v>
    </varray>
   </crystal>
   <varray name="positions" >
    <v>       0.08333333       0.08333333       0.40830017 </v>
    <v>       0.91629513       0.41858098       0.49960212 </v>
    <v>       0.08333333       0.33333333       0.40830017 </v>
    <v>      -0.00192389       0.75094487       0.59351755 </v>
    <v>       0.16844716       0.16540029       0.49963290 </v>
    <v>       0.25109023      -0.00140547       0.59353790 </v>
    <v>       0.25107539       0.75033574       0.59351949 </v>
    <v>       0.25036870       0.25019923       0.59363847 </v>
    <v>       0.58333333       0.58333333       0.40830017 </v>
    <v>       0.83333333       0.83333333       0.40830017 </v>
    <v>       0.74894403       0.50211107       0.59384728 </v>
    <v>       0.75027297       0.24858512       0.59360929 </v>
    <v>      -0.00028617       0.24970994       0.59392733 </v>
    <v>       0.83333333       0.08333333       0.40830017 </v>
    <v>       0.58333333       0.83333333       0.40830017 </v>
    <v>       0.50095053       0.24880049       0.59358125 </v>
    <v>       0.33333333       0.58333333       0.40830017 </v>
    <v>       0.41658782       0.41575397       0.49994277 </v>
    <v>       0.58333333       0.33333333       0.40830017 </v>
    <v>       0.66617150       0.91734963       0.50072840 </v>
    <v>       0.33333333       0.83333333       0.40830017 </v>
    <v>       0.24965797       0.49978971       0.59392023 </v>
    <v>       0.16502238       0.66789766       0.49925663 </v>
    <v>       0.66663121       0.41684742       0.50001510 </v>
    <v>       0.91662016       0.66610074       0.50001168 </v>
    <v>      -0.00044753       0.50074943       0.59273082 </v>
    <v>       0.08333333       0.83333333       0.40830017 </v>
    <v>       0.91689514       0.91743139       0.50026398 </v>
    <v>       0.33333333       0.08333333       0.40830017 </v>
    <v>       0.41704826       0.16607423       0.49955816 </v>
    <v>       0.58333333       0.08333333       0.40830017 </v>
    <v>       0.16598320       0.91671092       0.50001613 </v>
    <v>       0.41710329       0.66785469       0.50046246 </v>
    <v>       0.50105583      -0.00093604       0.59251605 </v>
    <v>       0.16640171       0.41710425       0.49965169 </v>
    <v>       0.75021939      -0.00043492       0.59253909 </v>
    <v>       0.41696563       0.91624293       0.50026994 </v>
    <v>       0.50029957       0.74998649       0.59241330 </v>
    <v>       0.66715626       0.16519250       0.50005179 </v>
    <v>       0.83333333       0.33333333       0.40830017 </v>
    <v>       0.83333333       0.58333333       0.40830017 </v>
    <v>       0.66637265       0.66752460       0.50031970 </v>
    <v>      -0.00078331       0.00016710       0.59253150 </v>
    <v>       0.91669540       0.16502267       0.49999578 </v>
    <v>       0.33333333       0.33333333       0.40830017 </v>
    <v>       0.08333333       0.58333333       0.40830017 </v>
    <v>       0.49996898       0.50077079       0.59295065 </v>
    <v>       0.74964979       0.75043952       0.59250056 </v>
   </varray>
  </structure>
  <varray name="forces" >
   <v>      -0.13142854      -0.11387620      -1.35056543 </v>
   <v>       0.01562360       0.15111637       0.24059989 </v>
   <v>       0.24793500       0.27108999      -1.53718742 </v>
   <v>      -0.19011079       0.11959778       0.96807376 </v>
   <v>       0.16255188      -0.15437398       0.30766761 </v>
   <v>       0.09149850      -0.14132486       0.99248147 </v>
   <v>       0.08243845      -0.01975175       0.94800492 </v>
   <v>       0.04265117      -0.01620589       0.97540184 </v>
   <v>       0.36976174       0.00628725      -1.34531363 </v>
   <v>       0.19001719      -0.26181349      -1.20081335 </v>
   <v>       0.00641072       0.26600883       1.13397765 </v>
   <v>      -0.06056874      -0.13888512       1.00718132 </v>
   <v>      -0.05623175      -0.00188529       1.03557816 </v>
   <v>       0.00847348      -0.00989086      -1.18230826 </v>
   <v>       0.03358562       0.13499572      -1.24986208 </v>
   <v>       0.05901874      -0.18437403       0.99797037 </v>
   <v>      -0.32470246       0.07751186      -1.48889459 </v>
   <v>      -0.15147501      -0.10860690       0.37890775 </v>
   <v>      -0.10839129      -0.40356335      -1.53243134 </v>
   <v>       0.01150462       0.06502336       0.39931585 </v>
   <v>      -0.09178499       0.19875043      -1.09357014 </v>
   <v>      -0.04771843       0.07803294       1.09137148 </v>
   <v>      -0.16061839       0.17213842       0.15281543 </v>
   <v>       0.07564734      -0.04511895       0.40702157 </v>
   <v>      -0.03115699       0.00942038       0.17036399 </v>
   <v>      -0.04206302       0.08731830       0.56527513 </v>
   <v>      -0.10550780       0.01239295      -0.77785798 </v>
   <v>       0.07378398       0.06238180       0.28053487 </v>
   <v>       0.29957730       0.07393134      -0.74553856 </v>
   <v>       0.01009227      -0.05037770       0.03664827 </v>
   <v>      -0.22265652       0.19683919      -0.68656139 </v>
   <v>      -0.09185444      -0.01348439       0.26133567 </v>
   <v>       0.10764762       0.18915494       0.38531572 </v>
   <v>       0.09647083      -0.14972279       0.52820219 </v>
   <v>       0.05547546       0.04148086       0.12840862 </v>
   <v>      -0.01188203      -0.08840722       0.57186934 </v>
   <v>      -0.01953089      -0.06032641       0.28452466 </v>
   <v>       0.10385463       0.01188290       0.50983385 </v>
   <v>      -0.05482567      -0.18348321       0.24226109 </v>
   <v>       0.05525724       0.02733139      -0.87356461 </v>
   <v>       0.06624110      -0.02327045      -0.76357170 </v>
   <v>       0.04213437       0.14697162       0.30269575 </v>
   <v>      -0.09979258      -0.01915541       0.52071966 </v>
   <v>      -0.06653353      -0.12844711       0.27745589 </v>
   <v>      -0.12661915      -0.25320544      -0.72171308 </v>
   <v>      -0.12842438       0.02003398      -0.73835144 </v>
   <v>       0.04825183       0.05319628       0.65424535 </v>
   <v>      -0.03202727       0.09666189       0.53204589 </v>
  </varray>
  <energy>
   <i name="e_fr_energy">   -190.26808232 </i>
   <i name="e_wo_entrp">   -190.13317007 </i>
   <i name="e_0_energy">     -0.26982449 </i>
  </energy>
  <time name="totalsc">   76.76   77.24</time>
 </calculation>
 <calculation>
  <scstep>
   <time name="dav">    6.95    7.00</time>
   <time name="total">    7.24    7.30</time>
   <dipole>
    <v name="dipole">      0.00000000       0.00000000       0.00638785 </v>
    <i name="Tr[quadrupol]"> -10242.98805454 </i>
    <i name="Echarged">      0.00000000 </i>
    <i name="Edipol_quadrupol">      0.00000000 </i>
    <i name="Eion">      0.00000000 </i>
   </dipole>
   <energy>
    <i name="alphaZ">    805.85839132 </i>
    <i name="ewald"> 194571.52089573 </i>
    <i name="hartreedc">-236794.18080850 </i>
    <i name="XCdc">   -347.32769940 </i>
    <i name="pawpsdc">  49050.36616369 </i>
    <i name="pawaedc"> -47127.29757943 </i>
    <i name="eentropy">     -0.25659659 </i>
    <i name="bandstr">  -2007.87183663 </i>
    <i name="atom">  41659.78587232 </i>
    <i name="e_fr_energy">   -189.40319750 </i>
    <i name="e_wo_entrp">   -189.14660090 </i>
    <i name="e_0_energy">   -189.27489920 </i>
   </energy>
  </scstep>
  <scstep>
   <time name="diag">    1.22    1.22</time>
   <time name="diis">    3.44    3.45</time>
   <time name="orth">    0.29    0.29</time>
   <time name="total">    5.23    5.25</time>
   <dipole>
    <v name="dipole">      0.00000000       0.00000000       0.09798132 </v>
    <i name="Tr[quadrupol]"> -10242.52100238 </i>
    <i name="Echarged">      0.00000000 </i>
    <i name="Edipol_quadrupol">      0.00000000 </i>
    <i name="Eion">      0.00000000 </i>
   </dipole>
   <energy>
    <i name="e_fr_energy">   -191.18402332 </i>
    <i name="e_wo_entrp">   -190.93038434 </i>
    <i name="e_0_energy">   -191.05720383 </i>
   </energy>
  </scstep>
  <scstep>
   <time name="diag">    1.22    1.23</time>
   <time name="diis">    3.46    3.47</time>
   <time name="orth">    0.29    0.29</time>
   <time name="total">    5.25    5.27</time>
   <dipole>
    <v name="dipole">      0.00000000       0.00000000      -0.12503417 </v>
    <i name="Tr[quadrupol]"> -10243.16049021 </i>
    <i name="Echarged">      0.00000000 </i>
    <i name="Edipol_quadrupol">      0.00000000 </i>
    <i name="Eion">      0.00000000 </i>
   </dipole>
   <energy>
    <i name="e_fr_energy">   -191.57587804 </i>
    <i name="e_wo_entrp">   -191.33541335 </i>
    <i name="e_0_energy">   -191.45564570 </i>
   </energy>
  </scstep>
  <scstep>
   <time name="diag">    1.22    1.22</time>
   <time name="diis">    3.44    3.45</time>
   <time name="orth">    0.29    0.29</time>
   <time name="total">    5.23    5.25</time>
   <dipole>
    <v name="dipole">      0.00000000       0.00000000       0.06018663 </v>
    <i name="Tr[quadrupol]"> -10243.07553404 </i>
    <i name="Echarged">      0.00000000 </i>
    <i name="Edipol_quadrupol">      0.00000000 </i>
    <i name="Eion">      0.00000000 </i>
   </dipole>
   <energy>
    <i name="e_fr_energy">   -191.05526478 </i>
    <i name="e_wo_entrp">   -190.80479183 </i>
    <i name="e_0_energy">   -190.93002831 </i>
   </energy>
  </scstep>
  <scstep>
   <time name="diag">    1.23    1.23</time>
   <time name="diis">    3.42    3.42</time>
   <time name="orth">    0.29    0.29</time>
   <time name="total">    5.21    5.23</time>
   <dipole>
    <v name="dipole">      0.00000000       0.00000000      -0.06496382 </v>
    <i name="Tr[quadrupol]"> -10243.00007899 </i>
    <i name="Echarged">      0.00000000 </i>
    <i name="Edipol_quadrupol">      0.00000000 </i>
    <i name="Eion">      0.00000000 </i>
   </dipole>
   <energy>
    <i name="e_fr_energy">   -191.10128936 </i>
    <i name="e_wo_entrp">   -190.83504562 </i>
    <i name="e_0_energy">   -190.96816749 </i>
   </energy>
  </scstep>
  <scstep>
   <time name="diag">    1.22    1.22</time>
   <time name="diis">    3.32    3.38</time>
   <time name="orth">    0.28    0.31</time>
   <time name="total">    5.11    5.21</time>
   <dipole>
    <v name="dipole">      0.00000000       0.00000000       0.08209895 </v>
    <i name="Tr[quadrupol]"> -10243.09556222 </i>
    <i name="Echarged">      0.00000000 </i>
    <i name="Edipol_quadrupol">      0.00000000 </i>
    <i name="Eion">      0.00000000 </i>
   </dipole>
   <energy>
    <i name="e_fr_energy">   -191.06163297 </i>
    <i name="e_wo_entrp">   -190.81047861 </i>
    <i name="e_0_energy">   -190.93605579 </i>
   </energy>
  </scstep>
  <scstep>
   <time name="diag">    1.22    1.23</time>
   <time name="diis">    3.43    3.44</time>
   <time name="orth">    0.28    0.29</time>
   <time name="total">    5.22    5.24</time>
   <dipole>
    <v name="dipole">      0.00000000       0.00000000       0.05770175 </v>
    <i name="Tr[quadrupol]"> -10243.04496289 </i>
    <i name="Echarged">      0.00000000 </i>
    <i name="Edipol_quadrupol">      0.00000000 </i>
    <i name="Eion">      0.00000000 </i>
   </dipole>
   <energy>
    <i name="e_fr_energy">   -190.99143289 </i>
    <i name="e_wo_entrp">   -190.73250209 </i>
    <i name="e_0_energy">   -190.86196749 </i>
   </energy>
  </scstep>
  <scstep>
   <time name="diag">    1.23    1.23</time>
   <time name="diis">    3.40    3.41</time>
   <time name="orth">    0.29    0.29</time>
   <time name="total">    5.19    5.22</time>
   <dipole>
    <v name="dipole">      0.00000000       0.00000000       0.03513247 </v>
    <i name="Tr[quadrupol]"> -10242.98521561 </i>
    <i name="Echarged">      0.00000000 </i>
    <i name="Edipol_quadrupol">      0.00000000 </i>
    <i name="Eion">      0.00000000 </i>
   </dipole>
   <energy>
    <i name="e_fr_energy">   -190.97734370 </i>
    <i name="e_wo_entrp">   -190.71568510 </i>
    <i name="e_0_energy">   -190.84651440 </i>
   </energy>
  </scstep>
  <scstep>
   <time name="diag">    1.22    1.23</time>
   <time name="diis">    3.46    3.47</time>
   <time name="orth">    0.29    0.29</time>
   <time name="total">    5.26    5.28</time>
   <dipole>
    <v name="dipole">      0.00000000       0.00000000       0.02487170 </v>
    <i name="Tr[quadrupol]"> -10242.97601327 </i>
    <i name="Echarged">      0.00000000 </i>
    <i name="Edipol_quadrupol">      0.00000000 </i>
    <i name="Eion">      0.00000000 </i>
   </dipole>
   <energy>
[...]
       <r>    -9.1605     0.0000     0.0000 </r>
       <r>    -9.1070     0.0000     0.0000 </r>
       <r>    -9.0536     0.0000     0.0000 </r>
       <r>    -9.0001     0.0000     0.0000 </r>
       <r>    -8.9466     0.0001     0.0000 </r>
       <r>    -8.8932     0.0025     0.0001 </r>
       <r>    -8.8397     0.0349     0.0020 </r>
       <r>    -8.7862     0.2787     0.0169 </r>
       <r>    -8.7328     1.2874     0.0857 </r>
       <r>    -8.6793     3.4514     0.2703 </r>
       <r>    -8.6258     5.4133     0.5597 </r>
       <r>    -8.5724     5.2235     0.8390 </r>
       <r>    -8.5189     4.1112     1.0588 </r>
       <r>    -8.4655     4.5523     1.3022 </r>
       <r>    -8.4120     5.4978     1.5961 </r>
       <r>    -8.3585     4.5192     1.8377 </r>
       <r>    -8.3051     2.2633     1.9587 </r>
       <r>    -8.2516     0.8078     2.0019 </r>
       <r>    -8.1981     0.8038     2.0449 </r>
       <r>    -8.1447     2.0578     2.1549 </r>
       <r>    -8.0912     3.9831     2.3679 </r>
       <r>    -8.0377     5.4656     2.6601 </r>
       <r>    -7.9843     6.1494     2.9889 </r>
       <r>    -7.9308     6.8741     3.3564 </r>
       <r>    -7.8773     7.8186     3.7744 </r>
       <r>    -7.8239     8.7344     4.2414 </r>
       <r>    -7.7704     9.9168     4.7716 </r>
       <r>    -7.7169    10.1944     5.3167 </r>
       <r>    -7.6635     8.0752     5.7484 </r>
       <r>    -7.6100     5.5117     6.0431 </r>
       <r>    -7.5565     5.6869     6.3471 </r>
       <r>    -7.5031     8.2945     6.7906 </r>
       <r>    -7.4496    10.4818     7.3510 </r>
       <r>    -7.3961    10.9924     7.9387 </r>
       <r>    -7.3427    11.5030     8.5538 </r>
       <r>    -7.2892    13.1755     9.2582 </r>
       <r>    -7.2357    14.7081    10.0446 </r>
       <r>    -7.1823    14.8433    10.8382 </r>
       <r>    -7.1288    13.7827    11.5751 </r>
       <r>    -7.0754    13.0040    12.2703 </r>
       <r>    -7.0219    14.3473    13.0374 </r>
       <r>    -6.9684    17.7748    13.9877 </r>
       <r>    -6.9150    21.7426    15.1502 </r>
       <r>    -6.8615    25.5535    16.5165 </r>
       <r>    -6.8080    30.0083    18.1209 </r>
       <r>    -6.7546    35.7290    20.0311 </r>
       <r>    -6.7011    42.0230    22.2779 </r>
       <r>    -6.6476    48.6112    24.8769 </r>
       <r>    -6.5942    55.0252    27.8189 </r>
       <r>    -6.5407    59.1113    30.9793 </r>
       <r>    -6.4872    59.6538    34.1687 </r>
       <r>    -6.4338    58.6216    37.3029 </r>
       <r>    -6.3803    58.4851    40.4298 </r>
       <r>    -6.3268    60.6482    43.6724 </r>
       <r>    -6.2734    66.4861    47.2271 </r>
       <r>    -6.2199    74.4262    51.2063 </r>
       <r>    -6.1664    79.2362    55.4427 </r>
       <r>    -6.1130    78.0586    59.6162 </r>
       <r>    -6.0595    74.0972    63.5778 </r>
       <r>    -6.0060    72.3204    67.4445 </r>
       <r>    -5.9526    74.0751    71.4049 </r>
       <r>    -5.8991    77.5639    75.5519 </r>
       <r>    -5.8456    80.1003    79.8345 </r>
       <r>    -5.7922    80.3463    84.1302 </r>
       <r>    -5.7387    79.2559    88.3677 </r>
       <r>    -5.6853    77.3832    92.5050 </r>
       <r>    -5.6318    74.2838    96.4766 </r>
       <r>    -5.5783    70.8416   100.2642 </r>
       <r>    -5.5249    68.8819   103.9470 </r>
       <r>    -5.4714    67.8077   107.5724 </r>
       <r>    -5.4179    66.2028   111.1119 </r>
       <r>    -5.3645    65.8992   114.6352 </r>
       <r>    -5.3110    70.1125   118.3838 </r>
       <r>    -5.2575    78.7216   122.5927 </r>
       <r>    -5.2041    86.5338   127.2193 </r>
       <r>    -5.1506    88.8278   131.9685 </r>
       <r>    -5.0971    87.0738   136.6239 </r>
       <r>    -5.0437    85.0831   141.1729 </r>
       <r>    -4.9902    84.0581   145.6671 </r>
       <r>    -4.9367    83.7764   150.1463 </r>
       <r>    -4.8833    84.5923   154.6690 </r>
       <r>    -4.8298    86.7856   159.3090 </r>
       <r>    -4.7763    89.1873   164.0775 </r>
       <r>    -4.7229    90.5364   168.9180 </r>
       <r>    -4.6694    91.1462   173.7912 </r>
       <r>    -4.6159    91.4006   178.6780 </r>
       <r>    -4.5625    91.3864   183.5640 </r>
       <r>    -4.5090    90.9280   188.4255 </r>
       <r>    -4.4555    89.2514   193.1973 </r>
       <r>    -4.4021    87.1199   197.8552 </r>
       <r>    -4.3486    86.9077   202.5018 </r>
       <r>    -4.2952    88.4356   207.2300 </r>
       <r>    -4.2417    89.8436   212.0336 </r>
       <r>    -4.1882    91.9995   216.9524 </r>
       <r>    -4.1348    95.0965   222.0367 </r>
       <r>    -4.0813    95.4694   227.1410 </r>
       <r>    -4.0278    92.3321   232.0776 </r>
       <r>    -3.9744    89.0208   236.8371 </r>
       <r>    -3.9209    86.9965   241.4884 </r>
       <r>    -3.8674    86.1406   246.0940 </r>
       <r>    -3.8140    86.6717   250.7279 </r>
       <r>    -3.7605    88.4369   255.4562 </r>
       <r>    -3.7070    91.2229   260.3335 </r>
       <r>    -3.6536    94.8814   265.4064 </r>
       <r>    -3.6001    98.6926   270.6830 </r>
       <r>    -3.5466   101.0181   276.0840 </r>
       <r>    -3.4932   100.6512   281.4653 </r>
       <r>    -3.4397    98.8407   286.7499 </r>
       <r>    -3.3862    96.9877   291.9354 </r>
       <r>    -3.3328    95.4829   297.0404 </r>
       <r>    -3.2793    94.4338   302.0893 </r>
       <r>    -3.2258    93.5427   307.0906 </r>
       <r>    -3.1724    92.9703   312.0613 </r>
       <r>    -3.1189    91.4930   316.9530 </r>
       <r>    -3.0654    88.7629   321.6988 </r>
       <r>    -3.0120    88.5383   326.4325 </r>
       <r>    -2.9585    91.9288   331.3475 </r>
       <r>    -2.9051    94.8506   336.4188 </r>
       <r>    -2.8516    94.5754   341.4753 </r>
       <r>    -2.7981    93.0139   346.4483 </r>
       <r>    -2.7447    92.9527   351.4180 </r>
       <r>    -2.6912    93.3751   356.4104 </r>
       <r>    -2.6377    91.5499   361.3051 </r>
       <r>    -2.5843    88.2791   366.0250 </r>
       <r>    -2.5308    86.9312   370.6728 </r>
       <r>    -2.4773    88.6370   375.4118 </r>
       <r>    -2.4239    91.8726   380.3238 </r>
       <r>    -2.3704    95.3466   385.4216 </r>
       <r>    -2.3169    97.7463   390.6476 </r>
       <r>    -2.2635    97.3475   395.8523 </r>
       <r>    -2.2100    94.6686   400.9138 </r>
       <r>    -2.1565    92.2801   405.8476 </r>
       <r>    -2.1031    91.5498   410.7424 </r>
       <r>    -2.0496    91.8700   415.6542 </r>
       <r>    -1.9961    93.4541   420.6508 </r>
       <r>    -1.9427    97.3220   425.8542 </r>
       <r>    -1.8892   101.3838   431.2747 </r>
       <r>    -1.8357   102.9759   436.7803 </r>
       <r>    -1.7823   103.1957   442.2977 </r>
       <r>    -1.7288   103.0747   447.8086 </r>
       <r>    -1.6753   100.9772   453.2074 </r>
       <r>    -1.6219    97.0315   458.3953 </r>
       <r>    -1.5684    93.7896   463.4098 </r>
       <r>    -1.5150    92.4243   468.3513 </r>
       <r>    -1.4615    93.0469   473.3260 </r>
       <r>    -1.4080    95.5137   478.4327 </r>
       <r>    -1.3546    97.6664   483.6545 </r>
       <r>    -1.3011    96.2090   488.7983 </r>
       <r>    -1.2476    89.9538   493.6078 </r>
       <r>    -1.1942    80.0499   497.8877 </r>
       <r>    -1.1407    67.6377   501.5039 </r>
       <r>    -1.0872    54.2143   504.4025 </r>
       <r>    -1.0338    41.9732   506.6466 </r>
       <r>    -0.9803    31.3120   508.3207 </r>
       <r>    -0.9268    21.7868   509.4856 </r>
       <r>    -0.8734    14.0819   510.2385 </r>
       <r>    -0.8199     8.9779   510.7185 </r>
       <r>    -0.7664     6.7062   511.0770 </r>
       <r>    -0.7130     6.5326   511.4263 </r>
       <r>    -0.6595     6.6430   511.7815 </r>
       <r>    -0.6060     6.9494   512.1530 </r>
       <r>    -0.5526     9.6400   512.6684 </r>
       <r>    -0.4991    15.1512   513.4785 </r>
       <r>    -0.4456    21.2888   514.6167 </r>
       <r>    -0.3922    24.4881   515.9260 </r>
       <r>    -0.3387    22.0774   517.1064 </r>
       <r>    -0.2852    17.4664   518.0402 </r>
       <r>    -0.2318    17.1861   518.9591 </r>
       <r>    -0.1783    20.5798   520.0594 </r>
       <r>    -0.1249    21.4902   521.2084 </r>
       <r>    -0.0714    18.0960   522.1759 </r>
       <r>    -0.0179    14.0461   522.9269 </r>
       <r>     0.0355    12.8959   523.6163 </r>
       <r>     0.0890    14.2206   524.3766 </r>
       <r>     0.1425    16.0928   525.2371 </r>
       <r>     0.1959    18.4603   526.2240 </r>
       <r>     0.2494    20.4895   527.3195 </r>
       <r>     0.3029    20.6249   528.4222 </r>
       <r>     0.3563    19.4251   529.4608 </r>
       <r>     0.4098    18.0763   530.4273 </r>
       <r>     0.4633    17.3528   531.3550 </r>
       <r>     0.5167    17.5399   532.2928 </r>
       <r>     0.5702    17.5455   533.2309 </r>
       <r>     0.6237    17.2728   534.1544 </r>
       <r>     0.6771    17.9030   535.1116 </r>
       <r>     0.7306    19.4808   536.1531 </r>
       <r>     0.7841    20.3058   537.2388 </r>
       <r>     0.8375    18.1511   538.2093 </r>
       <r>     0.8910    13.9142   538.9532 </r>
       <r>     0.9445    11.0550   539.5442 </r>
       <r>     0.9979    10.3022   540.0950 </r>
       <r>     1.0514    10.2669   540.6440 </r>
       <r>     1.1049    10.2238   541.1906 </r>
       <r>     1.1583     9.3874   541.6925 </r>
       <r>     1.2118     7.9705   542.1186 </r>
       <r>     1.2652     7.1327   542.5000 </r>
       <r>     1.3187     6.7120   542.8589 </r>
       <r>     1.3722     7.0914   543.2380 </r>
       <r>     1.4256     9.6945   543.7563 </r>
       <r>     1.4791    14.0951   544.5099 </r>
       <r>     1.5326    17.7989   545.4615 </r>
       <r>     1.5860    18.4558   546.4483 </r>
       <r>     1.6395    17.2213   547.3690 </r>
       <r>     1.6930    16.7711   548.2657 </r>
       <r>     1.7464    17.1257   549.1813 </r>
       <r>     1.7999    17.3280   550.1078 </r>
       <r>     1.8534    16.0124   550.9639 </r>
       <r>     1.9068    11.8254   551.5962 </r>
       <r>     1.9603     7.0741   551.9744 </r>
       <r>     2.0138     5.7105   552.2797 </r>
       <r>     2.0672     7.5439   552.6830 </r>
       <r>     2.1207     9.6842   553.2008 </r>
       <r>     2.1742    11.5246   553.8170 </r>
       <r>     2.2276    14.1686   554.5745 </r>
       <r>     2.2811    17.6943   555.5205 </r>
       <r>     2.3346    21.2276   556.6555 </r>
       <r>     2.3880    23.8003   557.9280 </r>
       <r>     2.4415    25.0343   559.2664 </r>
       <r>     2.4950    25.1652   560.6119 </r>
       <r>     2.5484    24.4575   561.9195 </r>
       <r>     2.6019    23.9569   563.2004 </r>
       <r>     2.6553    24.7034   564.5212 </r>
       <r>     2.7088    25.8048   565.9008 </r>
       <r>     2.7623    24.4176   567.2063 </r>
       <r>     2.8157    18.8033   568.2116 </r>
       <r>     2.8692    11.7395   568.8393 </r>
       <r>     2.9227     7.6698   569.2494 </r>
       <r>     2.9761     6.6275   569.6037 </r>
       <r>     3.0296     5.9313   569.9208 </r>
       <r>     3.0831     6.3645   570.2611 </r>
       <r>     3.1365     9.7274   570.7812 </r>
       <r>     3.1900    13.5938   571.5080 </r>
       <r>     3.2435    13.9745   572.2551 </r>
       <r>     3.2969    10.9216   572.8391 </r>
       <r>     3.3504     7.9496   573.2641 </r>
       <r>     3.4039     6.7215   573.6235 </r>
       <r>     3.4573     6.3934   573.9653 </r>
       <r>     3.5108     6.8555   574.3318 </r>
       <r>     3.5643     8.4966   574.7861 </r>
       <r>     3.6177    11.6921   575.4112 </r>
       <r>     3.6712    16.3586   576.2858 </r>
       <r>     3.7247    19.7492   577.3417 </r>
       <r>     3.7781    20.2253   578.4231 </r>
       <r>     3.8316    18.9398   579.4357 </r>
       <r>     3.8851    15.6086   580.2702 </r>
       <r>     3.9385    11.5116   580.8857 </r>
       <r>     3.9920    11.2026   581.4847 </r>
       <r>     4.0454    14.8817   582.2803 </r>
       <r>     4.0989    16.3863   583.1564 </r>
       <r>     4.1524    13.5713   583.8820 </r>
       <r>     4.2058    11.3243   584.4875 </r>
       <r>     4.2593    11.3635   585.0950 </r>
       <r>     4.3128    10.7879   585.6718 </r>
       <r>     4.3662     9.7435   586.1927 </r>
       <r>     4.4197    10.5871   586.7588 </r>
       <r>     4.4732    13.0106   587.4544 </r>
       <r>     4.5266    16.5523   588.3394 </r>
       <r>     4.5801    22.1391   589.5230 </r>
       <r>     4.6336    27.8057   591.0097 </r>
       <r>     4.6870    28.2718   592.5213 </r>
       <r>     4.7405    22.7885   593.7397 </r>
       <r>     4.7940    18.2970   594.7179 </r>
       <r>     4.8474    19.6565   595.7689 </r>
       <r>     4.9009    24.2517   597.0655 </r>
       <r>     4.9544    28.8995   598.6106 </r>
       <r>     5.0078    33.7106   600.4130 </r>
       <r>     5.0613    37.6909   602.4281 </r>
       <r>     5.1148    38.0563   604.4628 </r>
       <r>     5.1682    34.9183   606.3297 </r>
       <r>     5.2217    31.1844   607.9970 </r>
       <r>     5.2752    27.1891   609.4507 </r>
       <r>     5.3286    21.1248   610.5801 </r>
       <r>     5.3821    13.9731   611.3272 </r>
       <r>     5.4355     7.8442   611.7466 </r>
       <r>     5.4890     3.4578   611.9315 </r>
       <r>     5.5425     1.0536   611.9878 </r>
       <r>     5.5959     0.2028   611.9986 </r>
       <r>     5.6494     0.0236   611.9999 </r>
       <r>     5.7029     0.0016   612.0000 </r>
       <r>     5.7563     0.0001   612.0000 </r>
       <r>     5.8098     0.0000   612.0000 </r>
       <r>     5.8633     0.0000   612.0000 </r>
       <r>     5.9167     0.0000   612.0000 </r>
       <r>     5.9702     0.0000   612.0000 </r>
       <r>     6.0237     0.0000   612.0000 </r>
       <r>     6.0771     0.0000   612.0000 </r>
       <r>     6.1306     0.0000   612.0000 </r>
       <r>     6.1841     0.0000   612.0000 </r>
       <r>     6.2375     0.0000   612.0000 </r>
       <r>     6.2910     0.0000   612.0000 </r>
       <r>     6.3445     0.0000   612.0000 </r>
       <r>     6.3979     0.0000   612.0000 </r>
      </set>
     </set>
    </array>
   </total>
  </dos>
 </calculation>
 <structure name="finalpos" >
  <crystal>
   <varray name="basis" >
    <v>      11.00258152       0.00000000       0.00000000 </v>
    <v>       5.50129076       9.52851510       0.00000000 </v>
    <v>       0.00000000       0.00000000      24.49178509 </v>
   </varray>
   <i name="volume">   2567.67623402 </i>
   <varray name="rec_basis" >
    <v>       0.09088776      -0.05247407       0.00000000 </v>
    <v>       0.00000000       0.10494815       0.00000000 </v>
    <v>       0.00000000       0.00000000       0.04083002 </v>
   </varray>
  </crystal>
  <varray name="positions" >
   <v>       0.08333333       0.08333333       0.40830017 </v>
   <v>       0.91563903       0.41918705       0.50743216 </v>
   <v>       0.08333333       0.33333333       0.40830017 </v>
   <v>      -0.00393356       0.75182287       0.60966281 </v>
   <v>       0.16925090       0.16493729       0.50878976 </v>
   <v>       0.25283306      -0.00256284       0.61041072 </v>
   <v>       0.25135297       0.74951666       0.60980317 </v>
   <v>       0.25077597       0.24994305       0.61048384 </v>
   <v>       0.58333333       0.58333333       0.40830017 </v>
   <v>       0.83333333       0.83333333       0.40830017 </v>
   <v>       0.74785846       0.50464877       0.61323143 </v>
   <v>       0.75073669       0.24760650       0.61132523 </v>
   <v>      -0.00089547       0.25026934       0.61214755 </v>
   <v>       0.83333333       0.08333333       0.40830017 </v>
   <v>       0.58333333       0.83333333       0.40830017 </v>
   <v>       0.50190718       0.24691362       0.61076786 </v>
   <v>       0.33333333       0.58333333       0.40830017 </v>
   <v>       0.41535397       0.41528201       0.50955927 </v>
   <v>       0.58333333       0.33333333       0.40830017 </v>
   <v>       0.66580328       0.91817497       0.50752659 </v>
   <v>       0.33333333       0.83333333       0.40830017 </v>
   <v>       0.24836141       0.50060999       0.61281660 </v>
   <v>       0.16346778       0.66891837       0.50694087 </v>
   <v>       0.66716958       0.41673529       0.50986497 </v>
   <v>       0.91630729       0.66748452       0.50678440 </v>
   <v>      -0.00194573       0.50155448       0.60366125 </v>
   <v>       0.08333333       0.83333333       0.40830017 </v>
   <v>       0.91702943       0.91820224       0.50769558 </v>
   <v>       0.33333333       0.08333333       0.40830017 </v>
   <v>       0.41641117       0.16670493       0.50654805 </v>
   <v>       0.58333333       0.08333333       0.40830017 </v>
   <v>       0.16595570       0.91689538       0.50821091 </v>
   <v>       0.41576785       0.66942784       0.50903628 </v>
   <v>       0.50272092      -0.00268431       0.60315573 </v>
   <v>       0.16665032       0.41718176       0.50717184 </v>
   <v>       0.75023709      -0.00133164       0.60430051 </v>
   <v>       0.41581881       0.91574242       0.50776227 </v>
   <v>       0.50099887       0.74949535       0.60432432 </v>
   <v>       0.66694770       0.16572032       0.50843898 </v>
   <v>       0.83333333       0.33333333       0.40830017 </v>
   <v>       0.83333333       0.58333333       0.40830017 </v>
   <v>       0.66596406       0.66769331       0.50814526 </v>
   <v>      -0.00073493      -0.00029122       0.60368925 </v>
   <v>       0.91674400       0.16487272       0.50852134 </v>
   <v>       0.33333333       0.33333333       0.40830017 </v>
   <v>       0.08333333       0.58333333       0.40830017 </v>
   <v>       0.50039992       0.50013467       0.60637113 </v>
   <v>       0.74839803       0.75183002       0.60376991 </v>
  </varray>
  <varray name="selective"  type="logical" >
   <v type="logical" >  F  F  F </v>
   <v type="logical" >  T  T  T </v>
   <v type="logical" >  F  F  F </v>
   <v type="logical" >  T  T  T </v>
   <v type="logical" >  T  T  T </v>
   <v type="logical" >  T  T  T </v>
   <v type="logical" >  T  T  T </v>
   <v type="logical" >  T  T  T </v>
   <v type="logical" >  F  F  F </v>
   <v type="logical" >  F  F  F </v>
   <v type="logical" >  T  T  T </v>
   <v type="logical" >  T  T  T </v>
   <v type="logical" >  T  T  T </v>
   <v type="logical" >  F  F  F </v>
   <v type="logical" >  F  F  F </v>
   <v type="logical" >  T  T  T </v>
   <v type="logical" >  F  F  F </v>
   <v type="logical" >  T  T  T </v>
   <v type="logical" >  F  F  F </v>
   <v type="logical" >  T  T  T </v>
   <v type="logical" >  F  F  F </v>
   <v type="logical" >  T  T  T </v>
   <v type="logical" >  T  T  T </v>
   <v type="logical" >  T  T  T </v>
   <v type="logical" >  T  T  T </v>
   <v type="logical" >  T  T  T </v>
   <v type="logical" >  F  F  F </v>
   <v type="logical" >  T  T  T </v>
   <v type="logical" >  F  F  F </v>
   <v type="logical" >  T  T  T </v>
   <v type="logical" >  F  F  F </v>
   <v type="logical" >  T  T  T </v>
   <v type="logical" >  T  T  T </v>
   <v type="logical" >  T  T  T </v>
   <v type="logical" >  T  T  T </v>
   <v type="logical" >  T  T  T </v>
   <v type="logical" >  T  T  T </v>
   <v type="logical" >  T  T  T </v>
   <v type="logical" >  T  T  T </v>
   <v type="logical" >  F  F  F </v>
   <v type="logical" >  F  F  F </v>
   <v type="logical" >  T  T  T </v>
   <v type="logical" >  T  T  T </v>
   <v type="logical" >  T  T  T </v>
   <v type="logical" >  F  F  F </v>
   <v type="logical" >  F  F  F </v>
   <v type="logical" >  T  T  T </v>
   <v type="logical" >  T  T  T </v>
  </varray>
  <nose>
   <v>      -3.00000000       0.00000000       0.00010000       0.00010000 </v>
  </nose>
 </structure>
</modeling>
