unknown system                          
           1
    11.002582    0.000000    0.000000
     5.501291    9.528515    0.000000
     0.000000    0.000000   24.491785
   Au   Pd
  24  24
Direct configuration=     1
   0.08333333  0.08333333  0.40830017
   0.91666667  0.41666667  0.50000000
   0.08333333  0.33333333  0.40830017
   0.00000000  0.75000000  0.59169983
   0.16666667  0.16666667  0.50000000
   0.25000000  0.00000000  0.59169983
   0.25000000  0.75000000  0.59169983
   0.25000000  0.25000000  0.59169983
   0.58333333  0.58333333  0.40830017
   0.83333333  0.83333333  0.40830017
   0.75000000  0.50000000  0.59169983
   0.75000000  0.25000000  0.59169983
   0.00000000  0.25000000  0.59169983
   0.83333333  0.08333333  0.40830017
   0.58333333  0.83333333  0.40830017
   0.50000000  0.25000000  0.59169983
   0.33333333  0.58333333  0.40830017
   0.41666667  0.41666667  0.50000000
   0.58333333  0.33333333  0.40830017
   0.66666667  0.91666667  0.50000000
   0.33333333  0.83333333  0.40830017
   0.25000000  0.50000000  0.59169983
   0.16666667  0.66666667  0.50000000
   0.66666667  0.41666667  0.50000000
   0.91666667  0.66666667  0.50000000
   0.00000000  0.50000000  0.59169983
   0.08333333  0.83333333  0.40830017
   0.91666667  0.91666667  0.50000000
   0.33333333  0.08333333  0.40830017
   0.41666667  0.16666667  0.50000000
   0.58333333  0.08333333  0.40830017
   0.16666667  0.91666667  0.50000000
   0.41666667  0.66666667  0.50000000
   0.50000000  0.00000000  0.59169983
   0.16666667  0.41666667  0.50000000
   0.75000000  0.00000000  0.59169983
   0.41666667  0.91666667  0.50000000
   0.50000000  0.75000000  0.59169983
   0.66666667  0.16666667  0.50000000
   0.83333333  0.33333333  0.40830017
   0.83333333  0.58333333  0.40830017
   0.66666667  0.66666667  0.50000000
   0.00000000  0.00000000  0.59169983
   0.91666667  0.16666667  0.50000000
   0.33333333  0.33333333  0.40830017
   0.08333333  0.58333333  0.40830017
   0.50000000  0.50000000  0.59169983
   0.75000000  0.75000000  0.59169983
Direct configuration=     2
   0.08333333  0.08333333  0.40830017
   0.91629513  0.41858098  0.49960212
   0.08333333  0.33333333  0.40830017
  -0.00192389  0.75094487  0.59351755
   0.16844716  0.16540029  0.49963290
   0.25109023 -0.00140547  0.59353790
   0.25107539  0.75033574  0.59351949
   0.25036870  0.25019923  0.59363847
   0.58333333  0.58333333  0.40830017
   0.83333333  0.83333333  0.40830017
   0.74894403  0.50211107  0.59384728
   0.75027297  0.24858512  0.59360929
  -0.00028617  0.24970994  0.59392733
   0.83333333  0.08333333  0.40830017
   0.58333333  0.83333333  0.40830017
   0.50095053  0.24880049  0.59358125
   0.33333333  0.58333333  0.40830017
   0.41658782  0.41575397  0.49994277
   0.58333333  0.33333333  0.40830017
   0.66617150  0.91734963  0.50072840
   0.33333333  0.83333333  0.40830017
   0.24965797  0.49978971  0.59392023
   0.16502238  0.66789766  0.49925663
   0.66663121  0.41684742  0.50001510
   0.91662016  0.66610074  0.50001168
  -0.00044753  0.50074943  0.59273082
   0.08333333  0.83333333  0.40830017
   0.91689514  0.91743139  0.50026398
   0.33333333  0.08333333  0.40830017
   0.41704826  0.16607423  0.49955816
   0.58333333  0.08333333  0.40830017
   0.16598320  0.91671092  0.50001613
   0.41710329  0.66785469  0.50046246
   0.50105583 -0.00093604  0.59251605
   0.16640171  0.41710425  0.49965169
   0.75021939 -0.00043492  0.59253909
   0.41696563  0.91624293  0.50026994
   0.50029957  0.74998649  0.59241330
   0.66715626  0.16519250  0.50005179
   0.83333333  0.33333333  0.40830017
   0.83333333  0.58333333  0.40830017
   0.66637265  0.66752460  0.50031970
  -0.00078331  0.00016710  0.59253150
   0.91669540  0.16502267  0.49999578
   0.33333333  0.33333333  0.40830017
   0.08333333  0.58333333  0.40830017
   0.49996898  0.50077079  0.59295065
   0.74964979  0.75043952  0.59250056
Direct configuration=     3
   0.08333333  0.08333333  0.40830017
   0.91522028  0.42411918  0.49845103
   0.08333333  0.33333333  0.40830017
  -0.00748979  0.75367840  0.59877628
   0.17359820  0.16173659  0.49857086
   0.25424430 -0.00547156  0.59885551
   0.25418655  0.75130704  0.59878383
   0.25143538  0.25077561  0.59924702
   0.58333333  0.58333333  0.40830017
   0.83333333  0.83333333  0.40830017
   0.74588907  0.50821848  0.60005993
   0.75106268  0.24449179  0.59913345
  -0.00111409  0.24887078  0.60037158
   0.83333333  0.08333333  0.40830017
   0.58333333  0.83333333  0.40830017
   0.50370047  0.24533024  0.59902428
   0.33333333  0.58333333  0.40830017
   0.41635970  0.41311349  0.49977722
   0.58333333  0.33333333  0.40830017
   0.66473897  0.91932549  0.50283568
   0.33333333  0.83333333  0.40830017
   0.24866848  0.49918132  0.60034395
   0.16026539  0.67145898  0.49710603
   0.66652864  0.41737036  0.50005878
   0.91648562  0.66446350  0.50004548
  -0.00174225  0.50291758  0.59571352
   0.08333333  0.83333333  0.40830017
   0.91755614  0.91964377  0.50102767
   0.33333333  0.08333333  0.40830017
   0.41815223  0.16436026  0.49827988
   0.58333333  0.08333333  0.40830017
   0.16400591  0.91683893  0.50006281
   0.41836647  0.67129170  0.50180037
   0.50411040 -0.00364405  0.59487742
   0.16563516  0.41837021  0.49864401
   0.75085409 -0.00169315  0.59496710
   0.41783056  0.91501703  0.50105091
   0.50116626  0.74994741  0.59447740
   0.66857268  0.16092767  0.50020162
   0.83333333  0.33333333  0.40830017
   0.83333333  0.58333333  0.40830017
   0.66552204  0.67000665  0.50124461
  -0.00304946  0.00065053  0.59493755
   0.91677853  0.16026651  0.49998356
   0.33333333  0.33333333  0.40830017
   0.08333333  0.58333333  0.40830017
   0.49987924  0.50300073  0.59656932
   0.74863660  0.75171106  0.59481711
Direct configuration=     4
   0.08333333  0.08333333  0.40830017
   0.91500567  0.42285841  0.50011294
   0.08333333  0.33333333  0.40830017
  -0.00709895  0.75356549  0.60095517
   0.17344613  0.16183071  0.50050305
   0.25430932 -0.00459298  0.60106796
   0.25344543  0.75045875  0.60090232
   0.25138278  0.25005693  0.60133030
   0.58333333  0.58333333  0.40830017
   0.83333333  0.83333333  0.40830017
   0.74609188  0.50810549  0.60263542
   0.75074821  0.24517757  0.60137505
  -0.00125018  0.24923724  0.60257588
   0.83333333  0.08333333  0.40830017
   0.58333333  0.83333333  0.40830017
   0.50385365  0.24508442  0.60123481
   0.33333333  0.58333333  0.40830017
   0.41568981  0.41324059  0.50167417
   0.58333333  0.33333333  0.40830017
   0.66544768  0.91873548  0.50366390
   0.33333333  0.83333333  0.40830017
   0.24836203  0.50041200  0.60270531
   0.16011429  0.67154039  0.49881638
   0.66752866  0.41659648  0.50194447
   0.91598425  0.66603124  0.50095881
  -0.00212438  0.50284613  0.59690494
   0.08333333  0.83333333  0.40830017
   0.91740410  0.91891086  0.50204878
   0.33333333  0.08333333  0.40830017
   0.41803664  0.16457964  0.49914486
   0.58333333  0.08333333  0.40830017
   0.16448454  0.91650816  0.50135972
   0.41756565  0.67162669  0.50299595
   0.50419815 -0.00390304  0.59625600
   0.16643643  0.41815723  0.49984099
   0.75077094 -0.00200153  0.59647070
   0.41757615  0.91499039  0.50205525
   0.50176614  0.75021650  0.59587671
   0.66824065  0.16127589  0.50132646
   0.83333333  0.33333333  0.40830017
   0.83333333  0.58333333  0.40830017
   0.66561758  0.67034135  0.50222961
  -0.00246679 -0.00007760  0.59617519
   0.91670438  0.16145179  0.50132578
   0.33333333  0.33333333  0.40830017
   0.08333333  0.58333333  0.40830017
   0.50020605  0.50233843  0.59792619
   0.74825948  0.75216741  0.59620129
Direct configuration=     5
   0.08333333  0.08333333  0.40830017
   0.91436185  0.41907610  0.50509867
   0.08333333  0.33333333  0.40830017
  -0.00592641  0.75322676  0.60749184
   0.17298992  0.16211309  0.50629963
   0.25450439 -0.00195724  0.60770530
   0.25122206  0.74791389  0.60725778
   0.25122498  0.24790090  0.60758015
   0.58333333  0.58333333  0.40830017
   0.83333333  0.83333333  0.40830017
   0.74670033  0.50776653  0.61036187
   0.74980479  0.24723488  0.60809983
  -0.00165845  0.25033660  0.60918877
   0.83333333  0.08333333  0.40830017
   0.58333333  0.83333333  0.40830017
   0.50431319  0.24434695  0.60786640
   0.33333333  0.58333333  0.40830017
   0.41368012  0.41362188  0.50736502
   0.58333333  0.33333333  0.40830017
   0.66757378  0.91696545  0.50614856
   0.33333333  0.83333333  0.40830017
   0.24744269  0.50410406  0.60978938
   0.15966100  0.67178464  0.50394745
   0.67052872  0.41427485  0.50760154
   0.91448013  0.67073443  0.50369880
  -0.00327078  0.50263178  0.60047919
   0.08333333  0.83333333  0.40830017
   0.91694799  0.91671211  0.50511212
   0.33333333  0.08333333  0.40830017
   0.41768986  0.16523777  0.50173978
   0.58333333  0.08333333  0.40830017
   0.16592043  0.91551584  0.50525046
   0.41516318  0.67263165  0.50658270
   0.50446139 -0.00467999  0.60039175
   0.16884024  0.41751832  0.50343192
   0.75052149 -0.00292666  0.60098150
   0.41681293  0.91491049  0.50506828
   0.50356579  0.75102379  0.60007463
   0.66724456  0.16232054  0.50470099
   0.83333333  0.33333333  0.40830017
   0.83333333  0.58333333  0.40830017
   0.66590421  0.67134543  0.50518462
  -0.00071878 -0.00226196  0.59988814
   0.91648193  0.16500764  0.50535246
   0.33333333  0.33333333  0.40830017
   0.08333333  0.58333333  0.40830017
   0.50118650  0.50035155  0.60199678
   0.74712811  0.75353643  0.60035380
Direct configuration=     6
   0.08333333  0.08333333  0.40830017
   0.91422299  0.41826030  0.50617402
   0.08333333  0.33333333  0.40830017
  -0.00567351  0.75315370  0.60890171
   0.17289152  0.16217400  0.50754988
   0.25454646 -0.00138875  0.60913688
   0.25074251  0.74736499  0.60862857
   0.25119095  0.24743587  0.60892815
   0.58333333  0.58333333  0.40830017
   0.83333333  0.83333333  0.40830017
   0.74683156  0.50769342  0.61202837
   0.74960131  0.24767862  0.60955027
  -0.00174651  0.25057372  0.61061508
   0.83333333  0.08333333  0.40830017
   0.58333333  0.83333333  0.40830017
   0.50441230  0.24418789  0.60929675
   0.33333333  0.58333333  0.40830017
   0.41324666  0.41370413  0.50859246
   0.58333333  0.33333333  0.40830017
   0.66803236  0.91658368  0.50668447
   0.33333333  0.83333333  0.40830017
   0.24724441  0.50490039  0.61131732
   0.15956323  0.67183732  0.50505416
   0.67117580  0.41377410  0.50882169
   0.91415571  0.67174885  0.50428978
  -0.00351804  0.50258555  0.60125011
   0.08333333  0.83333333  0.40830017
   0.91684961  0.91623787  0.50577284
   0.33333333  0.08333333  0.40830017
   0.41761507  0.16537973  0.50229947
   0.58333333  0.08333333  0.40830017
   0.16623014  0.91530181  0.50608964
   0.41464500  0.67284841  0.50735631
   0.50451817 -0.00484757  0.60128378
   0.16935871  0.41738051  0.50420644
   0.75046768 -0.00312619  0.60195442
   0.41664831  0.91489326  0.50571816
   0.50395395  0.75119791  0.60098007
   0.66702972  0.16254586  0.50542883
   0.83333333  0.33333333  0.40830017
   0.83333333  0.58333333  0.40830017
   0.66596603  0.67156200  0.50582198
  -0.00034176 -0.00273310  0.60068897
   0.91643395  0.16577459  0.50622096
   0.33333333  0.33333333  0.40830017
   0.08333333  0.58333333  0.40830017
   0.50139796  0.49992300  0.60287475
   0.74688409  0.75383172  0.60124945
Direct configuration=     7
   0.08333333  0.08333333  0.40830017
   0.91668489  0.41879803  0.50714588
   0.08333333  0.33333333  0.40830017
  -0.00519398  0.75200542  0.60983650
   0.17056174  0.16400538  0.50868961
   0.25358128 -0.00331535  0.60997886
   0.25168214  0.74980435  0.60937200
   0.25143389  0.25013840  0.60963391
   0.58333333  0.58333333  0.40830017
   0.83333333  0.83333333  0.40830017
   0.74747263  0.50609228  0.61307587
   0.75079209  0.24733716  0.61046699
  -0.00210136  0.25046298  0.61142355
   0.83333333  0.08333333  0.40830017
   0.58333333  0.83333333  0.40830017
   0.50204925  0.24560734  0.61008979
   0.33333333  0.58333333  0.40830017
   0.41521068  0.41518746  0.50958072
   0.58333333  0.33333333  0.40830017
   0.66584651  0.91850822  0.50683703
   0.33333333  0.83333333  0.40830017
   0.24774486  0.50113364  0.61219697
   0.16251249  0.66955322  0.50637657
   0.66741837  0.41585581  0.50960626
   0.91589663  0.66805156  0.50540770
  -0.00214319  0.50197565  0.60162845
   0.08333333  0.83333333  0.40830017
   0.91657153  0.91832430  0.50656086
   0.33333333  0.08333333  0.40830017
   0.41767781  0.16508292  0.50393380
   0.58333333  0.08333333  0.40830017
   0.16594097  0.91656827  0.50724309
   0.41529985  0.66993674  0.50813323
   0.50323303 -0.00270547  0.60193309
   0.16653599  0.41741285  0.50566561
   0.75045932 -0.00171766  0.60289722
   0.41619381  0.91578854  0.50649262
   0.50153315  0.75066578  0.60210378
   0.66683562  0.16453090  0.50671370
   0.83333333  0.33333333  0.40830017
   0.83333333  0.58333333  0.40830017
   0.66666439  0.66826850  0.50655852
   0.00005256 -0.00138994  0.60139454
   0.91768381  0.16427730  0.50740568
   0.33333333  0.33333333  0.40830017
   0.08333333  0.58333333  0.40830017
   0.50130012  0.50000534  0.60368286
   0.74869522  0.75223319  0.60237258
Direct configuration=     8
   0.08333333  0.08333333  0.40830017
   0.91693685  0.41885307  0.50724535
   0.08333333  0.33333333  0.40830017
  -0.00514491  0.75188790  0.60993217
   0.17032330  0.16419281  0.50880626
   0.25348250 -0.00351252  0.61006503
   0.25177831  0.75005400  0.60944809
   0.25145875  0.25041499  0.60970614
   0.58333333  0.58333333  0.40830017
   0.83333333  0.83333333  0.40830017
   0.74753824  0.50592842  0.61318307
   0.75091396  0.24730221  0.61056081
  -0.00213767  0.25045164  0.61150629
   0.83333333  0.08333333  0.40830017
   0.58333333  0.83333333  0.40830017
   0.50180741  0.24575261  0.61017095
   0.33333333  0.58333333  0.40830017
   0.41541168  0.41533927  0.50968186
   0.58333333  0.33333333  0.40830017
   0.66562281  0.91870519  0.50685264
   0.33333333  0.83333333  0.40830017
   0.24779608  0.50074814  0.61228700
   0.16281433  0.66931946  0.50651191
   0.66703382  0.41606886  0.50968656
   0.91607480  0.66767317  0.50552211
  -0.00200248  0.50191324  0.60166717
   0.08333333  0.83333333  0.40830017
   0.91654307  0.91853783  0.50664151
   0.33333333  0.08333333  0.40830017
   0.41768423  0.16505254  0.50410106
   0.58333333  0.08333333  0.40830017
   0.16591138  0.91669788  0.50736114
   0.41536687  0.66963875  0.50821274
   0.50310151 -0.00248624  0.60199954
   0.16624710  0.41741616  0.50581495
   0.75045846 -0.00157350  0.60299371
   0.41614729  0.91588017  0.50657188
   0.50128540  0.75061132  0.60221878
   0.66681576  0.16473405  0.50684520
   0.83333333  0.33333333  0.40830017
   0.83333333  0.58333333  0.40830017
   0.66673587  0.66793143  0.50663390
   0.00009291 -0.00125248  0.60146675
   0.91781173  0.16412406  0.50752693
   0.33333333  0.33333333  0.40830017
   0.08333333  0.58333333  0.40830017
   0.50129010  0.50001377  0.60376557
   0.74888058  0.75206959  0.60248753
Direct configuration=     9
   0.08333333  0.08333333  0.40830017
   0.91617444  0.41871482  0.50728009
   0.08333333  0.33333333  0.40830017
  -0.00409654  0.75161251  0.60993685
   0.16961454  0.16479877  0.50908270
   0.25286536 -0.00270249  0.61019001
   0.25187885  0.74959312  0.60953636
   0.25072040  0.25037182  0.60978335
   0.58333333  0.58333333  0.40830017
   0.83333333  0.83333333  0.40830017
   0.74766478  0.50537700  0.61329235
   0.75077738  0.24712434  0.61071169
  -0.00121888  0.25021144  0.61165262
   0.83333333  0.08333333  0.40830017
   0.58333333  0.83333333  0.40830017
   0.50187905  0.24659686  0.61026633
   0.33333333  0.58333333  0.40830017
   0.41510099  0.41520748  0.50960372
   0.58333333  0.33333333  0.40830017
   0.66568332  0.91826206  0.50700270
   0.33333333  0.83333333  0.40830017
   0.24818091  0.50053316  0.61241561
   0.16349967  0.66880010  0.50700624
   0.66754796  0.41642811  0.50953774
   0.91645271  0.66729883  0.50598783
  -0.00150928  0.50141196  0.60214102
   0.08333333  0.83333333  0.40830017
   0.91682041  0.91843295  0.50695698
   0.33333333  0.08333333  0.40830017
   0.41671568  0.16640128  0.50503809
   0.58333333  0.08333333  0.40830017
   0.16633570  0.91670253  0.50764517
   0.41548967  0.66923894  0.50832311
   0.50240858 -0.00198406  0.60217954
   0.16676681  0.41703316  0.50635099
   0.75045651 -0.00090825  0.60328854
   0.41585258  0.91578720  0.50694867
   0.50102648  0.74996076  0.60266632
   0.66686688  0.16596335  0.50753137
   0.83333333  0.33333333  0.40830017
   0.83333333  0.58333333  0.40830017
   0.66679934  0.66663493  0.50714541
  -0.00016390 -0.00067726  0.60201927
   0.91726230  0.16469331  0.50785897
   0.33333333  0.33333333  0.40830017
   0.08333333  0.58333333  0.40830017
   0.50078088  0.50024172  0.60460962
   0.74890150  0.75157673  0.60275265
Direct configuration=    10
   0.08333333  0.08333333  0.40830017
   0.91579588  0.41864618  0.50729733
   0.08333333  0.33333333  0.40830017
  -0.00357599  0.75147576  0.60993918
   0.16926262  0.16509965  0.50921996
   0.25255893 -0.00230028  0.61025207
   0.25192878  0.74936428  0.60958020
   0.25035378  0.25035039  0.60982169
   0.58333333  0.58333333  0.40830017
   0.83333333  0.83333333  0.40830017
   0.74772762  0.50510320  0.61334661
   0.75070957  0.24703602  0.61078660
  -0.00076267  0.25009217  0.61172528
   0.83333333  0.08333333  0.40830017
   0.58333333  0.83333333  0.40830017
   0.50191462  0.24701605  0.61031368
   0.33333333  0.58333333  0.40830017
   0.41494672  0.41514204  0.50956493
   0.58333333  0.33333333  0.40830017
   0.66571337  0.91804203  0.50707720
   0.33333333  0.83333333  0.40830017
   0.24837199  0.50042641  0.61247947
   0.16383997  0.66854222  0.50725170
   0.66780324  0.41660649  0.50946385
   0.91664036  0.66711296  0.50621908
  -0.00126438  0.50116305  0.60237630
   0.08333333  0.83333333  0.40830017
   0.91695812  0.91838087  0.50711362
   0.33333333  0.08333333  0.40830017
   0.41623475  0.16707098  0.50550335
   0.58333333  0.08333333  0.40830017
   0.16654640  0.91670483  0.50778620
   0.41555065  0.66904043  0.50837791
   0.50206452 -0.00173471  0.60226891
   0.16702486  0.41684300  0.50661715
   0.75045554 -0.00057792  0.60343494
   0.41570624  0.91574104  0.50713576
   0.50089792  0.74963773  0.60288855
   0.66689227  0.16657374  0.50787207
   0.83333333  0.33333333  0.40830017
   0.83333333  0.58333333  0.40830017
   0.66683085  0.66599117  0.50739939
  -0.00029142 -0.00039165  0.60229361
   0.91698949  0.16497596  0.50802385
   0.33333333  0.33333333  0.40830017
   0.08333333  0.58333333  0.40830017
   0.50052803  0.50035491  0.60502873
   0.74891189  0.75133201  0.60288429
Direct configuration=    11
   0.08333333  0.08333333  0.40830017
   0.91587705  0.41862672  0.50722028
   0.08333333  0.33333333  0.40830017
  -0.00366307  0.75181341  0.60981369
   0.16920264  0.16496675  0.50906012
   0.25276924 -0.00247356  0.61030871
   0.25170789  0.74936871  0.60962082
   0.25057979  0.25009533  0.60997465
   0.58333333  0.58333333  0.40830017
   0.83333333  0.83333333  0.40830017
   0.74789879  0.50462845  0.61333884
   0.75076095  0.24753998  0.61089486
  -0.00112793  0.25033450  0.61188556
   0.83333333  0.08333333  0.40830017
   0.58333333  0.83333333  0.40830017
   0.50184191  0.24720678  0.61039094
   0.33333333  0.58333333  0.40830017
   0.41514595  0.41513192  0.50939548
   0.58333333  0.33333333  0.40830017
   0.66579808  0.91795408  0.50727003
   0.33333333  0.83333333  0.40830017
   0.24859236  0.50053234  0.61259589
   0.16350460  0.66891238  0.50728643
   0.66754006  0.41655244  0.50943964
   0.91662204  0.66736013  0.50643631
  -0.00153160  0.50125644  0.60277472
   0.08333333  0.83333333  0.40830017
   0.91719289  0.91798069  0.50727897
   0.33333333  0.08333333  0.40830017
   0.41624805  0.16706824  0.50594793
   0.58333333  0.08333333  0.40830017
   0.16650891  0.91663718  0.50787117
   0.41566988  0.66902885  0.50840781
   0.50220988 -0.00197398  0.60236509
   0.16696364  0.41695164  0.50678472
   0.75050399 -0.00120404  0.60358239
   0.41579532  0.91564671  0.50732507
   0.50098696  0.74961181  0.60320949
   0.66695074  0.16638755  0.50809856
   0.83333333  0.33333333  0.40830017
   0.83333333  0.58333333  0.40830017
   0.66647094  0.66668333  0.50767725
  -0.00035186 -0.00039578  0.60271387
   0.91681599  0.16500375  0.50812365
   0.33333333  0.33333333  0.40830017
   0.08333333  0.58333333  0.40830017
   0.50060345  0.50026013  0.60560133
   0.74864461  0.75166446  0.60299366
Direct configuration=    12
   0.08333333  0.08333333  0.40830017
   0.91594174  0.41861121  0.50715886
   0.08333333  0.33333333  0.40830017
  -0.00373248  0.75208252  0.60971368
   0.16915483  0.16486083  0.50893272
   0.25293686 -0.00261168  0.61035385
   0.25153184  0.74937224  0.60965320
   0.25075993  0.24989202  0.61009658
   0.58333333  0.58333333  0.40830017
   0.83333333  0.83333333  0.40830017
   0.74803521  0.50425006  0.61333265
   0.75080190  0.24794167  0.61098116
  -0.00141905  0.25052765  0.61201331
   0.83333333  0.08333333  0.40830017
   0.58333333  0.83333333  0.40830017
   0.50178396  0.24735880  0.61045252
   0.33333333  0.58333333  0.40830017
   0.41530475  0.41512385  0.50926041
   0.58333333  0.33333333  0.40830017
   0.66586560  0.91788399  0.50742372
   0.33333333  0.83333333  0.40830017
   0.24876800  0.50061677  0.61268868
   0.16323729  0.66920742  0.50731411
   0.66733029  0.41650935  0.50942034
   0.91660745  0.66755713  0.50660946
  -0.00174459  0.50133087  0.60309228
   0.08333333  0.83333333  0.40830017
   0.91738001  0.91766172  0.50741076
   0.33333333  0.08333333  0.40830017
   0.41625864  0.16706606  0.50630228
   0.58333333  0.08333333  0.40830017
   0.16647903  0.91658325  0.50793890
   0.41576492  0.66901962  0.50843164
   0.50232574 -0.00216469  0.60244175
   0.16691485  0.41703824  0.50691827
   0.75054261 -0.00170308  0.60369991
   0.41586633  0.91557153  0.50747596
   0.50105793  0.74959115  0.60346530
   0.66699734  0.16623915  0.50827907
   0.83333333  0.33333333  0.40830017
   0.83333333  0.58333333  0.40830017
   0.66618408  0.66723501  0.50789872
  -0.00040004 -0.00039908  0.60304885
   0.91667771  0.16502590  0.50820319
   0.33333333  0.33333333  0.40830017
   0.08333333  0.58333333  0.40830017
   0.50066357  0.50018458  0.60605772
   0.74843157  0.75192944  0.60308084
Direct configuration=    13
   0.08333333  0.08333333  0.40830017
   0.91582629  0.41910582  0.50716709
   0.08333333  0.33333333  0.40830017
  -0.00389306  0.75193925  0.60964333
   0.16933734  0.16459136  0.50875660
   0.25296216 -0.00276764  0.61040008
   0.25157547  0.74952188  0.60971129
   0.25080695  0.24985756  0.61028889
   0.58333333  0.58333333  0.40830017
   0.83333333  0.83333333  0.40830017
   0.74787599  0.50461059  0.61328279
   0.75066519  0.24778365  0.61111770
  -0.00109324  0.25034473  0.61215958
   0.83333333  0.08333333  0.40830017
   0.58333333  0.83333333  0.40830017
   0.50211634  0.24709014  0.61056036
   0.33333333  0.58333333  0.40830017
   0.41527170  0.41546796  0.50921037
   0.58333333  0.33333333  0.40830017
   0.66583558  0.91824734  0.50744662
   0.33333333  0.83333333  0.40830017
   0.24861375  0.50064587  0.61279070
   0.16340295  0.66909373  0.50718157
   0.66699759  0.41675615  0.50952451
   0.91646297  0.66745718  0.50677325
  -0.00198140  0.50164079  0.60345152
   0.08333333  0.83333333  0.40830017
   0.91717709  0.91794494  0.50754188
   0.33333333  0.08333333  0.40830017
   0.41643781  0.16674175  0.50659496
   0.58333333  0.08333333  0.40830017
   0.16624514  0.91669137  0.50803981
   0.41580644  0.66903346  0.50861118
   0.50255485 -0.00242117  0.60269300
   0.16672027  0.41729802  0.50707012
   0.75023210 -0.00147749  0.60391983
   0.41585242  0.91565711  0.50760206
   0.50116731  0.74939933  0.60387874
   0.66722609  0.16541161  0.50845274
   0.83333333  0.33333333  0.40830017
   0.83333333  0.58333333  0.40830017
   0.66609496  0.66763860  0.50809777
  -0.00058056 -0.00019042  0.60342830
   0.91672384  0.16467055  0.50832258
   0.33333333  0.33333333  0.40830017
   0.08333333  0.58333333  0.40830017
   0.50062441  0.50025933  0.60645414
   0.74837011  0.75177661  0.60334409
Direct configuration=    14
   0.08333333  0.08333333  0.40830017
   0.91581625  0.41914883  0.50716780
   0.08333333  0.33333333  0.40830017
  -0.00390703  0.75192679  0.60963722
   0.16935321  0.16456793  0.50874128
   0.25296436 -0.00278120  0.61040410
   0.25157926  0.74953489  0.60971634
   0.25081104  0.24985457  0.61030561
   0.58333333  0.58333333  0.40830017
   0.83333333  0.83333333  0.40830017
   0.74786215  0.50464194  0.61327845
   0.75065330  0.24776991  0.61112957
  -0.00106491  0.25032883  0.61217230
   0.83333333  0.08333333  0.40830017
   0.58333333  0.83333333  0.40830017
   0.50214524  0.24706677  0.61056974
   0.33333333  0.58333333  0.40830017
   0.41526882  0.41549788  0.50920602
   0.58333333  0.33333333  0.40830017
   0.66583297  0.91827894  0.50744861
   0.33333333  0.83333333  0.40830017
   0.24860033  0.50064840  0.61279957
   0.16341735  0.66908384  0.50717004
   0.66696866  0.41677761  0.50953357
   0.91645041  0.66744849  0.50678749
  -0.00200199  0.50166774  0.60348276
   0.08333333  0.83333333  0.40830017
   0.91715944  0.91796956  0.50755328
   0.33333333  0.08333333  0.40830017
   0.41645339  0.16671355  0.50662041
   0.58333333  0.08333333  0.40830017
   0.16622480  0.91670077  0.50804858
   0.41581005  0.66903467  0.50862679
   0.50257477 -0.00244347  0.60271484
   0.16670335  0.41732061  0.50708332
   0.75020510 -0.00145788  0.60393895
   0.41585121  0.91566456  0.50761303
   0.50117682  0.74938265  0.60391469
   0.66724598  0.16533964  0.50846785
   0.83333333  0.33333333  0.40830017
   0.83333333  0.58333333  0.40830017
   0.66608721  0.66767370  0.50811508
  -0.00059626 -0.00017227  0.60346130
   0.91672785  0.16463965  0.50833296
   0.33333333  0.33333333  0.40830017
   0.08333333  0.58333333  0.40830017
   0.50062100  0.50026583  0.60648861
   0.74836476  0.75176333  0.60336698
Direct configuration=    15
   0.08333333  0.08333333  0.40830017
   0.91564999  0.41916689  0.50728237
   0.08333333  0.33333333  0.40830017
  -0.00393787  0.75184081  0.60965190
   0.16930246  0.16480275  0.50875212
   0.25291763 -0.00268897  0.61041071
   0.25157467  0.74954030  0.60974546
   0.25074092  0.24996492  0.61037832
   0.58333333  0.58333333  0.40830017
   0.83333333  0.83333333  0.40830017
   0.74785322  0.50474620  0.61324527
   0.75067517  0.24757802  0.61119981
  -0.00084360  0.25026487  0.61216578
   0.83333333  0.08333333  0.40830017
   0.58333333  0.83333333  0.40830017
   0.50206726  0.24699615  0.61064172
   0.33333333  0.58333333  0.40830017
   0.41528261  0.41534109  0.50935134
   0.58333333  0.33333333  0.40830017
   0.66584861  0.91815567  0.50740572
   0.33333333  0.83333333  0.40830017
   0.24849408  0.50055432  0.61281098
   0.16349176  0.66899289  0.50705696
   0.66717554  0.41672060  0.50969195
   0.91633638  0.66749194  0.50678342
  -0.00194226  0.50161144  0.60357791
   0.08333333  0.83333333  0.40830017
   0.91713091  0.91808107  0.50760074
   0.33333333  0.08333333  0.40830017
   0.41638424  0.16679739  0.50660441
   0.58333333  0.08333333  0.40830017
   0.16611011  0.91671685  0.50811312
   0.41575983  0.66928375  0.50880354
   0.50259592 -0.00252921  0.60291791
   0.16678647  0.41717723  0.50713398
   0.75020935 -0.00125690  0.60411483
   0.41588245  0.91563192  0.50766327
   0.50105460  0.74939925  0.60409835
   0.66708963  0.16553772  0.50845967
   0.83333333  0.33333333  0.40830017
   0.83333333  0.58333333  0.40830017
   0.66605459  0.66768859  0.50811621
  -0.00072575 -0.00016725  0.60356696
   0.91670726  0.16475907  0.50841226
   0.33333333  0.33333333  0.40830017
   0.08333333  0.58333333  0.40830017
   0.50049217  0.50025933  0.60645576
   0.74842316  0.75171126  0.60356277
Direct configuration=    16
   0.08333333  0.08333333  0.40830017
   0.91557598  0.41917493  0.50733337
   0.08333333  0.33333333  0.40830017
  -0.00395160  0.75180253  0.60965843
   0.16927986  0.16490727  0.50875694
   0.25289682 -0.00264791  0.61041366
   0.25157262  0.74954271  0.60975842
   0.25070971  0.25001405  0.61041069
   0.58333333  0.58333333  0.40830017
   0.83333333  0.83333333  0.40830017
   0.74784925  0.50479262  0.61323051
   0.75068490  0.24749260  0.61123108
  -0.00074508  0.25023641  0.61216287
   0.83333333  0.08333333  0.40830017
   0.58333333  0.83333333  0.40830017
   0.50203255  0.24696471  0.61067377
   0.33333333  0.58333333  0.40830017
   0.41528875  0.41527129  0.50941602
   0.58333333  0.33333333  0.40830017
   0.66585557  0.91810080  0.50738662
   0.33333333  0.83333333  0.40830017
   0.24844679  0.50051244  0.61281606
   0.16352489  0.66895240  0.50700662
   0.66726763  0.41669522  0.50976246
   0.91628562  0.66751128  0.50678161
  -0.00191568  0.50158637  0.60362026
   0.08333333  0.83333333  0.40830017
   0.91711821  0.91813070  0.50762187
   0.33333333  0.08333333  0.40830017
   0.41635346  0.16683471  0.50659729
   0.58333333  0.08333333  0.40830017
   0.16605905  0.91672401  0.50814185
   0.41573748  0.66939463  0.50888222
   0.50260533 -0.00256737  0.60300831
   0.16682347  0.41711341  0.50715653
   0.75021124 -0.00116743  0.60419312
   0.41589636  0.91561739  0.50768564
   0.50100019  0.74940663  0.60418011
   0.66702003  0.16562589  0.50845604
   0.83333333  0.33333333  0.40830017
   0.83333333  0.58333333  0.40830017
   0.66604007  0.66769521  0.50811672
  -0.00078339 -0.00016501  0.60361400
   0.91669809  0.16481222  0.50844756
   0.33333333  0.33333333  0.40830017
   0.08333333  0.58333333  0.40830017
   0.50043482  0.50025643  0.60644114
   0.74844915  0.75168808  0.60364992
Direct configuration=    17
   0.08333333  0.08333333  0.40830017
   0.91563551  0.41918638  0.50742664
   0.08333333  0.33333333  0.40830017
  -0.00393456  0.75182173  0.60966256