       N       E                     dE             d eps       ncg     rms          rms(c)
DAV:   1     0.360913336760E+04    0.36091E+04   -0.20996E+05  4080   0.112E+03
DAV:   2     0.534826367110E+02   -0.35557E+04   -0.32981E+04  4800   0.270E+02
DAV:   3    -0.252331405921E+03   -0.30581E+03   -0.28310E+03  4620   0.755E+01
DAV:   4    -0.263644062992E+03   -0.11313E+02   -0.11078E+02  4512   0.151E+01
DAV:   5    -0.263949040578E+03   -0.30498E+00   -0.30417E+00  4596   0.244E+00    0.660E+01
RMM:   6    -0.250787666401E+03    0.13161E+02   -0.18923E+02  4038   0.204E+01    0.627E+01
RMM:   7    -0.248762103013E+03    0.20256E+01   -0.56318E+01  4032   0.110E+01    0.576E+01
RMM:   8    -0.255123670829E+03   -0.63616E+01   -0.30008E+01  4032   0.778E+00    0.442E+01
RMM:   9    -0.264729822451E+03   -0.96062E+01   -0.64093E+01  4032   0.117E+01    0.600E+01
RMM:  10    -0.251508789158E+03    0.13221E+02   -0.47209E+01  4032   0.953E+00    0.402E+01
RMM:  11    -0.233113718750E+03    0.18395E+02   -0.13894E+01  4032   0.596E+00    0.156E+01
RMM:  12    -0.231075440506E+03    0.20383E+01   -0.93147E+00  4035   0.450E+00    0.157E+01
RMM:  13    -0.229833843600E+03    0.12416E+01   -0.18056E+00  4035   0.196E+00    0.121E+01
RMM:  14    -0.229486555883E+03    0.34729E+00   -0.55083E-01  4038   0.107E+00    0.930E+00
RMM:  15    -0.229336534350E+03    0.15002E+00   -0.35487E-01  4038   0.899E-01    0.769E+00
RMM:  16    -0.229127427387E+03    0.20911E+00   -0.18231E-01  4037   0.675E-01    0.487E+00
RMM:  17    -0.229018438473E+03    0.10899E+00   -0.95796E-02  4036   0.449E-01    0.414E+00
RMM:  18    -0.228960011077E+03    0.58427E-01   -0.63040E-02  4037   0.382E-01    0.315E+00
RMM:  19    -0.228874759144E+03    0.85252E-01   -0.56365E-02  4034   0.334E-01    0.179E+00
RMM:  20    -0.228853196781E+03    0.21562E-01   -0.30447E-02  4034   0.242E-01    0.106E+00
RMM:  21    -0.228848038000E+03    0.51588E-02   -0.93199E-03  4036   0.137E-01    0.759E-01
RMM:  22    -0.228847663659E+03    0.37434E-03   -0.53212E-03  4035   0.110E-01    0.659E-01
RMM:  23    -0.228846665601E+03    0.99806E-03   -0.44738E-03  4037   0.961E-02    0.401E-01
RMM:  24    -0.228845535868E+03    0.11297E-02   -0.16661E-03  4036   0.628E-02    0.189E-01
RMM:  25    -0.228845788763E+03   -0.25290E-03   -0.60137E-04  4035   0.367E-02    0.158E-01
RMM:  26    -0.228845997068E+03   -0.20830E-03   -0.28693E-04  4034   0.251E-02    0.963E-02
RMM:  27    -0.228846260261E+03   -0.26319E-03   -0.13335E-04  4033   0.173E-02    0.664E-02
RMM:  28    -0.228846457498E+03   -0.19724E-03   -0.47647E-05  4032   0.102E-02    0.392E-02
RMM:  29    -0.228846612227E+03   -0.15473E-03   -0.18494E-05  4026   0.625E-03    0.333E-02
RMM:  30    -0.228846866973E+03   -0.25475E-03   -0.15541E-05  4031   0.549E-03    0.248E-02
RMM:  31    -0.228847149107E+03   -0.28213E-03   -0.16155E-05  4002   0.517E-03    0.177E-02
RMM:  32    -0.228847430089E+03   -0.28098E-03   -0.14725E-05  3779   0.476E-03    0.164E-02
RMM:  33    -0.228847655299E+03   -0.22521E-03   -0.12613E-05  3511   0.417E-03    0.152E-02
RMM:  34    -0.228847799908E+03   -0.14461E-03   -0.80501E-06  3161   0.320E-03    0.104E-02
RMM:  35    -0.228847906747E+03   -0.10684E-03   -0.66881E-06  3026   0.284E-03    0.841E-03
RMM:  36    -0.228847959104E+03   -0.52357E-04   -0.36733E-06  2798   0.207E-03    0.691E-03
RMM:  37    -0.228847976478E+03   -0.17374E-04   -0.74921E-07  2367   0.109E-03    0.574E-03
RMM:  38    -0.228847999596E+03   -0.23119E-04   -0.48571E-07  2336   0.902E-04    0.374E-03
RMM:  39    -0.228848018838E+03   -0.19241E-04   -0.38425E-07  2319   0.841E-04    0.235E-03
RMM:  40    -0.228848038176E+03   -0.19338E-04   -0.33826E-07  2328   0.867E-04    0.225E-03
RMM:  41    -0.228848049355E+03   -0.11179E-04   -0.20269E-07  2201   0.667E-04    0.193E-03
RMM:  42    -0.228848056602E+03   -0.72473E-05   -0.15774E-07  1863   0.594E-04    0.118E-03
RMM:  43    -0.228848059787E+03   -0.31852E-05   -0.83037E-08  1462   0.456E-04    0.575E-04
RMM:  44    -0.228848061124E+03   -0.13368E-05   -0.44223E-08  1112   0.374E-04    0.325E-04
RMM:  45    -0.228848061923E+03   -0.79887E-06   -0.18969E-08   881   0.332E-04
   1 F= -.22884806E+03 E0= -.22871007E+03  d E =-.228848E+03
       N       E                     dE             d eps       ncg     rms          rms(c)
DAV:   1    -0.228871047857E+03   -0.22987E-01   -0.20698E+01  4176   0.795E+00    0.104E+00
RMM:   2    -0.228961847169E+03   -0.90799E-01   -0.57957E-01  4038   0.124E+00    0.262E+00
RMM:   3    -0.228928501186E+03    0.33346E-01   -0.34831E-02  4038   0.287E-01    0.126E+00
RMM:   4    -0.228932081346E+03   -0.35802E-02   -0.19104E-02  4041   0.205E-01    0.140E+00
RMM:   5    -0.228919582820E+03    0.12499E-01   -0.94132E-03  4038   0.150E-01    0.900E-01
RMM:   6    -0.228917292423E+03    0.22904E-02   -0.50806E-03  4038   0.107E-01    0.559E-01
RMM:   7    -0.228916870987E+03    0.42144E-03   -0.33988E-03  4036   0.906E-02    0.502E-01
RMM:   8    -0.228915614119E+03    0.12569E-02   -0.16045E-03  4036   0.633E-02    0.202E-01
RMM:   9    -0.228915390386E+03    0.22373E-03   -0.42138E-04  4035   0.328E-02    0.970E-02
RMM:  10    -0.228915346750E+03    0.43636E-04   -0.87589E-05  4035   0.145E-02    0.570E-02
RMM:  11    -0.228915330412E+03    0.16338E-04   -0.39090E-05  4032   0.965E-03    0.346E-02
RMM:  12    -0.228915339332E+03   -0.89205E-05   -0.44382E-05  4038   0.997E-03    0.347E-02
RMM:  13    -0.228915336035E+03    0.32971E-05   -0.18185E-05  4032   0.644E-03    0.141E-02
RMM:  14    -0.228915341127E+03   -0.50919E-05   -0.34367E-06  2775   0.301E-03    0.748E-03
RMM:  15    -0.228915344163E+03   -0.30357E-05   -0.90578E-07  2245   0.166E-03    0.435E-03
RMM:  16    -0.228915348055E+03   -0.38920E-05   -0.39738E-07  2232   0.102E-03    0.235E-03
RMM:  17    -0.228915354656E+03   -0.66010E-05   -0.40258E-07  2291   0.882E-04    0.211E-03
RMM:  18    -0.228915359301E+03   -0.46449E-05   -0.23990E-07  2143   0.657E-04    0.108E-03
RMM:  19    -0.228915363142E+03   -0.38412E-05   -0.13474E-07  1385   0.487E-04    0.946E-04
RMM:  20    -0.228915366679E+03   -0.35370E-05   -0.17004E-07  1768   0.503E-04    0.811E-04
RMM:  21    -0.228915370220E+03   -0.35411E-05   -0.18274E-07  1573   0.510E-04    0.843E-04
RMM:  22    -0.228915372892E+03   -0.26718E-05   -0.18499E-07  1710   0.492E-04    0.474E-04
RMM:  23    -0.228915374033E+03   -0.11408E-05   -0.65084E-08   937   0.345E-04    0.346E-04
RMM:  24    -0.228915375006E+03   -0.97359E-06   -0.68575E-08  1018   0.376E-04
   2 F= -.22891538E+03 E0= -.22877773E+03  d E =-.673131E-01
       N       E                     dE             d eps       ncg     rms          rms(c)
DAV:   1    -0.228914893627E+03    0.48041E-03   -0.25783E+00  4176   0.281E+00    0.376E-01
RMM:   2    -0.228927549061E+03   -0.12655E-01   -0.72595E-02  4038   0.438E-01    0.103E+00
RMM:   3    -0.228921352967E+03    0.61961E-02   -0.42032E-03  4038   0.101E-01    0.381E-01
RMM:   4    -0.228923081058E+03   -0.17281E-02   -0.25418E-03  4041   0.753E-02    0.576E-01
RMM:   5    -0.228920996746E+03    0.20843E-02   -0.12427E-03  4038   0.541E-02    0.349E-01
RMM:   6    -0.228920723495E+03    0.27325E-03   -0.78049E-04  4037   0.418E-02    0.239E-01
RMM:   7    -0.228920505971E+03    0.21752E-03   -0.51661E-04  4035   0.357E-02    0.141E-01
RMM:   8    -0.228920393681E+03    0.11229E-03   -0.18250E-04  4035   0.212E-02    0.581E-02
RMM:   9    -0.228920376853E+03    0.16828E-04   -0.35985E-05  4036   0.945E-03    0.271E-02
RMM:  10    -0.228920374103E+03    0.27506E-05   -0.79814E-06  3968   0.435E-03    0.199E-02
RMM:  11    -0.228920373406E+03    0.69646E-06   -0.52768E-06  3441   0.349E-03
   3 F= -.22892037E+03 E0= -.22878283E+03  d E =-.723115E-01
       N       E                     dE             d eps       ncg     rms          rms(c)
DAV:   1    -0.228934900306E+03   -0.14526E-01   -0.22087E+01  4032   0.801E+00    0.923E-01
RMM:   2    -0.229016529973E+03   -0.81630E-01   -0.50360E-01  4038   0.122E+00    0.241E+00
RMM:   3    -0.228982391627E+03    0.34138E-01   -0.30438E-02  4041   0.277E-01    0.112E+00
RMM:   4    -0.228988590048E+03   -0.61984E-02   -0.14989E-02  4040   0.181E-01    0.144E+00
RMM:   5    -0.228976668363E+03    0.11922E-01   -0.61548E-03  4038   0.120E-01    0.831E-01
RMM:   6    -0.228976016548E+03    0.65182E-03   -0.47834E-03  4036   0.102E-01    0.711E-01
RMM:   7    -0.228973992831E+03    0.20237E-02   -0.38468E-03  4037   0.954E-02    0.386E-01
RMM:   8    -0.228973167993E+03    0.82484E-03   -0.16014E-03  4036   0.611E-02    0.190E-01
RMM:   9    -0.228972988827E+03    0.17917E-03   -0.22360E-04  4036   0.247E-02    0.829E-02
RMM:  10    -0.228972954920E+03    0.33907E-04   -0.66747E-05  4036   0.126E-02    0.616E-02
RMM:  11    -0.228972941204E+03    0.13715E-04   -0.64756E-05  4034   0.121E-02    0.458E-02
RMM:  12    -0.228972941434E+03   -0.22941E-06   -0.64732E-05  4036   0.119E-02    0.331E-02
RMM:  13    -0.228972938334E+03    0.30999E-05   -0.17500E-05  4028   0.636E-03    0.150E-02
RMM:  14    -0.228972941196E+03   -0.28622E-05   -0.30213E-06  2734   0.283E-03    0.990E-03
RMM:  15    -0.228972943438E+03   -0.22422E-05   -0.10634E-06  2251   0.180E-03    0.373E-03
RMM:  16    -0.228972947351E+03   -0.39130E-05   -0.48188E-07  2245   0.111E-03    0.277E-03
RMM:  17    -0.228972952510E+03   -0.51589E-05   -0.34648E-07  2283   0.861E-04    0.188E-03
RMM:  18    -0.228972955823E+03   -0.33132E-05   -0.15435E-07  1729   0.555E-04    0.139E-03
RMM:  19    -0.228972958943E+03   -0.31194E-05   -0.10802E-07  1395   0.455E-04    0.859E-04
RMM:  20    -0.228972961753E+03   -0.28107E-05   -0.14308E-07  1608   0.477E-04    0.727E-04
RMM:  21    -0.228972964667E+03   -0.29137E-05   -0.14731E-07  1460   0.470E-04    0.644E-04
RMM:  22    -0.228972966808E+03   -0.21409E-05   -0.15544E-07  1567   0.463E-04    0.567E-04
RMM:  23    -0.228972968168E+03   -0.13601E-05   -0.80625E-08  1076   0.395E-04    0.374E-04
RMM:  24    -0.228972968962E+03   -0.79373E-06   -0.73179E-08  1152   0.397E-04
   4 F= -.22897297E+03 E0= -.22883553E+03  d E =-.525956E-01
       N       E                     dE             d eps       ncg     rms          rms(c)
DAV:   1    -0.228944599104E+03    0.28369E-01   -0.30655E+01  4032   0.943E+00    0.111E+00
RMM:   2    -0.229065829002E+03   -0.12123E+00   -0.70699E-01  4038   0.144E+00    0.303E+00
RMM:   3    -0.229010052259E+03    0.55777E-01   -0.42603E-02  4041   0.328E-01    0.133E+00
RMM:   4    -0.229019910183E+03   -0.98579E-02   -0.21195E-02  4038   0.215E-01    0.175E+00
RMM:   5    -0.229003151899E+03    0.16758E-01   -0.89024E-03  4038   0.145E-01    0.105E+00
RMM:   6    -0.229001537506E+03    0.16144E-02   -0.70054E-03  4036   0.124E-01    0.858E-01
RMM:   7    -0.228998685444E+03    0.28521E-02   -0.55153E-03  4036   0.114E-01    0.471E-01
RMM:   8    -0.228997408832E+03    0.12766E-02   -0.23233E-03  4037   0.734E-02    0.219E-01
RMM:   9    -0.228997170125E+03    0.23871E-03   -0.32870E-04  4037   0.298E-02    0.103E-01
RMM:  10    -0.228997121376E+03    0.48749E-04   -0.91778E-05  4036   0.148E-02    0.765E-02
RMM:  11    -0.228997104754E+03    0.16621E-04   -0.10270E-04  4036   0.151E-02    0.613E-02
RMM:  12    -0.228997102190E+03    0.25642E-05   -0.92012E-05  4035   0.142E-02    0.398E-02
RMM:  13    -0.228997098484E+03    0.37063E-05   -0.23348E-05  4032   0.740E-03    0.179E-02
RMM:  14    -0.228997102669E+03   -0.41852E-05   -0.39319E-06  2940   0.319E-03    0.117E-02
RMM:  15    -0.228997106461E+03   -0.37923E-05   -0.15620E-06  2316   0.215E-03    0.544E-03
RMM:  16    -0.228997112143E+03   -0.56818E-05   -0.67143E-07  2261   0.132E-03    0.373E-03
RMM:  17    -0.228997120344E+03   -0.82010E-05   -0.50708E-07  2316   0.103E-03    0.249E-03
RMM:  18    -0.228997125276E+03   -0.49318E-05   -0.26324E-07  2232   0.687E-04    0.176E-03
RMM:  19    -0.228997129737E+03   -0.44613E-05   -0.13753E-07  1358   0.489E-04    0.112E-03
RMM:  20    -0.228997133657E+03   -0.39199E-05   -0.18028E-07  1930   0.530E-04    0.826E-04
RMM:  21    -0.228997138434E+03   -0.47770E-05   -0.20850E-07  1476   0.525E-04    0.815E-04
RMM:  22    -0.228997141467E+03   -0.30330E-05   -0.20407E-07  1885   0.529E-04    0.740E-04
RMM:  23    -0.228997143478E+03   -0.20103E-05   -0.11087E-07  1182   0.402E-04    0.498E-04
RMM:  24    -0.228997144666E+03   -0.11889E-05   -0.67870E-08   985   0.401E-04    0.297E-04
RMM:  25    -0.228997145483E+03   -0.81640E-06   -0.80359E-08  1325   0.432E-04
   5 F= -.22899715E+03 E0= -.22885961E+03  d E =-.767721E-01
       N       E                     dE             d eps       ncg     rms          rms(c)
DAV:   1    -0.228990215573E+03    0.69291E-02   -0.28154E+01  4032   0.911E+00    0.105E+00
RMM:   2    -0.229064050548E+03   -0.73835E-01   -0.63130E-01  4038   0.136E+00    0.186E+00
RMM:   3    -0.229046417996E+03    0.17633E-01   -0.36849E-02  4040   0.309E-01    0.969E-01
RMM:   4    -0.229061863187E+03   -0.15445E-01   -0.11759E-02  4044   0.167E-01    0.160E+00
RMM:   5    -0.229048139071E+03    0.13724E-01   -0.10347E-02  4038   0.147E-01    0.106E+00
RMM:   6    -0.229042531940E+03    0.56071E-02   -0.54462E-03  4036   0.114E-01    0.576E-01
RMM:   7    -0.229041858536E+03    0.67340E-03   -0.41379E-03  4037   0.993E-02    0.396E-01
RMM:   8    -0.229040613468E+03    0.12451E-02   -0.16530E-03  4038   0.623E-02    0.156E-01
RMM:   9    -0.229040494605E+03    0.11886E-03   -0.27057E-04  4035   0.253E-02    0.723E-02
RMM:  10    -0.229040455359E+03    0.39246E-04   -0.63218E-05  4035   0.119E-02    0.468E-02
RMM:  11    -0.229040448704E+03    0.66547E-05   -0.63849E-05  4032   0.117E-02    0.406E-02
RMM:  12    -0.229040443315E+03    0.53889E-05   -0.38800E-05  4038   0.932E-03    0.224E-02
RMM:  13    -0.229040444843E+03   -0.15274E-05   -0.10541E-05  3989   0.504E-03    0.161E-02
RMM:  14    -0.229040444498E+03    0.34489E-06   -0.21525E-06  2418   0.244E-03
   6 F= -.22904044E+03 E0= -.22890249E+03  d E =-.432990E-01
       N       E                     dE             d eps       ncg     rms          rms(c)
DAV:   1    -0.229001042469E+03    0.39402E-01   -0.32103E+01  4032   0.973E+00    0.111E+00
RMM:   2    -0.229088201057E+03   -0.87159E-01   -0.72151E-01  4038   0.145E+00    0.213E+00
RMM:   3    -0.229065872464E+03    0.22329E-01   -0.42735E-02  4041   0.332E-01    0.109E+00
RMM:   4    -0.229087616256E+03   -0.21744E-01   -0.14778E-02  4045   0.186E-01    0.189E+00
RMM:   5    -0.229065299463E+03    0.22317E-01   -0.12554E-02  4038   0.162E-01    0.102E+00
RMM:   6    -0.229060708169E+03    0.45913E-02   -0.61539E-03  4036   0.121E-01    0.632E-01
RMM:   7    -0.229059866544E+03    0.84162E-03   -0.46100E-03  4038   0.105E-01    0.425E-01
RMM:   8    -0.229058441734E+03    0.14248E-02   -0.19763E-03  4037   0.681E-02    0.166E-01
RMM:   9    -0.229058302787E+03    0.13895E-03   -0.31435E-04  4037   0.272E-02    0.764E-02
RMM:  10    -0.229058262429E+03    0.40358E-04   -0.72901E-05  4037   0.128E-02    0.518E-02
RMM:  11    -0.229058256893E+03    0.55353E-05   -0.74339E-05  4033   0.127E-02    0.457E-02
RMM:  12    -0.229058251680E+03    0.52130E-05   -0.45672E-05  4037   0.101E-02    0.239E-02
RMM:  13    -0.229058254792E+03   -0.31119E-05   -0.11979E-05  4025   0.536E-03    0.163E-02
RMM:  14    -0.229058255467E+03   -0.67452E-06   -0.23544E-06  2449   0.255E-03
   7 F= -.22905826E+03 E0= -.22891979E+03  d E =-.611100E-01
       N       E                     dE             d eps       ncg     rms          rms(c)
DAV:   1    -0.229052655836E+03    0.55990E-02   -0.23570E+01  4032   0.781E+00    0.889E-01
RMM:   2    -0.229130692505E+03   -0.78037E-01   -0.45800E-01  4038   0.123E+00    0.264E+00
RMM:   3    -0.229091131616E+03    0.39561E-01   -0.31037E-02  4041   0.288E-01    0.991E-01
RMM:   4    -0.229105333445E+03   -0.14202E-01   -0.97811E-03  4050   0.149E-01    0.165E+00
RMM:   5    -0.229090506208E+03    0.14827E-01   -0.67266E-03  4038   0.121E-01    0.101E+00
RMM:   6    -0.229089032705E+03    0.14735E-02   -0.44541E-03  4037   0.975E-02    0.780E-01
RMM:   7    -0.229087373935E+03    0.16588E-02   -0.46772E-03  4036   0.103E-01    0.482E-01
RMM:   8    -0.229086032669E+03    0.13413E-02   -0.20724E-03  4037   0.683E-02    0.178E-01
RMM:   9    -0.229085849756E+03    0.18291E-03   -0.25614E-04  4037   0.258E-02    0.950E-02
RMM:  10    -0.229085813407E+03    0.36349E-04   -0.81212E-05  4038   0.137E-02    0.708E-02
RMM:  11    -0.229085784657E+03    0.28750E-04   -0.97640E-05  4032   0.145E-02    0.528E-02
RMM:  12    -0.229085774979E+03    0.96772E-05   -0.74780E-05  4038   0.126E-02    0.370E-02
RMM:  13    -0.229085770308E+03    0.46719E-05   -0.18336E-05  4026   0.650E-03    0.167E-02
RMM:  14    -0.229085771797E+03   -0.14897E-05   -0.39335E-06  2930   0.320E-03    0.121E-02
RMM:  15    -0.229085772758E+03   -0.96052E-06   -0.11933E-06  2246   0.188E-03
   8 F= -.22908577E+03 E0= -.22894745E+03  d E =-.275173E-01
       N       E                     dE             d eps       ncg     rms          rms(c)
DAV:   1    -0.229049084003E+03    0.36688E-01   -0.34387E+01  4032   0.943E+00    0.108E+00
RMM:   2    -0.229163480139E+03   -0.11440E+00   -0.67004E-01  4038   0.148E+00    0.318E+00
RMM:   3    -0.229105271250E+03    0.58209E-01   -0.45286E-02  4041   0.348E-01    0.119E+00
RMM:   4    -0.229128322722E+03   -0.23051E-01   -0.14995E-02  4048   0.183E-01    0.207E+00
RMM:   5    -0.229104628021E+03    0.23695E-01   -0.10054E-02  4038   0.148E-01    0.123E+00
RMM:   6    -0.229102174463E+03    0.24536E-02   -0.66301E-03  4037   0.119E-01    0.946E-01
RMM:   7    -0.229099782625E+03    0.23918E-02   -0.67984E-03  4036   0.124E-01    0.582E-01
RMM:   8    -0.229097783060E+03    0.19996E-02   -0.30579E-03  4037   0.829E-02    0.209E-01
RMM:   9    -0.229097532628E+03    0.25043E-03   -0.37052E-04  4037   0.310E-02    0.117E-01
RMM:  10    -0.229097478594E+03    0.54034E-04   -0.11706E-04  4038   0.165E-02    0.861E-02
RMM:  11    -0.229097439964E+03    0.38630E-04   -0.14111E-04  4034   0.175E-02    0.671E-02
RMM:  12    -0.229097423021E+03    0.16943E-04   -0.11060E-04  4038   0.154E-02    0.455E-02
RMM:  13    -0.229097417315E+03    0.57067E-05   -0.27243E-05  4032   0.788E-03    0.216E-02
RMM:  14    -0.229097419250E+03   -0.19351E-05   -0.60890E-06  3255   0.394E-03    0.150E-02
RMM:  15    -0.229097420723E+03   -0.14732E-05   -0.17744E-06  2335   0.226E-03    0.884E-03
RMM:  16    -0.229097423952E+03   -0.32289E-05   -0.86152E-07  2256   0.156E-03    0.611E-03
RMM:  17    -0.229097427658E+03   -0.37067E-05   -0.44812E-07  2263   0.108E-03    0.292E-03
RMM:  18    -0.229097429848E+03   -0.21893E-05   -0.18118E-07  2171   0.632E-04    0.141E-03
RMM:  19    -0.229097431790E+03   -0.19420E-05   -0.58259E-08  1092   0.409E-04    0.100E-03
RMM:  20    -0.229097433632E+03   -0.18425E-05   -0.45419E-08  1004   0.409E-04    0.777E-04
RMM:  21    -0.229097435572E+03   -0.19393E-05   -0.12345E-07  1717   0.470E-04    0.730E-04
RMM:  22    -0.229097437702E+03   -0.21302E-05   -0.86484E-08  1257   0.404E-04    0.663E-04
RMM:  23    -0.229097439041E+03   -0.13396E-05   -0.69732E-08  1040   0.406E-04    0.556E-04
RMM:  24    -0.229097440037E+03   -0.99515E-06   -0.97403E-08  1436   0.438E-04
   9 F= -.22909744E+03 E0= -.22895924E+03  d E =-.391846E-01
       N       E                     dE             d eps       ncg     rms          rms(c)
DAV:   1    -0.229089076107E+03    0.83629E-02   -0.19619E+01  4032   0.722E+00    0.732E-01
RMM:   2    -0.229134042749E+03   -0.44967E-01   -0.36772E-01  4038   0.109E+00    0.150E+00
RMM:   3    -0.229120696239E+03    0.13347E-01   -0.23133E-02  4041   0.249E-01    0.560E-01
RMM:   4    -0.229119960302E+03    0.73594E-03   -0.38270E-03  4051   0.100E-01    0.534E-01
RMM:   5    -0.229119840413E+03    0.11989E-03   -0.26187E-03  4038   0.767E-02    0.516E-01
RMM:   6    -0.229122821489E+03   -0.29811E-02   -0.29247E-03  4038   0.785E-02    0.768E-01
RMM:   7    -0.229119540200E+03    0.32813E-02   -0.22000E-03  4038   0.680E-02    0.408E-01
RMM:   8    -0.229118389003E+03    0.11512E-02   -0.12977E-03  4035   0.549E-02    0.135E-01
RMM:   9    -0.229118293204E+03    0.95799E-04   -0.16907E-04  4036   0.203E-02    0.729E-02
RMM:  10    -0.229118263666E+03    0.29537E-04   -0.41621E-05  4038   0.101E-02    0.465E-02
RMM:  11    -0.229118250038E+03    0.13628E-04   -0.48148E-05  4032   0.101E-02    0.374E-02
RMM:  12    -0.229118241763E+03    0.82752E-05   -0.47984E-05  4038   0.100E-02    0.247E-02
RMM:  13    -0.229118239607E+03    0.21558E-05   -0.99740E-06  4002   0.475E-03    0.119E-02
RMM:  14    -0.229118239523E+03    0.84772E-07   -0.16642E-06  2313   0.214E-03
  10 F= -.22911824E+03 E0= -.22897994E+03  d E =-.207995E-01
       N       E                     dE             d eps       ncg     rms          rms(c)
DAV:   1    -0.229057444764E+03    0.60795E-01   -0.52277E+01  4032   0.118E+01    0.120E+00
RMM:   2    -0.229177726807E+03   -0.12028E+00   -0.98339E-01  4038   0.179E+00    0.243E+00
RMM:   3    -0.229142279646E+03    0.35447E-01   -0.62112E-02  4041   0.409E-01    0.924E-01
RMM:   4    -0.229141736069E+03    0.54358E-03   -0.10617E-02  4050   0.167E-01    0.100E+00
RMM:   5    -0.229147172783E+03   -0.54367E-02   -0.74603E-03  4038   0.126E-01    0.127E+00
RMM:   6    -0.229144573900E+03    0.25989E-02   -0.87822E-03  4038   0.132E-01    0.106E+00
RMM:   7    -0.229137505465E+03    0.70684E-02   -0.71299E-03  4035   0.128E-01    0.556E-01
RMM:   8    -0.229135636279E+03    0.18692E-02   -0.33935E-03  4036   0.887E-02    0.204E-01
RMM:   9    -0.229135445024E+03    0.19126E-03   -0.48084E-04  4038   0.344E-02    0.121E-01
RMM:  10    -0.229135357958E+03    0.87066E-04   -0.11728E-04  4037   0.169E-02    0.738E-02
RMM:  11    -0.229135322892E+03    0.35066E-04   -0.12105E-04  4035   0.162E-02    0.597E-02
RMM:  12    -0.229135302349E+03    0.20543E-04   -0.13213E-04  4037   0.166E-02    0.413E-02
RMM:  13    -0.229135296775E+03    0.55738E-05   -0.29014E-05  4020   0.807E-03    0.209E-02
RMM:  14    -0.229135296700E+03    0.75001E-07   -0.54864E-06  3319   0.370E-03
  11 F= -.22913530E+03 E0= -.22899682E+03  d E =-.378567E-01
       N       E                     dE             d eps       ncg     rms          rms(c)
DAV:   1    -0.229128756310E+03    0.65405E-02   -0.51694E+00  4056   0.371E+00    0.378E-01
RMM:   2    -0.229140642609E+03   -0.11886E-01   -0.96983E-02  4038   0.561E-01    0.783E-01
RMM:   3    -0.229137018381E+03    0.36242E-02   -0.60643E-03  4041   0.128E-01    0.287E-01
RMM:   4    -0.229136909678E+03    0.10870E-03   -0.10075E-03  4051   0.513E-02    0.277E-01
RMM:   5    -0.229137816458E+03   -0.90678E-03   -0.94033E-04  4038   0.444E-02    0.412E-01
RMM:   6    -0.229137032939E+03    0.78352E-03   -0.68880E-04  4038   0.368E-02    0.310E-01
RMM:   7    -0.229136665275E+03    0.36766E-03   -0.65494E-04  4036   0.390E-02    0.192E-01
RMM:   8    -0.229136465150E+03    0.20013E-03   -0.32034E-04  4035   0.276E-02    0.649E-02
RMM:   9    -0.229136447831E+03    0.17319E-04   -0.42671E-05  4037   0.103E-02    0.392E-02
RMM:  10    -0.229136440280E+03    0.75517E-05   -0.10722E-05  3999   0.512E-03    0.245E-02
RMM:  11    -0.229136437551E+03    0.27284E-05   -0.13438E-05  4032   0.534E-03    0.194E-02
RMM:  12    -0.229136436583E+03    0.96863E-06   -0.12668E-05  4020   0.516E-03    0.129E-02
RMM:  13    -0.229136436715E+03   -0.13254E-06   -0.22763E-06  2428   0.240E-03
  12 F= -.22913644E+03 E0= -.22899788E+03  d E =-.389967E-01
       N       E                     dE             d eps       ncg     rms          rms(c)
DAV:   1    -0.229111977229E+03    0.24459E-01   -0.30565E+01  4032   0.899E+00    0.902E-01
RMM:   2    -0.229167450909E+03   -0.55474E-01   -0.55551E-01  4038   0.135E+00    0.930E-01
RMM:   3    -0.229187401136E+03   -0.19950E-01   -0.36412E-02  4042   0.304E-01    0.184E+00
RMM:   4    -0.229165023517E+03    0.22378E-01   -0.12407E-02  4047   0.165E-01    0.907E-01
RMM:   5    -0.229160304024E+03    0.47195E-02   -0.57826E-03  4038   0.116E-01    0.549E-01
RMM:   6    -0.229159983046E+03    0.32098E-03   -0.44645E-03  4037   0.101E-01    0.503E-01
RMM:   7    -0.229159039937E+03    0.94311E-03   -0.30773E-03  4037   0.855E-02    0.350E-01
RMM:   8    -0.229158542726E+03    0.49721E-03   -0.11225E-03  4036   0.503E-02    0.178E-01
RMM:   9    -0.229158354491E+03    0.18824E-03   -0.23735E-04  4038   0.250E-02    0.673E-02
RMM:  10    -0.229158327432E+03    0.27058E-04   -0.62306E-05  4038   0.122E-02    0.535E-02
RMM:  11    -0.229158315054E+03    0.12378E-04   -0.68643E-05  4035   0.121E-02    0.469E-02
RMM:  12    -0.229158308457E+03    0.65965E-05   -0.52080E-05  4037   0.103E-02    0.294E-02
RMM:  13    -0.229158311895E+03   -0.34376E-05   -0.14688E-05  4021   0.583E-03    0.187E-02
RMM:  14    -0.229158312319E+03   -0.42414E-06   -0.33076E-06  2827   0.301E-03
  13 F= -.22915831E+03 E0= -.22901934E+03  d E =-.218756E-01
       N       E                     dE             d eps       ncg     rms          rms(c)
DAV:   1    -0.229142461742E+03    0.15850E-01   -0.13904E+01  4032   0.607E+00    0.608E-01
RMM:   2    -0.229167662781E+03   -0.25201E-01   -0.25295E-01  4038   0.913E-01    0.622E-01
RMM:   3    -0.229176702225E+03   -0.90394E-02   -0.16568E-02  4042   0.205E-01    0.124E+00
RMM:   4    -0.229166444747E+03    0.10257E-01   -0.55755E-03  4049   0.111E-01    0.610E-01
RMM:   5    -0.229164413046E+03    0.20317E-02   -0.26030E-03  4038   0.778E-02    0.374E-01
RMM:   6    -0.229164307400E+03    0.10565E-03   -0.20383E-03  4037   0.688E-02    0.349E-01
RMM:   7    -0.229163862528E+03    0.44487E-03   -0.14363E-03  4036   0.585E-02    0.234E-01
RMM:   8    -0.229163632362E+03    0.23017E-03   -0.53234E-04  4035   0.347E-02    0.117E-01
RMM:   9    -0.229163554103E+03    0.78260E-04   -0.10879E-04  4038   0.168E-02    0.458E-02
RMM:  10    -0.229163542929E+03    0.11174E-04   -0.27668E-05  4032   0.810E-03    0.361E-02
RMM:  11    -0.229163540199E+03    0.27301E-05   -0.30529E-05  4036   0.809E-03    0.317E-02
RMM:  12    -0.229163539638E+03    0.56053E-06   -0.24423E-05  4032   0.709E-03    0.201E-02
RMM:  13    -0.229163543182E+03   -0.35436E-05   -0.71191E-06  3613   0.408E-03    0.124E-02
RMM:  14    -0.229163544762E+03   -0.15796E-05   -0.15825E-06  2300   0.217E-03    0.495E-03
RMM:  15    -0.229163546746E+03   -0.19844E-05   -0.43687E-07  2213   0.114E-03    0.337E-03
RMM:  16    -0.229163549264E+03   -0.25183E-05   -0.20756E-07  2217   0.734E-04    0.216E-03
RMM:  17    -0.229163552372E+03   -0.31081E-05   -0.13173E-07  1757   0.539E-04    0.123E-03
RMM:  18    -0.229163555027E+03   -0.26545E-05   -0.86920E-08  1425   0.449E-04    0.626E-04
RMM:  19    -0.229163557503E+03   -0.24756E-05   -0.89455E-08  1337   0.429E-04    0.623E-04
RMM:  20    -0.229163559494E+03   -0.19913E-05   -0.84076E-08  1162   0.403E-04    0.489E-04
RMM:  21    -0.229163561938E+03   -0.24438E-05   -0.16689E-07  1744   0.486E-04    0.469E-04
RMM:  22    -0.229163562965E+03   -0.10274E-05   -0.45506E-08   855   0.334E-04    0.258E-04
RMM:  23    -0.229163563869E+03   -0.90390E-06   -0.71115E-08  1078   0.389E-04
  14 F= -.22916356E+03 E0= -.22902429E+03  d E =-.271272E-01
       N       E                     dE             d eps       ncg     rms          rms(c)
DAV:   1    -0.229153456008E+03    0.10107E-01   -0.15795E+01  4032   0.650E+00    0.674E-01
RMM:   2    -0.229186772697E+03   -0.33317E-01   -0.29611E-01  4038   0.982E-01    0.991E-01
RMM:   3    -0.229183799087E+03    0.29736E-02   -0.18756E-02  4043   0.220E-01    0.809E-01
RMM:   4    -0.229190574521E+03   -0.67754E-02   -0.82165E-03  4040   0.131E-01    0.133E+00
RMM:   5    -0.229178736950E+03    0.11838E-01   -0.34156E-03  4038   0.900E-02    0.481E-01
RMM:   6    -0.229178396877E+03    0.34007E-03   -0.22607E-03  4038   0.732E-02    0.403E-01
RMM:   7    -0.229177664596E+03    0.73228E-03   -0.23053E-03  4037   0.724E-02    0.226E-01
RMM:   8    -0.229177331511E+03    0.33308E-03   -0.51037E-04  4037   0.340E-02    0.853E-02
RMM:   9    -0.229177289339E+03    0.42172E-04   -0.85359E-05  4038   0.143E-02    0.494E-02
RMM:  10    -0.229177274624E+03    0.14715E-04   -0.32359E-05  4032   0.869E-03    0.391E-02
RMM:  11    -0.229177267892E+03    0.67325E-05   -0.32132E-05  4038   0.842E-03    0.334E-02
RMM:  12    -0.229177266196E+03    0.16956E-05   -0.22769E-05  4032   0.692E-03    0.242E-02
RMM:  13    -0.229177264733E+03    0.14631E-05   -0.77108E-06  3834   0.427E-03    0.128E-02
RMM:  14    -0.229177265176E+03   -0.44343E-06   -0.13091E-06  2286   0.195E-03
  15 F= -.22917727E+03 E0= -.22903834E+03  d E =-.137013E-01
       N       E                     dE             d eps       ncg     rms          rms(c)
DAV:   1    -0.229168040836E+03    0.92239E-02   -0.84040E+00  4032   0.474E+00    0.495E-01
RMM:   2    -0.229185681600E+03   -0.17641E-01   -0.15745E-01  4038   0.716E-01    0.722E-01
RMM:   3    -0.229183921066E+03    0.17605E-02   -0.99334E-03  4042   0.160E-01    0.570E-01
RMM:   4    -0.229188213221E+03   -0.42922E-02   -0.44195E-03  4042   0.957E-02    0.996E-01
RMM:   5    -0.229181447690E+03    0.67655E-02   -0.18672E-03  4038   0.662E-02    0.354E-01
RMM:   6    -0.229181299523E+03    0.14817E-03   -0.12376E-03  4038   0.542E-02    0.298E-01
RMM:   7    -0.229180902563E+03    0.39696E-03   -0.12335E-03  4037   0.529E-02    0.168E-01
RMM:   8    -0.229180727139E+03    0.17542E-03   -0.25584E-04  4037   0.242E-02    0.636E-02
RMM:   9    -0.229180706819E+03    0.20320E-04   -0.42078E-05  4038   0.993E-03    0.383E-02
RMM:  10    -0.229180699345E+03    0.74741E-05   -0.16101E-05  4032   0.606E-03    0.300E-02
RMM:  11    -0.229180696077E+03    0.32679E-05   -0.14558E-05  4031   0.558E-03    0.222E-02
RMM:  12    -0.229180697854E+03   -0.17775E-05   -0.14824E-05  4019   0.566E-03    0.180E-02
RMM:  13    -0.229180697286E+03    0.56857E-06   -0.39189E-06  2971   0.310E-03
  16 F= -.22918070E+03 E0= -.22904203E+03  d E =-.171334E-01
       N       E                     dE             d eps       ncg     rms          rms(c)
DAV:   1    -0.229155530578E+03    0.25167E-01   -0.20609E+01  4032   0.765E+00    0.758E-01
RMM:   2    -0.229199420587E+03   -0.43890E-01   -0.41580E-01  4038   0.114E+00    0.102E+00
RMM:   3    -0.229200535858E+03   -0.11153E-02   -0.23676E-02  4041   0.247E-01    0.114E+00
RMM:   4    -0.229200864770E+03   -0.32891E-03   -0.86284E-03  4044   0.135E-01    0.114E+00
RMM:   5    -0.229190817483E+03    0.10047E-01   -0.38752E-03  4038   0.944E-02    0.436E-01
RMM:   6    -0.229191201867E+03   -0.38438E-03   -0.27614E-03  4037   0.786E-02    0.447E-01
RMM:   7    -0.229190502874E+03    0.69899E-03   -0.21216E-03  4038   0.712E-02    0.309E-01
RMM:   8    -0.229190025139E+03    0.47774E-03   -0.10680E-03  4037   0.513E-02    0.130E-01
RMM:   9    -0.229189950673E+03    0.74466E-04   -0.15885E-04  4038   0.194E-02    0.663E-02
RMM:  10    -0.229189920513E+03    0.30159E-04   -0.49244E-05  4037   0.108E-02    0.446E-02
RMM:  11    -0.229189911563E+03    0.89498E-05   -0.34974E-05  4033   0.870E-03    0.359E-02
RMM:  12    -0.229189905438E+03    0.61254E-05   -0.34055E-05  4037   0.847E-03    0.228E-02
RMM:  13    -0.229189906053E+03   -0.61448E-06   -0.10231E-05  4025   0.479E-03    0.153E-02
RMM:  14    -0.229189906189E+03   -0.13597E-06   -0.20220E-06  2364   0.240E-03
  17 F= -.22918991E+03 E0= -.22905163E+03  d E =-.920890E-02
       N       E                     dE             d eps       ncg     rms          rms(c)
DAV:   1    -0.229189711756E+03    0.19430E-03   -0.16200E-01  4176   0.678E-01    0.675E-02
RMM:   2    -0.229190055809E+03   -0.34405E-03   -0.32659E-03  4038   0.101E-01    0.924E-02
RMM:   3    -0.229190044619E+03    0.11189E-04   -0.18255E-04  4041   0.217E-02    0.911E-02
RMM:   4    -0.229190071878E+03   -0.27258E-04   -0.65100E-05  4045   0.118E-02    0.106E-01
RMM:   5    -0.229189987404E+03    0.84474E-04   -0.31040E-05  4035   0.834E-03    0.405E-02
RMM:   6    -0.229189991722E+03   -0.43183E-05   -0.21933E-05  4032   0.700E-03    0.387E-02
RMM:   7    -0.229189989427E+03    0.22951E-05   -0.17480E-05  4032   0.645E-03    0.281E-02
RMM:   8    -0.229189986409E+03    0.30175E-05   -0.82342E-06  3918   0.450E-03    0.109E-02
RMM:   9    -0.229189986404E+03    0.55297E-08   -0.11228E-06  2222   0.175E-03
  18 F= -.22918999E+03 E0= -.22905173E+03  d E =-.928912E-02
       N       E                     dE             d eps       ncg     rms          rms(c)
DAV:   1    -0.229179743359E+03    0.10243E-01   -0.11436E+01  4032   0.547E+00    0.521E-01
RMM:   2    -0.229203650454E+03   -0.23907E-01   -0.20687E-01  4038   0.829E-01    0.941E-01
RMM:   3    -0.229200552811E+03    0.30976E-02   -0.13177E-02  4043   0.185E-01    0.654E-01
RMM:   4    -0.229202797892E+03   -0.22451E-02   -0.43522E-03  4052   0.967E-02    0.855E-01
RMM:   5    -0.229197195807E+03    0.56021E-02   -0.17549E-03  4038   0.649E-02    0.318E-01
RMM:   6    -0.229197463875E+03   -0.26807E-03   -0.14208E-03  4038   0.551E-02    0.348E-01
RMM:   7    -0.229197177523E+03    0.28635E-03   -0.13896E-03  4038   0.564E-02    0.241E-01
RMM:   8    -0.229196827596E+03    0.34993E-03   -0.69545E-04  4038   0.414E-02    0.921E-02
RMM:   9    -0.229196789935E+03    0.37661E-04   -0.92459E-05  4038   0.153E-02    0.474E-02
RMM:  10    -0.229196775892E+03    0.14043E-04   -0.24060E-05  4032   0.765E-03    0.328E-02
RMM:  11    -0.229196770869E+03    0.50230E-05   -0.25235E-05  4038   0.743E-03    0.284E-02
RMM:  12    -0.229196766621E+03    0.42484E-05   -0.22398E-05  4032   0.698E-03    0.166E-02
RMM:  13    -0.229196766977E+03   -0.35633E-06   -0.69691E-06  3551   0.402E-03
  19 F= -.22919677E+03 E0= -.22905866E+03  d E =-.678057E-02
       N       E                     dE             d eps       ncg     rms          rms(c)
DAV:   1    -0.229195391835E+03    0.13748E-02   -0.13054E+00  4032   0.185E+00    0.176E-01
RMM:   2    -0.229198127825E+03   -0.27360E-02   -0.23579E-02  4038   0.280E-01    0.326E-01
RMM:   3    -0.229197700257E+03    0.42757E-03   -0.14942E-03  4043   0.623E-02    0.212E-01
RMM:   4    -0.229198005513E+03   -0.30526E-03   -0.48616E-04  4052   0.324E-02    0.291E-01
RMM:   5    -0.229197358855E+03    0.64666E-03   -0.20335E-04  4038   0.220E-02    0.108E-01
RMM:   6    -0.229197396699E+03   -0.37844E-04   -0.16376E-04  4038   0.186E-02    0.117E-01
RMM:   7    -0.229197371103E+03    0.25596E-04   -0.16014E-04  4038   0.191E-02    0.811E-02
RMM:   8    -0.229197335273E+03    0.35831E-04   -0.79405E-05  4038   0.140E-02    0.319E-02
RMM:   9    -0.229197331174E+03    0.40985E-05   -0.11104E-05  4012   0.529E-03    0.164E-02
RMM:  10    -0.229197330129E+03    0.10456E-05   -0.24421E-06  2401   0.255E-03    0.114E-02
RMM:  11    -0.229197330106E+03    0.22796E-07   -0.27173E-06  2429   0.272E-03
  20 F= -.22919733E+03 E0= -.22905925E+03  d E =-.734370E-02
       N       E                     dE             d eps       ncg     rms          rms(c)
DAV:   1    -0.229197181109E+03    0.14902E-03   -0.22188E+00  4032   0.245E+00    0.242E-01
RMM:   2    -0.229201879333E+03   -0.46982E-02   -0.42359E-02  4038   0.367E-01    0.361E-01
RMM:   3    -0.229202078164E+03   -0.19883E-03   -0.25057E-03  4042   0.786E-02    0.406E-01
RMM:   4    -0.229201424909E+03    0.65326E-03   -0.89473E-04  4048   0.455E-02    0.320E-01
RMM:   5    -0.229200810200E+03    0.61471E-03   -0.40298E-04  4038   0.311E-02    0.157E-01
RMM:   6    -0.229200853134E+03   -0.42935E-04   -0.30864E-04  4038   0.266E-02    0.169E-01
RMM:   7    -0.229200745560E+03    0.10757E-03   -0.24123E-04  4038   0.236E-02    0.925E-02
RMM:   8    -0.229200699204E+03    0.46356E-04   -0.10521E-04  4038   0.157E-02    0.460E-02
RMM:   9    -0.229200690757E+03    0.84466E-05   -0.14830E-05  4032   0.620E-03    0.215E-02
RMM:  10    -0.229200688318E+03    0.24397E-05   -0.47557E-06  3187   0.345E-03    0.159E-02
RMM:  11    -0.229200686802E+03    0.15158E-05   -0.52325E-06  3614   0.347E-03    0.128E-02
RMM:  12    -0.229200685934E+03    0.86783E-06   -0.42161E-06  2976   0.316E-03
  21 F= -.22920069E+03 E0= -.22906281E+03  d E =-.335583E-02
       N       E                     dE             d eps       ncg     rms          rms(c)
DAV:   1    -0.229199428908E+03    0.12579E-02   -0.16411E+00  4032   0.211E+00    0.209E-01
RMM:   2    -0.229202921941E+03   -0.34930E-02   -0.31287E-02  4038   0.316E-01    0.315E-01
RMM:   3    -0.229203053841E+03   -0.13190E-03   -0.18590E-03  4042   0.677E-02    0.351E-01
RMM:   4    -0.229202549628E+03    0.50421E-03   -0.66217E-04  4048   0.392E-02    0.275E-01
RMM:   5    -0.229202105225E+03    0.44440E-03   -0.29750E-04  4038   0.268E-02    0.135E-01
RMM:   6    -0.229202138193E+03   -0.32968E-04   -0.23555E-04  4038   0.233E-02    0.145E-01
RMM:   7    -0.229202057593E+03    0.80601E-04   -0.17897E-04  4038   0.203E-02    0.784E-02
RMM:   8    -0.229202025608E+03    0.31984E-04   -0.76403E-05  4038   0.134E-02    0.406E-02
RMM:   9    -0.229202018656E+03    0.69525E-05   -0.11601E-05  4024   0.548E-03    0.193E-02
RMM:  10    -0.229202016683E+03    0.19721E-05   -0.36405E-06  2868   0.305E-03    0.138E-02
RMM:  11    -0.229202015472E+03    0.12111E-05   -0.37328E-06  2764   0.305E-03    0.110E-02
RMM:  12    -0.229202014886E+03    0.58680E-06   -0.33812E-06  2441   0.302E-03
  22 F= -.22920201E+03 E0= -.22906427E+03  d E =-.468478E-02
       N       E                     dE             d eps       ncg     rms          rms(c)
DAV:   1    -0.229201739897E+03    0.27558E-03   -0.24850E-01  4080   0.820E-01    0.815E-02
RMM:   2    -0.229202269267E+03   -0.52937E-03   -0.47390E-03  4038   0.123E-01    0.123E-01
RMM:   3    -0.229202287816E+03   -0.18550E-04   -0.28161E-04  4042   0.263E-02    0.137E-01
RMM:   4    -0.229202209796E+03    0.78020E-04   -0.10057E-04  4048   0.153E-02    0.107E-01
RMM:   5    -0.229202145081E+03    0.64715E-04   -0.45558E-05  4038   0.105E-02    0.526E-02
RMM:   6    -0.229202151435E+03   -0.63542E-05   -0.36286E-05  4038   0.914E-03    0.570E-02
RMM:   7    -0.229202139532E+03    0.11903E-04   -0.27364E-05  4032   0.795E-03    0.302E-02
RMM:   8    -0.229202134893E+03    0.46396E-05   -0.11565E-05  4031   0.523E-03    0.157E-02
RMM:   9    -0.229202133897E+03    0.99504E-06   -0.15912E-06  2270   0.214E-03
  23 F= -.22920213E+03 E0= -.22906442E+03  d E =-.480379E-02
       N       E                     dE             d eps       ncg     rms          rms(c)
DAV:   1    -0.229200275153E+03    0.18597E-02   -0.29318E+00  4032   0.287E+00    0.272E-01
RMM:   2    -0.229206358425E+03   -0.60833E-02   -0.57277E-02  4038   0.423E-01    0.399E-01
RMM:   3    -0.229205621317E+03    0.73711E-03   -0.31342E-03  4042   0.905E-02    0.293E-01
RMM:   4    -0.229205727091E+03   -0.10577E-03   -0.66627E-04  4050   0.412E-02    0.292E-01
RMM:   5    -0.229205418737E+03    0.30835E-03   -0.40009E-04  4039   0.294E-02    0.233E-01
RMM:   6    -0.229205179767E+03    0.23897E-03   -0.33607E-04  4038   0.275E-02    0.131E-01
RMM:   7    -0.229205149531E+03    0.30236E-04   -0.32250E-04  4038   0.275E-02    0.958E-02
RMM:   8    -0.229205091212E+03    0.58319E-04   -0.11440E-04  4038   0.164E-02    0.406E-02
RMM:   9    -0.229205085075E+03    0.61368E-05   -0.18706E-05  4020   0.674E-03    0.214E-02
RMM:  10    -0.229205081657E+03    0.34182E-05   -0.52200E-06  3215   0.362E-03    0.146E-02
RMM:  11    -0.229205080707E+03    0.95028E-06   -0.42045E-06  3029   0.316E-03
  24 F= -.22920508E+03 E0= -.22906756E+03  d E =-.294681E-02
       N       E                     dE             d eps       ncg     rms          rms(c)
DAV:   1    -0.229203266178E+03    0.18155E-02   -0.16638E+00  4032   0.216E+00    0.205E-01
RMM:   2    -0.229206706538E+03   -0.34404E-02   -0.32538E-02  4038   0.319E-01    0.297E-01
RMM:   3    -0.229206349712E+03    0.35683E-03   -0.17764E-03  4042   0.681E-02    0.234E-01
RMM:   4    -0.229206611696E+03   -0.26198E-03   -0.45811E-04  4052   0.332E-02    0.280E-01
RMM:   5    -0.229206113057E+03    0.49864E-03   -0.26696E-04  4038   0.242E-02    0.152E-01
RMM:   6    -0.229206050089E+03    0.62967E-04   -0.19346E-04  4037   0.209E-02    0.984E-02
RMM:   7    -0.229206040323E+03    0.97667E-05   -0.18400E-04  4038   0.208E-02    0.753E-02
RMM:   8    -0.229206003002E+03    0.37321E-04   -0.66709E-05  4038   0.125E-02    0.289E-02
RMM:   9    -0.229206000755E+03    0.22471E-05   -0.10021E-05  3999   0.495E-03    0.167E-02
RMM:  10    -0.229205998890E+03    0.18643E-05   -0.28664E-06  2667   0.274E-03    0.116E-02
RMM:  11    -0.229205998414E+03    0.47649E-06   -0.24060E-06  2304   0.251E-03
  25 F= -.22920600E+03 E0= -.22906862E+03  d E =-.386452E-02
       N       E                     dE             d eps       ncg     rms          rms(c)
DAV:   1    -0.229205002467E+03    0.99642E-03   -0.17271E+00  4032   0.222E+00    0.242E-01
RMM:   2    -0.229208843964E+03   -0.38415E-02   -0.36548E-02  4038   0.334E-01    0.341E-01
RMM:   3    -0.229208394419E+03    0.44955E-03   -0.21215E-03  4039   0.745E-02    0.258E-01
RMM:   4    -0.229208916788E+03   -0.52237E-03   -0.72603E-04  4045   0.404E-02    0.351E-01
RMM:   5    -0.229208155718E+03    0.76107E-03   -0.37583E-04  4038   0.288E-02    0.186E-01
RMM:   6    -0.229208096359E+03    0.59359E-04   -0.30959E-04  4038   0.254E-02    0.136E-01
RMM:   7    -0.229208043891E+03    0.52468E-04   -0.22799E-04  4038   0.231E-02    0.934E-02
RMM:   8    -0.229207997739E+03    0.46152E-04   -0.11053E-04  4036   0.164E-02    0.428E-02
RMM:   9    -0.229207991647E+03    0.60918E-05   -0.18039E-05  4026   0.663E-03    0.257E-02
RMM:  10    -0.229207988383E+03    0.32644E-05   -0.50028E-06  3244   0.360E-03    0.172E-02
RMM:  11    -0.229207987046E+03    0.13368E-05   -0.33552E-06  2665   0.286E-03    0.128E-02
RMM:  12    -0.229207986389E+03    0.65688E-06   -0.39388E-06  2866   0.317E-03
  26 F= -.22920799E+03 E0= -.22907088E+03  d E =-.198798E-02
       N       E                     dE             d eps       ncg     rms          rms(c)
DAV:   1    -0.229207615420E+03    0.37163E-03   -0.38821E-01  4056   0.105E+00    0.115E-01
RMM:   2    -0.229208478608E+03   -0.86319E-03   -0.81973E-03  4038   0.158E-01    0.165E-01
RMM:   3    -0.229208380234E+03    0.98374E-04   -0.47555E-04  4039   0.352E-02    0.125E-01
RMM:   4    -0.229208536265E+03   -0.15603E-03   -0.17824E-04  4044   0.198E-02    0.182E-01
RMM:   5    -0.229208310612E+03    0.22565E-03   -0.89270E-05  4038   0.141E-02    0.839E-02
RMM:   6    -0.229208309871E+03    0.74161E-06   -0.70743E-05  4038   0.121E-02    0.657E-02
RMM:   7    -0.229208298908E+03    0.10963E-04   -0.53002E-05  4036   0.111E-02    0.444E-02
RMM:   8    -0.229208289398E+03    0.95100E-05   -0.24458E-05  4032   0.773E-03    0.208E-02
RMM:   9    -0.229208288205E+03    0.11927E-05   -0.41184E-06  3026   0.321E-03    0.133E-02
RMM:  10    -0.229208287441E+03    0.76375E-06   -0.11545E-06  2176   0.187E-03
  27 F= -.22920829E+03 E0= -.22907129E+03  d E =-.228903E-02
       N       E                     dE             d eps       ncg     rms          rms(c)
DAV:   1    -0.229207996875E+03    0.29133E-03   -0.90975E-01  4032   0.164E+00    0.168E-01
RMM:   2    -0.229210014079E+03   -0.20172E-02   -0.19518E-02  4038   0.241E-01    0.210E-01
RMM:   3    -0.229209864127E+03    0.14995E-03   -0.11632E-03  4039   0.538E-02    0.193E-01
RMM:   4    -0.229210155323E+03   -0.29120E-03   -0.36885E-04  4050   0.282E-02    0.268E-01
RMM:   5    -0.229209617431E+03    0.53789E-03   -0.17616E-04  4038   0.199E-02    0.909E-02
RMM:   6    -0.229209657647E+03   -0.40216E-04   -0.11391E-04  4038   0.157E-02    0.102E-01
RMM:   7    -0.229209625205E+03    0.32441E-04   -0.96944E-05  4038   0.154E-02    0.610E-02
RMM:   8    -0.229209613992E+03    0.11213E-04   -0.43611E-05  4038   0.103E-02    0.325E-02
RMM:   9    -0.229209609385E+03    0.46070E-05   -0.96060E-06  4025   0.492E-03    0.165E-02
RMM:  10    -0.229209607877E+03    0.15081E-05   -0.20099E-06  2377   0.232E-03    0.104E-02
RMM:  11    -0.229209607393E+03    0.48420E-06   -0.16464E-06  2215   0.211E-03
  28 F= -.22920961E+03 E0= -.22907280E+03  d E =-.131995E-02
       N       E                     dE             d eps       ncg     rms          rms(c)
DAV:   1    -0.229208379321E+03    0.12286E-02   -0.10737E+00  4032   0.178E+00    0.183E-01
RMM:   2    -0.229210768246E+03   -0.23889E-02   -0.23031E-02  4038   0.261E-01    0.233E-01
RMM:   3    -0.229210580390E+03    0.18786E-03   -0.13622E-03  4039   0.584E-02    0.212E-01
RMM:   4    -0.229210932053E+03   -0.35166E-03   -0.43711E-04  4050   0.307E-02    0.292E-01
RMM:   5    -0.229210290524E+03    0.64153E-03   -0.21393E-04  4038   0.220E-02    0.100E-01
RMM:   6    -0.229210335778E+03   -0.45254E-04   -0.13668E-04  4038   0.172E-02    0.112E-01
RMM:   7    -0.229210296861E+03    0.38917E-04   -0.11802E-04  4038   0.170E-02    0.672E-02
RMM:   8    -0.229210281122E+03    0.15739E-04   -0.52752E-05  4038   0.113E-02    0.339E-02
RMM:   9    -0.229210276546E+03    0.45761E-05   -0.10217E-05  4026   0.509E-03    0.175E-02
RMM:  10    -0.229210274976E+03    0.15697E-05   -0.21899E-06  2398   0.240E-03    0.113E-02
RMM:  11    -0.229210274628E+03    0.34851E-06   -0.18728E-06  2252   0.221E-03
  29 F= -.22921027E+03 E0= -.22907367E+03  d E =-.198719E-02
       N       E                     dE             d eps       ncg     rms          rms(c)
DAV:   1    -0.229210170790E+03    0.10419E-03   -0.78410E-02  4152   0.481E-01    0.501E-02
RMM:   2    -0.229210344772E+03   -0.17398E-03   -0.16924E-03  4038   0.709E-02    0.618E-02
RMM:   3    -0.229210334976E+03    0.97964E-05   -0.10204E-04  4039   0.160E-02    0.610E-02
RMM:   4    -0.229210359853E+03   -0.24877E-04   -0.33630E-05  4047   0.850E-03    0.800E-02
RMM:   5    -0.229210311528E+03    0.48325E-04   -0.16630E-05  4032   0.615E-03    0.261E-02
RMM:   6    -0.229210315871E+03   -0.43423E-05   -0.10015E-05  4017   0.465E-03    0.301E-02
RMM:   7    -0.229210314541E+03    0.13301E-05   -0.87127E-06  4019   0.460E-03    0.197E-02
RMM:   8    -0.229210313299E+03    0.12418E-05   -0.36782E-06  2819   0.310E-03    0.812E-03
RMM:   9    -0.229210313359E+03   -0.60201E-07   -0.73079E-07  2166   0.154E-03
  30 F= -.22921031E+03 E0= -.22907377E+03  d E =-.202592E-02
       N       E                     dE             d eps       ncg     rms          rms(c)
DAV:   1    -0.229209629167E+03    0.68413E-03   -0.11270E+00  4032   0.184E+00    0.181E-01
RMM:   2    -0.229211951193E+03   -0.23220E-02   -0.23950E-02  4039   0.265E-01    0.144E-01
RMM:   3    -0.229211913403E+03    0.37790E-04   -0.12159E-03  4039   0.561E-02    0.205E-01
RMM:   4    -0.229211760384E+03    0.15302E-03   -0.22589E-04  4056   0.239E-02    0.126E-01
RMM:   5    -0.229211827214E+03   -0.66830E-04   -0.14346E-04  4038   0.170E-02    0.154E-01
RMM:   6    -0.229211712845E+03    0.11437E-03   -0.12067E-04  4038   0.162E-02    0.105E-01
RMM:   7    -0.229211673557E+03    0.39288E-04   -0.10632E-04  4038   0.156E-02    0.455E-02
RMM:   8    -0.229211671802E+03    0.17548E-05   -0.39145E-05  4034   0.956E-03    0.290E-02
RMM:   9    -0.229211666392E+03    0.54101E-05   -0.71855E-06  3729   0.422E-03    0.146E-02
RMM:  10    -0.229211664739E+03    0.16531E-05   -0.19783E-06  2312   0.235E-03    0.794E-03
RMM:  11    -0.229211664509E+03    0.23044E-06   -0.15210E-06  2181   0.205E-03
  31 F= -.22921166E+03 E0= -.22907516E+03  d E =-.135115E-02
       N       E                     dE             d eps       ncg     rms          rms(c)
DAV:   1    -0.229208393666E+03    0.32711E-02   -0.24925E+00  4032   0.274E+00    0.269E-01
RMM:   2    -0.229213537373E+03   -0.51437E-02   -0.52999E-02  4039   0.394E-01    0.213E-01
RMM:   3    -0.229213416478E+03    0.12090E-03   -0.26752E-03  4039   0.833E-02    0.293E-01
RMM:   4    -0.229212950233E+03    0.46625E-03   -0.46150E-04  4055   0.348E-02    0.134E-01
RMM:   5    -0.229213087806E+03   -0.13757E-03   -0.30498E-04  4038   0.264E-02    0.179E-01
RMM:   6    -0.229213354629E+03   -0.26682E-03   -0.28810E-04  4038   0.235E-02    0.251E-01
RMM:   7    -0.229212905857E+03    0.44877E-03   -0.24493E-04  4038   0.231E-02    0.760E-02
RMM:   8    -0.229212903016E+03    0.28409E-05   -0.87957E-05  4038   0.147E-02    0.404E-02
RMM:   9    -0.229212892467E+03    0.10549E-04   -0.15134E-05  4026   0.609E-03    0.210E-02
RMM:  10    -0.229212889066E+03    0.34017E-05   -0.44358E-06  3141   0.338E-03    0.119E-02
RMM:  11    -0.229212888541E+03    0.52417E-06   -0.33704E-06  2608   0.291E-03
  32 F= -.22921289E+03 E0= -.22907644E+03  d E =-.257518E-02
       N       E                     dE             d eps       ncg     rms          rms(c)
DAV:   1    -0.229194270748E+03    0.18618E-01   -0.99707E+00  4032   0.548E+00    0.538E-01
RMM:   2    -0.229214972331E+03   -0.20702E-01   -0.21212E-01  4039   0.788E-01    0.429E-01
RMM:   3    -0.229214495238E+03    0.47709E-03   -0.10726E-02  4039   0.167E-01    0.588E-01
RMM:   4    -0.229212573560E+03    0.19217E-02   -0.18368E-03  4055   0.694E-02    0.262E-01
RMM:   5    -0.229212726444E+03   -0.15288E-03   -0.11649E-03  4038   0.523E-02    0.292E-01
RMM:   6    -0.229214432017E+03   -0.17056E-02   -0.13050E-03  4038   0.510E-02    0.516E-01
RMM:   7    -0.229212412329E+03    0.20197E-02   -0.82866E-04  4038   0.411E-02    0.180E-01
RMM:   8    -0.229212309110E+03    0.10322E-03   -0.34685E-04  4038   0.293E-02    0.791E-02
RMM:   9    -0.229212268458E+03    0.40652E-04   -0.61150E-05  4038   0.123E-02    0.423E-02
RMM:  10    -0.229212254903E+03    0.13555E-04   -0.18723E-05  4032   0.681E-03    0.241E-02
RMM:  11    -0.229212252556E+03    0.23471E-05   -0.13984E-05  4032   0.551E-03    0.197E-02
RMM:  12    -0.229212251796E+03    0.76017E-06   -0.11843E-05  4020   0.506E-03    0.132E-02
RMM:  13    -0.229212252775E+03   -0.97855E-06   -0.32293E-06  2657   0.281E-03
  33 F= -.22921225E+03 E0= -.22907593E+03  d E =-.193942E-02
       N       E                     dE             d eps       ncg     rms          rms(c)
DAV:   1    -0.229205241509E+03    0.70103E-02   -0.44017E+00  4032   0.364E+00    0.357E-01
RMM:   2    -0.229214350002E+03   -0.91085E-02   -0.93301E-02  4039   0.523E-01    0.296E-01
RMM:   3    -0.229214371644E+03   -0.21642E-04   -0.47934E-03  4039   0.111E-01    0.437E-01
RMM:   4    -0.229213942903E+03    0.42874E-03   -0.10110E-03  4056   0.494E-02    0.320E-01
RMM:   5    -0.229213558019E+03    0.38488E-03   -0.56744E-04  4038   0.340E-02    0.254E-01
RMM:   6    -0.229213325717E+03    0.23230E-03   -0.47299E-04  4038   0.329E-02    0.195E-01
RMM:   7    -0.229213192143E+03    0.13357E-03   -0.42286E-04  4038   0.310E-02    0.924E-02
RMM:   8    -0.229213176123E+03    0.16021E-04   -0.16197E-04  4038   0.195E-02    0.589E-02
RMM:   9    -0.229213151057E+03    0.25065E-04   -0.32115E-05  4032   0.879E-03    0.302E-02
RMM:  10    -0.229213144112E+03    0.69455E-05   -0.86630E-06  4009   0.464E-03    0.158E-02
RMM:  11    -0.229213142404E+03    0.17082E-05   -0.60257E-06  3743   0.363E-03    0.128E-02
RMM:  12    -0.229213141449E+03    0.95464E-06   -0.53617E-06  3563   0.348E-03
  34 F= -.22921314E+03 E0= -.22907673E+03  d E =-.282809E-02
       N       E                     dE             d eps       ncg     rms          rms(c)
DAV:   1    -0.229212249191E+03    0.89321E-03   -0.14159E+00  4032   0.192E+00    0.203E-01
RMM:   2    -0.229217043830E+03   -0.47946E-02   -0.26894E-02  4040   0.297E-01    0.665E-01
RMM:   3    -0.229214640917E+03    0.24029E-02   -0.19976E-03  4040   0.712E-02    0.239E-01
RMM:   4    -0.229214873727E+03   -0.23281E-03   -0.52630E-04  4058   0.343E-02    0.297E-01
RMM:   5    -0.229214374393E+03    0.49933E-03   -0.26543E-04  4038   0.248E-02    0.189E-01
RMM:   6    -0.229214347553E+03    0.26840E-04   -0.20880E-04  4038   0.210E-02    0.145E-01
RMM:   7    -0.229214344874E+03    0.26789E-05   -0.23890E-04  4037   0.236E-02    0.110E-01
RMM:   8    -0.229214276176E+03    0.68699E-04   -0.96358E-05  4038   0.151E-02    0.379E-02
RMM:   9    -0.229214271052E+03    0.51238E-05   -0.16149E-05  4026   0.644E-03    0.192E-02
RMM:  10    -0.229214269135E+03    0.19166E-05   -0.49365E-06  3289   0.348E-03    0.163E-02
RMM:  11    -0.229214267053E+03    0.20818E-05   -0.49077E-06  3480   0.335E-03    0.989E-03
RMM:  12    -0.229214266602E+03    0.45173E-06   -0.35560E-06  2596   0.296E-03
  35 F= -.22921427E+03 E0= -.22907786E+03  d E =-.112515E-02
       N       E                     dE             d eps       ncg     rms          rms(c)
DAV:   1    -0.229213924820E+03    0.34223E-03   -0.35035E-01  4032   0.954E-01    0.101E-01
RMM:   2    -0.229215093544E+03   -0.11687E-02   -0.66531E-03  4040   0.148E-01    0.330E-01
RMM:   3    -0.229214497731E+03    0.59581E-03   -0.49004E-04  4040   0.353E-02    0.117E-01
RMM:   4    -0.229214564349E+03   -0.66618E-04   -0.12940E-04  4058   0.170E-02    0.149E-01
RMM:   5    -0.229214442417E+03    0.12193E-03   -0.67239E-05  4038   0.125E-02    0.946E-02
RMM:   6    -0.229214441182E+03    0.12347E-05   -0.53021E-05  4038   0.106E-02    0.720E-02
RMM:   7    -0.229214443525E+03   -0.23424E-05   -0.60808E-05  4037   0.119E-02    0.544E-02
RMM:   8    -0.229214427082E+03    0.16442E-04   -0.23747E-05  4032   0.754E-03    0.192E-02
RMM:   9    -0.229214425836E+03    0.12461E-05   -0.37282E-06  2896   0.318E-03    0.973E-03
RMM:  10    -0.229214425439E+03    0.39702E-06   -0.12402E-06  2171   0.187E-03
  36 F= -.22921443E+03 E0= -.22907800E+03  d E =-.128399E-02
       N       E                     dE             d eps       ncg     rms          rms(c)
DAV:   1    -0.229213360538E+03    0.10653E-02   -0.13336E+00  4032   0.187E+00    0.204E-01
RMM:   2    -0.229217832683E+03   -0.44721E-02   -0.26357E-02  4038   0.292E-01    0.624E-01
RMM:   3    -0.229215644465E+03    0.21882E-02   -0.19298E-03  4039   0.701E-02    0.238E-01
RMM:   4    -0.229215783895E+03   -0.13943E-03   -0.47366E-04  4056   0.324E-02    0.261E-01
RMM:   5    -0.229215429253E+03    0.35464E-03   -0.27555E-04  4038   0.247E-02    0.185E-01
RMM:   6    -0.229215395243E+03    0.34010E-04   -0.20031E-04  4038   0.208E-02    0.144E-01
RMM:   7    -0.229215375158E+03    0.20084E-04   -0.21991E-04  4037   0.230E-02    0.989E-02
RMM:   8    -0.229215328204E+03    0.46954E-04   -0.99458E-05  4038   0.155E-02    0.405E-02
RMM:   9    -0.229215319392E+03    0.88127E-05   -0.15819E-05  4032   0.629E-03    0.189E-02
RMM:  10    -0.229215317168E+03    0.22238E-05   -0.37867E-06  2812   0.306E-03    0.138E-02
RMM:  11    -0.229215315814E+03    0.13541E-05   -0.49299E-06  3479   0.338E-03    0.100E-02
RMM:  12    -0.229215315463E+03    0.35069E-06   -0.32540E-06  2468   0.287E-03
  37 F= -.22921532E+03 E0= -.22907895E+03  d E =-.890024E-03
       N       E                     dE             d eps       ncg     rms          rms(c)
DAV:   1    -0.229215217069E+03    0.98745E-04   -0.10166E-01  4128   0.517E-01    0.562E-02
RMM:   2    -0.229215555826E+03   -0.33876E-03   -0.20109E-03  4038   0.808E-02    0.174E-01
RMM:   3    -0.229215382631E+03    0.17319E-03   -0.14657E-04  4038   0.194E-02    0.658E-02
RMM:   4    -0.229215393832E+03   -0.11201E-04   -0.35192E-05  4051   0.886E-03    0.711E-02
RMM:   5    -0.229215371040E+03    0.22792E-04   -0.21139E-05  4032   0.686E-03    0.516E-02
RMM:   6    -0.229215370215E+03    0.82517E-06   -0.15977E-05  4032   0.588E-03    0.403E-02
RMM:   7    -0.229215370093E+03    0.12209E-06   -0.17381E-05  4032   0.646E-03    0.274E-02
RMM:   8    -0.229215366950E+03    0.31425E-05   -0.78135E-06  3895   0.436E-03    0.114E-02
RMM:   9    -0.229215366327E+03    0.62270E-06   -0.10954E-06  2171   0.177E-03
  38 F= -.22921537E+03 E0= -.22907901E+03  d E =-.940888E-03
       N       E                     dE             d eps       ncg     rms          rms(c)
DAV:   1    -0.229215069211E+03    0.29774E-03   -0.54008E-01  4032   0.122E+00    0.128E-01
RMM:   2    -0.229216192471E+03   -0.11233E-02   -0.10489E-02  4038   0.183E-01    0.181E-01
RMM:   3    -0.229216077406E+03    0.11507E-03   -0.67950E-04  4040   0.419E-02    0.158E-01
RMM:   4    -0.229216136830E+03   -0.59424E-04   -0.16326E-04  4057   0.195E-02    0.153E-01
RMM:   5    -0.229216054859E+03    0.81971E-04   -0.15026E-04  4038   0.173E-02    0.137E-01
RMM:   6    -0.229215973368E+03    0.81492E-04   -0.76377E-05  4038   0.130E-02    0.854E-02
RMM:   7    -0.229215959990E+03    0.13378E-04   -0.69641E-05  4037   0.127E-02    0.536E-02
RMM:   8    -0.229215944177E+03    0.15813E-04   -0.27307E-05  4032   0.808E-03    0.187E-02
RMM:   9    -0.229215943065E+03    0.11112E-05   -0.40085E-06  2912   0.322E-03    0.102E-02
RMM:  10    -0.229215942463E+03    0.60255E-06   -0.10622E-06  2181   0.179E-03
  39 F= -.22921594E+03 E0= -.22907967E+03  d E =-.576135E-03
       N       E                     dE             d eps       ncg     rms          rms(c)
DAV:   1    -0.229215287095E+03    0.65597E-03   -0.54892E-01  4032   0.123E+00    0.129E-01
RMM:   2    -0.229216417586E+03   -0.11305E-02   -0.10678E-02  4038   0.184E-01    0.177E-01
RMM:   3    -0.229216279026E+03    0.13856E-03   -0.68122E-04  4040   0.420E-02    0.143E-01
RMM:   4    -0.229216313087E+03   -0.34061E-04   -0.14436E-04  4056   0.189E-02    0.129E-01
RMM:   5    -0.229216345308E+03   -0.32221E-04   -0.14414E-04  4038   0.167E-02    0.158E-01
RMM:   6    -0.229216205849E+03    0.13946E-03   -0.77077E-05  4038   0.130E-02    0.831E-02
RMM:   7    -0.229216195915E+03    0.99342E-05   -0.71745E-05  4037   0.129E-02    0.529E-02
RMM:   8    -0.229216180546E+03    0.15369E-04   -0.25723E-05  4032   0.783E-03    0.190E-02
RMM:   9    -0.229216179375E+03    0.11717E-05   -0.39120E-06  2889   0.318E-03    0.104E-02
RMM:  10    -0.229216178773E+03    0.60140E-06   -0.10739E-06  2195   0.180E-03
  40 F= -.22921618E+03 E0= -.22907997E+03  d E =-.812446E-03
       N       E                     dE             d eps       ncg     rms          rms(c)
DAV:   1    -0.229216051117E+03    0.12826E-03   -0.34174E-01  4032   0.978E-01    0.954E-02
RMM:   2    -0.229216939126E+03   -0.88801E-03   -0.67539E-03  4038   0.146E-01    0.204E-01
RMM:   3    -0.229216812667E+03    0.12646E-03   -0.46489E-04  4041   0.335E-02    0.165E-01
RMM:   4    -0.229216653436E+03    0.15923E-03   -0.14990E-04  4043   0.187E-02    0.851E-02
RMM:   5    -0.229216610076E+03    0.43359E-04   -0.60048E-05  4038   0.120E-02    0.509E-02
RMM:   6    -0.229216615883E+03   -0.58070E-05   -0.44747E-05  4037   0.104E-02    0.510E-02
RMM:   7    -0.229216611426E+03    0.44577E-05   -0.42895E-05  4033   0.990E-03    0.253E-02
RMM:   8    -0.229216607693E+03    0.37328E-05   -0.92396E-06  4018   0.450E-03    0.116E-02
RMM:   9    -0.229216607319E+03    0.37441E-06   -0.11546E-06  2194   0.179E-03
  41 F= -.22921661E+03 E0= -.22908039E+03  d E =-.428545E-03
