<?xml version="1.0" encoding="ISO-8859-1"?>
<modeling>
 <generator>
  <i name="program" type="string">vasp </i>
  <i name="version" type="string">5.4.1  </i>
  <i name="subversion" type="string">24Jun15 (build Mar 14 2019 10:18:33) complex                          parallel </i>
  <i name="platform" type="string">INTEL-19.0.2+OPENMPI-3.1.3 </i>
  <i name="date" type="string">2023 01 23 </i>
  <i name="time" type="string">13:26:55 </i>
 </generator>
 <incar>
  <i type="int" name="ISTART">     0</i>
  <i type="string" name="PREC">normal</i>
  <i type="string" name="ALGO"> Fast</i>
  <i type="int" name="NELM">   500</i>
  <i type="int" name="IBRION">     2</i>
  <i type="int" name="NFREE">     2</i>
  <i name="EDIFF">      0.00000100</i>
  <i name="EDIFFG">     -0.02000000</i>
  <i type="int" name="NSW">   500</i>
  <i type="int" name="ISIF">     0</i>
  <i type="int" name="ISYM">     2</i>
  <i name="ENCUT">    400.00000000</i>
  <i name="POTIM">      0.35000000</i>
  <i type="string" name="LREAL"> Auto</i>
  <i type="logical" name="LPLANE"> T  </i>
  <i type="int" name="ISMEAR">     0</i>
  <i name="SIGMA">      0.10000000</i>
  <i type="int" name="NWRITE">     1</i>
  <i type="logical" name="LWAVE"> F  </i>
  <i type="logical" name="LCHARG"> F  </i>
  <i type="logical" name="LVTOT"> F  </i>
  <i type="logical" name="LORBIT"> F  </i>
  <i type="logical" name="LAECHG"> F  </i>
  <v type="int" name="KPOINT_BSE">    -1     0     0     0</v>
  <i type="int" name="NELM">   500</i>
  <i type="string" name="GGA"> PE          ! optPBE-vdW XC-functional</i>
  <i type="int" name="VOSKOWN">     1</i>
  <i type="logical" name="LDIPOL"> T  </i>
  <i type="logical" name="LMONO"> F  </i>
  <i type="int" name="IDIPOL">     3</i>
  <v name="DIPOL">      0.00000000      0.00000000      0.50000000</v>
 </incar>
 <kpoints>
  <generation param="Monkhorst-Pack">
   <v type="int" name="divisions">       2        2        1 </v>
   <v name="usershift">      0.00000000       0.00000000       0.00000000 </v>
   <v name="genvec1">      0.50000000       0.00000000       0.00000000 </v>
   <v name="genvec2">      0.00000000       0.50000000       0.00000000 </v>
   <v name="genvec3">      0.00000000       0.00000000       1.00000000 </v>
   <v name="shift">      0.50000000       0.50000000       0.00000000 </v>
  </generation>
  <varray name="kpointlist" >
   <v>       0.25000000       0.25000000       0.00000000 </v>
   <v>       0.00000000       0.25000000       0.00000000 </v>
   <v>      -0.25000000       0.00000000       0.00000000 </v>
   <v>      -0.25000000       0.25000000       0.00000000 </v>
   <v>       0.50000000      -0.25000000       0.00000000 </v>
   <v>      -0.25000000       0.50000000       0.00000000 </v>
  </varray>
  <varray name="weights" >
   <v>       0.16666667 </v>
   <v>       0.16666667 </v>
   <v>       0.16666667 </v>
   <v>       0.16666667 </v>
   <v>       0.16666667 </v>
   <v>       0.16666667 </v>
  </varray>
 </kpoints>
 <parameters>
  <separator name="general" >
   <i type="string" name="SYSTEM">unknown system</i>
   <i type="logical" name="LCOMPAT"> F  </i>
  </separator>
  <separator name="electronic" >
   <i type="string" name="PREC">normal</i>
   <i name="ENMAX">    400.00000000</i>
   <i name="ENAUG">    605.39200000</i>
   <i name="EDIFF">      0.00000100</i>
   <i type="int" name="IALGO">    68</i>
   <i type="int" name="IWAVPR">    11</i>
   <i type="int" name="NBANDS">   336</i>
   <i name="NELECT">    552.00000000</i>
   <i type="int" name="TURBO">     0</i>
   <i type="int" name="IRESTART">     0</i>
   <i type="int" name="NREBOOT">     0</i>
   <i type="int" name="NMIN">     0</i>
   <i name="EREF">      0.00000000</i>
   <separator name="electronic smearing" >
    <i type="int" name="ISMEAR">     0</i>
    <i name="SIGMA">      0.10000000</i>
    <i name="KSPACING">      0.50000000</i>
    <i type="logical" name="KGAMMA"> T  </i>
   </separator>
   <separator name="electronic projectors" >
    <i type="logical" name="LREAL"> T  </i>
    <v name="ROPT">     -0.00050000     -0.00050000     -0.00050000</v>
    <i type="int" name="LMAXPAW">  -100</i>
    <i type="int" name="LMAXMIX">     2</i>
    <i type="logical" name="NLSPLINE"> F  </i>
   </separator>
   <separator name="electronic startup" >
    <i type="int" name="ISTART">     0</i>
    <i type="int" name="ICHARG">     2</i>
    <i type="int" name="INIWAV">     1</i>
   </separator>
   <separator name="electronic spin" >
    <i type="int" name="ISPIN">     1</i>
    <i type="logical" name="LNONCOLLINEAR"> F  </i>
    <v name="MAGMOM">      1.00000000      1.00000000      1.00000000      1.00000000      1.00000000      1.00000000      1.00000000      1.00000000      1.00000000      1.00000000      1.00000000      1.00000000      1.00000000      1.00000000      1.00000000      1.00000000      1.00000000      1.00000000      1.00000000      1.00000000
      1.00000000      1.00000000      1.00000000      1.00000000      1.00000000      1.00000000      1.00000000      1.00000000      1.00000000      1.00000000      1.00000000      1.00000000      1.00000000      1.00000000      1.00000000      1.00000000      1.00000000      1.00000000      1.00000000      1.00000000
      1.00000000      1.00000000      1.00000000      1.00000000      1.00000000      1.00000000      1.00000000      1.00000000      1.00000000      1.00000000      1.00000000      1.00000000      1.00000000      1.00000000      1.00000000      1.00000000</v>
    <i name="NUPDOWN">     -1.00000000</i>
    <i type="logical" name="LSORBIT"> F  </i>
    <v name="SAXIS">      0.00000000      0.00000000      1.00000000</v>
    <i type="logical" name="LSPIRAL"> F  </i>
    <v name="QSPIRAL">      0.00000000      0.00000000      0.00000000</v>
    <i type="logical" name="LZEROZ"> F  </i>
   </separator>
   <separator name="electronic exchange-correlation" >
    <i type="logical" name="LASPH"> F  </i>
    <i type="logical" name="LMETAGGA"> F  </i>
   </separator>
   <separator name="electronic convergence" >
    <i type="int" name="NELM">   500</i>
    <i type="int" name="NELMDL">    -5</i>
    <i type="int" name="NELMIN">     2</i>
    <i name="ENINI">    400.00000000</i>
    <separator name="electronic convergence detail" >
     <i type="logical" name="LDIAG"> T  </i>
     <i type="logical" name="LSUBROT"> F  </i>
     <i name="WEIMIN">      0.00100000</i>
     <i name="EBREAK">      0.00000000</i>
     <i name="DEPER">      0.30000000</i>
     <i type="int" name="NRMM">     4</i>
     <i name="TIME">      0.40000000</i>
    </separator>
   </separator>
   <separator name="electronic mixer" >
    <i name="AMIX">      0.40000000</i>
    <i name="BMIX">      1.00000000</i>
    <i name="AMIN">      0.10000000</i>
    <i name="AMIX_MAG">      1.60000000</i>
    <i name="BMIX_MAG">      1.00000000</i>
    <separator name="electronic mixer details" >
     <i type="int" name="IMIX">     4</i>
     <i type="logical" name="MIXFIRST"> F  </i>
     <i type="int" name="MAXMIX">   -45</i>
     <i name="WC">    100.00000000</i>
     <i type="int" name="INIMIX">     1</i>
     <i type="int" name="MIXPRE">     1</i>
     <i type="int" name="MREMOVE">     5</i>
    </separator>
   </separator>
   <separator name="electronic dipolcorrection" >
    <i type="logical" name="LDIPOL"> T  </i>
    <i type="logical" name="LMONO"> F  </i>
    <i type="int" name="IDIPOL">     3</i>
    <i name="EPSILON">      1.00000000</i>
    <v name="DIPOL">      0.00000000      0.00000000      0.50000000</v>
    <i name="EFIELD">      0.00000000</i>
   </separator>
  </separator>
  <separator name="grids" >
   <i type="int" name="NGX">    54</i>
   <i type="int" name="NGY">    54</i>
   <i type="int" name="NGZ">   128</i>
   <i type="int" name="NGXF">   108</i>
   <i type="int" name="NGYF">   108</i>
   <i type="int" name="NGZF">   256</i>
   <i type="logical" name="ADDGRID"> F  </i>
  </separator>
  <separator name="ionic" >
   <i type="int" name="NSW">   500</i>
   <i type="int" name="IBRION">     2</i>
   <i type="int" name="ISIF">     0</i>
   <i name="PSTRESS">      0.00000000</i>
   <i name="EDIFFG">     -0.02000000</i>
   <i type="int" name="NFREE">     2</i>
   <i name="POTIM">      0.35000000</i>
   <i name="SMASS">     -3.00000000</i>
   <i name="SCALEE">      1.00000000</i>
  </separator>
  <separator name="ionic md" >
   <i name="TEBEG">      0.00010000</i>
   <i name="TEEND">      0.00010000</i>
   <i type="int" name="NBLOCK">     1</i>
   <i type="int" name="KBLOCK">   500</i>
   <i type="int" name="NPACO">   256</i>
   <i name="APACO">     16.00000000</i>
  </separator>
  <separator name="symmetry" >
   <i type="int" name="ISYM">     2</i>
   <i name="SYMPREC">      0.00001000</i>
  </separator>
  <separator name="dos" >
   <i type="logical" name="LORBIT"> F  </i>
   <v name="RWIGS">     -1.00000000     -1.00000000     -1.00000000</v>
   <i type="int" name="NEDOS">   301</i>
   <i name="EMIN">     10.00000000</i>
   <i name="EMAX">    -10.00000000</i>
   <i name="EFERMI">      0.00000000</i>
  </separator>
  <separator name="writing" >
   <i type="int" name="NWRITE">     1</i>
   <i type="logical" name="LWAVE"> F  </i>
   <i type="logical" name="LCHARG"> F  </i>
   <i type="logical" name="LPARD"> F  </i>
   <i type="logical" name="LVTOT"> F  </i>
   <i type="logical" name="LVHAR"> F  </i>
   <i type="logical" name="LELF"> F  </i>
   <i type="logical" name="LOPTICS"> F  </i>
   <v name="STM">      0.00000000      0.00000000      0.00000000      0.00000000      0.00000000      0.00000000      0.00000000</v>
  </separator>
  <separator name="performance" >
   <i type="int" name="NPAR">     6</i>
   <i type="int" name="NSIM">     4</i>
   <i type="int" name="NBLK">    -1</i>
   <i type="logical" name="LPLANE"> T  </i>
   <i type="logical" name="LSCALAPACK"> T  </i>
   <i type="logical" name="LSCAAWARE"> F  </i>
   <i type="logical" name="LSCALU"> F  </i>
   <i type="logical" name="LASYNC"> F  </i>
   <i type="logical" name="LORBITALREAL"> F  </i>
  </separator>
  <separator name="miscellaneous" >
   <i type="int" name="IDIOT">     3</i>
   <i type="logical" name="LMUSIC"> F  </i>
   <v name="POMASS">    196.96600000     16.00000000    106.42000000</v>
   <v name="DARWINR">      0.00000000      0.00000000      0.00000000</v>
   <v name="DARWINV">      1.00000000      1.00000000      1.00000000</v>
   <i type="logical" name="LCORR"> T  </i>
  </separator>
  <i type="logical" name="GGA_COMPAT"> T  </i>
  <i type="logical" name="LBERRY"> F  </i>
  <i type="int" name="ICORELEVEL">     0</i>
  <i type="logical" name="LDAU"> F  </i>
  <i type="int" name="I_CONSTRAINED_M">     0</i>
  <separator name="electronic exchange-correlation" >
   <i type="string" name="GGA">PE</i>
   <i type="int" name="VOSKOWN">     1</i>
   <i type="logical" name="LHFCALC"> F  </i>
   <i type="string" name="PRECFOCK"></i>
   <i type="logical" name="LSYMGRAD"> F  </i>
   <i type="logical" name="LHFONE"> F  </i>
   <i type="logical" name="LRHFCALC"> F  </i>
   <i type="logical" name="LTHOMAS"> F  </i>
   <i type="logical" name="LMODELHF"> F  </i>
   <i name="ENCUT4O">     -1.00000000</i>
   <i type="int" name="EXXOEP">     0</i>
   <i type="int" name="FOURORBIT">     0</i>
   <i name="AEXX">      0.00000000</i>
   <i name="HFALPHA">      0.00000000</i>
   <i name="MCALPHA">      0.00000000</i>
   <i name="ALDAX">      1.00000000</i>
   <i name="AGGAX">      1.00000000</i>
   <i name="ALDAC">      1.00000000</i>
   <i name="AGGAC">      1.00000000</i>
   <i type="int" name="NKREDX">     1</i>
   <i type="int" name="NKREDY">     1</i>
   <i type="int" name="NKREDZ">     1</i>
   <i type="logical" name="SHIFTRED"> F  </i>
   <i type="logical" name="ODDONLY"> F  </i>
   <i type="logical" name="EVENONLY"> F  </i>
   <i type="int" name="LMAXFOCK">     0</i>
   <i type="int" name="NMAXFOCKAE">     0</i>
   <i type="logical" name="LFOCKAEDFT"> F  </i>
   <i name="HFSCREEN">      0.00000000</i>
   <i name="HFSCREENC">      0.00000000</i>
   <i type="int" name="NBANDSGWLOW">     0</i>
  </separator>
  <separator name="vdW DFT" >
   <i type="logical" name="LUSE_VDW"> F  </i>
   <i name="Zab_VDW">     -0.84910000</i>
   <i name="PARAM1">      0.12340000</i>
   <i name="PARAM2">      1.00000000</i>
   <i name="PARAM3">      0.00000000</i>
  </separator>
  <separator name="model GW" >
   <i type="int" name="MODEL_GW">     0</i>
   <i name="MODEL_EPS0">     29.42037089</i>
   <i name="MODEL_ALPHA">      1.00000000</i>
  </separator>
  <separator name="linear response parameters" >
   <i type="logical" name="LEPSILON"> F  </i>
   <i type="logical" name="LRPA"> F  </i>
   <i type="logical" name="LNABLA"> F  </i>
   <i type="logical" name="LVEL"> F  </i>
   <i type="int" name="KINTER">     0</i>
   <i name="CSHIFT">      0.10000000</i>
   <i name="OMEGAMAX">     -1.00000000</i>
   <i name="DEG_THRESHOLD">      0.00200000</i>
  </separator>
  <separator name="orbital magnetization" >
   <i type="logical" name="NUCIND"> F  </i>
   <v name="MAGPOS">      0.00000000      0.00000000      0.00000000</v>
   <i type="logical" name="LNICSALL"> T  </i>
   <i type="logical" name="ORBITALMAG"> F  </i>
   <i type="logical" name="LMAGBLOCH"> F  </i>
   <i type="logical" name="LCHIMAG"> F  </i>
   <i type="logical" name="LGAUGE"> T  </i>
   <i type="int" name="MAGATOM">     0</i>
   <v name="MAGDIPOL">      0.00000000      0.00000000      0.00000000</v>
   <v name="AVECCONST">      0.00000000      0.00000000      0.00000000</v>
  </separator>
  <separator name="response functions" >
   <i type="logical" name="LADDER"> F  </i>
   <i type="logical" name="LFXC"> F  </i>
   <i type="logical" name="LHARTREE"> T  </i>
   <i type="int" name="IBSE">     0</i>
   <v type="int" name="KPOINT">    -1     0     0     0</v>
   <i type="logical" name="LTCTE"> F  </i>
   <i type="logical" name="LTETE"> F  </i>
   <i type="logical" name="LTRIPLET"> F  </i>
   <i type="logical" name="LFXCEPS"> F  </i>
   <i type="logical" name="LFXHEG"> F  </i>
   <i type="int" name="NATURALO">     0</i>
   <i type="logical" name="L2ORDER"> F  </i>
   <i type="logical" name="LUSEW"> F  </i>
   <i name="ENCUTGW">     -2.00000000</i>
   <i name="ENCUTGWSOFT">     -2.00000000</i>
   <i name="ENCUTLF">     -1.00000000</i>
   <i type="int" name="LMAXMP2">    -1</i>
   <i name="SCISSOR">      0.00000000</i>
   <i type="int" name="NOMEGA">     0</i>
   <i type="int" name="NOMEGAR">     0</i>
   <i type="int" name="NBANDSGW">    -1</i>
   <i type="int" name="NBANDSO">    -1</i>
   <i type="int" name="NBANDSV">    -1</i>
   <i type="int" name="NELM">   500</i>
   <i type="int" name="NELMHF">     1</i>
   <i type="int" name="DIM">     3</i>
   <i type="int" name="ANTIRES">     0</i>
   <i name="OMEGAMAX">    -30.00000000</i>
   <i name="OMEGAMIN">    -30.00000000</i>
   <i name="OMEGATL">   -200.00000000</i>
   <i type="int" name="OMEGAGRID">     0</i>
   <i name="CSHIFT">     -0.10000000</i>
   <i type="logical" name="SELFENERGY"> F  </i>
   <i type="logical" name="LSPECTRAL"> F  </i>
   <i type="logical" name="LSPECTRALGW"> F  </i>
   <i type="logical" name="LSINGLES"> F  </i>
   <i type="logical" name="LFERMIGW"> F  </i>
   <i type="logical" name="ODDONLYGW"> F  </i>
   <i type="logical" name="EVENONLYGW"> F  </i>
   <i type="int" name="NKREDLFX">     1</i>
   <i type="int" name="NKREDLFY">     1</i>
   <i type="int" name="NKREDLFZ">     1</i>
   <i type="int" name="MAXMEM">  1800</i>
   <i type="int" name="TELESCOPE">     0</i>
   <i type="int" name="TAUPAR">     1</i>
   <i type="int" name="OMEGAPAR">    -1</i>
   <i name="LAMBDA">      1.00000000</i>
  </separator>
  <separator name="External order field" >
   <i name="OFIELD_KAPPA">      0.00000000</i>
   <v name="OFIELD_K">      0.00000000      0.00000000      0.00000000</v>
   <i name="OFIELD_Q6_NEAR">      0.00000000</i>
   <i name="OFIELD_Q6_FAR">      0.00000000</i>
   <i name="OFIELD_A">      0.00000000</i>
  </separator>
 </parameters>
 <atominfo>
  <atoms>      56 </atoms>
  <types>       3 </types>
  <array name="atoms" >
   <dimension dim="1">ion</dimension>
   <field type="string">element</field>
   <field type="int">atomtype</field>
   <set>
    <rc><c>Au</c><c>   1</c></rc>
    <rc><c>Au</c><c>   1</c></rc>
    <rc><c>Au</c><c>   1</c></rc>
    <rc><c>Au</c><c>   1</c></rc>
    <rc><c>Au</c><c>   1</c></rc>
    <rc><c>Au</c><c>   1</c></rc>
    <rc><c>Au</c><c>   1</c></rc>
    <rc><c>Au</c><c>   1</c></rc>
    <rc><c>Au</c><c>   1</c></rc>
    <rc><c>Au</c><c>   1</c></rc>
    <rc><c>Au</c><c>   1</c></rc>
    <rc><c>Au</c><c>   1</c></rc>
    <rc><c>Au</c><c>   1</c></rc>
    <rc><c>Au</c><c>   1</c></rc>
    <rc><c>Au</c><c>   1</c></rc>
    <rc><c>Au</c><c>   1</c></rc>
    <rc><c>Au</c><c>   1</c></rc>
    <rc><c>Au</c><c>   1</c></rc>
    <rc><c>Au</c><c>   1</c></rc>
    <rc><c>Au</c><c>   1</c></rc>
    <rc><c>Au</c><c>   1</c></rc>
    <rc><c>Au</c><c>   1</c></rc>
    <rc><c>Au</c><c>   1</c></rc>
    <rc><c>Au</c><c>   1</c></rc>
    <rc><c>O </c><c>   2</c></rc>
    <rc><c>O </c><c>   2</c></rc>
    <rc><c>O </c><c>   2</c></rc>
    <rc><c>O </c><c>   2</c></rc>
    <rc><c>O </c><c>   2</c></rc>
    <rc><c>O </c><c>   2</c></rc>
    <rc><c>O </c><c>   2</c></rc>
    <rc><c>O </c><c>   2</c></rc>
    <rc><c>Pd</c><c>   3</c></rc>
    <rc><c>Pd</c><c>   3</c></rc>
    <rc><c>Pd</c><c>   3</c></rc>
    <rc><c>Pd</c><c>   3</c></rc>
    <rc><c>Pd</c><c>   3</c></rc>
    <rc><c>Pd</c><c>   3</c></rc>
    <rc><c>Pd</c><c>   3</c></rc>
    <rc><c>Pd</c><c>   3</c></rc>
    <rc><c>Pd</c><c>   3</c></rc>
    <rc><c>Pd</c><c>   3</c></rc>
    <rc><c>Pd</c><c>   3</c></rc>
    <rc><c>Pd</c><c>   3</c></rc>
    <rc><c>Pd</c><c>   3</c></rc>
    <rc><c>Pd</c><c>   3</c></rc>
    <rc><c>Pd</c><c>   3</c></rc>
    <rc><c>Pd</c><c>   3</c></rc>
    <rc><c>Pd</c><c>   3</c></rc>
    <rc><c>Pd</c><c>   3</c></rc>
    <rc><c>Pd</c><c>   3</c></rc>
    <rc><c>Pd</c><c>   3</c></rc>
    <rc><c>Pd</c><c>   3</c></rc>
    <rc><c>Pd</c><c>   3</c></rc>
    <rc><c>Pd</c><c>   3</c></rc>
    <rc><c>Pd</c><c>   3</c></rc>
   </set>
  </array>
  <array name="atomtypes" >
   <dimension dim="1">type</dimension>
   <field type="int">atomspertype</field>
   <field type="string">element</field>
   <field>mass</field>
   <field>valence</field>
   <field type="string">pseudopotential</field>
   <set>
    <rc><c>  24</c><c>Au</c><c>    196.96600000</c><c>     11.00000000</c><c>  PAW_PBE Au 04Oct2007                  </c></rc>
    <rc><c>   8</c><c>O </c><c>     16.00000000</c><c>      6.00000000</c><c>  PAW_PBE O 08Apr2002                   </c></rc>
    <rc><c>  24</c><c>Pd</c><c>    106.42000000</c><c>     10.00000000</c><c>  PAW_PBE Pd 04Jan2005                  </c></rc>
   </set>
  </array>
 </atominfo>
 <structure name="initialpos" >
  <crystal>
   <varray name="basis" >
    <v>      11.00258152       0.00000000       0.00000000 </v>
    <v>       5.50129076       9.52851510       0.00000000 </v>
    <v>       0.00000000       0.00000000      26.19178509 </v>
   </varray>
   <i name="volume">   2745.90128299 </i>
   <varray name="rec_basis" >
    <v>       0.09088776      -0.05247407       0.00000000 </v>
    <v>       0.00000000       0.10494815       0.00000000 </v>
    <v>       0.00000000       0.00000000       0.03817991 </v>
   </varray>
  </crystal>
  <varray name="positions" >
   <v>       0.08333333       0.08333333       0.38179910 </v>
   <v>       0.08333333       0.83333333       0.38179910 </v>
   <v>       0.08333333       0.33333333       0.38179910 </v>
   <v>       0.99063331       0.51648121       0.56404185 </v>
   <v>       0.99969130       0.24569834       0.56138524 </v>
   <v>       0.90813154       0.67395321       0.47565521 </v>
   <v>       0.01244909       0.98349852       0.56498711 </v>
   <v>       0.08333333       0.58333333       0.38179910 </v>
   <v>       0.33333333       0.83333333       0.38179910 </v>
   <v>       0.24808833       0.98872668       0.56684948 </v>
   <v>       0.33333333       0.58333333       0.38179910 </v>
   <v>       0.25363234       0.49774080       0.56607199 </v>
   <v>       0.16307918       0.67077136       0.48091208 </v>
   <v>       0.76870214       0.75437595       0.60491899 </v>
   <v>       0.50023245       0.00011163       0.55927306 </v>
   <v>       0.58333333       0.58333333       0.38179910 </v>
   <v>       0.41343739       0.67161503       0.48237003 </v>
   <v>       0.41531696       0.92279404       0.47207820 </v>
   <v>       0.66119719       0.17082000       0.47394952 </v>
   <v>       0.75200187       0.98264856       0.56127005 </v>
   <v>       0.83333333       0.33333333       0.38179910 </v>
   <v>       0.66650861       0.41931245       0.47806406 </v>
   <v>       0.73166059       0.24653695       0.56869033 </v>
   <v>       0.25742291       0.73750910       0.59542524 </v>
   <v>       0.32916724       0.35407982       0.62959089 </v>
   <v>       0.33016541       0.06799308       0.62047507 </v>
   <v>       0.84476028       0.05706040       0.61659963 </v>
   <v>       0.82409185       0.35362857       0.61070736 </v>
   <v>       0.51060069       0.44314896       0.64120162 </v>
   <v>       0.63599033       0.67734217       0.62566320 </v>
   <v>       0.57822365       0.07081891       0.62490532 </v>
   <v>       0.07254981       0.34630129       0.61436135 </v>
   <v>       0.33333333       0.33333333       0.38179910 </v>
   <v>       0.16459818       0.41836787       0.47566313 </v>
   <v>       0.26167452       0.24688350       0.58217959 </v>
   <v>       0.00355880       0.74749422       0.56898058 </v>
   <v>       0.91349900       0.92120413       0.47177239 </v>
   <v>       0.73501228       0.52545012       0.56872751 </v>
   <v>       0.16471937       0.92118396       0.47689106 </v>
   <v>       0.83333333       0.83333333       0.38179910 </v>
   <v>       0.58333333       0.08333333       0.38179910 </v>
   <v>       0.41048340       0.17644557       0.47180867 </v>
   <v>       0.33333333       0.08333333       0.38179910 </v>
   <v>       0.41478561       0.41907160       0.47404248 </v>
   <v>       0.58333333       0.33333333       0.38179910 </v>
   <v>       0.16571329       0.17399314       0.47638329 </v>
   <v>       0.83333333       0.08333333       0.38179910 </v>
   <v>       0.91516814       0.16821194       0.47511210 </v>
   <v>       0.49817339       0.49797445       0.56915076 </v>
   <v>       0.66403863       0.67243799       0.47544852 </v>
   <v>       0.66235882       0.92226288       0.47109869 </v>
   <v>       0.58333333       0.83333333       0.38179910 </v>
   <v>       0.49825035       0.75250034       0.56841122 </v>
   <v>       0.91268178       0.42142049       0.47259192 </v>
   <v>       0.53273577       0.26382873       0.63429044 </v>
   <v>       0.83333333       0.58333333       0.38179910 </v>
  </varray>
  <varray name="selective"  type="logical" >
   <v type="logical" >  F  F  F </v>
   <v type="logical" >  F  F  F </v>
   <v type="logical" >  F  F  F </v>
   <v type="logical" >  T  T  T </v>
   <v type="logical" >  T  T  T </v>
   <v type="logical" >  T  T  T </v>
   <v type="logical" >  T  T  T </v>
   <v type="logical" >  F  F  F </v>
   <v type="logical" >  F  F  F </v>
   <v type="logical" >  T  T  T </v>
   <v type="logical" >  F  F  F </v>
   <v type="logical" >  T  T  T </v>
   <v type="logical" >  T  T  T </v>
   <v type="logical" >  T  T  T </v>
   <v type="logical" >  T  T  T </v>
   <v type="logical" >  F  F  F </v>
   <v type="logical" >  T  T  T </v>
   <v type="logical" >  T  T  T </v>
   <v type="logical" >  T  T  T </v>
   <v type="logical" >  T  T  T </v>
   <v type="logical" >  F  F  F </v>
   <v type="logical" >  T  T  T </v>
   <v type="logical" >  T  T  T </v>
   <v type="logical" >  T  T  T </v>
   <v type="logical" >  T  T  T </v>
   <v type="logical" >  T  T  T </v>
   <v type="logical" >  T  T  T </v>
   <v type="logical" >  T  T  T </v>
   <v type="logical" >  T  T  T </v>
   <v type="logical" >  T  T  T </v>
   <v type="logical" >  T  T  T </v>
   <v type="logical" >  T  T  T </v>
   <v type="logical" >  F  F  F </v>
   <v type="logical" >  T  T  T </v>
   <v type="logical" >  T  T  T </v>
   <v type="logical" >  T  T  T </v>
   <v type="logical" >  T  T  T </v>
   <v type="logical" >  T  T  T </v>
   <v type="logical" >  T  T  T </v>
   <v type="logical" >  F  F  F </v>
   <v type="logical" >  F  F  F </v>
   <v type="logical" >  T  T  T </v>
   <v type="logical" >  F  F  F </v>
   <v type="logical" >  T  T  T </v>
   <v type="logical" >  F  F  F </v>
   <v type="logical" >  T  T  T </v>
   <v type="logical" >  F  F  F </v>
   <v type="logical" >  T  T  T </v>
   <v type="logical" >  T  T  T </v>
   <v type="logical" >  T  T  T </v>
   <v type="logical" >  T  T  T </v>
   <v type="logical" >  F  F  F </v>
   <v type="logical" >  T  T  T </v>
   <v type="logical" >  T  T  T </v>
   <v type="logical" >  T  T  T </v>
   <v type="logical" >  F  F  F </v>
  </varray>
  <nose>
   <v>      -3.00000000       0.00000000       0.00010000       0.00010000 </v>
  </nose>
 </structure>
 <calculation>
  <scstep>
   <time name="dav">    8.55    8.75</time>
   <time name="total">    8.61    8.81</time>
   <dipole>
    <v name="dipole">      0.00000000       0.00000000       0.00008229 </v>
    <i name="Tr[quadrupol]"> -11259.58634825 </i>
    <i name="Echarged">      0.00000000 </i>
    <i name="Edipol_quadrupol">      0.00000000 </i>
    <i name="Eion">      0.00000000 </i>
   </dipole>
   <energy>
    <i name="alphaZ">    862.57723351 </i>
    <i name="ewald"> 235722.59814358 </i>
    <i name="hartreedc">-281354.19834696 </i>
    <i name="XCdc">   -116.98715169 </i>
    <i name="pawpsdc">  43112.45544455 </i>
    <i name="pawaedc"> -41079.41300390 </i>
    <i name="eentropy">     -0.14070039 </i>
    <i name="bandstr">   1344.35030830 </i>
    <i name="atom">  45117.89144060 </i>
    <i name="e_fr_energy">   3609.13336760 </i>
    <i name="e_wo_entrp">   3609.27406799 </i>
    <i name="e_0_energy">   3609.20371779 </i>
   </energy>
  </scstep>
  <scstep>
   <time name="dav">   10.02   10.09</time>
   <time name="total">   10.02   10.10</time>
   <dipole>
    <v name="dipole">      0.00000000       0.00000000       0.00008229 </v>
    <i name="Tr[quadrupol]"> -11259.58634825 </i>
    <i name="Echarged">      0.00000000 </i>
    <i name="Edipol_quadrupol">      0.00000000 </i>
    <i name="Eion">      0.00000000 </i>
   </dipole>
   <energy>
    <i name="e_fr_energy">     53.48263671 </i>
    <i name="e_wo_entrp">     53.62616739 </i>
    <i name="e_0_energy">     53.55440205 </i>
   </energy>
  </scstep>
  <scstep>
   <time name="dav">    9.96    9.99</time>
   <time name="total">    9.97   10.00</time>
   <dipole>
    <v name="dipole">      0.00000000       0.00000000       0.00008229 </v>
    <i name="Tr[quadrupol]"> -11259.58634825 </i>
    <i name="Echarged">      0.00000000 </i>
    <i name="Edipol_quadrupol">      0.00000000 </i>
    <i name="Eion">      0.00000000 </i>
   </dipole>
   <energy>
    <i name="e_fr_energy">   -252.33140592 </i>
    <i name="e_wo_entrp">   -252.05696920 </i>
    <i name="e_0_energy">   -252.19418756 </i>
   </energy>
  </scstep>
  <scstep>
   <time name="dav">    9.73    9.76</time>
   <time name="total">    9.74    9.76</time>
   <dipole>
    <v name="dipole">      0.00000000       0.00000000       0.00008229 </v>
    <i name="Tr[quadrupol]"> -11259.58634825 </i>
    <i name="Echarged">      0.00000000 </i>
    <i name="Edipol_quadrupol">      0.00000000 </i>
    <i name="Eion">      0.00000000 </i>
   </dipole>
   <energy>
    <i name="e_fr_energy">   -263.64406299 </i>
    <i name="e_wo_entrp">   -263.35087504 </i>
    <i name="e_0_energy">   -263.49746902 </i>
   </energy>
  </scstep>
  <scstep>
   <time name="dav">    9.84   10.03</time>
   <time name="total">   10.09   10.29</time>
   <dipole>
    <v name="dipole">      0.00000000       0.00000000       0.00008229 </v>
    <i name="Tr[quadrupol]"> -11259.58634825 </i>
    <i name="Echarged">      0.00000000 </i>
    <i name="Edipol_quadrupol">      0.00000000 </i>
    <i name="Eion">      0.00000000 </i>
   </dipole>
   <energy>
    <i name="e_fr_energy">   -263.94904058 </i>
    <i name="e_wo_entrp">   -263.65460653 </i>
    <i name="e_0_energy">   -263.80182355 </i>
   </energy>
  </scstep>
  <scstep>
   <time name="diag">    1.57    1.58</time>
   <time name="diis">    4.11    4.12</time>
   <time name="orth">    0.44    0.44</time>
   <time name="total">    6.42    6.44</time>
   <dipole>
    <v name="dipole">      0.00000000       0.00000000       0.62630840 </v>
    <i name="Tr[quadrupol]"> -11256.32062959 </i>
    <i name="Echarged">      0.00000000 </i>
    <i name="Edipol_quadrupol">      0.00000000 </i>
    <i name="Eion">      0.00000000 </i>
   </dipole>
   <energy>
    <i name="e_fr_energy">   -250.78766640 </i>
    <i name="e_wo_entrp">   -250.51222515 </i>
    <i name="e_0_energy">   -250.64994578 </i>
   </energy>
  </scstep>
  <scstep>
   <time name="diag">    1.56    1.56</time>
   <time name="diis">    4.08    4.09</time>
   <time name="orth">    0.44    0.44</time>
   <time name="total">    6.38    6.40</time>
   <dipole>
    <v name="dipole">      0.00000000       0.00000000      -0.86492896 </v>
    <i name="Tr[quadrupol]"> -11259.52549923 </i>
    <i name="Echarged">      0.00000000 </i>
    <i name="Edipol_quadrupol">      0.00000000 </i>
    <i name="Eion">      0.00000000 </i>
   </dipole>
   <energy>
    <i name="e_fr_energy">   -248.76210301 </i>
    <i name="e_wo_entrp">   -248.46864685 </i>
    <i name="e_0_energy">   -248.61537493 </i>
   </energy>
  </scstep>
  <scstep>
   <time name="diag">    1.55    1.56</time>
   <time name="diis">    4.25    4.26</time>
   <time name="orth">    0.43    0.44</time>
   <time name="total">    6.54    6.56</time>
   <dipole>
    <v name="dipole">      0.00000000       0.00000000       1.67645230 </v>
    <i name="Tr[quadrupol]"> -11260.26635702 </i>
    <i name="Echarged">      0.00000000 </i>
    <i name="Edipol_quadrupol">      0.00000000 </i>
    <i name="Eion">      0.00000000 </i>
   </dipole>
   <energy>
    <i name="e_fr_energy">   -255.12367083 </i>
    <i name="e_wo_entrp">   -254.95037597 </i>
    <i name="e_0_energy">   -255.03702340 </i>
   </energy>
  </scstep>
  <scstep>
   <time name="diag">    1.56    1.58</time>
   <time name="diis">    4.23    4.24</time>
   <time name="orth">    0.43    0.44</time>
   <time name="total">    6.53    6.57</time>
   <dipole>
    <v name="dipole">      0.00000000       0.00000000      -0.62781143 </v>
    <i name="Tr[quadrupol]"> -11258.80461780 </i>
    <i name="Echarged">      0.00000000 </i>
    <i name="Edipol_quadrupol">      0.00000000 </i>
    <i name="Eion">      0.00000000 </i>
   </dipole>
   <energy>
    <i name="e_fr_energy">   -264.72982245 </i>
    <i name="e_wo_entrp">   -264.59397888 </i>
    <i name="e_0_energy">   -264.66190067 </i>
   </energy>
  </scstep>
  <scstep>
   <time name="diag">    1.56    1.57</time>
   <time name="diis">    4.06    4.07</time>
   <time name="orth">    0.43    0.44</time>
   <time name="total">    6.36    6.38</time>
   <dipole>
    <v name="dipole">      0.00000000       0.00000000       0.44190305 </v>
    <i name="Tr[quadrupol]"> -11258.25896420 </i>
    <i name="Echarged">      0.00000000 </i>
    <i name="Edipol_quadrupol">      0.00000000 </i>
    <i name="Eion">      0.00000000 </i>
   </dipole>
   <energy>
    <i name="e_fr_energy">   -251.50878916 </i>
    <i name="e_wo_entrp">   -251.32313269 </i>
    <i name="e_0_energy">   -251.41596093 </i>
   </energy>
  </scstep>
  <scstep>
   <time name="diag">    1.56    1.57</time>
   <time name="diis">    3.94    4.16</time>
   <time name="orth">    0.43    0.43</time>
   <time name="total">    6.23    6.47</time>
   <dipole>
    <v name="dipole">      0.00000000       0.00000000       0.20739164 </v>
    <i name="Tr[quadrupol]"> -11258.77123189 </i>
    <i name="Echarged">      0.00000000 </i>
    <i name="Edipol_quadrupol">      0.00000000 </i>
    <i name="Eion">      0.00000000 </i>
   </dipole>
   <energy>
    <i name="e_fr_energy">   -233.11371875 </i>
    <i name="e_wo_entrp">   -232.87259789 </i>
    <i name="e_0_energy">   -232.99315832 </i>
   </energy>
  </scstep>
  <scstep>
   <time name="diag">    1.55    1.55</time>
   <time name="diis">    4.08    4.09</time>
   <time name="orth">    0.43    0.43</time>
   <time name="total">    6.36    6.38</time>
   <dipole>
    <v name="dipole">      0.00000000       0.00000000       0.52468615 </v>
    <i name="Tr[quadrupol]"> -11259.46679564 </i>
    <i name="Echarged">      0.00000000 </i>
    <i name="Edipol_quadrupol">      0.00000000 </i>
    <i name="Eion">      0.00000000 </i>
   </dipole>
   <energy>
    <i name="e_fr_energy">   -231.07544051 </i>
    <i name="e_wo_entrp">   -230.86432901 </i>
    <i name="e_0_energy">   -230.96988476 </i>
   </energy>
  </scstep>
  <scstep>
   <time name="diag">    1.55    1.56</time>
   <time name="diis">    4.11    4.12</time>
   <time name="orth">    0.43    0.43</time>
   <time name="total">    6.39    6.41</time>
   <dipole>
    <v name="dipole">      0.00000000       0.00000000       0.58769772 </v>
    <i name="Tr[quadrupol]"> -11259.65768999 </i>
    <i name="Echarged">      0.00000000 </i>
    <i name="Edipol_quadrupol">      0.00000000 </i>
    <i name="Eion">      0.00000000 </i>
   </dipole>
   <energy>
    <i name="e_fr_energy">   -229.83384360 </i>
    <i name="e_wo_entrp">   -229.63755839 </i>
    <i name="e_0_energy">   -229.73570099 </i>
   </energy>
  </scstep>
  <scstep>
   <time name="diag">    1.56    1.56</time>
   <time name="diis">    4.04    4.05</time>
   <time name="orth">    0.43    0.43</time>
   <time name="total">    6.33    6.35</time>
   <dipole>
    <v name="dipole">      0.00000000       0.00000000       0.56294183 </v>
    <i name="Tr[quadrupol]"> -11259.74236337 </i>
    <i name="Echarged">      0.00000000 </i>
    <i name="Edipol_quadrupol">      0.00000000 </i>
    <i name="Eion">      0.00000000 </i>
   </dipole>
   <energy>
    <i name="e_fr_energy">   -229.48655588 </i>
    <i name="e_wo_entrp">   -229.25850047 </i>
    <i name="e_0_energy">   -229.37252818 </i>
   </energy>
  </scstep>
  <scstep>
   <time name="diag">    1.55    1.55</time>
   <time name="diis">    4.08    4.09</time>
   <time name="orth">    0.43    0.43</time>
   <time name="total">    6.36    6.38</time>
   <dipole>
    <v name="dipole">      0.00000000       0.00000000       0.51091309 </v>
    <i name="Tr[quadrupol]"> -11259.83482769 </i>
    <i name="Echarged">      0.00000000 </i>
    <i name="Edipol_quadrupol">      0.00000000 </i>
    <i name="Eion">      0.00000000 </i>
   </dipole>
   <energy>
    <i name="e_fr_energy">   -229.33653435 </i>
    <i name="e_wo_entrp">   -229.08532301 </i>
    <i name="e_0_energy">   -229.21092868 </i>
   </energy>
  </scstep>
  <scstep>
   <time name="diag">    1.55    1.56</time>
   <time name="diis">    4.16    4.17</time>
   <time name="orth">    0.43    0.43</time>
   <time name="total">    6.45    6.47</time>
   <dipole>
    <v name="dipole">      0.00000000       0.00000000       0.49304310 </v>
    <i name="Tr[quadrupol]"> -11260.21902862 </i>
    <i name="Echarged">      0.00000000 </i>
    <i name="Edipol_quadrupol">      0.00000000 </i>
    <i name="Eion">      0.00000000 </i>
   </dipole>
   <energy>
    <i name="e_fr_energy">   -229.12742739 </i>
    <i name="e_wo_entrp">   -228.87254384 </i>
    <i name="e_0_energy">   -228.99998561 </i>
   </energy>
  </scstep>
  <scstep>
   <time name="diag">    1.55    1.56</time>
   <time name="diis">    3.97    4.18</time>
   <time name="orth">    0.43    0.43</time>
   <time name="total">    6.25    6.47</time>
   <dipole>
    <v name="dipole">      0.00000000       0.00000000       0.48463595 </v>
    <i name="Tr[quadrupol]"> -11260.21482961 </i>
    <i name="Echarged">      0.00000000 </i>
    <i name="Edipol_quadrupol">      0.00000000 </i>
    <i name="Eion">      0.00000000 </i>
   </dipole>
   <energy>
    <i name="e_fr_energy">   -229.01843847 </i>
    <i name="e_wo_entrp">   -228.75736559 </i>
    <i name="e_0_energy">   -228.88790203 </i>
   </energy>
  </scstep>
  <scstep>
   <time name="diag">    1.56    1.56</time>
   <time name="diis">    4.05    4.11</time>
   <time name="orth">    0.43    0.43</time>
   <time name="total">    6.34    6.41</time>
   <dipole>
    <v name="dipole">      0.00000000       0.00000000       0.51348348 </v>
    <i name="Tr[quadrupol]"> -11260.47559687 </i>
    <i name="Echarged">      0.00000000 </i>
    <i name="Edipol_quadrupol">      0.00000000 </i>
    <i name="Eion">      0.00000000 </i>
   </dipole>
   <energy>
    <i name="e_fr_energy">   -228.96001108 </i>
    <i name="e_wo_entrp">   -228.69202149 </i>
    <i name="e_0_energy">   -228.82601628 </i>
   </energy>
  </scstep>
  <scstep>
   <time name="diag">    1.55    1.56</time>
   <time name="diis">    4.08    4.09</time>
   <time name="orth">    0.43    0.43</time>
   <time name="total">    6.36    6.38</time>
   <dipole>
    <v name="dipole">      0.00000000       0.00000000       0.49641600 </v>
    <i name="Tr[quadrupol]"> -11260.56247579 </i>
    <i name="Echarged">      0.00000000 </i>
    <i name="Edipol_quadrupol">      0.00000000 </i>
    <i name="Eion">      0.00000000 </i>
   </dipole>
   <energy>
    <i name="e_fr_energy">   -228.87475914 </i>
    <i name="e_wo_entrp">   -228.60551648 </i>
    <i name="e_0_energy">   -228.74013781 </i>
   </energy>
  </scstep>
  <scstep>
   <time name="diag">    1.56    1.57</time>
   <time name="diis">    4.13    4.14</time>
   <time name="orth">    0.43    0.43</time>
   <time name="total">    6.42    6.44</time>
   <dipole>
    <v name="dipole">      0.00000000       0.00000000       0.50488042 </v>
    <i name="Tr[quadrupol]"> -11260.73488762 </i>
    <i name="Echarged">      0.00000000 </i>
    <i name="Edipol_quadrupol">      0.00000000 </i>
    <i name="Eion">      0.00000000 </i>
   </dipole>
   <energy>
    <i name="e_fr_energy">   -228.85319678 </i>
    <i name="e_wo_entrp">   -228.57865732 </i>
    <i name="e_0_energy">   -228.71592705 </i>
   </energy>
  </scstep>
  <scstep>
   <time name="diag">    1.55    1.56</time>
   <time name="diis">    4.13    4.14</time>
   <time name="orth">    0.43    0.43</time>
   <time name="total">    6.41    6.43</time>
   <dipole>
    <v name="dipole">      0.00000000       0.00000000       0.50862241 </v>
    <i name="Tr[quadrupol]"> -11260.83216872 </i>
    <i name="Echarged">      0.00000000 </i>
    <i name="Edipol_quadrupol">      0.00000000 </i>
    <i name="Eion">      0.00000000 </i>
   </dipole>
   <energy>
    <i name="e_fr_energy">   -228.84803800 </i>
    <i name="e_wo_entrp">   -228.57363759 </i>
    <i name="e_0_energy">   -228.71083779 </i>
   </energy>
  </scstep>
  <scstep>
   <time name="diag">    1.56    1.56</time>
   <time name="diis">    4.15    4.16</time>
   <time name="orth">    0.43    0.43</time>
   <time name="total">    6.44    6.46</time>
   <dipole>
    <v name="dipole">      0.00000000       0.00000000       0.51792956 </v>
    <i name="Tr[quadrupol]"> -11260.95072205 </i>
    <i name="Echarged">      0.00000000 </i>
    <i name="Edipol_quadrupol">      0.00000000 </i>
    <i name="Eion">      0.00000000 </i>
   </dipole>
   <energy>
    <i name="e_fr_energy">   -228.84766366 </i>
    <i name="e_wo_entrp">   -228.57283965 </i>
    <i name="e_0_energy">   -228.71025166 </i>
   </energy>
  </scstep>
  <scstep>
   <time name="diag">    1.55    1.56</time>
   <time name="diis">    4.01    4.07</time>
   <time name="orth">    0.42    0.45</time>
   <time name="total">    6.28    6.43</time>
   <dipole>
    <v name="dipole">      0.00000000       0.00000000       0.52170676 </v>
    <i name="Tr[quadrupol]"> -11261.05615068 </i>
    <i name="Echarged">      0.00000000 </i>
    <i name="Edipol_quadrupol">      0.00000000 </i>
    <i name="Eion">      0.00000000 </i>
   </dipole>
   <energy>
    <i name="e_fr_energy">   -228.84666560 </i>
    <i name="e_wo_entrp">   -228.57164467 </i>
    <i name="e_0_energy">   -228.70915513 </i>
   </energy>
  </scstep>
  <scstep>
   <time name="diag">    1.55    1.56</time>
   <time name="diis">    4.11    4.12</time>
   <time name="orth">    0.42    0.43</time>
   <time name="total">    6.39    6.41</time>
   <dipole>
    <v name="dipole">      0.00000000       0.00000000       0.52615322 </v>
    <i name="Tr[quadrupol]"> -11261.10347362 </i>
    <i name="Echarged">      0.00000000 </i>
    <i name="Edipol_quadrupol">      0.00000000 </i>
    <i name="Eion">      0.00000000 </i>
   </dipole>
   <energy>
    <i name="e_fr_energy">   -228.84553587 </i>
    <i name="e_wo_entrp">   -228.56991204 </i>
    <i name="e_0_energy">   -228.70772395 </i>
   </energy>
  </scstep>
  <scstep>
   <time name="diag">    1.55    1.55</time>
   <time name="diis">    4.12    4.13</time>
   <time name="orth">    0.42    0.43</time>
   <time name="total">    6.39    6.41</time>
   <dipole>
    <v name="dipole">      0.00000000       0.00000000       0.52881964 </v>
    <i name="Tr[quadrupol]"> -11261.15369076 </i>
    <i name="Echarged">      0.00000000 </i>
    <i name="Edipol_quadrupol">      0.00000000 </i>
    <i name="Eion">      0.00000000 </i>
   </dipole>
   <energy>
    <i name="e_fr_energy">   -228.84578876 </i>
    <i name="e_wo_entrp">   -228.57007585 </i>
    <i name="e_0_energy">   -228.70793231 </i>
   </energy>
  </scstep>
  <scstep>
   <time name="diag">    1.58    1.59</time>
   <time name="diis">    4.16    4.18</time>
   <time name="orth">    0.42    0.43</time>
   <time name="total">    6.48    6.52</time>
   <dipole>
    <v name="dipole">      0.00000000       0.00000000       0.53333295 </v>
    <i name="Tr[quadrupol]"> -11261.23045085 </i>
    <i name="Echarged">      0.00000000 </i>
    <i name="Edipol_quadrupol">      0.00000000 </i>
    <i name="Eion">      0.00000000 </i>
   </dipole>
   <energy>
    <i name="e_fr_energy">   -228.84599707 </i>
    <i name="e_wo_entrp">   -228.56973715 </i>
    <i name="e_0_energy">   -228.70786711 </i>
   </energy>
  </scstep>
  <scstep>
   <time name="diag">    1.55    1.55</time>
   <time name="diis">    4.10    4.11</time>
   <time name="orth">    0.42    0.44</time>
   <time name="total">    6.37    6.41</time>
   <dipole>
    <v name="dipole">      0.00000000       0.00000000       0.53729084 </v>
    <i name="Tr[quadrupol]"> -11261.28477725 </i>
    <i name="Echarged">      0.00000000 </i>
    <i name="Edipol_quadrupol">      0.00000000 </i>
    <i name="Eion">      0.00000000 </i>
   </dipole>
   <energy>
    <i name="e_fr_energy">   -228.84626026 </i>
    <i name="e_wo_entrp">   -228.57038520 </i>
    <i name="e_0_energy">   -228.70832273 </i>
   </energy>
  </scstep>
  <scstep>
   <time name="diag">    1.53    1.55</time>
   <time name="diis">    4.28    4.29</time>
   <time name="orth">    0.42    0.42</time>
   <time name="total">    6.54    6.58</time>
   <dipole>
    <v name="dipole">      0.00000000       0.00000000       0.54009983 </v>
    <i name="Tr[quadrupol]"> -11261.32372045 </i>
    <i name="Echarged">      0.00000000 </i>
    <i name="Edipol_quadrupol">      0.00000000 </i>
    <i name="Eion">      0.00000000 </i>
   </dipole>
   <energy>
    <i name="e_fr_energy">   -228.84645750 </i>
    <i name="e_wo_entrp">   -228.57044082 </i>
    <i name="e_0_energy">   -228.70844916 </i>
   </energy>
  </scstep>
  <scstep>
   <time name="diag">    1.55    1.56</time>
   <time name="diis">    4.09    4.10</time>
   <time name="orth">    0.42    0.43</time>
   <time name="total">    6.37    6.39</time>
   <dipole>
    <v name="dipole">      0.00000000       0.00000000       0.54197541 </v>
    <i name="Tr[quadrupol]"> -11261.34829107 </i>
    <i name="Echarged">      0.00000000 </i>
    <i name="Edipol_quadrupol">      0.00000000 </i>
    <i name="Eion">      0.00000000 </i>
   </dipole>
   <energy>
    <i name="e_fr_energy">   -228.84661223 </i>
    <i name="e_wo_entrp">   -228.57074184 </i>
    <i name="e_0_energy">   -228.70867703 </i>
   </energy>
  </scstep>
  <scstep>
   <time name="diag">    1.52    1.69</time>
   <time name="diis">    4.23    4.24</time>
   <time name="orth">    0.42    0.42</time>
   <time name="total">    6.49    6.67</time>
   <dipole>
    <v name="dipole">      0.00000000       0.00000000       0.54556966 </v>
    <i name="Tr[quadrupol]"> -11261.39033259 </i>
    <i name="Echarged">      0.00000000 </i>
    <i name="Edipol_quadrupol">      0.00000000 </i>
    <i name="Eion">      0.00000000 </i>
   </dipole>
   <energy>
    <i name="e_fr_energy">   -228.84686697 </i>
    <i name="e_wo_entrp">   -228.57089670 </i>
    <i name="e_0_energy">   -228.70888184 </i>
   </energy>
  </scstep>
  <scstep>
   <time name="diag">    1.55    1.55</time>
   <time name="diis">    4.05    4.06</time>
   <time name="orth">    0.42    0.42</time>
   <time name="total">    6.33    6.35</time>
   <dipole>
    <v name="dipole">      0.00000000       0.00000000       0.54935832 </v>
    <i name="Tr[quadrupol]"> -11261.43543718 </i>
    <i name="Echarged">      0.00000000 </i>
    <i name="Edipol_quadrupol">      0.00000000 </i>
    <i name="Eion">      0.00000000 </i>
   </dipole>
   <energy>
    <i name="e_fr_energy">   -228.84714911 </i>
    <i name="e_wo_entrp">   -228.57123873 </i>
    <i name="e_0_energy">   -228.70919392 </i>
   </energy>
  </scstep>
  <scstep>
   <time name="diag">    1.55    1.55</time>
   <time name="diis">    3.80    3.81</time>
   <time name="orth">    0.42    0.42</time>
   <time name="total">    6.08    6.10</time>
   <dipole>
    <v name="dipole">      0.00000000       0.00000000       0.55344908 </v>
    <i name="Tr[quadrupol]"> -11261.48341257 </i>
    <i name="Echarged">      0.00000000 </i>
    <i name="Edipol_quadrupol">      0.00000000 </i>
    <i name="Eion">      0.00000000 </i>
   </dipole>
   <energy>
    <i name="e_fr_energy">   -228.84743009 </i>
    <i name="e_wo_entrp">   -228.57147768 </i>
    <i name="e_0_energy">   -228.70945388 </i>
   </energy>
  </scstep>
  <scstep>
   <time name="diag">    1.55    1.55</time>
   <time name="diis">    3.57    3.58</time>
   <time name="orth">    0.42    0.42</time>
   <time name="total">    5.85    5.87</time>
   <dipole>
    <v name="dipole">      0.00000000       0.00000000       0.55750956 </v>
    <i name="Tr[quadrupol]"> -11261.52831542 </i>
    <i name="Echarged">      0.00000000 </i>
    <i name="Edipol_quadrupol">      0.00000000 </i>
    <i name="Eion">      0.00000000 </i>
   </dipole>
   <energy>
    <i name="e_fr_energy">   -228.84765530 </i>
    <i name="e_wo_entrp">   -228.57173635 </i>
    <i name="e_0_energy">   -228.70969582 </i>
   </energy>
  </scstep>
  <scstep>
   <time name="diag">    1.56    1.57</time>
   <time name="diis">    3.28    3.29</time>
   <time name="orth">    0.42    0.42</time>
   <time name="total">    5.58    5.59</time>
   <dipole>
    <v name="dipole">      0.00000000       0.00000000       0.56105517 </v>
    <i name="Tr[quadrupol]"> -11261.56351962 </i>
    <i name="Echarged">      0.00000000 </i>
    <i name="Edipol_quadrupol">      0.00000000 </i>
    <i name="Eion">      0.00000000 </i>
   </dipole>
   <energy>
    <i name="e_fr_energy">   -228.84779991 </i>
    <i name="e_wo_entrp">   -228.57183294 </i>
    <i name="e_0_energy">   -228.70981642 </i>
   </energy>
  </scstep>
  <scstep>
   <time name="diag">    1.54    1.55</time>
   <time name="diis">    3.11    3.12</time>
   <time name="orth">    0.42    0.42</time>
   <time name="total">    5.39    5.40</time>
   <dipole>
    <v name="dipole">      0.00000000       0.00000000       0.56470558 </v>
    <i name="Tr[quadrupol]"> -11261.59597053 </i>
    <i name="Echarged">      0.00000000 </i>
    <i name="Edipol_quadrupol">      0.00000000 </i>
    <i name="Eion">      0.00000000 </i>
   </dipole>
   <energy>
    <i name="e_fr_energy">   -228.84790675 </i>
    <i name="e_wo_entrp">   -228.57195243 </i>
    <i name="e_0_energy">   -228.70992959 </i>
   </energy>
  </scstep>
  <scstep>
   <time name="diag">    1.55    1.56</time>
   <time name="diis">    2.85    2.91</time>
   <time name="orth">    0.41    0.48</time>
   <time name="total">    5.13    5.29</time>
   <dipole>
    <v name="dipole">      0.00000000       0.00000000       0.56747228 </v>
    <i name="Tr[quadrupol]"> -11261.61853840 </i>
    <i name="Echarged">      0.00000000 </i>
    <i name="Edipol_quadrupol">      0.00000000 </i>
    <i name="Eion">      0.00000000 </i>
   </dipole>
   <energy>
    <i name="e_fr_energy">   -228.84795910 </i>
    <i name="e_wo_entrp">   -228.57199648 </i>
    <i name="e_0_energy">   -228.70997779 </i>
   </energy>
  </scstep>
  <scstep>
   <time name="diag">    1.55    1.55</time>
   <time name="diis">    2.52    2.52</time>
   <time name="orth">    0.42    0.42</time>
   <time name="total">    4.79    4.80</time>
   <dipole>
    <v name="dipole">      0.00000000       0.00000000       0.56859294 </v>
    <i name="Tr[quadrupol]"> -11261.62618433 </i>
    <i name="Echarged">      0.00000000 </i>
    <i name="Edipol_quadrupol">      0.00000000 </i>
    <i name="Eion">      0.00000000 </i>
   </dipole>
   <energy>
    <i name="e_fr_energy">   -228.84797648 </i>
    <i name="e_wo_entrp">   -228.57201400 </i>
    <i name="e_0_energy">   -228.70999524 </i>
   </energy>
  </scstep>
  <scstep>
   <time name="diag">    1.55    1.58</time>
   <time name="diis">    2.46    2.49</time>
   <time name="orth">    0.42    0.42</time>
   <time name="total">    4.75    4.90</time>
   <dipole>
    <v name="dipole">      0.00000000       0.00000000       0.57007369 </v>
    <i name="Tr[quadrupol]"> -11261.63478824 </i>
    <i name="Echarged">      0.00000000 </i>
    <i name="Edipol_quadrupol">      0.00000000 </i>
    <i name="Eion">      0.00000000 </i>
   </dipole>
   <energy>
    <i name="e_fr_energy">   -228.84799960 </i>
    <i name="e_wo_entrp">   -228.57202890 </i>
    <i name="e_0_energy">   -228.71001425 </i>
   </energy>
  </scstep>
  <scstep>
   <time name="diag">    1.54    1.55</time>
   <time name="diis">    2.47    2.47</time>
   <time name="orth">    0.42    0.42</time>
   <time name="total">    4.75    4.80</time>
   <dipole>
    <v name="dipole">      0.00000000       0.00000000       0.57143344 </v>
    <i name="Tr[quadrupol]"> -11261.64192920 </i>
    <i name="Echarged">      0.00000000 </i>
    <i name="Edipol_quadrupol">      0.00000000 </i>
    <i name="Eion">      0.00000000 </i>
   </dipole>
   <energy>
    <i name="e_fr_energy">   -228.84801884 </i>
    <i name="e_wo_entrp">   -228.57204287 </i>
    <i name="e_0_energy">   -228.71003085 </i>
   </energy>
  </scstep>
  <scstep>
   <time name="diag">    1.55    1.56</time>
   <time name="diis">    2.48    2.49</time>
   <time name="orth">    0.43    0.43</time>
   <time name="total">    4.78    4.82</time>
   <dipole>
    <v name="dipole">      0.00000000       0.00000000       0.57293188 </v>
    <i name="Tr[quadrupol]"> -11261.64871245 </i>
    <i name="Echarged">      0.00000000 </i>
    <i name="Edipol_quadrupol">      0.00000000 </i>
    <i name="Eion">      0.00000000 </i>
   </dipole>
   <energy>
    <i name="e_fr_energy">   -228.84803818 </i>
    <i name="e_wo_entrp">   -228.57205720 </i>
    <i name="e_0_energy">   -228.71004769 </i>
   </energy>
  </scstep>
  <scstep>
   <time name="diag">    1.55    1.56</time>
   <time name="diis">    2.41    2.41</time>
   <time name="orth">    0.42    0.42</time>
   <time name="total">    4.69    4.71</time>
   <dipole>
    <v name="dipole">      0.00000000       0.00000000       0.57392104 </v>
    <i name="Tr[quadrupol]"> -11261.65255844 </i>
    <i name="Echarged">      0.00000000 </i>
    <i name="Edipol_quadrupol">      0.00000000 </i>
    <i name="Eion">      0.00000000 </i>
   </dipole>
   <energy>
    <i name="e_fr_energy">   -228.84804935 </i>
    <i name="e_wo_entrp">   -228.57206703 </i>
    <i name="e_0_energy">   -228.71005819 </i>
   </energy>
  </scstep>
  <scstep>
   <time name="diag">    1.56    1.56</time>
   <time name="diis">    2.25    2.26</time>
   <time name="orth">    0.42    0.42</time>
   <time name="total">    4.55    4.57</time>
   <dipole>
    <v name="dipole">      0.00000000       0.00000000       0.57479352 </v>
    <i name="Tr[quadrupol]"> -11261.65592455 </i>
    <i name="Echarged">      0.00000000 </i>
    <i name="Edipol_quadrupol">      0.00000000 </i>
    <i name="Eion">      0.00000000 </i>
   </dipole>
   <energy>
    <i name="e_fr_energy">   -228.84805660 </i>
    <i name="e_wo_entrp">   -228.57207033 </i>
    <i name="e_0_energy">   -228.71006346 </i>
   </energy>
  </scstep>
  <scstep>
   <time name="diag">    1.55    1.55</time>
   <time name="diis">    2.05    2.05</time>
   <time name="orth">    0.42    0.42</time>
   <time name="total">    4.33    4.34</time>
   <dipole>
    <v name="dipole">      0.00000000       0.00000000       0.57536437 </v>
    <i name="Tr[quadrupol]"> -11261.65820492 </i>
    <i name="Echarged">      0.00000000 </i>
    <i name="Edipol_quadrupol">      0.00000000 </i>
    <i name="Eion">      0.00000000 </i>
   </dipole>
   <energy>
    <i name="e_fr_energy">   -228.84805979 </i>
    <i name="e_wo_entrp">   -228.57207362 </i>
    <i name="e_0_energy">   -228.71006671 </i>
   </energy>
  </scstep>
  <scstep>
   <time name="diag">    1.55    1.55</time>
   <time name="diis">    1.90    1.91</time>
   <time name="orth">    0.43    0.43</time>
   <time name="total">    4.19    4.21</time>
   <dipole>
    <v name="dipole">      0.00000000       0.00000000       0.57564734 </v>
    <i name="Tr[quadrupol]"> -11261.65940612 </i>
    <i name="Echarged">      0.00000000 </i>
    <i name="Edipol_quadrupol">      0.00000000 </i>
    <i name="Eion">      0.00000000 </i>
   </dipole>
   <energy>
    <i name="e_fr_energy">   -228.84806112 </i>
    <i name="e_wo_entrp">   -228.57207513 </i>
    <i name="e_0_energy">   -228.71006813 </i>
   </energy>
  </scstep>
  <scstep>
   <time name="diag">    1.55    1.55</time>
   <time name="diis">    1.70    1.88</time>
   <time name="orth">    0.42    0.43</time>
   <time name="total">    3.73    3.92</time>
   <dipole>
    <v name="dipole">      0.00000000       0.00000000       0.57581564 </v>
    <i name="Tr[quadrupol]"> -11261.66010328 </i>
    <i name="Echarged">      0.00000000 </i>
    <i name="Edipol_quadrupol">      0.00000000 </i>
    <i name="Eion">      0.00000000 </i>
   </dipole>
   <energy>
    <i name="alphaZ">    867.82893791 </i>
    <i name="ewald"> 235722.59814358 </i>
    <i name="hartreedc">-280988.22892971 </i>
    <i name="XCdc">   -129.29601950 </i>
    <i name="pawpsdc">  51840.26560629 </i>
    <i name="pawaedc"> -49930.44345242 </i>
    <i name="eentropy">     -0.27598676 </i>
    <i name="bandstr">  -2729.18780192 </i>
    <i name="atom">  45117.89144060 </i>
    <i name="e_fr_energy">   -228.84806192 </i>
    <i name="e_wo_entrp">   -228.57207516 </i>
    <i name="e_0_energy">   -228.71006854 </i>
   </energy>
  </scstep>
  <structure>
   <crystal>
    <varray name="basis" >
     <v>      11.00258152       0.00000000       0.00000000 </v>
     <v>       5.50129076       9.52851510       0.00000000 </v>
     <v>       0.00000000       0.00000000      26.19178509 </v>
    </varray>
    <i name="volume">   2745.90128299 </i>
    <varray name="rec_basis" >
     <v>       0.09088776      -0.05247407       0.00000000 </v>
     <v>       0.00000000       0.10494815       0.00000000 </v>
     <v>       0.00000000       0.00000000       0.03817991 </v>
    </varray>
   </crystal>
   <varray name="positions" >
    <v>       0.08333333       0.08333333       0.38179910 </v>
    <v>       0.08333333       0.83333333       0.38179910 </v>
    <v>       0.08333333       0.33333333       0.38179910 </v>
    <v>       0.99063331       0.51648121       0.56404185 </v>
    <v>       0.99969130       0.24569834       0.56138524 </v>
    <v>       0.90813154       0.67395321       0.47565521 </v>
    <v>       0.01244909       0.98349852       0.56498711 </v>
    <v>       0.08333333       0.58333333       0.38179910 </v>
    <v>       0.33333333       0.83333333       0.38179910 </v>
    <v>       0.24808833       0.98872668       0.56684948 </v>
    <v>       0.33333333       0.58333333       0.38179910 </v>
    <v>       0.25363234       0.49774080       0.56607199 </v>
    <v>       0.16307918       0.67077136       0.48091208 </v>
    <v>       0.76870214       0.75437595       0.60491899 </v>
    <v>       0.50023245       0.00011163       0.55927306 </v>
    <v>       0.58333333       0.58333333       0.38179910 </v>
    <v>       0.41343739       0.67161503       0.48237003 </v>
    <v>       0.41531696       0.92279404       0.47207820 </v>
    <v>       0.66119719       0.17082000       0.47394952 </v>
    <v>       0.75200187       0.98264856       0.56127005 </v>
    <v>       0.83333333       0.33333333       0.38179910 </v>
    <v>       0.66650861       0.41931245       0.47806406 </v>
    <v>       0.73166059       0.24653695       0.56869033 </v>
    <v>       0.25742291       0.73750910       0.59542524 </v>
    <v>       0.32916724       0.35407982       0.62959089 </v>
    <v>       0.33016541       0.06799308       0.62047507 </v>
    <v>       0.84476028       0.05706040       0.61659963 </v>
    <v>       0.82409185       0.35362857       0.61070736 </v>
    <v>       0.51060069       0.44314896       0.64120162 </v>
    <v>       0.63599033       0.67734217       0.62566320 </v>
    <v>       0.57822365       0.07081891       0.62490532 </v>
    <v>       0.07254981       0.34630129       0.61436135 </v>
    <v>       0.33333333       0.33333333       0.38179910 </v>
    <v>       0.16459818       0.41836787       0.47566313 </v>
    <v>       0.26167452       0.24688350       0.58217959 </v>
    <v>       0.00355880       0.74749422       0.56898058 </v>
    <v>       0.91349900       0.92120413       0.47177239 </v>
    <v>       0.73501228       0.52545012       0.56872751 </v>
    <v>       0.16471937       0.92118396       0.47689106 </v>
    <v>       0.83333333       0.83333333       0.38179910 </v>
    <v>       0.58333333       0.08333333       0.38179910 </v>
    <v>       0.41048340       0.17644557       0.47180867 </v>
    <v>       0.33333333       0.08333333       0.38179910 </v>
    <v>       0.41478561       0.41907160       0.47404248 </v>
    <v>       0.58333333       0.33333333       0.38179910 </v>
    <v>       0.16571329       0.17399314       0.47638329 </v>
    <v>       0.83333333       0.08333333       0.38179910 </v>
    <v>       0.91516814       0.16821194       0.47511210 </v>
    <v>       0.49817339       0.49797445       0.56915076 </v>
    <v>       0.66403863       0.67243799       0.47544852 </v>
    <v>       0.66235882       0.92226288       0.47109869 </v>
    <v>       0.58333333       0.83333333       0.38179910 </v>
    <v>       0.49825035       0.75250034       0.56841122 </v>
    <v>       0.91268178       0.42142049       0.47259192 </v>
    <v>       0.53273577       0.26382873       0.63429044 </v>
    <v>       0.83333333       0.58333333       0.38179910 </v>
   </varray>
  </structure>
  <varray name="forces" >
   <v>       0.00006305       0.00737293      -0.01410047 </v>
   <v>      -0.24177841       0.16426846      -0.01920105 </v>
   <v>       0.31639627      -0.02576374      -0.04001243 </v>
   <v>      -0.03138679      -0.10738967      -0.08326655 </v>
   <v>      -0.04386072       0.00682994      -0.01511965 </v>
   <v>       0.01153579       0.00611465       0.02666801 </v>
   <v>       0.07701748       0.07162329      -0.03209424 </v>
   <v>      -0.16359747      -0.02909229      -0.19436064 </v>
   <v>       0.19768146       0.11283289      -0.18272023 </v>
   <v>       0.03193533      -0.03680027       0.02554618 </v>
   <v>       0.02852503      -0.32187151      -0.12536259 </v>
   <v>       0.13299381      -0.16345873       0.06466250 </v>
   <v>       0.15619687      -0.00113659      -0.15425373 </v>
   <v>      -0.29980818      -0.02702070      -0.05897979 </v>
   <v>       0.19791796       0.11894982       0.26635821 </v>
   <v>       0.18853836       0.00293973      -0.17206469 </v>
   <v>      -0.09584528      -0.09772970      -0.01056876 </v>
   <v>      -0.07044321      -0.04043417       0.01845290 </v>
   <v>      -0.03385480      -0.01724001      -0.09609192 </v>
   <v>      -0.10463916       0.34969095      -0.14862906 </v>
   <v>      -0.29746003      -0.02271194      -0.22659901 </v>
   <v>       0.01063452       0.06233285       0.07699649 </v>
   <v>       0.18150894      -0.17602610      -0.27352047 </v>
   <v>      -0.02980441       0.20242881      -0.23338621 </v>
   <v>      -0.30723467      -0.21411370      -0.22611022 </v>
   <v>      -0.06055748      -0.03238850      -0.15121792 </v>
   <v>       0.04149767       0.04164834       0.22614534 </v>
   <v>      -0.04500413      -0.06247415      -0.00858691 </v>
   <v>       0.50078835       0.33824575      -0.08323510 </v>
   <v>       0.08705701      -0.06656753      -0.16637191 </v>
   <v>       0.34373930       0.58503431       0.14826793 </v>
   <v>       0.08852446      -0.14730594       0.14248835 </v>
   <v>       0.09295207      -0.11294284       0.24202783 </v>
   <v>       0.10611811      -0.12368553      -0.08155848 </v>
   <v>      -0.13865792      -0.06331672       0.05920267 </v>
   <v>       0.15714981       0.03476401      -0.06442184 </v>
   <v>      -0.03795795      -0.07033293       0.06910691 </v>
   <v>      -0.10070361      -0.36218210       0.16536212 </v>
   <v>      -0.02399424       0.07138357       0.08947870 </v>
   <v>      -0.27551199       0.02303020       0.18399817 </v>
   <v>       0.03738682       0.10578588       0.16037238 </v>
   <v>      -0.03654616       0.02451691      -0.00315835 </v>
   <v>       0.19857369       0.10213409       0.15250861 </v>
   <v>      -0.04005483       0.04554769      -0.02921244 </v>
   <v>      -0.14217528      -0.14179890       0.24707414 </v>
   <v>      -0.05248699      -0.09899250       0.03167893 </v>
   <v>      -0.18569134       0.03457153       0.18149688 </v>
   <v>       0.07682568      -0.03757292      -0.02285659 </v>
   <v>      -0.04619872       0.21599211       0.23247420 </v>
   <v>       0.00650547      -0.06384797      -0.03221712 </v>
   <v>       0.04638106      -0.06952569       0.02371030 </v>
   <v>       0.27501878      -0.00177619       0.10437661 </v>
   <v>      -0.08307459       0.21084302      -0.11647525 </v>
   <v>      -0.04661987       0.00161068       0.06543059 </v>
   <v>      -0.52629517      -0.56497911      -0.17317634 </v>
   <v>      -0.02821971       0.35998619       0.23504499 </v>
  </varray>
  <energy>
   <i name="e_fr_energy">   -228.84806192 </i>
   <i name="e_wo_entrp">   -228.71006854 </i>
   <i name="e_0_energy">     -0.27598676 </i>
  </energy>
  <time name="totalsc">  286.15  288.76</time>
 </calculation>
 <calculation>
  <scstep>
   <time name="dav">    8.79    8.82</time>
   <time name="total">    9.10    9.13</time>
   <dipole>
    <v name="dipole">      0.00000000       0.00000000       0.57590563 </v>
    <i name="Tr[quadrupol]"> -11259.11214225 </i>
    <i name="Echarged">      0.00000000 </i>
    <i name="Edipol_quadrupol">      0.00000000 </i>
    <i name="Eion">      0.00000000 </i>
   </dipole>
   <energy>
    <i name="alphaZ">    867.83677726 </i>
    <i name="ewald"> 235769.71454603 </i>
    <i name="hartreedc">-281034.95777042 </i>
    <i name="XCdc">   -129.25273188 </i>
    <i name="pawpsdc">  51840.26405155 </i>
    <i name="pawaedc"> -49930.44184474 </i>
    <i name="eentropy">     -0.27389064 </i>
    <i name="bandstr">  -2729.65162561 </i>
    <i name="atom">  45117.89144060 </i>
    <i name="e_fr_energy">   -228.87104786 </i>
    <i name="e_wo_entrp">   -228.59715721 </i>
    <i name="e_0_energy">   -228.73410253 </i>
   </energy>
  </scstep>
  <scstep>
   <time name="diag">    1.55    1.56</time>
   <time name="diis">    4.05    4.07</time>
   <time name="orth">    0.42    0.42</time>
   <time name="total">    6.33    6.36</time>
   <dipole>
    <v name="dipole">      0.00000000       0.00000000       0.53749886 </v>
    <i name="Tr[quadrupol]"> -11259.13532958 </i>
    <i name="Echarged">      0.00000000 </i>
    <i name="Edipol_quadrupol">      0.00000000 </i>
    <i name="Eion">      0.00000000 </i>
   </dipole>
   <energy>
    <i name="e_fr_energy">   -228.96184717 </i>
    <i name="e_wo_entrp">   -228.67493108 </i>
    <i name="e_0_energy">   -228.81838912 </i>
   </energy>
  </scstep>
  <scstep>
   <time name="diag">    1.54    1.55</time>
   <time name="diis">    4.13    4.14</time>
   <time name="orth">    0.42    0.42</time>
   <time name="total">    6.39    6.41</time>
   <dipole>
    <v name="dipole">      0.00000000       0.00000000       0.60043048 </v>
    <i name="Tr[quadrupol]"> -11259.12090672 </i>
    <i name="Echarged">      0.00000000 </i>
    <i name="Edipol_quadrupol">      0.00000000 </i>
    <i name="Eion">      0.00000000 </i>
   </dipole>
   <energy>
    <i name="e_fr_energy">   -228.92850119 </i>
    <i name="e_wo_entrp">   -228.65883647 </i>
    <i name="e_0_energy">   -228.79366883 </i>
   </energy>
  </scstep>
  <scstep>
   <time name="diag">    1.56    1.57</time>
   <time name="diis">    4.08    4.09</time>
   <time name="orth">    0.42    0.42</time>
   <time name="total">    6.37    6.40</time>
   <dipole>
    <v name="dipole">      0.00000000       0.00000000       0.54541705 </v>
    <i name="Tr[quadrupol]"> -11259.08518386 </i>
    <i name="Echarged">      0.00000000 </i>
    <i name="Edipol_quadrupol">      0.00000000 </i>
    <i name="Eion">      0.00000000 </i>
   </dipole>
   <energy>
    <i name="e_fr_energy">   -228.93208135 </i>
    <i name="e_wo_entrp">   -228.65421111 </i>
    <i name="e_0_energy">   -228.79314623 </i>
   </energy>
  </scstep>
  <scstep>
   <time name="diag">    1.54    1.55</time>
   <time name="diis">    4.08    4.09</time>
   <time name="orth">    0.42    0.42</time>
   <time name="total">    6.35    6.37</time>
   <dipole>
    <v name="dipole">      0.00000000       0.00000000       0.57321301 </v>
    <i name="Tr[quadrupol]"> -11259.13137952 </i>
    <i name="Echarged">      0.00000000 </i>
    <i name="Edipol_quadrupol">      0.00000000 </i>
    <i name="Eion">      0.00000000 </i>
   </dipole>
   <energy>
    <i name="e_fr_energy">   -228.91958282 </i>
    <i name="e_wo_entrp">   -228.64225201 </i>
    <i name="e_0_energy">   -228.78091741 </i>
   </energy>
  </scstep>
  <scstep>
   <time name="diag">    1.52    1.69</time>
   <time name="diis">    4.04    4.05</time>
   <time name="orth">    0.42    0.42</time>
   <time name="total">    6.29    6.47</time>
   <dipole>
    <v name="dipole">      0.00000000       0.00000000       0.57014048 </v>
    <i name="Tr[quadrupol]"> -11259.10479662 </i>
    <i name="Echarged">      0.00000000 </i>
    <i name="Edipol_quadrupol">      0.00000000 </i>
    <i name="Eion">      0.00000000 </i>
   </dipole>
   <energy>
    <i name="e_fr_energy">   -228.91729242 </i>
    <i name="e_wo_entrp">   -228.64075601 </i>
    <i name="e_0_energy">   -228.77902422 </i>
   </energy>
  </scstep>
  <scstep>
   <time name="diag">    1.55    1.56</time>
   <time name="diis">    4.06    4.08</time>
   <time name="orth">    0.42    0.42</time>
   <time name="total">    6.34    6.36</time>
   <dipole>
    <v name="dipole">      0.00000000       0.00000000       0.57197201 </v>
    <i name="Tr[quadrupol]"> -11259.08728524 </i>
    <i name="Echarged">      0.00000000 </i>
    <i name="Edipol_quadrupol">      0.00000000 </i>
    <i name="Eion">      0.00000000 </i>
   </dipole>
   <energy>
    <i name="e_fr_energy">   -228.91687099 </i>
    <i name="e_wo_entrp">   -228.64097206 </i>
    <i name="e_0_energy">   -228.77892153 </i>
   </energy>
  </scstep>
  <scstep>
   <time name="diag">    1.55    1.55</time>
   <time name="diis">    4.10    4.11</time>
   <time name="orth">    0.42    0.42</time>
   <time name="total">    6.38    6.40</time>
   <dipole>
    <v name="dipole">      0.00000000       0.00000000       0.57420273 </v>
    <i name="Tr[quadrupol]"> -11259.10718390 </i>
    <i name="Echarged">      0.00000000 </i>
    <i name="Edipol_quadrupol">      0.00000000 </i>
    <i name="Eion">      0.00000000 </i>
   </dipole>
   <energy>
    <i name="e_fr_energy">   -228.91561412 </i>
    <i name="e_wo_entrp">   -228.64027733 </i>
    <i name="e_0_energy">   -228.77794572 </i>
   </energy>
  </scstep>
  <scstep>
   <time name="diag">    1.54    1.55</time>
   <time name="diis">    4.14    4.15</time>
   <time name="orth">    0.42    0.42</time>
   <time name="total">    6.41    6.43</time>
   <dipole>
    <v name="dipole">      0.00000000       0.00000000       0.57405972 </v>
    <i name="Tr[quadrupol]"> -11259.09732259 </i>
    <i name="Echarged">      0.00000000 </i>
    <i name="Edipol_quadrupol">      0.00000000 </i>
    <i name="Eion">      0.00000000 </i>
   </dipole>
   <energy>
    <i name="e_fr_energy">   -228.91539039 </i>
    <i name="e_wo_entrp">   -228.63999336 </i>
    <i name="e_0_energy">   -228.77769187 </i>
   </energy>
  </scstep>
  <scstep>
   <time name="diag">    1.56    1.57</time>
   <time name="diis">    4.09    4.10</time>
   <time name="orth">    0.42    0.43</time>
   <time name="total">    6.38    6.40</time>
   <dipole>
    <v name="dipole">      0.00000000       0.00000000       0.57474586 </v>
    <i name="Tr[quadrupol]"> -11259.10075997 </i>
    <i name="Echarged">      0.00000000 </i>
    <i name="Edipol_quadrupol">      0.00000000 </i>
    <i name="Eion">      0.00000000 </i>
   </dipole>
   <energy>
    <i name="e_fr_energy">   -228.91534675 </i>
    <i name="e_wo_entrp">   -228.63995804 </i>
    <i name="e_0_energy">   -228.77765240 </i>
   </energy>
  </scstep>
  <scstep>
   <time name="diag">    1.55    1.55</time>
   <time name="diis">    4.17    4.18</time>
   <time name="orth">    0.42    0.42</time>
   <time name="total">    6.44    6.46</time>
   <dipole>
    <v name="dipole">      0.00000000       0.00000000       0.57481302 </v>
    <i name="Tr[quadrupol]"> -11259.09691009 </i>
    <i name="Echarged">      0.00000000 </i>
    <i name="Edipol_quadrupol">      0.00000000 </i>
    <i name="Eion">      0.00000000 </i>
   </dipole>
   <energy>
    <i name="e_fr_energy">   -228.91533041 </i>
    <i name="e_wo_entrp">   -228.64013788 </i>
    <i name="e_0_energy">   -228.77773415 </i>
   </energy>
  </scstep>
  <scstep>
   <time name="diag">    1.55    1.55</time>
   <time name="diis">    3.88    4.11</time>
   <time name="orth">    0.42    0.42</time>
   <time name="total">    6.16    6.40</time>
   <dipole>
    <v name="dipole">      0.00000000       0.00000000       0.57504792 </v>
    <i name="Tr[quadrupol]"> -11259.09860671 </i>
    <i name="Echarged">      0.00000000 </i>
    <i name="Edipol_quadrupol">      0.00000000 </i>
    <i name="Eion">      0.00000000 </i>
   </dipole>
   <energy>
    <i name="e_fr_energy">   -228.91533933 </i>
    <i name="e_wo_entrp">   -228.63986869 </i>
    <i name="e_0_energy">   -228.77760401 </i>
   </energy>
  </scstep>
  <scstep>
   <time name="diag">    1.55    1.55</time>
   <time name="diis">    4.12    4.18</time>
   <time name="orth">    0.42    0.43</time>
   <time name="total">    6.39    6.46</time>
   <dipole>
    <v name="dipole">      0.00000000       0.00000000       0.57510046 </v>
    <i name="Tr[quadrupol]"> -11259.09609838 </i>
    <i name="Echarged">      0.00000000 </i>
    <i name="Edipol_quadrupol">      0.00000000 </i>
    <i name="Eion">      0.00000000 </i>
   </dipole>
   <energy>
    <i name="e_fr_energy">   -228.91533604 </i>
    <i name="e_wo_entrp">   -228.64009097 </i>
    <i name="e_0_energy">   -228.77771350 </i>
   </energy>
  </scstep>
  <scstep>
   <time name="diag">    1.56    1.56</time>
   <time name="diis">    2.91    2.91</time>
   <time name="orth">    0.43    0.43</time>
   <time name="total">    5.20    5.21</time>
   <dipole>
    <v name="dipole">      0.00000000       0.00000000       0.57526560 </v>
    <i name="Tr[quadrupol]"> -11259.09567669 </i>
    <i name="Echarged">      0.00000000 </i>
    <i name="Edipol_quadrupol">      0.00000000 </i>
    <i name="Eion">      0.00000000 </i>
   </dipole>
   <energy>
    <i name="e_fr_energy">   -228.91534113 </i>
    <i name="e_wo_entrp">   -228.64003971 </i>
    <i name="e_0_energy">   -228.77769042 </i>
   </energy>
  </scstep>
  <scstep>
   <time name="diag">    1.55    1.55</time>
   <time name="diis">    2.42    2.43</time>
   <time name="orth">    0.42    0.42</time>
   <time name="total">    4.70    4.71</time>
   <dipole>
    <v name="dipole">      0.00000000       0.00000000       0.57529482 </v>
    <i name="Tr[quadrupol]"> -11259.09499693 </i>
    <i name="Echarged">      0.00000000 </i>
    <i name="Edipol_quadrupol">      0.00000000 </i>
    <i name="Eion">      0.00000000 </i>
   </dipole>
   <energy>
    <i name="e_fr_energy">   -228.91534416 </i>
    <i name="e_wo_entrp">   -228.64006748 </i>
    <i name="e_0_energy">   -228.77770582 </i>
   </energy>
  </scstep>
  <scstep>
   <time name="diag">    1.55    1.56</time>
   <time name="diis">    2.43    2.43</time>
   <time name="orth">    0.42    0.42</time>
   <time name="total">    4.71    4.73</time>
   <dipole>
    <v name="dipole">      0.00000000       0.00000000       0.57535565 </v>
    <i name="Tr[quadrupol]"> -11259.09447939 </i>
    <i name="Echarged">      0.00000000 </i>
    <i name="Edipol_quadrupol">      0.00000000 </i>
    <i name="Eion">      0.00000000 </i>
   </dipole>
   <energy>
    <i name="e_fr_energy">   -228.91534805 </i>
    <i name="e_wo_entrp">   -228.64005876 </i>
    <i name="e_0_energy">   -228.77770341 </i>
   </energy>
  </scstep>
  <scstep>
   <time name="diag">    1.55    1.55</time>
   <time name="diis">    2.45    2.45</time>
   <time name="orth">    0.42    0.42</time>
   <time name="total">    4.73    4.80</time>
   <dipole>
    <v name="dipole">      0.00000000       0.00000000       0.57544573 </v>
    <i name="Tr[quadrupol]"> -11259.09364939 </i>
    <i name="Echarged">      0.00000000 </i>
    <i name="Edipol_quadrupol">      0.00000000 </i>
    <i name="Eion">      0.00000000 </i>
   </dipole>
   <energy>
    <i name="e_fr_energy">   -228.91535466 </i>
    <i name="e_wo_entrp">   -228.64006651 </i>
    <i name="e_0_energy">   -228.77771058 </i>
   </energy>
  </scstep>
  <scstep>
   <time name="diag">    1.56    1.56</time>
   <time name="diis">    2.35    2.36</time>
   <time name="orth">    0.42    0.42</time>
   <time name="total">    4.64    4.65</time>
   <dipole>
    <v name="dipole">      0.00000000       0.00000000       0.57553438 </v>
    <i name="Tr[quadrupol]"> -11259.09301366 </i>
    <i name="Echarged">      0.00000000 </i>
    <i name="Edipol_quadrupol">      0.00000000 </i>
    <i name="Eion">      0.00000000 </i>
   </dipole>
   <energy>
    <i name="e_fr_energy">   -228.91535930 </i>
    <i name="e_wo_entrp">   -228.64006910 </i>
    <i name="e_0_energy">   -228.77771420 </i>
   </energy>
  </scstep>
  <scstep>
   <time name="diag">    1.54    1.54</time>
   <time name="diis">    2.01    2.01</time>
   <time name="orth">    0.42    0.43</time>
   <time name="total">    4.27    4.29</time>
   <dipole>
    <v name="dipole">      0.00000000       0.00000000       0.57561194 </v>
    <i name="Tr[quadrupol]"> -11259.09248880 </i>
    <i name="Echarged">      0.00000000 </i>
    <i name="Edipol_quadrupol">      0.00000000 </i>
    <i name="Eion">      0.00000000 </i>
   </dipole>
   <energy>
    <i name="e_fr_energy">   -228.91536314 </i>
    <i name="e_wo_entrp">   -228.64007129 </i>
    <i name="e_0_energy">   -228.77771721 </i>
   </energy>
  </scstep>
  <scstep>
   <time name="diag">    1.52    1.70</time>
   <time name="diis">    2.17    2.18</time>
   <time name="orth">    0.42    0.42</time>
   <time name="total">    4.42    4.62</time>
   <dipole>
    <v name="dipole">      0.00000000       0.00000000       0.57569152 </v>
    <i name="Tr[quadrupol]"> -11259.09190639 </i>
    <i name="Echarged">      0.00000000 </i>
    <i name="Edipol_quadrupol">      0.00000000 </i>
    <i name="Eion">      0.00000000 </i>
   </dipole>
   <energy>
    <i name="e_fr_energy">   -228.91536668 </i>
    <i name="e_wo_entrp">   -228.64007828 </i>
    <i name="e_0_energy">   -228.77772248 </i>
   </energy>
  </scstep>
  <scstep>
   <time name="diag">    1.55    1.55</time>
   <time name="diis">    2.11    2.11</time>
   <time name="orth">    0.42    0.42</time>
   <time name="total">    4.38    4.40</time>
   <dipole>
    <v name="dipole">      0.00000000       0.00000000       0.57578140 </v>
    <i name="Tr[quadrupol]"> -11259.09126322 </i>
    <i name="Echarged">      0.00000000 </i>
    <i name="Edipol_quadrupol">      0.00000000 </i>
    <i name="Eion">      0.00000000 </i>
   </dipole>
   <energy>
    <i name="e_fr_energy">   -228.91537022 </i>
    <i name="e_wo_entrp">   -228.64008005 </i>
    <i name="e_0_energy">   -228.77772513 </i>
   </energy>
  </scstep>
  <scstep>
   <time name="diag">    1.55    1.56</time>
   <time name="diis">    2.15    2.15</time>
   <time name="orth">    0.42    0.42</time>
   <time name="total">    4.43    4.45</time>
   <dipole>
    <v name="dipole">      0.00000000       0.00000000       0.57586121 </v>
    <i name="Tr[quadrupol]"> -11259.09065293 </i>
    <i name="Echarged">      0.00000000 </i>
    <i name="Edipol_quadrupol">      0.00000000 </i>
    <i name="Eion">      0.00000000 </i>
   </dipole>
   <energy>
    <i name="e_fr_energy">   -228.91537289 </i>
    <i name="e_wo_entrp">   -228.64008276 </i>
    <i name="e_0_energy">   -228.77772782 </i>
   </energy>
  </scstep>
  <scstep>
   <time name="diag">    1.54    1.55</time>
   <time name="diis">    1.81    1.81</time>
   <time name="orth">    0.42    0.42</time>
   <time name="total">    4.08    4.09</time>
   <dipole>
    <v name="dipole">      0.00000000       0.00000000       0.57590749 </v>
    <i name="Tr[quadrupol]"> -11259.09034028 </i>
    <i name="Echarged">      0.00000000 </i>
    <i name="Edipol_quadrupol">      0.00000000 </i>
    <i name="Eion">      0.00000000 </i>
   </dipole>
   <energy>
    <i name="e_fr_energy">   -228.91537403 </i>
    <i name="e_wo_entrp">   -228.64008404 </i>
    <i name="e_0_energy">   -228.77772903 </i>
   </energy>
  </scstep>
  <scstep>
   <time name="diag">    1.55    1.55</time>
   <time name="diis">    1.82    1.83</time>
   <time name="orth">    0.42    0.42</time>
   <time name="total">    3.84    3.85</time>
   <dipole>
    <v name="dipole">      0.00000000       0.00000000       0.57595704 </v>
    <i name="Tr[quadrupol]"> -11259.09001962 </i>
    <i name="Echarged">      0.00000000 </i>
    <i name="Edipol_quadrupol">      0.00000000 </i>
    <i name="Eion">      0.00000000 </i>
   </dipole>
   <energy>
    <i name="alphaZ">    867.83724583 </i>
    <i name="ewald"> 235769.71454603 </i>
    <i name="hartreedc">-281034.33238182 </i>
    <i name="XCdc">   -129.23307436 </i>
    <i name="pawpsdc">  51852.10269383 </i>
    <i name="pawaedc"> -49942.32473385 </i>
    <i name="eentropy">     -0.27529071 </i>
    <i name="bandstr">  -2730.29582056 </i>
    <i name="atom">  45117.89144060 </i>
    <i name="e_fr_energy">   -228.91537501 </i>
    <i name="e_wo_entrp">   -228.64008429 </i>
    <i name="e_0_energy">   -228.77772965 </i>
   </energy>
  </scstep>
  <structure>
   <crystal>
    <varray name="basis" >
[...]
       <r>   -18.9217    10.5169    15.5311 </r>
       <r>   -18.8295     4.6259    15.9574 </r>
       <r>   -18.7374     0.4528    15.9991 </r>
       <r>   -18.6452     0.0093    16.0000 </r>
       <r>   -18.5530     0.0000    16.0000 </r>
       <r>   -18.4609     0.0000    16.0000 </r>
       <r>   -18.3687     0.0000    16.0000 </r>
       <r>   -18.2765     0.0000    16.0000 </r>
       <r>   -18.1844     0.0000    16.0000 </r>
       <r>   -18.0922     0.0000    16.0000 </r>
       <r>   -18.0001     0.0000    16.0000 </r>
       <r>   -17.9079     0.0000    16.0000 </r>
       <r>   -17.8157     0.0000    16.0000 </r>
       <r>   -17.7236     0.0000    16.0000 </r>
       <r>   -17.6314     0.0000    16.0000 </r>
       <r>   -17.5392     0.0000    16.0000 </r>
       <r>   -17.4471     0.0000    16.0000 </r>
       <r>   -17.3549     0.0000    16.0000 </r>
       <r>   -17.2627     0.0000    16.0000 </r>
       <r>   -17.1706     0.0000    16.0000 </r>
       <r>   -17.0784     0.0000    16.0000 </r>
       <r>   -16.9862     0.0000    16.0000 </r>
       <r>   -16.8941     0.0000    16.0000 </r>
       <r>   -16.8019     0.0000    16.0000 </r>
       <r>   -16.7097     0.0000    16.0000 </r>
       <r>   -16.6176     0.0000    16.0000 </r>
       <r>   -16.5254     0.0000    16.0000 </r>
       <r>   -16.4332     0.0000    16.0000 </r>
       <r>   -16.3411     0.0000    16.0000 </r>
       <r>   -16.2489     0.0000    16.0000 </r>
       <r>   -16.1567     0.0000    16.0000 </r>
       <r>   -16.0646     0.0000    16.0000 </r>
       <r>   -15.9724     0.0000    16.0000 </r>
       <r>   -15.8802     0.0000    16.0000 </r>
       <r>   -15.7881     0.0000    16.0000 </r>
       <r>   -15.6959     0.0000    16.0000 </r>
       <r>   -15.6037     0.0000    16.0000 </r>
       <r>   -15.5116     0.0000    16.0000 </r>
       <r>   -15.4194     0.0000    16.0000 </r>
       <r>   -15.3272     0.0000    16.0000 </r>
       <r>   -15.2351     0.0000    16.0000 </r>
       <r>   -15.1429     0.0000    16.0000 </r>
       <r>   -15.0507     0.0000    16.0000 </r>
       <r>   -14.9586     0.0000    16.0000 </r>
       <r>   -14.8664     0.0000    16.0000 </r>
       <r>   -14.7742     0.0000    16.0000 </r>
       <r>   -14.6821     0.0000    16.0000 </r>
       <r>   -14.5899     0.0000    16.0000 </r>
       <r>   -14.4978     0.0000    16.0000 </r>
       <r>   -14.4056     0.0000    16.0000 </r>
       <r>   -14.3134     0.0000    16.0000 </r>
       <r>   -14.2213     0.0000    16.0000 </r>
       <r>   -14.1291     0.0000    16.0000 </r>
       <r>   -14.0369     0.0000    16.0000 </r>
       <r>   -13.9448     0.0000    16.0000 </r>
       <r>   -13.8526     0.0000    16.0000 </r>
       <r>   -13.7604     0.0000    16.0000 </r>
       <r>   -13.6683     0.0000    16.0000 </r>
       <r>   -13.5761     0.0000    16.0000 </r>
       <r>   -13.4839     0.0000    16.0000 </r>
       <r>   -13.3918     0.0000    16.0000 </r>
       <r>   -13.2996     0.0000    16.0000 </r>
       <r>   -13.2074     0.0000    16.0000 </r>
       <r>   -13.1153     0.0000    16.0000 </r>
       <r>   -13.0231     0.0000    16.0000 </r>
       <r>   -12.9309     0.0000    16.0000 </r>
       <r>   -12.8388     0.0000    16.0000 </r>
       <r>   -12.7466     0.0000    16.0000 </r>
       <r>   -12.6544     0.0000    16.0000 </r>
       <r>   -12.5623     0.0000    16.0000 </r>
       <r>   -12.4701     0.0000    16.0000 </r>
       <r>   -12.3779     0.0000    16.0000 </r>
       <r>   -12.2858     0.0000    16.0000 </r>
       <r>   -12.1936     0.0000    16.0000 </r>
       <r>   -12.1014     0.0000    16.0000 </r>
       <r>   -12.0093     0.0000    16.0000 </r>
       <r>   -11.9171     0.0000    16.0000 </r>
       <r>   -11.8249     0.0000    16.0000 </r>
       <r>   -11.7328     0.0000    16.0000 </r>
       <r>   -11.6406     0.0000    16.0000 </r>
       <r>   -11.5484     0.0000    16.0000 </r>
       <r>   -11.4563     0.0000    16.0000 </r>
       <r>   -11.3641     0.0000    16.0000 </r>
       <r>   -11.2719     0.0000    16.0000 </r>
       <r>   -11.1798     0.0000    16.0000 </r>
       <r>   -11.0876     0.0000    16.0000 </r>
       <r>   -10.9954     0.0000    16.0000 </r>
       <r>   -10.9033     0.0000    16.0000 </r>
       <r>   -10.8111     0.0000    16.0000 </r>
       <r>   -10.7190     0.0000    16.0000 </r>
       <r>   -10.6268     0.0000    16.0000 </r>
       <r>   -10.5346     0.0000    16.0000 </r>
       <r>   -10.4425     0.0000    16.0000 </r>
       <r>   -10.3503     0.0000    16.0000 </r>
       <r>   -10.2581     0.0000    16.0000 </r>
       <r>   -10.1660     0.0000    16.0000 </r>
       <r>   -10.0738     0.0000    16.0000 </r>
       <r>    -9.9816     0.0000    16.0000 </r>
       <r>    -9.8895     0.0000    16.0000 </r>
       <r>    -9.7973     0.0000    16.0000 </r>
       <r>    -9.7051     0.0000    16.0000 </r>
       <r>    -9.6130     0.0000    16.0000 </r>
       <r>    -9.5208     0.0002    16.0000 </r>
       <r>    -9.4286     0.0225    16.0021 </r>
       <r>    -9.3365     0.6189    16.0591 </r>
       <r>    -9.2443     3.7600    16.4057 </r>
       <r>    -9.1521     6.3536    16.9913 </r>
       <r>    -9.0600     6.3486    17.5764 </r>
       <r>    -8.9678     3.8891    17.9348 </r>
       <r>    -8.8756     0.7271    18.0018 </r>
       <r>    -8.7835     1.0673    18.1002 </r>
       <r>    -8.6913     5.9862    18.6519 </r>
       <r>    -8.5991    10.7707    19.6446 </r>
       <r>    -8.5070    10.2792    20.5920 </r>
       <r>    -8.4148     9.5381    21.4711 </r>
       <r>    -8.3226    11.2511    22.5081 </r>
       <r>    -8.2305    14.1993    23.8168 </r>
       <r>    -8.1383    18.5709    25.5284 </r>
       <r>    -8.0461    22.8969    27.6387 </r>
       <r>    -7.9540    22.7134    29.7321 </r>
       <r>    -7.8618    27.6270    32.2783 </r>
       <r>    -7.7696    33.1048    35.3295 </r>
       <r>    -7.6775    32.1394    38.2916 </r>
       <r>    -7.5853    32.1037    41.2505 </r>
       <r>    -7.4931    41.7683    45.1001 </r>
       <r>    -7.4010    52.0361    49.8961 </r>
       <r>    -7.3088    57.9336    55.2356 </r>
       <r>    -7.2166    58.0329    60.5842 </r>
       <r>    -7.1245    64.0499    66.4874 </r>
       <r>    -7.0323    67.4234    72.7016 </r>
       <r>    -6.9402    61.4285    78.3632 </r>
       <r>    -6.8480    65.7001    84.4185 </r>
       <r>    -6.7558    77.5363    91.5647 </r>
       <r>    -6.6637    81.7848    99.1024 </r>
       <r>    -6.5715    82.0422   106.6639 </r>
       <r>    -6.4793    81.1888   114.1468 </r>
       <r>    -6.3872    78.6245   121.3932 </r>
       <r>    -6.2950    78.6334   128.6406 </r>
       <r>    -6.2028    81.0286   136.1086 </r>
       <r>    -6.1107    80.0589   143.4873 </r>
       <r>    -6.0185    76.8509   150.5704 </r>
       <r>    -5.9263    74.4240   157.4297 </r>
       <r>    -5.8342    76.2587   164.4582 </r>
       <r>    -5.7420    83.8136   172.1829 </r>
       <r>    -5.6498    87.4303   180.2410 </r>
       <r>    -5.5577    87.0792   188.2667 </r>
       <r>    -5.4655    85.8933   196.1832 </r>
       <r>    -5.3733    82.6916   203.8045 </r>
       <r>    -5.2812    82.3593   211.3952 </r>
       <r>    -5.1890    88.5277   219.5544 </r>
       <r>    -5.0968    89.7563   227.8269 </r>
       <r>    -5.0047    91.1551   236.2283 </r>
       <r>    -4.9125    92.0712   244.7141 </r>
       <r>    -4.8203    90.7178   253.0752 </r>
       <r>    -4.7282    91.9849   261.5531 </r>
       <r>    -4.6360    91.5049   269.9867 </r>
       <r>    -4.5438    92.9694   278.5553 </r>
       <r>    -4.4517    93.8347   287.2036 </r>
       <r>    -4.3595    90.4420   295.5393 </r>
       <r>    -4.2673    88.4090   303.6876 </r>
       <r>    -4.1752    88.0391   311.8018 </r>
       <r>    -4.0830    87.6930   319.8841 </r>
       <r>    -3.9908    88.6880   328.0581 </r>
       <r>    -3.8987    93.4667   336.6725 </r>
       <r>    -3.8065    96.5881   345.5747 </r>
       <r>    -3.7143    94.4133   354.2763 </r>
       <r>    -3.6222    91.2664   362.6880 </r>
       <r>    -3.5300    93.9395   371.3460 </r>
       <r>    -3.4378    93.2671   379.9420 </r>
       <r>    -3.3457    89.4192   388.1834 </r>
       <r>    -3.2535    91.8020   396.6444 </r>
       <r>    -3.1614    91.3081   405.0599 </r>
       <r>    -3.0692    90.5067   413.4015 </r>
       <r>    -2.9770    91.0335   421.7917 </r>
       <r>    -2.8849    86.5653   429.7701 </r>
       <r>    -2.7927    83.3630   437.4533 </r>
       <r>    -2.7005    87.2824   445.4978 </r>
       <r>    -2.6084    92.4816   454.0214 </r>
       <r>    -2.5162    91.5654   462.4606 </r>
       <r>    -2.4240    88.3173   470.6005 </r>
       <r>    -2.3319    92.2477   479.1025 </r>
       <r>    -2.2397    97.9384   488.1291 </r>
       <r>    -2.1475   100.1523   497.3597 </r>
       <r>    -2.0554    95.8061   506.1898 </r>
       <r>    -1.9632    91.7976   514.6504 </r>
       <r>    -1.8710    88.0407   522.7647 </r>
       <r>    -1.7789    81.3365   530.2612 </r>
       <r>    -1.6867    75.1196   537.1846 </r>
       <r>    -1.5945    71.6412   543.7875 </r>
       <r>    -1.5024    63.8586   549.6731 </r>
       <r>    -1.4102    53.6329   554.6162 </r>
       <r>    -1.3180    40.8302   558.3794 </r>
       <r>    -1.2259    31.3181   561.2658 </r>
       <r>    -1.1337    28.3028   563.8744 </r>
       <r>    -1.0415    25.0379   566.1820 </r>
       <r>    -0.9494    19.8823   568.0145 </r>
       <r>    -0.8572    19.8403   569.8431 </r>
       <r>    -0.7650    23.0567   571.9681 </r>
       <r>    -0.6729    23.3895   574.1238 </r>
       <r>    -0.5807    19.8357   575.9520 </r>
       <r>    -0.4885    19.3591   577.7363 </r>
       <r>    -0.3964    19.3163   579.5166 </r>
       <r>    -0.3042    17.8837   581.1648 </r>
       <r>    -0.2120    19.0784   582.9232 </r>
       <r>    -0.1199    16.9353   584.4841 </r>
       <r>    -0.0277    12.3649   585.6237 </r>
       <r>     0.0645     9.9070   586.5368 </r>
       <r>     0.1566    10.4428   587.4992 </r>
       <r>     0.2488    12.6756   588.6675 </r>
       <r>     0.3410    15.5789   590.1033 </r>
       <r>     0.4331    17.8049   591.7443 </r>
       <r>     0.5253    17.7272   593.3782 </r>
       <r>     0.6174    16.7381   594.9209 </r>
       <r>     0.7096    19.0733   596.6788 </r>
       <r>     0.8018    18.9022   598.4209 </r>
       <r>     0.8939    15.7216   599.8699 </r>
       <r>     0.9861    13.8222   601.1438 </r>
       <r>     1.0783    10.9791   602.1557 </r>
       <r>     1.1704     7.6510   602.8609 </r>
       <r>     1.2626     7.0358   603.5094 </r>
       <r>     1.3548    10.0626   604.4368 </r>
       <r>     1.4469    15.7543   605.8888 </r>
       <r>     1.5391    17.6595   607.5164 </r>
       <r>     1.6313    15.5758   608.9520 </r>
       <r>     1.7234    14.5585   610.2938 </r>
       <r>     1.8156    15.7529   611.7456 </r>
       <r>     1.9078    16.3316   613.2509 </r>
       <r>     1.9999    16.7498   614.7946 </r>
       <r>     2.0921    17.2764   616.3869 </r>
       <r>     2.1843    16.1591   617.8762 </r>
       <r>     2.2764    13.3221   619.1041 </r>
       <r>     2.3686    12.6188   620.2671 </r>
       <r>     2.4608    12.6158   621.4298 </r>
       <r>     2.5529    13.0078   622.6287 </r>
       <r>     2.6451    12.1402   623.7476 </r>
       <r>     2.7373    13.7467   625.0146 </r>
       <r>     2.8294    13.2436   626.2352 </r>
       <r>     2.9216     9.3746   627.0992 </r>
       <r>     3.0138    12.8666   628.2851 </r>
       <r>     3.1059    20.3643   630.1620 </r>
       <r>     3.1981    18.3475   631.8530 </r>
       <r>     3.2903    15.3655   633.2692 </r>
       <r>     3.3824    17.6412   634.8951 </r>
       <r>     3.4746    16.7710   636.4408 </r>
       <r>     3.5668    14.8663   637.8110 </r>
       <r>     3.6589    13.2118   639.0286 </r>
       <r>     3.7511    13.4644   640.2696 </r>
       <r>     3.8433    13.2484   641.4906 </r>
       <r>     3.9354    17.3021   643.0853 </r>
       <r>     4.0276    19.3652   644.8701 </r>
       <r>     4.1197    14.5375   646.2100 </r>
       <r>     4.2119    12.0848   647.3238 </r>
       <r>     4.3041    15.5171   648.7539 </r>
       <r>     4.3962    19.8930   650.5874 </r>
       <r>     4.4884    22.3142   652.6440 </r>
       <r>     4.5806    26.8212   655.1160 </r>
       <r>     4.6727    29.2120   657.8083 </r>
       <r>     4.7649    28.7747   660.4604 </r>
       <r>     4.8571    28.2421   663.0633 </r>
       <r>     4.9492    28.6988   665.7084 </r>
       <r>     5.0414    29.6108   668.4375 </r>
       <r>     5.1336    24.6424   670.7087 </r>
       <r>     5.2257    11.6602   671.7834 </r>
       <r>     5.3179     2.2192   671.9879 </r>
       <r>     5.4101     0.1295   671.9998 </r>
       <r>     5.5022     0.0019   672.0000 </r>
       <r>     5.5944     0.0000   672.0000 </r>
       <r>     5.6866     0.0000   672.0000 </r>
       <r>     5.7787     0.0000   672.0000 </r>
       <r>     5.8709     0.0000   672.0000 </r>
       <r>     5.9631     0.0000   672.0000 </r>
       <r>     6.0552     0.0000   672.0000 </r>
       <r>     6.1474     0.0000   672.0000 </r>
       <r>     6.2396     0.0000   672.0000 </r>
       <r>     6.3317     0.0000   672.0000 </r>
       <r>     6.4239     0.0000   672.0000 </r>
      </set>
     </set>
    </array>
   </total>
  </dos>
 </calculation>
 <structure name="finalpos" >
  <crystal>
   <varray name="basis" >
    <v>      11.00258152       0.00000000       0.00000000 </v>
    <v>       5.50129076       9.52851510       0.00000000 </v>
    <v>       0.00000000       0.00000000      26.19178509 </v>
   </varray>
   <i name="volume">   2745.90128299 </i>
   <varray name="rec_basis" >
    <v>       0.09088776      -0.05247407       0.00000000 </v>
    <v>       0.00000000       0.10494815       0.00000000 </v>
    <v>       0.00000000       0.00000000       0.03817991 </v>
   </varray>
  </crystal>
  <varray name="positions" >
   <v>       0.08333333       0.08333333       0.38179910 </v>
   <v>       0.08333333       0.83333333       0.38179910 </v>
   <v>       0.08333333       0.33333333       0.38179910 </v>
   <v>       0.99445474       0.51202297       0.56492891 </v>
   <v>       0.99968454       0.24486260       0.56219600 </v>
   <v>       0.91042474       0.66771971       0.47469752 </v>
   <v>       0.00905118       0.98832935       0.56689892 </v>
   <v>       0.08333333       0.58333333       0.38179910 </v>
   <v>       0.33333333       0.83333333       0.38179910 </v>
   <v>       0.24966876       0.99014004       0.56665648 </v>
   <v>       0.33333333       0.58333333       0.38179910 </v>
   <v>       0.25649259       0.49666469       0.56301588 </v>
   <v>       0.16623620       0.66452609       0.47637458 </v>
   <v>       0.75951241       0.75507622       0.59269205 </v>
   <v>       0.50669716       0.00042461       0.56570048 </v>
   <v>       0.58333333       0.58333333       0.38179910 </v>
   <v>       0.41538805       0.66558616       0.47907522 </v>
   <v>       0.41650495       0.91883162       0.47261504 </v>
   <v>       0.66199327       0.16598903       0.47194921 </v>
   <v>       0.75022767       0.99202100       0.56292567 </v>
   <v>       0.83333333       0.33333333       0.38179910 </v>
   <v>       0.66753245       0.41549744       0.47764718 </v>
   <v>       0.73432091       0.24642859       0.56513103 </v>
   <v>       0.25339458       0.74293646       0.57892335 </v>
   <v>       0.32696773       0.35446066       0.62440436 </v>
   <v>       0.33545041       0.07032125       0.61833764 </v>
   <v>       0.84603553       0.06440086       0.61934538 </v>
   <v>       0.82640999       0.34311344       0.61342821 </v>
   <v>       0.51262249       0.45701161       0.64171225 </v>
   <v>       0.63809635       0.67247387       0.62192151 </v>
   <v>       0.58272463       0.09007473       0.62815545 </v>
   <v>       0.07808990       0.34240801       0.61554615 </v>
   <v>       0.33333333       0.33333333       0.38179910 </v>
   <v>       0.16804459       0.41070935       0.47459908 </v>
   <v>       0.25745325       0.24725688       0.57559309 </v>
   <v>       0.00030219       0.74933744       0.56274448 </v>
   <v>       0.91343906       0.91750557       0.47189430 </v>
   <v>       0.73726222       0.51374851       0.57145390 </v>
   <v>       0.16376489       0.91852626       0.47855920 </v>
   <v>       0.83333333       0.83333333       0.38179910 </v>
   <v>       0.58333333       0.08333333       0.38179910 </v>
   <v>       0.41215171       0.16952930       0.47401731 </v>
   <v>       0.33333333       0.08333333       0.38179910 </v>
   <v>       0.41706931       0.41294126       0.47289292 </v>
   <v>       0.58333333       0.33333333       0.38179910 </v>
   <v>       0.16615627       0.16895287       0.47619343 </v>
   <v>       0.83333333       0.08333333       0.38179910 </v>
   <v>       0.91678630       0.16437861       0.47435692 </v>
   <v>       0.49800930       0.50285055       0.56944541 </v>
   <v>       0.66708572       0.66627611       0.47414372 </v>
   <v>       0.66372144       0.91709409       0.47399961 </v>
   <v>       0.58333333       0.83333333       0.38179910 </v>
   <v>       0.50184324       0.75351838       0.56319694 </v>
   <v>       0.91396120       0.41684734       0.47357932 </v>
   <v>       0.52657632       0.28048261       0.63461942 </v>
   <v>       0.83333333       0.58333333       0.38179910 </v>
  </varray>
  <varray name="selective"  type="logical" >
   <v type="logical" >  F  F  F </v>
   <v type="logical" >  F  F  F </v>
   <v type="logical" >  F  F  F </v>
   <v type="logical" >  T  T  T </v>
   <v type="logical" >  T  T  T </v>
   <v type="logical" >  T  T  T </v>
   <v type="logical" >  T  T  T </v>
   <v type="logical" >  F  F  F </v>
   <v type="logical" >  F  F  F </v>
   <v type="logical" >  T  T  T </v>
   <v type="logical" >  F  F  F </v>
   <v type="logical" >  T  T  T </v>
   <v type="logical" >  T  T  T </v>
   <v type="logical" >  T  T  T </v>
   <v type="logical" >  T  T  T </v>
   <v type="logical" >  F  F  F </v>
   <v type="logical" >  T  T  T </v>
   <v type="logical" >  T  T  T </v>
   <v type="logical" >  T  T  T </v>
   <v type="logical" >  T  T  T </v>
   <v type="logical" >  F  F  F </v>
   <v type="logical" >  T  T  T </v>
   <v type="logical" >  T  T  T </v>
   <v type="logical" >  T  T  T </v>
   <v type="logical" >  T  T  T </v>
   <v type="logical" >  T  T  T </v>
   <v type="logical" >  T  T  T </v>
   <v type="logical" >  T  T  T </v>
   <v type="logical" >  T  T  T </v>
   <v type="logical" >  T  T  T </v>
   <v type="logical" >  T  T  T </v>
   <v type="logical" >  T  T  T </v>
   <v type="logical" >  F  F  F </v>
   <v type="logical" >  T  T  T </v>
   <v type="logical" >  T  T  T </v>
   <v type="logical" >  T  T  T </v>
   <v type="logical" >  T  T  T </v>
   <v type="logical" >  T  T  T </v>
   <v type="logical" >  T  T  T </v>
   <v type="logical" >  F  F  F </v>
   <v type="logical" >  F  F  F </v>
   <v type="logical" >  T  T  T </v>
   <v type="logical" >  F  F  F </v>
   <v type="logical" >  T  T  T </v>
   <v type="logical" >  F  F  F </v>
   <v type="logical" >  T  T  T </v>
   <v type="logical" >  F  F  F </v>
   <v type="logical" >  T  T  T </v>
   <v type="logical" >  T  T  T </v>
   <v type="logical" >  T  T  T </v>
   <v type="logical" >  T  T  T </v>
   <v type="logical" >  F  F  F </v>
   <v type="logical" >  T  T  T </v>
   <v type="logical" >  T  T  T </v>
   <v type="logical" >  T  T  T </v>
   <v type="logical" >  F  F  F </v>
  </varray>
  <nose>
   <v>      -3.00000000       0.00000000       0.00010000       0.00010000 </v>
  </nose>
 </structure>
</modeling>
