  56  56   0   0
  0.4903395E+02  0.1100258E-08  0.1100258E-08  0.2619179E-08  0.3500000E-15
  1.000000000000000E-004
  CAR 
 unknown system                          
      6.40174212    -21.17152885  301     -1.36622632      1.00000000
    -21.172  0.0000E+00  0.0000E+00
    -21.080  0.0000E+00  0.0000E+00
    -20.988  0.0000E+00  0.0000E+00
    -20.896  0.0000E+00  0.0000E+00
    -20.804  0.0000E+00  0.0000E+00
    -20.712  0.0000E+00  0.0000E+00
    -20.620  0.0000E+00  0.0000E+00
    -20.528  0.0000E+00  0.0000E+00
    -20.436  0.4810E-14  0.4421E-15
    -20.344  0.3446E-10  0.3167E-11
    -20.252  0.4744E-07  0.4363E-08
    -20.161  0.1280E-04  0.1181E-05
    -20.069  0.6979E-03  0.6532E-04
    -19.977  0.8061E-02  0.8062E-03
    -19.885  0.2111E-01  0.2747E-02
    -19.793  0.1787E-01  0.4389E-02
    -19.701  0.2214E-01  0.6425E-02
    -19.609  0.2642E-01  0.8853E-02
    -19.517  0.3053E-01  0.1166E-01
    -19.425  0.3837E-01  0.1518E-01
    -19.333  0.4063E-01  0.1892E-01
    -19.241  0.3793E-01  0.2240E-01
    -19.149  0.4616E-01  0.2665E-01
    -19.058  0.3666E-01  0.3002E-01
    -18.966  0.1821E-01  0.3169E-01
    -18.874  0.3223E-02  0.3199E-01
    -18.782  0.1358E-03  0.3200E-01
    -18.690  0.1198E-05  0.3200E-01
    -18.598  0.2108E-08  0.3200E-01
    -18.506  0.7192E-12  0.3200E-01
    -18.414  0.4832E-16  0.3200E-01
    -18.322  0.0000E+00  0.3200E-01
    -18.230  0.0000E+00  0.3200E-01
    -18.138  0.0000E+00  0.3200E-01
    -18.047  0.0000E+00  0.3200E-01
    -17.955  0.0000E+00  0.3200E-01
    -17.863  0.0000E+00  0.3200E-01
    -17.771  0.0000E+00  0.3200E-01
    -17.679  0.0000E+00  0.3200E-01
    -17.587  0.0000E+00  0.3200E-01
    -17.495  0.0000E+00  0.3200E-01
    -17.403  0.0000E+00  0.3200E-01
    -17.311  0.0000E+00  0.3200E-01
    -17.219  0.0000E+00  0.3200E-01
    -17.127  0.0000E+00  0.3200E-01
    -17.036  0.0000E+00  0.3200E-01
    -16.944  0.0000E+00  0.3200E-01
    -16.852  0.0000E+00  0.3200E-01
    -16.760  0.0000E+00  0.3200E-01
    -16.668  0.0000E+00  0.3200E-01
    -16.576  0.0000E+00  0.3200E-01
    -16.484  0.0000E+00  0.3200E-01
    -16.392  0.0000E+00  0.3200E-01
    -16.300  0.0000E+00  0.3200E-01
    -16.208  0.0000E+00  0.3200E-01
    -16.116  0.0000E+00  0.3200E-01
    -16.025  0.0000E+00  0.3200E-01
    -15.933  0.0000E+00  0.3200E-01
    -15.841  0.0000E+00  0.3200E-01
    -15.749  0.0000E+00  0.3200E-01
    -15.657  0.0000E+00  0.3200E-01
    -15.565  0.0000E+00  0.3200E-01
    -15.473  0.0000E+00  0.3200E-01
    -15.381  0.0000E+00  0.3200E-01
    -15.289  0.0000E+00  0.3200E-01
    -15.197  0.0000E+00  0.3200E-01
    -15.105  0.0000E+00  0.3200E-01
    -15.013  0.0000E+00  0.3200E-01
    -14.922  0.0000E+00  0.3200E-01
    -14.830  0.0000E+00  0.3200E-01
    -14.738  0.0000E+00  0.3200E-01
    -14.646  0.0000E+00  0.3200E-01
    -14.554  0.0000E+00  0.3200E-01
    -14.462  0.0000E+00  0.3200E-01
    -14.370  0.0000E+00  0.3200E-01
    -14.278  0.0000E+00  0.3200E-01
    -14.186  0.0000E+00  0.3200E-01
    -14.094  0.0000E+00  0.3200E-01
    -14.002  0.0000E+00  0.3200E-01
    -13.911  0.0000E+00  0.3200E-01
    -13.819  0.0000E+00  0.3200E-01
    -13.727  0.0000E+00  0.3200E-01
    -13.635  0.0000E+00  0.3200E-01
    -13.543  0.0000E+00  0.3200E-01
    -13.451  0.0000E+00  0.3200E-01
    -13.359  0.0000E+00  0.3200E-01
    -13.267  0.0000E+00  0.3200E-01
    -13.175  0.0000E+00  0.3200E-01
    -13.083  0.0000E+00  0.3200E-01
    -12.991  0.0000E+00  0.3200E-01
    -12.900  0.0000E+00  0.3200E-01
    -12.808  0.0000E+00  0.3200E-01
    -12.716  0.0000E+00  0.3200E-01
    -12.624  0.0000E+00  0.3200E-01
    -12.532  0.0000E+00  0.3200E-01
    -12.440  0.0000E+00  0.3200E-01
    -12.348  0.0000E+00  0.3200E-01
    -12.256  0.0000E+00  0.3200E-01
    -12.164  0.0000E+00  0.3200E-01
    -12.072  0.0000E+00  0.3200E-01
    -11.980  0.0000E+00  0.3200E-01
    -11.889  0.0000E+00  0.3200E-01
    -11.797  0.0000E+00  0.3200E-01
    -11.705  0.0000E+00  0.3200E-01
    -11.613  0.0000E+00  0.3200E-01
    -11.521  0.0000E+00  0.3200E-01
    -11.429  0.0000E+00  0.3200E-01
    -11.337  0.0000E+00  0.3200E-01
    -11.245  0.0000E+00  0.3200E-01
    -11.153  0.0000E+00  0.3200E-01
    -11.061  0.0000E+00  0.3200E-01
    -10.969  0.0000E+00  0.3200E-01
    -10.878  0.0000E+00  0.3200E-01
    -10.786  0.0000E+00  0.3200E-01
    -10.694  0.0000E+00  0.3200E-01
    -10.602  0.0000E+00  0.3200E-01
    -10.510  0.0000E+00  0.3200E-01
    -10.418  0.0000E+00  0.3200E-01
    -10.326  0.0000E+00  0.3200E-01
    -10.234  0.0000E+00  0.3200E-01
    -10.142  0.0000E+00  0.3200E-01
    -10.050  0.0000E+00  0.3200E-01
     -9.958  0.0000E+00  0.3200E-01
     -9.866  0.0000E+00  0.3200E-01
     -9.775  0.0000E+00  0.3200E-01
     -9.683  0.0000E+00  0.3200E-01
     -9.591  0.0000E+00  0.3200E-01
     -9.499  0.0000E+00  0.3200E-01
     -9.407  0.3221E-16  0.3200E-01
     -9.315  0.4569E-12  0.3200E-01
     -9.223  0.1248E-08  0.3200E-01
     -9.131  0.6691E-06  0.3200E-01
     -9.039  0.7225E-04  0.3201E-01
     -8.947  0.1636E-02  0.3216E-01
     -8.855  0.8348E-02  0.3292E-01
     -8.764  0.1229E-01  0.3405E-01
     -8.672  0.1200E-01  0.3516E-01
     -8.580  0.7858E-02  0.3588E-01
     -8.488  0.4109E-02  0.3626E-01
     -8.396  0.1154E-01  0.3732E-01
     -8.304  0.2402E-01  0.3952E-01
     -8.212  0.2989E-01  0.4227E-01
     -8.120  0.2526E-01  0.4459E-01
     -8.028  0.2911E-01  0.4727E-01
     -7.936  0.3642E-01  0.5062E-01
     -7.844  0.3654E-01  0.5397E-01
     -7.753  0.2551E-01  0.5632E-01
     -7.661  0.2908E-01  0.5899E-01
     -7.569  0.4846E-01  0.6345E-01
     -7.477  0.5536E-01  0.6853E-01
     -7.385  0.5673E-01  0.7375E-01
     -7.293  0.7132E-01  0.8030E-01
     -7.201  0.8764E-01  0.8836E-01
     -7.109  0.9267E-01  0.9688E-01
     -7.017  0.1061E+00  0.1066E+00
     -6.925  0.1281E+00  0.1184E+00
     -6.833  0.1386E+00  0.1311E+00
     -6.742  0.1391E+00  0.1439E+00
     -6.650  0.1375E+00  0.1566E+00
     -6.558  0.1442E+00  0.1698E+00
     -6.466  0.1515E+00  0.1837E+00
     -6.374  0.1491E+00  0.1975E+00
     -6.282  0.1496E+00  0.2112E+00
     -6.190  0.1592E+00  0.2258E+00
     -6.098  0.1684E+00  0.2413E+00
     -6.006  0.1672E+00  0.2567E+00
     -5.914  0.1732E+00  0.2726E+00
     -5.822  0.1796E+00  0.2891E+00
     -5.730  0.1802E+00  0.3057E+00
     -5.639  0.1784E+00  0.3221E+00
     -5.547  0.1806E+00  0.3387E+00
     -5.455  0.1762E+00  0.3549E+00
     -5.363  0.1755E+00  0.3710E+00
     -5.271  0.1846E+00  0.3880E+00
     -5.179  0.1840E+00  0.4049E+00
     -5.087  0.1816E+00  0.4216E+00
     -4.995  0.1747E+00  0.4376E+00
     -4.903  0.1702E+00  0.4533E+00
     -4.811  0.1758E+00  0.4694E+00
     -4.719  0.1782E+00  0.4858E+00
     -4.628  0.1815E+00  0.5025E+00
     -4.536  0.1916E+00  0.5201E+00
     -4.444  0.1905E+00  0.5376E+00
     -4.352  0.1852E+00  0.5546E+00
     -4.260  0.1868E+00  0.5718E+00
     -4.168  0.1899E+00  0.5892E+00
     -4.076  0.1897E+00  0.6067E+00
     -3.984  0.1881E+00  0.6240E+00
     -3.892  0.1882E+00  0.6413E+00
     -3.800  0.1904E+00  0.6588E+00
     -3.708  0.1917E+00  0.6764E+00
     -3.617  0.1963E+00  0.6944E+00
     -3.525  0.1977E+00  0.7126E+00
     -3.433  0.2004E+00  0.7310E+00
     -3.341  0.2005E+00  0.7494E+00
     -3.249  0.1980E+00  0.7676E+00
     -3.157  0.1985E+00  0.7859E+00
     -3.065  0.1951E+00  0.8038E+00
     -2.973  0.1914E+00  0.8214E+00
     -2.881  0.1941E+00  0.8392E+00
     -2.789  0.1922E+00  0.8569E+00
     -2.697  0.1820E+00  0.8736E+00
     -2.606  0.1829E+00  0.8904E+00
     -2.514  0.1898E+00  0.9079E+00
     -2.422  0.1999E+00  0.9263E+00
     -2.330  0.2041E+00  0.9450E+00
     -2.238  0.1911E+00  0.9626E+00
     -2.146  0.1859E+00  0.9797E+00
     -2.054  0.1822E+00  0.9964E+00
     -1.962  0.1728E+00  0.1012E+01
     -1.870  0.1809E+00  0.1029E+01
     -1.778  0.1883E+00  0.1046E+01
     -1.686  0.1730E+00  0.1062E+01
     -1.595  0.1493E+00  0.1076E+01
     -1.503  0.1315E+00  0.1088E+01
     -1.411  0.1213E+00  0.1099E+01
     -1.319  0.1039E+00  0.1109E+01
     -1.227  0.7802E-01  0.1116E+01
     -1.135  0.6023E-01  0.1121E+01
     -1.043  0.5280E-01  0.1126E+01
     -0.951  0.3958E-01  0.1130E+01
     -0.859  0.3804E-01  0.1133E+01
     -0.767  0.4089E-01  0.1137E+01
     -0.675  0.4225E-01  0.1141E+01
     -0.583  0.4223E-01  0.1145E+01
     -0.492  0.4093E-01  0.1149E+01
     -0.400  0.4300E-01  0.1153E+01
     -0.308  0.4437E-01  0.1157E+01
     -0.216  0.4129E-01  0.1160E+01
     -0.124  0.3539E-01  0.1164E+01
     -0.032  0.2454E-01  0.1166E+01
      0.060  0.2124E-01  0.1168E+01
      0.152  0.2306E-01  0.1170E+01
      0.244  0.2356E-01  0.1172E+01
      0.336  0.2594E-01  0.1175E+01
      0.428  0.3370E-01  0.1178E+01
      0.519  0.3869E-01  0.1181E+01
      0.611  0.3609E-01  0.1185E+01
      0.703  0.3738E-01  0.1188E+01
      0.795  0.3367E-01  0.1191E+01
      0.887  0.3324E-01  0.1194E+01
      0.979  0.2705E-01  0.1197E+01
      1.071  0.2125E-01  0.1199E+01
      1.163  0.2598E-01  0.1201E+01
      1.255  0.2979E-01  0.1204E+01
      1.347  0.3183E-01  0.1207E+01
      1.439  0.2725E-01  0.1209E+01
      1.530  0.2242E-01  0.1211E+01
      1.622  0.2416E-01  0.1213E+01
      1.714  0.3129E-01  0.1216E+01
      1.806  0.3781E-01  0.1220E+01
      1.898  0.3982E-01  0.1223E+01
      1.990  0.3515E-01  0.1227E+01
      2.082  0.3183E-01  0.1230E+01
      2.174  0.3093E-01  0.1232E+01
      2.266  0.3117E-01  0.1235E+01
      2.358  0.3281E-01  0.1238E+01
      2.450  0.3066E-01  0.1241E+01
      2.541  0.2540E-01  0.1243E+01
      2.633  0.3130E-01  0.1246E+01
      2.725  0.2969E-01  0.1249E+01
      2.817  0.2445E-01  0.1251E+01
      2.909  0.2471E-01  0.1254E+01
      3.001  0.2703E-01  0.1256E+01
      3.093  0.2930E-01  0.1259E+01
      3.185  0.3016E-01  0.1262E+01
      3.277  0.3813E-01  0.1265E+01
      3.369  0.3953E-01  0.1269E+01
      3.461  0.3268E-01  0.1272E+01
      3.553  0.2610E-01  0.1274E+01
      3.644  0.2808E-01  0.1277E+01
      3.736  0.3146E-01  0.1280E+01
      3.828  0.3654E-01  0.1283E+01
      3.920  0.3959E-01  0.1287E+01
      4.012  0.3615E-01  0.1290E+01
      4.104  0.3731E-01  0.1293E+01
      4.196  0.4211E-01  0.1297E+01
      4.288  0.3911E-01  0.1301E+01
      4.380  0.3957E-01  0.1304E+01
      4.472  0.4476E-01  0.1309E+01
      4.564  0.4497E-01  0.1313E+01
      4.655  0.4630E-01  0.1317E+01
      4.747  0.5062E-01  0.1322E+01
      4.839  0.5257E-01  0.1326E+01
      4.931  0.5274E-01  0.1331E+01
      5.023  0.5600E-01  0.1336E+01
      5.115  0.4891E-01  0.1341E+01
      5.207  0.2757E-01  0.1343E+01
      5.299  0.6096E-02  0.1344E+01
      5.391  0.3809E-03  0.1344E+01
      5.483  0.5712E-05  0.1344E+01
      5.575  0.1864E-07  0.1344E+01
      5.666  0.1247E-10  0.1344E+01
      5.758  0.1649E-14  0.1344E+01
      5.850  0.0000E+00  0.1344E+01
      5.942  0.0000E+00  0.1344E+01
      6.034  0.0000E+00  0.1344E+01
      6.126  0.0000E+00  0.1344E+01
      6.218  0.0000E+00  0.1344E+01
      6.310  0.0000E+00  0.1344E+01
      6.402  0.0000E+00  0.1344E+01
