unknown system                          
           1
    11.002582    0.000000    0.000000
     5.501291    9.528515    0.000000
     0.000000    0.000000   26.191785
   Au   O    Pd
  24   8  24
Direct configuration=     1
   0.08333333  0.08333333  0.38179910
   0.23443092  0.50190881  0.62056242
   0.49784088  0.75057908  0.56182564
   0.92052832  0.16245787  0.47584258
   0.02838119  0.95425471  0.61529861
   0.75700042  0.50333119  0.56959574
   0.92372567  0.41967015  0.47508879
   0.01727675  0.26587856  0.56418124
   0.83333333  0.58333333  0.38179910
   0.76287968  0.25577099  0.56663050
   0.83333333  0.33333333  0.38179910
   0.23562684  0.76011858  0.55800011
   0.92049589  0.91113783  0.47672316
   0.50234660  0.50279333  0.56643754
   0.33333333  0.08333333  0.38179910
   0.51417223  0.24716135  0.56738102
   0.25410863  0.00840160  0.56046205
   0.41291060  0.41766852  0.47592778
   0.33333333  0.33333333  0.38179910
   0.16478539  0.41749921  0.51628235
   0.58333333  0.33333333  0.38179910
   0.41293578  0.17062185  0.47764801
   0.75699179  0.75464545  0.55771013
   0.58333333  0.83333333  0.38179910
   0.10567749  0.08158608  0.61975866
   0.15840217  0.29505574  0.66810397
   0.40443058  0.29601451  0.63926432
   0.34036254  0.61206748  0.62082921
   0.93652266  0.83353876  0.61467591
   0.83112842  0.59726397  0.62422331
   0.81242013  0.10609046  0.62419033
   0.56976144  0.85553481  0.61199594
   0.58333333  0.08333333  0.38179910
   0.16923050  0.17197512  0.47136570
   0.33333333  0.58333333  0.38179910
   0.58333333  0.58333333  0.38179910
   0.41663812  0.66601260  0.47112821
   0.16732327  0.65865756  0.47016484
   0.16817966  0.91262871  0.47150129
   0.28846623  0.21788057  0.61068519
   0.41642913  0.91870842  0.47284882
   0.08333333  0.58333333  0.38179910
   0.66873757  0.41770558  0.47913067
   0.66870277  0.91696470  0.47187411
   0.83333333  0.83333333  0.38179910
   0.08333333  0.33333333  0.38179910
   0.66764865  0.66559067  0.47115026
   0.08333333  0.83333333  0.38179910
   0.33333333  0.83333333  0.38179910
   0.92354247  0.66152735  0.47139694
   0.02108862  0.45571207  0.63393777
   0.77019985  0.98735335  0.57451555
   0.66782173  0.16421032  0.47730721
   0.83333333  0.08333333  0.38179910
   0.03262475  0.67776155  0.56395955
   0.50194948  0.00935498  0.56336353
Direct configuration=     2
   0.08333333  0.08333333  0.38179910
   0.23409805  0.50175465  0.62056451
   0.49755437  0.75076732  0.56174405
   0.92070705  0.16245813  0.47584981
   0.02843060  0.95351957  0.61521985
   0.75741980  0.50335421  0.56963376
   0.92398554  0.41921663  0.47506442
   0.01700899  0.26651603  0.56424440
   0.83333333  0.58333333  0.38179910
   0.76280354  0.25548108  0.56676795
   0.83333333  0.33333333  0.38179910
   0.23562383  0.76030860  0.55796199
   0.92018055  0.91137797  0.47665210
   0.50229425  0.50270310  0.56639867
   0.33333333  0.08333333  0.38179910
   0.51439917  0.24714878  0.56743535
   0.25441275  0.00798886  0.56038140
   0.41255095  0.41820431  0.47592293
   0.33333333  0.33333333  0.38179910
   0.16463672  0.41778891  0.51625444
   0.58333333  0.33333333  0.38179910
   0.41303926  0.17045310  0.47758076
   0.75787680  0.75421301  0.55769152
   0.58333333  0.83333333  0.38179910
   0.10578461  0.08176413  0.61995759
   0.15809832  0.29548415  0.66771089
   0.40426513  0.29614190  0.63914148
   0.34067037  0.61155561  0.62085293
   0.93660204  0.83380357  0.61478927
   0.83141314  0.59718485  0.62396586
   0.81236778  0.10639863  0.62420635
   0.56969917  0.85568632  0.61196674
   0.58333333  0.08333333  0.38179910
   0.16895657  0.17200644  0.47132487
   0.33333333  0.58333333  0.38179910
   0.58333333  0.58333333  0.38179910
   0.41664626  0.66600072  0.47118376
   0.16749553  0.65832456  0.47013388
   0.16829900  0.91271444  0.47153957
   0.28789729  0.21822036  0.61082651
   0.41609503  0.91868578  0.47285419
   0.08333333  0.58333333  0.38179910
   0.66846763  0.41786788  0.47907086
   0.66864349  0.91707421  0.47189544
   0.83333333  0.83333333  0.38179910
   0.08333333  0.33333333  0.38179910
   0.66732757  0.66581869  0.47111825
   0.08333333  0.83333333  0.38179910
   0.33333333  0.83333333  0.38179910
   0.92348192  0.66166803  0.47136474
   0.02159502  0.45474838  0.63434674
   0.77024655  0.98748140  0.57441762
   0.66792228  0.16403873  0.47729111
   0.83333333  0.08333333  0.38179910
   0.03231592  0.67851044  0.56381693
   0.50235095  0.00893627  0.56324728
Direct configuration=     3
   0.08333333  0.08333333  0.38179910
   0.23393688  0.50168002  0.62056552
   0.49741565  0.75085846  0.56170454
   0.92079358  0.16245825  0.47585331
   0.02845453  0.95316364  0.61518172
   0.75762285  0.50336536  0.56965217
   0.92411135  0.41899705  0.47505262
   0.01687935  0.26682467  0.56427498
   0.83333333  0.58333333  0.38179910
   0.76276668  0.25534071  0.56683450
   0.83333333  0.33333333  0.38179910
   0.23562238  0.76040060  0.55794354
   0.92002788  0.91149423  0.47661770
   0.50226890  0.50265941  0.56637985
   0.33333333  0.08333333  0.38179910
   0.51450905  0.24714269  0.56746165
   0.25456000  0.00778903  0.56034236
   0.41237682  0.41846372  0.47592058
   0.33333333  0.33333333  0.38179910
   0.16456474  0.41792917  0.51624093
   0.58333333  0.33333333  0.38179910
   0.41308937  0.17037140  0.47754821
   0.75830529  0.75400364  0.55768251
   0.58333333  0.83333333  0.38179910
   0.10583648  0.08185034  0.62005390
   0.15795120  0.29569157  0.66752056
   0.40418502  0.29620359  0.63908201
   0.34081940  0.61130777  0.62086442
   0.93664047  0.83393179  0.61484416
   0.83155100  0.59714655  0.62384122
   0.81234244  0.10654783  0.62421411
   0.56966902  0.85575968  0.61195259
   0.58333333  0.08333333  0.38179910
   0.16882394  0.17202161  0.47130510
   0.33333333  0.58333333  0.38179910
   0.58333333  0.58333333  0.38179910
   0.41665020  0.66599497  0.47121065
   0.16757893  0.65816333  0.47011889
   0.16835679  0.91275595  0.47155811
   0.28762183  0.21838488  0.61089493
   0.41593327  0.91867481  0.47285678
   0.08333333  0.58333333  0.38179910
   0.66833693  0.41794646  0.47904190
   0.66861478  0.91712724  0.47190577
   0.83333333  0.83333333  0.38179910
   0.08333333  0.33333333  0.38179910
   0.66717211  0.66592909  0.47110275
   0.08333333  0.83333333  0.38179910
   0.33333333  0.83333333  0.38179910
   0.92345261  0.66173615  0.47134915
   0.02184020  0.45428179  0.63454475
   0.77026916  0.98754339  0.57437021
   0.66797097  0.16395565  0.47728331
   0.83333333  0.08333333  0.38179910
   0.03216639  0.67887303  0.56374789
   0.50254533  0.00873354  0.56319100
Direct configuration=     4
   0.08333333  0.08333333  0.38179910
   0.23329672  0.50179759  0.62050609
   0.49730077  0.75095109  0.56161642
   0.92092625  0.16249518  0.47589258
   0.02894796  0.95304127  0.61513925
   0.75794454  0.50336568  0.56965224
   0.92427688  0.41864134  0.47498596
   0.01676826  0.26732284  0.56440050
   0.83333333  0.58333333  0.38179910
   0.76265990  0.25527418  0.56695947
   0.83333333  0.33333333  0.38179910
   0.23571275  0.76045301  0.55791618
   0.91975779  0.91175084  0.47649905
   0.50227249  0.50257806  0.56633079
   0.33333333  0.08333333  0.38179910
   0.51474980  0.24700002  0.56751599
   0.25452066  0.00763852  0.56032937
   0.41201099  0.41892121  0.47592395
   0.33333333  0.33333333  0.38179910
   0.16435423  0.41834205  0.51618956
   0.58333333  0.33333333  0.38179910
   0.41316859  0.17025181  0.47746272
   0.75935574  0.75347218  0.55766570
   0.58333333  0.83333333  0.38179910
   0.10592148  0.08161631  0.62021103
   0.15835983  0.29503826  0.66748044
   0.40401225  0.29637682  0.63892887
   0.34121607  0.61048078  0.62085878
   0.93656460  0.83395385  0.61499536
   0.83243090  0.59680206  0.62349134
   0.81233353  0.10682962  0.62427635
   0.56959718  0.85589220  0.61188740
   0.58333333  0.08333333  0.38179910
   0.16860342  0.17200195  0.47126892
   0.33333333  0.58333333  0.38179910
   0.58333333  0.58333333  0.38179910
   0.41662403  0.66602378  0.47127981
   0.16763990  0.65791932  0.47007109
   0.16839757  0.91286169  0.47158469
   0.28750120  0.21824212  0.61081301
   0.41551975  0.91869640  0.47282469
   0.08333333  0.58333333  0.38179910
   0.66805927  0.41808028  0.47900191
   0.66849854  0.91721429  0.47194151
   0.83333333  0.83333333  0.38179910
   0.08333333  0.33333333  0.38179910
   0.66683719  0.66617811  0.47106734
   0.08333333  0.83333333  0.38179910
   0.33333333  0.83333333  0.38179910
   0.92336809  0.66181554  0.47125957
   0.02072429  0.45470293  0.63489314
   0.77034532  0.98774275  0.57423687
   0.66801102  0.16387614  0.47726680
   0.83333333  0.08333333  0.38179910
   0.03195736  0.67999420  0.56354786
   0.50302530  0.00830262  0.56302125
Direct configuration=     5
   0.08333333  0.08333333  0.38179910
   0.23266824  0.50191303  0.62044776
   0.49718799  0.75104202  0.56152992
   0.92105650  0.16253144  0.47593112
   0.02943239  0.95292114  0.61509754
   0.75826036  0.50336599  0.56965230
   0.92443938  0.41829213  0.47492051
   0.01665920  0.26781191  0.56452373
   0.83333333  0.58333333  0.38179910
   0.76255507  0.25520885  0.56708215
   0.83333333  0.33333333  0.38179910
   0.23580148  0.76050447  0.55788932
   0.91949263  0.91200277  0.47638257
   0.50227602  0.50249820  0.56628263
   0.33333333  0.08333333  0.38179910
   0.51498617  0.24685996  0.56756934
   0.25448204  0.00749077  0.56031661
   0.41165184  0.41937036  0.47592726
   0.33333333  0.33333333  0.38179910
   0.16414757  0.41874740  0.51613913
   0.58333333  0.33333333  0.38179910
   0.41324638  0.17013440  0.47737880
   0.76038702  0.75295042  0.55764919
   0.58333333  0.83333333  0.38179910
   0.10600493  0.08138655  0.62036528
   0.15876100  0.29439688  0.66744104
   0.40384262  0.29654689  0.63877853
   0.34160551  0.60966887  0.62085325
   0.93649011  0.83397550  0.61514380
   0.83329475  0.59646385  0.62314786
   0.81232478  0.10710627  0.62433747
   0.56952665  0.85602230  0.61182340
   0.58333333  0.08333333  0.38179910
   0.16838692  0.17198265  0.47123341
   0.33333333  0.58333333  0.38179910
   0.58333333  0.58333333  0.38179910
   0.41659834  0.66605207  0.47134770
   0.16769976  0.65767976  0.47002417
   0.16843761  0.91296551  0.47161079
   0.28738278  0.21810197  0.61073257
   0.41511377  0.91871760  0.47279319
   0.08333333  0.58333333  0.38179910
   0.66778668  0.41821165  0.47896265
   0.66838443  0.91729976  0.47197660
   0.83333333  0.83333333  0.38179910
   0.08333333  0.33333333  0.38179910
   0.66650838  0.66642260  0.47103258
   0.08333333  0.83333333  0.38179910
   0.33333333  0.83333333  0.38179910
   0.92328512  0.66189348  0.47117163
   0.01962874  0.45511640  0.63523518
   0.77042010  0.98793847  0.57410597
   0.66805033  0.16379809  0.47725058
   0.83333333  0.08333333  0.38179910
   0.03175213  0.68109492  0.56335149
   0.50349652  0.00787955  0.56285459
Direct configuration=     6
   0.08333333  0.08333333  0.38179910
   0.23182169  0.50222087  0.62034514
   0.49735454  0.75099966  0.56147636
   0.92103792  0.16261054  0.47600110
   0.02958983  0.95300029  0.61512979
   0.75823114  0.50327211  0.56954530
   0.92438137  0.41825835  0.47484336
   0.01682126  0.26799272  0.56466912
   0.83333333  0.58333333  0.38179910
   0.76248661  0.25544227  0.56714104
   0.83333333  0.33333333  0.38179910
   0.23602207  0.76033538  0.55788672
   0.91940560  0.91214861  0.47625471
   0.50237022  0.50243934  0.56624448
   0.33333333  0.08333333  0.38179910
   0.51511800  0.24664689  0.56759858
   0.25417843  0.00768884  0.56037399
   0.41149963  0.41943694  0.47593931
   0.33333333  0.33333333  0.38179910
   0.16394814  0.41911642  0.51608621
   0.58333333  0.33333333  0.38179910
   0.41322707  0.17016004  0.47731282
   0.76101471  0.75264629  0.55761070
   0.58333333  0.83333333  0.38179910
   0.10626671  0.08111522  0.62043749
   0.15898055  0.29387700  0.66747978
   0.40359476  0.29671081  0.63861884
   0.34193275  0.60882674  0.62080935
   0.93641813  0.83403084  0.61525264
   0.83341240  0.59691120  0.62284259
   0.81245287  0.10715300  0.62440041
   0.56951471  0.85602276  0.61173765
   0.58333333  0.08333333  0.38179910
   0.16833825  0.17192901  0.47123145
   0.33333333  0.58333333  0.38179910
   0.58333333  0.58333333  0.38179910
   0.41652588  0.66611887  0.47139126
   0.16757684  0.65771897  0.46997316
   0.16833941  0.91302575  0.47160819
   0.28754365  0.21777600  0.61054884
   0.41480498  0.91878995  0.47273839
   0.08333333  0.58333333  0.38179910
   0.66762274  0.41824450  0.47895663
   0.66828012  0.91729367  0.47201317
   0.83333333  0.83333333  0.38179910
   0.08333333  0.33333333  0.38179910
   0.66634068  0.66656803  0.47101555
   0.08333333  0.83333333  0.38179910
   0.33333333  0.83333333  0.38179910
   0.92320543  0.66186439  0.47104916
   0.01953756  0.45463821  0.63567213
   0.77065525  0.98809659  0.57402781
   0.66798014  0.16388997  0.47724531
   0.83333333  0.08333333  0.38179910
   0.03180650  0.68222735  0.56316160
   0.50385062  0.00759677  0.56267713
Direct configuration=     7
   0.08333333  0.08333333  0.38179910
   0.22928207  0.50314440  0.62003729
   0.49785418  0.75087260  0.56131569
   0.92098218  0.16284784  0.47621103
   0.03006214  0.95323774  0.61522652
   0.75814348  0.50299049  0.56922430
   0.92420734  0.41815704  0.47461193
   0.01730742  0.26853514  0.56510529
   0.83333333  0.58333333  0.38179910
   0.76228122  0.25614251  0.56731772
   0.83333333  0.33333333  0.38179910
   0.23668383  0.75982813  0.55787893
   0.91914448  0.91258616  0.47587111
   0.50265281  0.50226276  0.56613005
   0.33333333  0.08333333  0.38179910
   0.51551351  0.24600768  0.56768630
   0.25326761  0.00828306  0.56054614
   0.41104297  0.41963668  0.47597546
   0.33333333  0.33333333  0.38179910
   0.16334987  0.42022345  0.51592745
   0.58333333  0.33333333  0.38179910
   0.41316915  0.17023694  0.47711490
   0.76289781  0.75173388  0.55749522
   0.58333333  0.83333333  0.38179910
   0.10705206  0.08030120  0.62065412
   0.15963919  0.29231735  0.66759599
   0.40285118  0.29720259  0.63813977
   0.34291449  0.60630032  0.62067764
   0.93620220  0.83419685  0.61557918
   0.83376536  0.59825324  0.62192678
   0.81283714  0.10729319  0.62458924
   0.56947887  0.85602415  0.61148038
   0.58333333  0.08333333  0.38179910
   0.16819222  0.17176809  0.47122554
   0.33333333  0.58333333  0.38179910
   0.58333333  0.58333333  0.38179910
   0.41630852  0.66631926  0.47152195
   0.16720808  0.65783660  0.46982014
   0.16804480  0.91320647  0.47160040
   0.28802625  0.21679809  0.60999763
   0.41387861  0.91900700  0.47257400
   0.08333333  0.58333333  0.38179910
   0.66713092  0.41834304  0.47893856
   0.66796718  0.91727543  0.47212288
   0.83333333  0.83333333  0.38179910
   0.08333333  0.33333333  0.38179910
   0.66583758  0.66700433  0.47096445
   0.08333333  0.83333333  0.38179910
   0.33333333  0.83333333  0.38179910
   0.92296635  0.66177711  0.47068177
   0.01926401  0.45320366  0.63698297
   0.77136072  0.98857098  0.57379335
   0.66776957  0.16416562  0.47722951
   0.83333333  0.08333333  0.38179910
   0.03196959  0.68562466  0.56259194
   0.50491295  0.00674844  0.56214475
Direct configuration=     8
   0.08333333  0.08333333  0.38179910
   0.22420282  0.50499145  0.61942159
   0.49885346  0.75061847  0.56099436
   0.92087069  0.16332245  0.47663089
   0.03100677  0.95371265  0.61541998
   0.75796816  0.50242724  0.56858229
   0.92385927  0.41795440  0.47414905
   0.01827974  0.26961999  0.56597762
   0.83333333  0.58333333  0.38179910
   0.76187043  0.25754300  0.56767107
   0.83333333  0.33333333  0.38179910
   0.23800735  0.75881362  0.55786336
   0.91862225  0.91346125  0.47510393
   0.50321799  0.50190959  0.56590118
   0.33333333  0.08333333  0.38179910
   0.51630451  0.24472926  0.56786175
   0.25144598  0.00947150  0.56089043
   0.41012967  0.42003615  0.47604775
   0.33333333  0.33333333  0.38179910
   0.16215332  0.42243753  0.51560994
   0.58333333  0.33333333  0.38179910
   0.41305332  0.17039073  0.47671906
   0.76666399  0.74990907  0.55726428
   0.58333333  0.83333333  0.38179910
   0.10862276  0.07867317  0.62108737
   0.16095647  0.28919806  0.66782841
   0.40136401  0.29818614  0.63718164
   0.34487798  0.60124749  0.62041424
   0.93577033  0.83452888  0.61623224
   0.83447128  0.60093732  0.62009516
   0.81360568  0.10757356  0.62496690
   0.56940720  0.85602693  0.61096584
   0.58333333  0.08333333  0.38179910
   0.16790018  0.17144624  0.47121374
   0.33333333  0.58333333  0.38179910
   0.58333333  0.58333333  0.38179910
   0.41587380  0.66672004  0.47178331
   0.16647055  0.65807187  0.46951410
   0.16745559  0.91356791  0.47158481
   0.28899146  0.21484227  0.60889522
   0.41202587  0.91944109  0.47224521
   0.08333333  0.58333333  0.38179910
   0.66614727  0.41854011  0.47890244
   0.66734131  0.91723894  0.47234231
   0.83333333  0.83333333  0.38179910
   0.08333333  0.33333333  0.38179910
   0.66483138  0.66787694  0.47086227
   0.08333333  0.83333333  0.38179910
   0.33333333  0.83333333  0.38179910
   0.92248820  0.66160254  0.46994699
   0.01871692  0.45033456  0.63960466
   0.77277166  0.98951975  0.57332442
   0.66734843  0.16471692  0.47719791
   0.83333333  0.08333333  0.38179910
   0.03229578  0.69241926  0.56145261
   0.50703761  0.00505177  0.56107999
Direct configuration=     9
   0.08333333  0.08333333  0.38179910
   0.22784951  0.50366534  0.61986364
   0.49813602  0.75080093  0.56122506
   0.92095073  0.16298170  0.47632945
   0.03032857  0.95337169  0.61528108
   0.75809404  0.50283163  0.56904323
   0.92410917  0.41809988  0.47448138
   0.01758165  0.26884112  0.56535132
   0.83333333  0.58333333  0.38179910
   0.76216536  0.25653750  0.56741738
   0.83333333  0.33333333  0.38179910
   0.23705712  0.75954200  0.55787454
   0.91899719  0.91283297  0.47565473
   0.50281222  0.50216315  0.56606550
   0.33333333  0.08333333  0.38179910
   0.51573660  0.24564711  0.56773578
   0.25275384  0.00861825  0.56064324
   0.41078539  0.41974934  0.47599585
   0.33333333  0.33333333  0.38179910
   0.16301239  0.42084791  0.51583790
   0.58333333  0.33333333  0.38179910
   0.41313648  0.17028031  0.47700326
   0.76396002  0.75121921  0.55743009
   0.58333333  0.83333333  0.38179910
   0.10749506  0.07984203  0.62077632
   0.16001072  0.29143758  0.66766154
   0.40243173  0.29747999  0.63786954
   0.34346828  0.60487521  0.62060335
   0.93608039  0.83429050  0.61576337
   0.83396446  0.59901026  0.62141018
   0.81305390  0.10737227  0.62469575
   0.56945866  0.85602494  0.61133526
   0.58333333  0.08333333  0.38179910
   0.16810986  0.17167731  0.47122222
   0.33333333  0.58333333  0.38179910
   0.58333333  0.58333333  0.38179910
   0.41618591  0.66643229  0.47159566
   0.16700006  0.65790296  0.46973382
   0.16787862  0.91330841  0.47159600
   0.28829848  0.21624647  0.60968671
   0.41335606  0.91912943  0.47248126
   0.08333333  0.58333333  0.38179910
   0.66685349  0.41839862  0.47892838
   0.66779066  0.91726514  0.47218477
   0.83333333  0.83333333  0.38179910
   0.08333333  0.33333333  0.38179910
   0.66555379  0.66725044  0.47093563
   0.08333333  0.83333333  0.38179910
   0.33333333  0.83333333  0.38179910
   0.92283149  0.66172787  0.47047453
   0.01910971  0.45239446  0.63772239
   0.77175867  0.98883857  0.57366109
   0.66765079  0.16432111  0.47722060
   0.83333333  0.08333333  0.38179910
   0.03206159  0.68754101  0.56227060
   0.50551219  0.00626991  0.56184444
Direct configuration=    10
   0.08333333  0.08333333  0.38179910
   0.22676930  0.50393634  0.61973221
   0.49835264  0.75084155  0.56119314
   0.92078919  0.16313855  0.47644656
   0.03005573  0.95312615  0.61540089
   0.75803510  0.50283545  0.56887825
   0.92391599  0.41821370  0.47443502
   0.01779747  0.26914623  0.56548604
   0.83333333  0.58333333  0.38179910
   0.76223037  0.25673551  0.56749499
   0.83333333  0.33333333  0.38179910
   0.23752488  0.75930509  0.55792657
   0.91894656  0.91289579  0.47550232
   0.50293144  0.50201821  0.56603459
   0.33333333  0.08333333  0.38179910
   0.51584387  0.24544069  0.56774059
   0.25269012  0.00871462  0.56066716
   0.41074272  0.41959182  0.47601478
   0.33333333  0.33333333  0.38179910
   0.16275439  0.42123259  0.51577569
   0.58333333  0.33333333  0.38179910
   0.41298194  0.17042651  0.47694128
   0.76435037  0.75107589  0.55736723
   0.58333333  0.83333333  0.38179910
   0.10796782  0.07974114  0.62089749
   0.16091063  0.29019154  0.66773717
   0.40177512  0.29785652  0.63763628
   0.34369604  0.60385611  0.62049584
   0.93607542  0.83458968  0.61585240
   0.83448850  0.59930006  0.62112450
   0.81330282  0.10734118  0.62471524
   0.56945843  0.85597491  0.61119155
   0.58333333  0.08333333  0.38179910
   0.16810371  0.17173326  0.47127413
   0.33333333  0.58333333  0.38179910
   0.58333333  0.58333333  0.38179910
   0.41605940  0.66649980  0.47159680
   0.16681923  0.65814431  0.46966243
   0.16765752  0.91333555  0.47158645
   0.28837792  0.21603970  0.60955655
   0.41313779  0.91923299  0.47244574
   0.08333333  0.58333333  0.38179910
   0.66676910  0.41839434  0.47890317
   0.66775826  0.91717974  0.47221439
   0.83333333  0.83333333  0.38179910
   0.08333333  0.33333333  0.38179910
   0.66551775  0.66728168  0.47092222
   0.08333333  0.83333333  0.38179910
   0.33333333  0.83333333  0.38179910
   0.92278237  0.66167234  0.47033201
   0.01850129  0.45217445  0.63810550
   0.77219399  0.98895496  0.57361856
   0.66750612  0.16449758  0.47723666
   0.83333333  0.08333333  0.38179910
   0.03213150  0.68909028  0.56196134
   0.50575947  0.00595731  0.56164762
Direct configuration=    11
   0.08333333  0.08333333  0.38179910
   0.22501382  0.50437674  0.61951864
   0.49870468  0.75090758  0.56114126
   0.92052666  0.16339343  0.47663689
   0.02961232  0.95272711  0.61559560
   0.75793933  0.50284165  0.56861015
   0.92360205  0.41839866  0.47435970
   0.01814820  0.26964208  0.56570498
   0.83333333  0.58333333  0.38179910
   0.76233602  0.25705730  0.56762113
   0.83333333  0.33333333  0.38179910
   0.23828506  0.75892010  0.55801113
   0.91886429  0.91299788  0.47525462
   0.50312518  0.50178267  0.56598437
   0.33333333  0.08333333  0.38179910
   0.51601820  0.24510524  0.56774839
   0.25258657  0.00887123  0.56070604
   0.41067339  0.41933583  0.47604554
   0.33333333  0.33333333  0.38179910
   0.16233510  0.42185773  0.51567459
   0.58333333  0.33333333  0.38179910
   0.41273080  0.17066409  0.47684055
   0.76498474  0.75084297  0.55726507
   0.58333333  0.83333333  0.38179910
   0.10873612  0.07957717  0.62109440
   0.16237310  0.28816658  0.66786009
   0.40070804  0.29846843  0.63725720
   0.34406619  0.60219995  0.62032112
   0.93606733  0.83507589  0.61599710
   0.83534013  0.59977101  0.62066022
   0.81370734  0.10729067  0.62474690
   0.56945807  0.85589361  0.61095802
   0.58333333  0.08333333  0.38179910
   0.16809373  0.17182417  0.47135849
   0.33333333  0.58333333  0.38179910
   0.58333333  0.58333333  0.38179910
   0.41585381  0.66660952  0.47159866
   0.16652535  0.65853653  0.46954641
   0.16729822  0.91337966  0.47157092
   0.28850702  0.21570366  0.60934502
   0.41278308  0.91940129  0.47238800
   0.08333333  0.58333333  0.38179910
   0.66663196  0.41838739  0.47886222
   0.66770560  0.91704095  0.47226253
   0.83333333  0.83333333  0.38179910
   0.08333333  0.33333333  0.38179910
   0.66545917  0.66733244  0.47090043
   0.08333333  0.83333333  0.38179910
   0.33333333  0.83333333  0.38179910
   0.92270253  0.66158208  0.47010038
   0.01751255  0.45181692  0.63872809
   0.77290144  0.98914411  0.57354943
   0.66727102  0.16478435  0.47726277
   0.83333333  0.08333333  0.38179910
   0.03224511  0.69160801  0.56145875
   0.50616133  0.00544931  0.56132777
Direct configuration=    12
   0.08333333  0.08333333  0.38179910
   0.22407706  0.50447310  0.61939278
   0.49875179  0.75094819  0.56113771
   0.92032697  0.16353300  0.47674135
   0.02989263  0.95282809  0.61578214
   0.75796395  0.50309598  0.56848261
   0.92342000  0.41854745  0.47440280
   0.01832726  0.26997384  0.56574230
   0.83333333  0.58333333  0.38179910
   0.76258260  0.25702018  0.56769653
   0.83333333  0.33333333  0.38179910
   0.23883074  0.75888532  0.55813414
   0.91876865  0.91297526  0.47515727
   0.50326685  0.50155408  0.56596219
   0.33333333  0.08333333  0.38179910
   0.51607998  0.24501012  0.56770850
   0.25288567  0.00867278  0.56066555
   0.41069422  0.41916757  0.47605441
   0.33333333  0.33333333  0.38179910
   0.16210213  0.42207570  0.51563465
   0.58333333  0.33333333  0.38179910
   0.41250469  0.17082674  0.47682458
   0.76496153  0.75101925  0.55719442
   0.58333333  0.83333333  0.38179910
   0.10891993  0.07927861  0.62118261
   0.16300803  0.28737077  0.66780896
   0.39980668  0.29902612  0.63706107
   0.34389355  0.60154245  0.62018597
   0.93594851  0.83514135  0.61605086
   0.83595071  0.59973311  0.62058338
   0.81386611  0.10732298  0.62472943
   0.56953815  0.85578799  0.61086821
   0.58333333  0.08333333  0.38179910
   0.16802327  0.17207199  0.47146121
   0.33333333  0.58333333  0.38179910
   0.58333333  0.58333333  0.38179910
   0.41575678  0.66659117  0.47153600
   0.16657128  0.65877956  0.46948166
   0.16708173  0.91339658  0.47158842
   0.28828106  0.21580360  0.60939356
   0.41285319  0.91944822  0.47240004
   0.08333333  0.58333333  0.38179910
   0.66668555  0.41837407  0.47880322
   0.66780236  0.91695857  0.47223996
   0.83333333  0.83333333  0.38179910
   0.08333333  0.33333333  0.38179910
   0.66557762  0.66718956  0.47088863
   0.08333333  0.83333333  0.38179910
   0.33333333  0.83333333  0.38179910
   0.92274846  0.66155570  0.47003395
   0.01763761  0.45098656  0.63891346
   0.77310988  0.98920268  0.57350294
   0.66717403  0.16485047  0.47731037
   0.83333333  0.08333333  0.38179910
   0.03214295  0.69289120  0.56112430
   0.50604692  0.00543229  0.56121028
Direct configuration=    13
   0.08333333  0.08333333  0.38179910
   0.22228435  0.50465750  0.61915192
   0.49884194  0.75102590  0.56113093
   0.91994481  0.16380010  0.47694125
   0.03042908  0.95302134  0.61613912
   0.75801105  0.50358272  0.56823853
   0.92307161  0.41883220  0.47448529
   0.01866992  0.27060875  0.56581372
   0.83333333  0.58333333  0.38179910
   0.76305448  0.25694915  0.56784082
   0.83333333  0.33333333  0.38179910
   0.23987505  0.75881877  0.55836955
   0.91858562  0.91293196  0.47497097
   0.50353798  0.50111663  0.56591975
   0.33333333  0.08333333  0.38179910
   0.51619822  0.24482807  0.56763217
   0.25345807  0.00829300  0.56058806
   0.41073408  0.41884556  0.47607139
   0.33333333  0.33333333  0.38179910
   0.16165628  0.42249285  0.51555823
   0.58333333  0.33333333  0.38179910
   0.41207198  0.17113802  0.47679401
   0.76491712  0.75135660  0.55705921
   0.58333333  0.83333333  0.38179910
   0.10927171  0.07870724  0.62135142
   0.16422314  0.28584778  0.66771112
   0.39808169  0.30009339  0.63668572
   0.34356314  0.60028415  0.61992733
   0.93572111  0.83526661  0.61615374
   0.83711921  0.59966057  0.62043633
   0.81416995  0.10738480  0.62469600
   0.56969139  0.85558586  0.61069634
   0.58333333  0.08333333  0.38179910
   0.16788842  0.17254627  0.47165781
   0.33333333  0.58333333  0.38179910
   0.58333333  0.58333333  0.38179910
   0.41557110  0.66655607  0.47141608
   0.16665918  0.65924466  0.46935775
   0.16666742  0.91342898  0.47162190
   0.28784864  0.21599486  0.60948647
   0.41298737  0.91953804  0.47242306
   0.08333333  0.58333333  0.38179910
   0.66678809  0.41834856  0.47869032
   0.66798753  0.91680092  0.47219677
   0.83333333  0.83333333  0.38179910
   0.08333333  0.33333333  0.38179910
   0.66580432  0.66691611  0.47086605
   0.08333333  0.83333333  0.38179910
   0.33333333  0.83333333  0.38179910
   0.92283635  0.66150521  0.46990680
   0.01787696  0.44939746  0.63926820
   0.77350880  0.98931475  0.57341396
   0.66698841  0.16497700  0.47740144
   0.83333333  0.08333333  0.38179910
   0.03194743  0.69534692  0.56048424
   0.50582796  0.00539972  0.56098545
Direct configuration=    14
   0.08333333  0.08333333  0.38179910
   0.22151080  0.50473707  0.61904799
   0.49888084  0.75105943  0.56112801
   0.91977991  0.16391536  0.47702751
   0.03066056  0.95310473  0.61629316
   0.75803137  0.50379274  0.56813321
   0.92292128  0.41895506  0.47452088
   0.01881779  0.27088271  0.56584454
   0.83333333  0.58333333  0.38179910
   0.76325810  0.25691850  0.56790309
   0.83333333  0.33333333  0.38179910
   0.24032566  0.75879005  0.55847113
   0.91850665  0.91291328  0.47489058
   0.50365497  0.50092787  0.56590144
   0.33333333  0.08333333  0.38179910
   0.51624924  0.24474952  0.56759923
   0.25370506  0.00812912  0.56055462
   0.41075128  0.41870661  0.47607871
   0.33333333  0.33333333  0.38179910
   0.16146389  0.42267285  0.51552526
   0.58333333  0.33333333  0.38179910
   0.41188526  0.17127233  0.47678083
   0.76489796  0.75150217  0.55700086
   0.58333333  0.83333333  0.38179910
   0.10942350  0.07846069  0.62142426
   0.16474746  0.28519061  0.66766890
   0.39733736  0.30055392  0.63652375
   0.34342058  0.59974120  0.61981573
   0.93562298  0.83532066  0.61619813
   0.83762341  0.59962928  0.62037287
   0.81430106  0.10741148  0.62468158
   0.56975751  0.85549865  0.61062218
   0.58333333  0.08333333  0.38179910
   0.16783023  0.17275092  0.47174264
   0.33333333  0.58333333  0.38179910
   0.58333333  0.58333333  0.38179910
   0.41549098  0.66654092  0.47136433
   0.16669711  0.65944535  0.46930428
   0.16648865  0.91344296  0.47163635
   0.28766205  0.21607739  0.60952656
   0.41304527  0.91957679  0.47243300
   0.08333333  0.58333333  0.38179910
   0.66683234  0.41833756  0.47864161
   0.66806743  0.91673290  0.47217813
   0.83333333  0.83333333  0.38179910