  48  48   0   0
  0.5349325E+02  0.1100258E-08  0.1100258E-08  0.2449179E-08  0.3500000E-15
  1.000000000000000E-004
  CAR 
 unknown system                          
      6.34097020     -9.62541582  301     -1.06921584      1.00000000
     -9.625  0.0000E+00  0.0000E+00
     -9.572  0.0000E+00  0.0000E+00
     -9.519  0.0000E+00  0.0000E+00
     -9.466  0.0000E+00  0.0000E+00
     -9.413  0.0000E+00  0.0000E+00
     -9.359  0.0000E+00  0.0000E+00
     -9.306  0.0000E+00  0.0000E+00
     -9.253  0.0000E+00  0.0000E+00
     -9.200  0.4867E-17  0.2591E-18
     -9.146  0.2083E-14  0.1111E-15
     -9.093  0.4613E-12  0.2466E-13
     -9.040  0.5865E-10  0.3146E-11
     -8.987  0.4287E-08  0.2313E-09
     -8.934  0.1805E-06  0.9840E-08
     -8.880  0.4389E-05  0.2434E-06
     -8.827  0.6172E-04  0.3528E-05
     -8.774  0.5033E-03  0.3031E-04
     -8.721  0.2385E-02  0.1573E-03
     -8.667  0.6589E-02  0.5079E-03
     -8.614  0.1069E-01  0.1077E-02
     -8.561  0.1069E-01  0.1646E-02
     -8.508  0.8552E-02  0.2101E-02
     -8.455  0.9281E-02  0.2595E-02
     -8.401  0.1111E-01  0.3186E-02
     -8.348  0.9148E-02  0.3673E-02
     -8.295  0.4562E-02  0.3916E-02
     -8.242  0.1495E-02  0.3996E-02
     -8.188  0.1221E-02  0.4061E-02
     -8.135  0.3812E-02  0.4263E-02
     -8.082  0.9292E-02  0.4758E-02
     -8.029  0.1548E-01  0.5582E-02
     -7.976  0.1829E-01  0.6555E-02
     -7.922  0.1541E-01  0.7375E-02
     -7.869  0.1014E-01  0.7915E-02
     -7.816  0.9096E-02  0.8399E-02
     -7.763  0.1403E-01  0.9146E-02
     -7.709  0.1963E-01  0.1019E-01
     -7.656  0.2047E-01  0.1128E-01
     -7.603  0.1662E-01  0.1216E-01
     -7.550  0.1294E-01  0.1285E-01
     -7.497  0.1331E-01  0.1356E-01
     -7.443  0.1590E-01  0.1441E-01
     -7.390  0.1821E-01  0.1538E-01
     -7.337  0.2120E-01  0.1650E-01
     -7.284  0.2503E-01  0.1784E-01
     -7.230  0.2805E-01  0.1933E-01
     -7.177  0.3110E-01  0.2098E-01
     -7.124  0.3606E-01  0.2290E-01
     -7.071  0.4021E-01  0.2504E-01
     -7.018  0.4065E-01  0.2721E-01
     -6.964  0.4082E-01  0.2938E-01
     -6.911  0.4477E-01  0.3176E-01
     -6.858  0.5191E-01  0.3453E-01
     -6.805  0.6098E-01  0.3777E-01
     -6.751  0.7138E-01  0.4157E-01
     -6.698  0.8071E-01  0.4587E-01
     -6.645  0.8700E-01  0.5050E-01
     -6.592  0.9114E-01  0.5535E-01
     -6.539  0.9437E-01  0.6037E-01
     -6.485  0.9852E-01  0.6561E-01
     -6.432  0.1054E+00  0.7122E-01
     -6.379  0.1137E+00  0.7728E-01
     -6.326  0.1215E+00  0.8375E-01
     -6.272  0.1287E+00  0.9059E-01
     -6.219  0.1380E+00  0.9794E-01
     -6.166  0.1499E+00  0.1059E+00
     -6.113  0.1563E+00  0.1142E+00
     -6.060  0.1514E+00  0.1223E+00
     -6.006  0.1443E+00  0.1300E+00
     -5.953  0.1475E+00  0.1378E+00
     -5.900  0.1576E+00  0.1462E+00
     -5.847  0.1634E+00  0.1549E+00
     -5.793  0.1612E+00  0.1635E+00
     -5.740  0.1538E+00  0.1717E+00
     -5.687  0.1444E+00  0.1794E+00
     -5.634  0.1352E+00  0.1865E+00
     -5.581  0.1281E+00  0.1934E+00
     -5.527  0.1276E+00  0.2002E+00
     -5.474  0.1389E+00  0.2075E+00
     -5.421  0.1579E+00  0.2159E+00
     -5.368  0.1714E+00  0.2251E+00
     -5.314  0.1728E+00  0.2343E+00
     -5.261  0.1673E+00  0.2432E+00
     -5.208  0.1634E+00  0.2519E+00
     -5.155  0.1640E+00  0.2606E+00
     -5.102  0.1667E+00  0.2695E+00
     -5.048  0.1686E+00  0.2784E+00
     -4.995  0.1686E+00  0.2874E+00
     -4.942  0.1687E+00  0.2964E+00
     -4.889  0.1723E+00  0.3056E+00
     -4.836  0.1808E+00  0.3152E+00
     -4.782  0.1901E+00  0.3253E+00
     -4.729  0.1924E+00  0.3355E+00
     -4.676  0.1869E+00  0.3455E+00
     -4.623  0.1807E+00  0.3551E+00
     -4.569  0.1777E+00  0.3646E+00
     -4.516  0.1776E+00  0.3740E+00
     -4.463  0.1793E+00  0.3836E+00
     -4.410  0.1811E+00  0.3932E+00
     -4.357  0.1817E+00  0.4029E+00
     -4.303  0.1807E+00  0.4125E+00
     -4.250  0.1803E+00  0.4221E+00
     -4.197  0.1834E+00  0.4318E+00
     -4.144  0.1874E+00  0.4418E+00
     -4.090  0.1893E+00  0.4519E+00
     -4.037  0.1904E+00  0.4620E+00
     -3.984  0.1915E+00  0.4722E+00
     -3.931  0.1927E+00  0.4825E+00
     -3.878  0.1943E+00  0.4928E+00
     -3.824  0.1965E+00  0.5033E+00
     -3.771  0.1993E+00  0.5139E+00
     -3.718  0.1999E+00  0.5245E+00
     -3.665  0.1986E+00  0.5351E+00
     -3.611  0.2011E+00  0.5458E+00
     -3.558  0.2080E+00  0.5569E+00
     -3.505  0.2139E+00  0.5683E+00
     -3.452  0.2153E+00  0.5797E+00
     -3.399  0.2123E+00  0.5910E+00
     -3.345  0.2077E+00  0.6021E+00
     -3.292  0.2034E+00  0.6129E+00
     -3.239  0.1967E+00  0.6234E+00
     -3.186  0.1887E+00  0.6334E+00
     -3.132  0.1868E+00  0.6434E+00
     -3.079  0.1902E+00  0.6535E+00
     -3.026  0.1904E+00  0.6636E+00
     -2.973  0.1854E+00  0.6735E+00
     -2.920  0.1787E+00  0.6830E+00
     -2.866  0.1715E+00  0.6921E+00
     -2.813  0.1674E+00  0.7010E+00
     -2.760  0.1688E+00  0.7100E+00
     -2.707  0.1712E+00  0.7191E+00
     -2.653  0.1707E+00  0.7282E+00
     -2.600  0.1695E+00  0.7372E+00
     -2.547  0.1704E+00  0.7463E+00
     -2.494  0.1735E+00  0.7555E+00
     -2.441  0.1767E+00  0.7649E+00
     -2.387  0.1774E+00  0.7744E+00
     -2.334  0.1789E+00  0.7839E+00
     -2.281  0.1842E+00  0.7937E+00
     -2.228  0.1857E+00  0.8036E+00
     -2.174  0.1782E+00  0.8131E+00
     -2.121  0.1716E+00  0.8222E+00
     -2.068  0.1763E+00  0.8316E+00
     -2.015  0.1871E+00  0.8415E+00
     -1.962  0.1919E+00  0.8517E+00
     -1.908  0.1887E+00  0.8618E+00
     -1.855  0.1845E+00  0.8716E+00
     -1.802  0.1855E+00  0.8815E+00
     -1.749  0.1905E+00  0.8916E+00
     -1.695  0.1941E+00  0.9020E+00
     -1.642  0.1927E+00  0.9122E+00
     -1.589  0.1878E+00  0.9222E+00
     -1.536  0.1852E+00  0.9321E+00
     -1.483  0.1878E+00  0.9421E+00
     -1.429  0.1914E+00  0.9522E+00
     -1.376  0.1905E+00  0.9624E+00
     -1.323  0.1837E+00  0.9722E+00
     -1.270  0.1714E+00  0.9813E+00
     -1.216  0.1560E+00  0.9896E+00
     -1.163  0.1405E+00  0.9971E+00
     -1.110  0.1239E+00  0.1004E+01
     -1.057  0.1037E+00  0.1009E+01
     -1.004  0.8152E-01  0.1014E+01
     -0.950  0.6137E-01  0.1017E+01
     -0.897  0.4415E-01  0.1019E+01
     -0.844  0.3041E-01  0.1021E+01
     -0.791  0.2190E-01  0.1022E+01
     -0.737  0.1776E-01  0.1023E+01
     -0.684  0.1580E-01  0.1024E+01
     -0.631  0.1654E-01  0.1025E+01
     -0.578  0.2196E-01  0.1026E+01
     -0.525  0.3146E-01  0.1027E+01
     -0.471  0.4066E-01  0.1030E+01
     -0.418  0.4414E-01  0.1032E+01
     -0.365  0.4036E-01  0.1034E+01
     -0.312  0.3401E-01  0.1036E+01
     -0.258  0.3148E-01  0.1038E+01
     -0.205  0.3445E-01  0.1039E+01
     -0.152  0.3892E-01  0.1041E+01
     -0.099  0.3926E-01  0.1044E+01
     -0.046  0.3488E-01  0.1045E+01
      0.008  0.3166E-01  0.1047E+01
      0.061  0.3248E-01  0.1049E+01
      0.114  0.3435E-01  0.1051E+01
      0.167  0.3546E-01  0.1053E+01
      0.221  0.3640E-01  0.1054E+01
      0.274  0.3735E-01  0.1056E+01
      0.327  0.3770E-01  0.1058E+01
      0.380  0.3643E-01  0.1060E+01
      0.433  0.3345E-01  0.1062E+01
      0.487  0.3109E-01  0.1064E+01
      0.540  0.3097E-01  0.1066E+01
      0.593  0.3327E-01  0.1067E+01
      0.646  0.3849E-01  0.1069E+01
      0.700  0.4520E-01  0.1072E+01
      0.753  0.4700E-01  0.1074E+01
      0.806  0.3833E-01  0.1076E+01
      0.859  0.2536E-01  0.1078E+01
      0.912  0.1784E-01  0.1079E+01
      0.966  0.1606E-01  0.1079E+01
      1.019  0.1607E-01  0.1080E+01
      1.072  0.1721E-01  0.1081E+01
      1.125  0.1948E-01  0.1082E+01
      1.179  0.2138E-01  0.1083E+01
      1.232  0.2201E-01  0.1085E+01
      1.285  0.2141E-01  0.1086E+01
      1.338  0.1939E-01  0.1087E+01
      1.391  0.1765E-01  0.1088E+01
      1.445  0.1957E-01  0.1089E+01
      1.498  0.2434E-01  0.1090E+01
      1.551  0.2786E-01  0.1091E+01
      1.604  0.3009E-01  0.1093E+01
      1.657  0.3479E-01  0.1095E+01
      1.711  0.4139E-01  0.1097E+01
      1.764  0.4374E-01  0.1099E+01
      1.817  0.3865E-01  0.1102E+01
      1.870  0.2944E-01  0.1103E+01
      1.924  0.2135E-01  0.1104E+01
      1.977  0.1612E-01  0.1105E+01
      2.030  0.1203E-01  0.1106E+01
      2.083  0.1008E-01  0.1106E+01
      2.136  0.1332E-01  0.1107E+01
      2.190  0.2087E-01  0.1108E+01
      2.243  0.3059E-01  0.1110E+01
      2.296  0.4238E-01  0.1112E+01
      2.349  0.5292E-01  0.1115E+01
      2.403  0.5460E-01  0.1118E+01
      2.456  0.4628E-01  0.1120E+01
      2.509  0.3808E-01  0.1122E+01
      2.562  0.3871E-01  0.1124E+01
      2.615  0.4370E-01  0.1127E+01
      2.669  0.4566E-01  0.1129E+01
      2.722  0.4516E-01  0.1131E+01
      2.775  0.4261E-01  0.1134E+01
      2.828  0.3600E-01  0.1136E+01
      2.882  0.2742E-01  0.1137E+01
      2.935  0.2120E-01  0.1138E+01
      2.988  0.1896E-01  0.1139E+01
      3.041  0.1971E-01  0.1140E+01
      3.094  0.2285E-01  0.1141E+01
      3.148  0.2644E-01  0.1143E+01
      3.201  0.2624E-01  0.1144E+01
      3.254  0.2084E-01  0.1145E+01
      3.307  0.1478E-01  0.1146E+01
      3.361  0.1280E-01  0.1147E+01
      3.414  0.1347E-01  0.1148E+01
      3.467  0.1504E-01  0.1148E+01
      3.520  0.1897E-01  0.1149E+01
      3.573  0.2490E-01  0.1151E+01
      3.627  0.3088E-01  0.1152E+01
      3.680  0.3533E-01  0.1154E+01
      3.733  0.3741E-01  0.1156E+01
      3.786  0.3676E-01  0.1158E+01
      3.840  0.3202E-01  0.1160E+01
      3.893  0.2478E-01  0.1161E+01
      3.946  0.2132E-01  0.1162E+01
      3.999  0.2425E-01  0.1164E+01
      4.052  0.2752E-01  0.1165E+01
      4.106  0.2663E-01  0.1166E+01
      4.159  0.2533E-01  0.1168E+01
      4.212  0.2578E-01  0.1169E+01
      4.265  0.2469E-01  0.1171E+01
      4.319  0.2095E-01  0.1172E+01
      4.372  0.1966E-01  0.1173E+01
      4.425  0.2384E-01  0.1174E+01
      4.478  0.2972E-01  0.1176E+01
      4.531  0.3634E-01  0.1177E+01
      4.585  0.4677E-01  0.1180E+01
      4.638  0.5686E-01  0.1183E+01
      4.691  0.5794E-01  0.1186E+01
      4.744  0.5115E-01  0.1189E+01
      4.798  0.4621E-01  0.1191E+01
      4.851  0.4702E-01  0.1194E+01
      4.904  0.4960E-01  0.1196E+01
      4.957  0.5298E-01  0.1199E+01
      5.010  0.6180E-01  0.1202E+01
      5.064  0.7321E-01  0.1206E+01
      5.117  0.7643E-01  0.1210E+01
      5.170  0.7012E-01  0.1214E+01
      5.223  0.6134E-01  0.1217E+01
      5.277  0.5150E-01  0.1220E+01
      5.330  0.3779E-01  0.1222E+01
      5.383  0.2178E-01  0.1223E+01
      5.436  0.9072E-02  0.1224E+01
      5.489  0.2562E-02  0.1224E+01
      5.543  0.4662E-03  0.1224E+01
      5.596  0.5258E-04  0.1224E+01
      5.649  0.3578E-05  0.1224E+01
      5.702  0.1443E-06  0.1224E+01
      5.756  0.3404E-08  0.1224E+01
      5.809  0.4666E-10  0.1224E+01
      5.862  0.3695E-12  0.1224E+01
      5.915  0.1683E-14  0.1224E+01
      5.968  0.4172E-17  0.1224E+01
      6.022  0.0000E+00  0.1224E+01
      6.075  0.0000E+00  0.1224E+01
      6.128  0.0000E+00  0.1224E+01
      6.181  0.0000E+00  0.1224E+01
      6.235  0.0000E+00  0.1224E+01
      6.288  0.0000E+00  0.1224E+01
      6.341  0.0000E+00  0.1224E+01
