unknown system                          
           1
    11.002582    0.000000    0.000000
     5.501291    9.528515    0.000000
     0.000000    0.000000   24.491785
   Au   Pd
  24  24
Direct configuration=     1
   0.08333333  0.08333333  0.40830017
   0.83333333  0.58333333  0.40830017
   0.66666667  0.41666667  0.50000000
   0.83333333  0.33333333  0.40830017
   0.75000000  0.00000000  0.59169983
   0.50000000  0.75000000  0.59169983
   0.50000000  0.50000000  0.59169983
   0.58333333  0.58333333  0.40830017
   0.50000000  0.25000000  0.59169983
   0.58333333  0.33333333  0.40830017
   0.16666667  0.91666667  0.50000000
   0.33333333  0.83333333  0.40830017
   0.25000000  0.50000000  0.59169983
   0.33333333  0.58333333  0.40830017
   0.16666667  0.41666667  0.50000000
   0.75000000  0.75000000  0.59169983
   0.00000000  0.00000000  0.59169983
   0.00000000  0.25000000  0.59169983
   0.00000000  0.50000000  0.59169983
   0.91666667  0.41666667  0.50000000
   0.08333333  0.33333333  0.40830017
   0.91666667  0.91666667  0.50000000
   0.08333333  0.58333333  0.40830017
   0.00000000  0.75000000  0.59169983
   0.75000000  0.25000000  0.59169983
   0.41666667  0.91666667  0.50000000
   0.91666667  0.16666667  0.50000000
   0.66666667  0.66666667  0.50000000
   0.66666667  0.16666667  0.50000000
   0.83333333  0.08333333  0.40830017
   0.75000000  0.50000000  0.59169983
   0.83333333  0.83333333  0.40830017
   0.25000000  0.00000000  0.59169983
   0.41666667  0.66666667  0.50000000
   0.33333333  0.33333333  0.40830017
   0.91666667  0.66666667  0.50000000
   0.41666667  0.41666667  0.50000000
   0.08333333  0.83333333  0.40830017
   0.50000000  0.00000000  0.59169983
   0.41666667  0.16666667  0.50000000
   0.58333333  0.08333333  0.40830017
   0.66666667  0.91666667  0.50000000
   0.33333333  0.08333333  0.40830017
   0.16666667  0.66666667  0.50000000
   0.16666667  0.16666667  0.50000000
   0.25000000  0.25000000  0.59169983
   0.58333333  0.83333333  0.40830017
   0.25000000  0.75000000  0.59169983
Direct configuration=     2
   0.08315484  0.08309722  0.40639847
   0.83230110  0.58554228  0.40636839
   0.66664064  0.41607508  0.50077977
   0.83363164  0.33186697  0.40602197
   0.74862278  0.00102380  0.59359268
   0.49933161  0.75080256  0.59321310
   0.50015238  0.50031510  0.59349035
   0.58291846  0.58474635  0.40637325
   0.50002368  0.24917488  0.59323613
   0.58309474  0.33144509  0.40643784
   0.16790413  0.91602229  0.50032073
   0.33388255  0.83391432  0.40646135
   0.25028431  0.50030294  0.59357183
   0.33255501  0.58330389  0.40668885
   0.16885188  0.41531793  0.49996342
   0.74910767  0.75008521  0.59327341
   0.00051598  0.00063459  0.59385712
   0.00032193  0.24939217  0.59354077
  -0.00028226  0.49977820  0.59387388
   0.91591846  0.41695738  0.50049375
   0.08517566  0.33199592  0.40609223
   0.91565335  0.91680044  0.49882756
   0.08316448  0.58456086  0.40642903
   0.00092441  0.74950886  0.59366302
   0.75003547  0.25010583  0.59267985
   0.41728975  0.91757712  0.50002193
   0.91593677  0.16659669  0.50004382
   0.66602007  0.66828899  0.50000214
   0.66635697  0.16623257  0.49966840
   0.83309276  0.08271948  0.40738585
   0.74979039  0.50003568  0.59289350
   0.83250375  0.83423820  0.40749329
   0.25076132  0.00008617  0.59255686
   0.41605619  0.66721733  0.50026565
   0.33427244  0.33197181  0.40737821
   0.91553634  0.66800373  0.49967222
   0.41646430  0.41617371  0.49981400
   0.08243008  0.83346332  0.40712362
   0.49913885  0.00050710  0.59231293
   0.41722777  0.16549390  0.49971477
   0.58301892  0.08306942  0.40779520
   0.66554657  0.91695885  0.49945691
   0.33431920  0.08339409  0.40761543
   0.16733303  0.66678317  0.49986876
   0.16856324  0.16543986  0.50024953
   0.25079880  0.24858035  0.59260188
   0.58337272  0.83417514  0.40769961
   0.25028488  0.75022316  0.59271672
Direct configuration=     3
   0.08262520  0.08239659  0.40075553
   0.82923813  0.59209693  0.40063619
   0.66656340  0.41431967  0.50309357
   0.83451682  0.32751582  0.39926183
   0.74453614  0.00406172  0.59920937
   0.49734829  0.75318400  0.59770344
   0.50060453  0.50125008  0.59880338
   0.58168740  0.58893920  0.40065549
   0.50009394  0.24672651  0.59779482
   0.58238675  0.32584208  0.40091175
   0.17157608  0.91411022  0.50127243
   0.33551224  0.83563827  0.40100502
   0.25112793  0.50120187  0.59912662
   0.33024549  0.58321652  0.40190755
   0.17533609  0.41131579  0.49985489
   0.74645984  0.75033804  0.59794270
   0.00204707  0.00251761  0.60025846
   0.00127718  0.24758855  0.59900341
  -0.00111981  0.49912006  0.60032496
   0.91369831  0.41782002  0.50195886
   0.09064241  0.32802740  0.39954061
   0.91264652  0.91719737  0.49534856
   0.08266345  0.58820330  0.40087676
   0.00366744  0.74805149  0.59948842
   0.75014070  0.25041987  0.59558788
   0.41913865  0.92027874  0.50008701
   0.91377093  0.16638906  0.50017386
   0.66410140  0.67310294  0.50000850
   0.66543802  0.16494447  0.49868445
   0.83237889  0.08089797  0.40467278
   0.74916840  0.50014155  0.59643550
   0.83004212  0.83692323  0.40509902
   0.25302040  0.00034185  0.59509994
   0.41424472  0.66885133  0.50105393
   0.33705905  0.32793174  0.40464248
   0.91218231  0.67197121  0.49869961
   0.41586380  0.41471095  0.49926209
   0.07974985  0.83384902  0.40363241
   0.49658354  0.00201182  0.59413217
   0.41889276  0.16201395  0.49886840
   0.58208598  0.08228632  0.40629678
   0.66222289  0.91782585  0.49784540
   0.33724458  0.08357439  0.40558358
   0.16931035  0.66712887  0.49947932
   0.17419095  0.16179954  0.50098997
   0.25316908  0.24436780  0.59527854
   0.58348960  0.83667305  0.40591757
   0.25113021  0.75088534  0.59573416
Direct configuration=     4
   0.08366207  0.08113953  0.39971204
   0.83111385  0.58922609  0.39931526
   0.66459595  0.41603261  0.50203267
   0.83318216  0.32998861  0.39796649
   0.74719662  0.00171246  0.60024667
   0.49728737  0.75313901  0.59894341
   0.50027858  0.50086923  0.60034404
   0.58248647  0.58628789  0.39972253
   0.49885517  0.24863031  0.59880919
   0.58272097  0.32781046  0.39954032
   0.16941620  0.91602683  0.50087258
   0.33426016  0.83643666  0.39974574
   0.25163694  0.49994594  0.60043967
   0.33204137  0.58288693  0.40074128
   0.17154092  0.41329501  0.49991235
   0.74718530  0.75118923  0.59903568
   0.00146352  0.00100253  0.60157574
   0.00148586  0.24824835  0.60032269
  -0.00009590  0.49858457  0.60159806
   0.91581075  0.41766911  0.50120634
   0.08869508  0.33003719  0.39835773
   0.91396626  0.91715073  0.49704535
   0.08196857  0.58650787  0.39971672
   0.00169679  0.75029033  0.60044208
   0.75013611  0.24983381  0.59662263
   0.41904898  0.91823673  0.49998357
   0.91569876  0.16519803  0.50013869
   0.66363650  0.67196580  0.50002710
   0.66454373  0.16531991  0.49915280
   0.83218195  0.08135398  0.40323438
   0.74901960  0.50047973  0.59758203
   0.82916813  0.83737460  0.40338702
   0.25276667  0.00013916  0.59616889
   0.41655803  0.66727239  0.50059600
   0.33628370  0.32858469  0.40359194
   0.91399346  0.66971045  0.49915643
   0.41774395  0.41478322  0.49947023
   0.08089056  0.83473001  0.40254027
   0.49724262  0.00140542  0.59484951
   0.42007699  0.16273742  0.49930909
   0.58243420  0.08148067  0.40510009
   0.66365400  0.91779367  0.49888639
   0.33705213  0.08283330  0.40462748
   0.16825553  0.66657223  0.49959081
   0.17136789  0.16330928  0.50055736
   0.25225200  0.24594192  0.59615873
   0.58277817  0.83745423  0.40482098
   0.25076532  0.75138186  0.59680293
Direct configuration=     5
   0.08417837  0.08051359  0.39919243
   0.83204785  0.58779658  0.39865750
   0.66361628  0.41688556  0.50150440
   0.83251758  0.33121991  0.39732149
   0.74852139  0.00054266  0.60076318
   0.49725704  0.75311661  0.59956084
   0.50011627  0.50067959  0.60111121
   0.58288437  0.58496769  0.39925797
   0.49823834  0.24957830  0.59931429
   0.58288740  0.32879059  0.39885742
   0.16834070  0.91698119  0.50067348
   0.33363669  0.83683422  0.39911870
   0.25189040  0.49932057  0.60109349
   0.33293561  0.58272281  0.40016054
   0.16965114  0.41428055  0.49994096
   0.74754654  0.75161307  0.59957992
   0.00117294  0.00024811  0.60223167
   0.00158976  0.24857690  0.60097961
   0.00041394  0.49831793  0.60223198
   0.91686261  0.41759397  0.50083163
   0.08772542  0.33103794  0.39776873
   0.91462342  0.91712751  0.49789026
   0.08162255  0.58566364  0.39913909
   0.00071552  0.75140515  0.60091694
   0.75013382  0.24954198  0.59713787
   0.41900434  0.91721993  0.49993207
   0.91665871  0.16460496  0.50012117
   0.66340501  0.67139957  0.50003636
   0.66409842  0.16550686  0.49938602
   0.83208389  0.08158105  0.40251814
   0.74894550  0.50064813  0.59815293
   0.82873294  0.83759935  0.40253454
   0.25264033  0.00003824  0.59670117
   0.41770993  0.66648616  0.50036798
   0.33589762  0.32890982  0.40306883
   0.91489530  0.66858473  0.49938390
   0.41868015  0.41481921  0.49957388
   0.08145857  0.83516870  0.40199645
   0.49757081  0.00110346  0.59520671
   0.42066667  0.16309767  0.49952853
   0.58260759  0.08107951  0.40450421
   0.66436661  0.91777764  0.49940475
   0.33695630  0.08246428  0.40415140
   0.16773029  0.66629505  0.49964632
   0.16996217  0.16406104  0.50034194
   0.25179534  0.24672574  0.59659702
   0.58242392  0.83784321  0.40427494
   0.25058362  0.75162910  0.59733512
Direct configuration=     6
   0.08333580  0.08214956  0.39882856
   0.83177703  0.58704987  0.39830284
   0.66561791  0.41622277  0.50110005
   0.83316188  0.33138614  0.39698974
   0.74820982  0.00122027  0.60117131
   0.49781735  0.75245138  0.59998045
   0.50028956  0.50075622  0.60164546
   0.58308927  0.58492198  0.39896781
   0.49918636  0.24894474  0.59970189
   0.58306755  0.32903037  0.39839876
   0.16841044  0.91637877  0.50056606
   0.33424217  0.83558017  0.39867752
   0.25065117  0.50023798  0.60144577
   0.33246335  0.58303910  0.39995337
   0.16947993  0.41490853  0.49994249
   0.74815285  0.75087644  0.59988785
   0.00115684  0.00060616  0.60270109
   0.00108109  0.24863476  0.60130555
   0.00046173  0.49892405  0.60262355
   0.91616809  0.41716149  0.50050171
   0.08677847  0.33091406  0.39736654
   0.91502421  0.91673660  0.49838388
   0.08214401  0.58582932  0.39889132
   0.00115620  0.75047260  0.60119014
   0.75015686  0.24957991  0.59715394
   0.41825825  0.91656758  0.49988216
   0.91616715  0.16593853  0.50008072
   0.66447668  0.67024351  0.50000611
   0.66472347  0.16568924  0.49960730
   0.83218849  0.08182488  0.40229899
   0.74917702  0.50053833  0.59817826
   0.82939656  0.83725662  0.40225743
   0.25176381  0.00040392  0.59691996
   0.41698672  0.66693338  0.50013521
   0.33540420  0.32965847  0.40293353
   0.91517624  0.66812807  0.49954952
   0.41763241  0.41549437  0.49964981
   0.08169970  0.83439784  0.40190847
   0.49784481  0.00134194  0.59547600
   0.41973042  0.16420719  0.49973759
   0.58278324  0.08156979  0.40403865
   0.66592367  0.91673315  0.49990934
   0.33586779  0.08317237  0.40397296
   0.16802557  0.66572764  0.49965051
   0.16906763  0.16494808  0.50004205
   0.25133028  0.24733312  0.59669648
   0.58288562  0.83649040  0.40397651
   0.25041031  0.75138836  0.59741476
Direct configuration=     7
   0.08313933  0.08253104  0.39874371
   0.83171389  0.58687575  0.39822014
   0.66608465  0.41606822  0.50100577
   0.83331212  0.33142490  0.39691238
   0.74813717  0.00137828  0.60126648
   0.49794801  0.75229625  0.60007830
   0.50032997  0.50077409  0.60177004
   0.58313705  0.58491132  0.39890015
   0.49940742  0.24879700  0.59979227
   0.58310955  0.32908628  0.39829181
   0.16842670  0.91623829  0.50054102
   0.33438336  0.83528775  0.39857465
   0.25036220  0.50045191  0.60152792
   0.33235323  0.58311285  0.39990506
   0.16944001  0.41505496  0.49994284
   0.74829423  0.75070468  0.59995966
   0.00115308  0.00068965  0.60281055
   0.00096248  0.24864825  0.60138155
   0.00047288  0.49906539  0.60271485
   0.91600614  0.41706065  0.50042478
   0.08655766  0.33088517  0.39727276
   0.91511767  0.91664544  0.49849898
   0.08226561  0.58586796  0.39883355
   0.00125896  0.75025515  0.60125385
   0.75016223  0.24958875  0.59715768
   0.41808427  0.91641547  0.49987052
   0.91605252  0.16624949  0.50007129
   0.66472657  0.66997394  0.49999905
   0.66486922  0.16573177  0.49965890
   0.83221289  0.08188174  0.40224789
   0.74923100  0.50051273  0.59818417
   0.82955130  0.83717670  0.40219281
   0.25155942  0.00048920  0.59697098
   0.41681808  0.66703767  0.50008093
   0.33528914  0.32983304  0.40290198
   0.91524175  0.66802159  0.49958814
   0.41738810  0.41565181  0.49966752
   0.08175593  0.83421809  0.40188796
   0.49790871  0.00139755  0.59553879
   0.41951211  0.16446591  0.49978634
   0.58282420  0.08168411  0.40393009
   0.66628675  0.91648959  0.50002700
   0.33561397  0.08333748  0.40393135
   0.16809443  0.66559533  0.49965148
   0.16885904  0.16515493  0.49997212
   0.25122184  0.24747475  0.59671967
   0.58299328  0.83617495  0.40390692
   0.25036990  0.75133222  0.59743333
Direct configuration=     8
   0.08303332  0.08242884  0.39860373
   0.83175891  0.58710137  0.39806205
   0.66604291  0.41596792  0.50086009
   0.83329816  0.33122490  0.39661520
   0.74813935  0.00151049  0.60155700
   0.49803849  0.75227831  0.60018495
   0.50038658  0.50066725  0.60183997
   0.58308586  0.58487831  0.39873820
   0.49939894  0.24900209  0.59998432
   0.58309064  0.32910017  0.39815389
   0.16820108  0.91619715  0.50044856
   0.33428511  0.83520124  0.39834587
   0.25057733  0.50046364  0.60169152
   0.33225463  0.58302802  0.39984737
   0.16926888  0.41516448  0.49990712
   0.74837008  0.75044288  0.60012477
   0.00121119  0.00079399  0.60303408
   0.00063532  0.24900563  0.60146980
   0.00017148  0.49892943  0.60284550
   0.91613235  0.41702143  0.50037104
   0.08651834  0.33121421  0.39702874
   0.91534436  0.91664925  0.49855446
   0.08220338  0.58591583  0.39877258
   0.00129345  0.75026510  0.60141810
   0.75010887  0.24996339  0.59701964
   0.41806812  0.91648540  0.49984743
   0.91606249  0.16623101  0.50001849
   0.66515055  0.66981791  0.50000553
   0.66507794  0.16584157  0.49964599
   0.83251384  0.08176219  0.40241379
   0.74954611  0.50023753  0.59803805
   0.82996881  0.83689070  0.40234738
   0.25142054  0.00061615  0.59687822
   0.41673954  0.66682339  0.50004582
   0.33500527  0.33012757  0.40296020
   0.91531783  0.66775590  0.49955287
   0.41733617  0.41598331  0.49976807
   0.08150683  0.83433718  0.40204490
   0.49772087  0.00143074  0.59557004
   0.41931116  0.16434257  0.49980769
   0.58276773  0.08181823  0.40397492
   0.66631389  0.91620011  0.50010422
   0.33537524  0.08351670  0.40403095
   0.16825844  0.66548856  0.49964966
   0.16887017  0.16526872  0.49986016
   0.25107249  0.24759419  0.59663260
   0.58331673  0.83579760  0.40400347
   0.25043021  0.75121747  0.59732100
Direct configuration=     9
   0.08291824  0.08231789  0.39845175
   0.83180779  0.58734630  0.39789043
   0.66599760  0.41585903  0.50070193
   0.83328301  0.33100778  0.39629256
   0.74814172  0.00165401  0.60187239
   0.49813672  0.75225882  0.60030073
   0.50044805  0.50055126  0.60191588
   0.58303029  0.58484248  0.39856239
   0.49938972  0.24922473  0.60019281
   0.58307010  0.32911524  0.39800416
   0.16795613  0.91615247  0.50034818
   0.33417845  0.83510732  0.39809751
   0.25081089  0.50047639  0.60186913
   0.33214760  0.58293593  0.39978474
   0.16908311  0.41528338  0.49986833
   0.74845243  0.75015866  0.60030403
   0.00127426  0.00090728  0.60327674
   0.00028016  0.24939361  0.60156561
  -0.00015572  0.49878182  0.60298734
   0.91626936  0.41697886  0.50031270
   0.08647565  0.33157142  0.39676383
   0.91559046  0.91665339  0.49861468
   0.08213582  0.58596780  0.39870639
   0.00133090  0.75027591  0.60159641
   0.75005093  0.25037010  0.59686977
   0.41805059  0.91656131  0.49982236
   0.91607331  0.16621095  0.49996117
   0.66561082  0.66964852  0.50001257
   0.66530454  0.16596076  0.49963199
   0.83284055  0.08163241  0.40259390
   0.74988820  0.49993878  0.59787942
   0.83042206  0.83658021  0.40251518
   0.25126976  0.00075397  0.59677752
   0.41665428  0.66659078  0.50000770
   0.33469710  0.33044732  0.40302340
   0.91540043  0.66746747  0.49951459
   0.41727981  0.41634319  0.49987724
   0.08123640  0.83446647  0.40221528
   0.49751695  0.00146677  0.59560397
   0.41909301  0.16420866  0.49983087
   0.58270642  0.08196383  0.40402359
   0.66634336  0.91588584  0.50018806
   0.33511608  0.08371125  0.40413908
   0.16843650  0.66537265  0.49964769
   0.16888226  0.16539226  0.49973860
   0.25091035  0.24772386  0.59653808
   0.58366786  0.83538794  0.40410828
   0.25049569  0.75109289  0.59719906
Direct configuration=    10
   0.08307527  0.08219359  0.39826829
   0.83183665  0.58733478  0.39765619
   0.66579207  0.41605091  0.50047232
   0.83326104  0.33095897  0.39585821
   0.74809034  0.00170959  0.60218512
   0.49811719  0.75222876  0.60032364
   0.50065998  0.50066021  0.60195426
   0.58303994  0.58475715  0.39838168
   0.49933384  0.24921417  0.60036384
   0.58299156  0.32898207  0.39785876
   0.16805813  0.91630023  0.50026059
   0.33408415  0.83523300  0.39786637
   0.25072687  0.50042547  0.60205483
   0.33211392  0.58289714  0.39972020
   0.16912281  0.41534142  0.49987979
   0.74844321  0.75026839  0.60049754
   0.00130211  0.00105864  0.60353676
   0.00029773  0.24932870  0.60161906
  -0.00005066  0.49874925  0.60314181
   0.91646022  0.41674977  0.50015724
   0.08626417  0.33181490  0.39641836
   0.91541085  0.91655062  0.49884955
   0.08210206  0.58604088  0.39863349
   0.00126521  0.75032181  0.60177553
   0.75004630  0.25051351  0.59668029
   0.41807716  0.91635484  0.49978856
   0.91629712  0.16615191  0.49991929
   0.66557351  0.66954455  0.50002878
   0.66514788  0.16585714  0.49963449
   0.83285258  0.08154778  0.40282840
   0.74974230  0.49990760  0.59764920
   0.83057073  0.83658271  0.40280298
   0.25111936  0.00087301  0.59656564
   0.41687581  0.66659492  0.49996098
   0.33464244  0.33056833  0.40315474
   0.91557288  0.66745992  0.49954391
   0.41736795  0.41622496  0.49999913
   0.08121670  0.83446892  0.40237901
   0.49746981  0.00150363  0.59563203
   0.41928769  0.16413379  0.49988500
   0.58267282  0.08188899  0.40422336
   0.66630564  0.91598471  0.50032378
   0.33510398  0.08362145  0.40425323
   0.16839149  0.66524855  0.49968300
   0.16878116  0.16532628  0.49961042
   0.25077327  0.24789967  0.59640103
   0.58369584  0.83542514  0.40429500
   0.25061689  0.75114727  0.59702435
Direct configuration=    11
   0.08334421  0.08198070  0.39795409
   0.83188609  0.58731505  0.39725502
   0.66544008  0.41637952  0.50007908
   0.83322342  0.33087538  0.39511432
   0.74800233  0.00180476  0.60272071
   0.49808375  0.75217729  0.60036286
   0.50102293  0.50084682  0.60202000
   0.58305648  0.58461101  0.39807220
   0.49923813  0.24919608  0.60065673
   0.58285704  0.32875401  0.39760974
   0.16823281  0.91655328  0.50011059
   0.33392263  0.83544825  0.39747053
   0.25058298  0.50033827  0.60237286
   0.33205625  0.58283069  0.39960968
   0.16919081  0.41544082  0.49989942
   0.74842741  0.75045631  0.60082895
   0.00134981  0.00131787  0.60398206
   0.00032781  0.24921753  0.60171060
   0.00012925  0.49869346  0.60340635
   0.91678708  0.41635744  0.49989101
   0.08590199  0.33223187  0.39582672
   0.91510325  0.91637463  0.49925178
   0.08204426  0.58616603  0.39850864
   0.00115271  0.75040042  0.60208229
   0.75003836  0.25075913  0.59635578
   0.41812266  0.91600125  0.49973069
   0.91668042  0.16605080  0.49984757
   0.66550961  0.66936648  0.50005655
   0.66487959  0.16567966  0.49963878
   0.83287319  0.08140282  0.40323000
   0.74949244  0.49985419  0.59725491
   0.83082535  0.83658697  0.40329586
   0.25086179  0.00107687  0.59620278
   0.41725521  0.66660201  0.49988097
   0.33454884  0.33077558  0.40337967
   0.91586824  0.66744698  0.49959412
   0.41751892  0.41602249  0.50020789
   0.08118296  0.83447310  0.40265940
   0.49738909  0.00156676  0.59568009
   0.41962108  0.16400557  0.49997769
   0.58261528  0.08176081  0.40456549
   0.66624105  0.91615405  0.50055621
   0.33508326  0.08346766  0.40444872
   0.16831440  0.66503603  0.49974349
   0.16860800  0.16521327  0.49939089
   0.25053850  0.24820076  0.59616632
   0.58374375  0.83548884  0.40461477
   0.25082448  0.75124041  0.59672515
Direct configuration=    12
   0.08326783  0.08222614  0.39774537
   0.83169227  0.58728949  0.39706118
   0.66568788  0.41614283  0.49974826
   0.83324660  0.33079643  0.39460472
   0.74794767  0.00197980  0.60303852
   0.49805934  0.75243022  0.60033352
   0.50085790  0.50087106  0.60200247
   0.58301814  0.58470348  0.39789313
   0.49924714  0.24918183  0.60079445
   0.58285559  0.32858606  0.39748149
   0.16823682  0.91639943  0.50000276
   0.33414800  0.83528569  0.39727727
   0.25060934  0.50048306  0.60254325
   0.33215361  0.58292360  0.39960564
   0.16926575  0.41523631  0.49989507
   0.74836147  0.75054119  0.60098357
   0.00129061  0.00123788  0.60422766
   0.00046572  0.24922129  0.60167860
   0.00004313  0.49879090  0.60350430
   0.91680206  0.41636274  0.49964668
   0.08588593  0.33207498  0.39548941
   0.91517571  0.91645883  0.49970993
   0.08206868  0.58614596  0.39845519
   0.00124344  0.75051824  0.60225240
   0.74998710  0.25053144  0.59612388
   0.41827997  0.91580147  0.49972899
   0.91662954  0.16604910  0.49978433
   0.66563554  0.66933296  0.50005718
   0.66478259  0.16570061  0.49976350
   0.83272113  0.08152257  0.40347115
   0.74953439  0.50009197  0.59698393
   0.83059524  0.83669950  0.40359411
   0.25092559  0.00109679  0.59599460
   0.41721569  0.66677312  0.49974637
   0.33456159  0.33056335  0.40352947
   0.91578997  0.66729231  0.49970922
   0.41759551  0.41582538  0.50035626
   0.08134511  0.83441868  0.40284369
   0.49739742  0.00156562  0.59571989
   0.41965412  0.16403040  0.50010093
   0.58257115  0.08160058  0.40476250
   0.66622908  0.91613844  0.50083319
   0.33507905  0.08356287  0.40451025
   0.16836201  0.66510462  0.49982379
   0.16858365  0.16534606  0.49922545
   0.25050963  0.24820264  0.59601680
   0.58369659  0.83554937  0.40479951
   0.25068775  0.75131272  0.59654621
Direct configuration=    13
   0.08316962  0.08254170  0.39747701
   0.83144307  0.58725661  0.39681195
   0.66600649  0.41583850  0.49932290
   0.83327639  0.33069490  0.39394950
   0.74787739  0.00220487  0.60344714
   0.49802794  0.75275543  0.60029580
   0.50064571  0.50090224  0.60197994
   0.58296885  0.58482237  0.39766289
   0.49925873  0.24916351  0.60097152
   0.58285373  0.32837013  0.39731658
   0.16824197  0.91620162  0.49986411
   0.33443778  0.83507668  0.39702880
   0.25064323  0.50066923  0.60276233
   0.33227878  0.58304305  0.39960045
   0.16936211  0.41497336  0.49988947
   0.74827668  0.75065034  0.60118238
   0.00121450  0.00113503  0.60454344
   0.00064303  0.24922612  0.60163745
  -0.00006759  0.49891619  0.60363023
   0.91682131  0.41636955  0.49933253
   0.08586528  0.33187327  0.39505571
   0.91526888  0.91656709  0.50029900
   0.08210008  0.58612015  0.39838647
   0.00136009  0.75066974  0.60247112
   0.74992119  0.25023868  0.59582571
   0.41848223  0.91554460  0.49972680
   0.91656411  0.16604691  0.49970301
   0.66579745  0.66928986  0.50005798
   0.66465787  0.16572753  0.49992386
   0.83252561  0.08167655  0.40378122
   0.74958833  0.50039769  0.59663551
   0.83029938  0.83684418  0.40397758
   0.25100762  0.00112240  0.59572693
   0.41716489  0.66699311  0.49957331
   0.33457798  0.33029048  0.40372208
   0.91568933  0.66709344  0.49985721
   0.41769399  0.41557193  0.50054703
   0.08155359  0.83434871  0.40308064
   0.49740812  0.00156416  0.59577108
   0.41969659  0.16406232  0.50025939
   0.58251440  0.08139457  0.40501579
   0.66621369  0.91611836  0.50118932
   0.33507364  0.08368529  0.40458936
   0.16842323  0.66519281  0.49992705
   0.16855233  0.16551680  0.49901273
   0.25047251  0.24820505  0.59582456
   0.58363594  0.83562720  0.40503705
   0.25051195  0.75140569  0.59631613
Direct configuration=    14
   0.08309189  0.08244105  0.39732367
   0.83146692  0.58721632  0.39671331
   0.66618124  0.41567517  0.49901597
   0.83307651  0.33082137  0.39344701
   0.74784115  0.00207430  0.60375818
   0.49793417  0.75275842  0.60022301
   0.50066627  0.50096271  0.60179876
   0.58312338  0.58471453  0.39749526
   0.49911113  0.24924532  0.60107864
   0.58277624  0.32843696  0.39727254
   0.16809758  0.91640520  0.49973135
   0.33446033  0.83530306  0.39692059
   0.25053997  0.50077387  0.60285910
   0.33244800  0.58278824  0.39970113
   0.16916309  0.41516780  0.49986066
   0.74840396  0.75072881  0.60129234
   0.00129733  0.00124184  0.60474303
   0.00051747  0.24928297  0.60144298
  -0.00012431  0.49912273  0.60360689
   0.91678971  0.41638413  0.49903183
   0.08600411  0.33181043  0.39479235
   0.91534867  0.91661638  0.50070971
   0.08205484  0.58598829  0.39846867
   0.00135542  0.75055357  0.60265574
   0.74994644  0.25028473  0.59564661
   0.41840425  0.91571855  0.49971761
   0.91662514  0.16605646  0.49961706
   0.66598449  0.66919890  0.49999070
   0.66474425  0.16568849  0.50010761
   0.83260462  0.08161665  0.40399716
   0.74962025  0.50043131  0.59635108
   0.83012024  0.83688107  0.40433157
   0.25099905  0.00108546  0.59558100
   0.41730592  0.66674079  0.49941400
   0.33462717  0.33014794  0.40384657
   0.91563273  0.66700595  0.50001316
   0.41767110  0.41570598  0.50061561
   0.08140834  0.83454026  0.40325878
   0.49746828  0.00169197  0.59588722
   0.41961257  0.16399143  0.50041138
   0.58251899  0.08133667  0.40518502
   0.66647484  0.91595573  0.50155388
   0.33507210  0.08367285  0.40455276
   0.16847156  0.66494751  0.49997745
   0.16848312  0.16549323  0.49882252
   0.25052875  0.24817680  0.59578439
   0.58360303  0.83558985  0.40515313
   0.25044767  0.75152790  0.59624102
Direct configuration=    15
   0.08302334  0.08235229  0.39718843
   0.83148796  0.58718078  0.39662633
   0.66633537  0.41553113  0.49874529
   0.83290022  0.33093291  0.39300385
   0.74780919  0.00195916  0.60403249
   0.49785146  0.75276106  0.60015882
   0.50068440  0.50101605  0.60163898
   0.58325967  0.58461943  0.39734743
   0.49898095  0.24931747  0.60117312
   0.58270789  0.32849591  0.39723370
   0.16797023  0.91658474  0.49961427
   0.33448022  0.83550272  0.39682516
   0.25044890  0.50086615  0.60294445
   0.33259725  0.58256352  0.39978993
   0.16898757  0.41533929  0.49983524
   0.74851622  0.75079802  0.60138931
   0.00137038  0.00133605  0.60491906
   0.00040674  0.24933312  0.60127147
  -0.00017433  0.49930488  0.60358631
   0.91676185  0.41639698  0.49876664
   0.08612654  0.33175501  0.39456008
   0.91541905  0.91665985  0.50107193
   0.08201494  0.58587199  0.39854116
   0.00135130  0.75045112  0.60281856
   0.74996872  0.25032534  0.59548865
   0.41833549  0.91587197  0.49970951
   0.91667897  0.16606489  0.49954126
   0.66614946  0.66911867  0.49993137
   0.66482043  0.16565405  0.50026966
   0.83267430  0.08156383  0.40418761
   0.74964840  0.50046095  0.59610023
   0.82996225  0.83691361  0.40464376
   0.25099150  0.00105288  0.59545229
   0.41743030  0.66651826  0.49927349
   0.33467056  0.33002224  0.40395636
   0.91558282  0.66692879  0.50015070
   0.41765092  0.41582421  0.50067609
   0.08128023  0.83470919  0.40341589
   0.49752133  0.00180469  0.59598966
   0.41953847  0.16392892  0.50054542
   0.58252305  0.08128561  0.40533427
   0.66670517  0.91581230  0.50187539
   0.33507074  0.08366189  0.40452048
   0.16851419  0.66473118  0.50002190
   0.16842209  0.16547244  0.49865477
   0.25057835  0.24815188  0.59574898
   0.58357401  0.83555691  0.40525551
   0.25039097  0.75163569  0.59617478
Direct configuration=    16
   0.08299808  0.08231958  0.39713860
   0.83149571  0.58716768  0.39659428
   0.66639216  0.41547805  0.49864555
   0.83283527  0.33097400  0.39284056
   0.74779741  0.00191673  0.60413356
   0.49782099  0.75276203  0.60013517
   0.50069108  0.50103571  0.60158010
   0.58330988  0.58458438  0.39729295
   0.49893298  0.24934406  0.60120793
   0.58268271  0.32851762  0.39721939
   0.16792331  0.91665090  0.49957112
   0.33448754  0.83557629  0.39679000
   0.25041535  0.50090016  0.60297589
   0.33265224  0.58248072  0.39982265
   0.16892289  0.41540247  0.49982587
   0.74855758  0.75082352  0.60142504
   0.00139729  0.00137076  0.60498392
   0.00036594  0.24935159  0.60120827
  -0.00019276  0.49937200  0.60357872
   0.91675158  0.41640172  0.49866892
   0.08617165  0.33173459  0.39447449
   0.91544498  0.91667586  0.50120539
   0.08200023  0.58582914  0.39856787
   0.00134978  0.75041337  0.60287855
   0.74997692  0.25034030  0.59543044
   0.41831015  0.91592849  0.49970652
   0.91669881  0.16606799  0.49951333
   0.66621024  0.66908911  0.49990950
   0.66484850  0.16564136  0.50032937
   0.83269998  0.08154437  0.40425779
   0.74965878  0.50047188  0.59600780
   0.82990404  0.83692560  0.40475880
   0.25098871  0.00104088  0.59540487
   0.41747613  0.66643626  0.49922172
   0.33468654  0.32997592  0.40399682
   0.91556443  0.66690036  0.50020138
   0.41764348  0.41586777  0.50069838
   0.08123303  0.83477144  0.40347377
   0.49754088  0.00184623  0.59602740
   0.41951116  0.16390588  0.50059481
   0.58252454  0.08126679  0.40538926
   0.66679003  0.91575945  0.50199386
   0.33507024  0.08365785  0.40450859
   0.16852989  0.66465146  0.50003828
   0.16839960  0.16546478  0.49859296
   0.25059663  0.24814270  0.59573593
   0.58356332  0.83554477  0.40529323
   0.25037008  0.75167540  0.59615038
Direct configuration=    17
   0.08277662  0.08244301  0.39696301
   0.83172592  0.58713684  0.39651861
   0.66645068  0.41542810  0.49836830
   0.83291438  0.33090945  0.39233513