  56  56   0   0
  0.4903395E+02  0.1100258E-08  0.1100258E-08  0.2619179E-08  0.3500000E-15
  1.000000000000000E-004
  CAR 
 unknown system                          
      6.41497412    -21.46333433  301     -1.46773102      1.00000000
    -21.463  0.0000E+00  0.0000E+00
    -21.370  0.0000E+00  0.0000E+00
    -21.277  0.0000E+00  0.0000E+00
    -21.185  0.0000E+00  0.0000E+00
    -21.092  0.0000E+00  0.0000E+00
    -20.999  0.0000E+00  0.0000E+00
    -20.906  0.0000E+00  0.0000E+00
    -20.813  0.0000E+00  0.0000E+00
    -20.720  0.2697E-14  0.2507E-15
    -20.627  0.2328E-10  0.2164E-11
    -20.534  0.3721E-07  0.3460E-08
    -20.441  0.1123E-04  0.1047E-05
    -20.348  0.6606E-03  0.6244E-04
    -20.255  0.7956E-02  0.8018E-03
    -20.162  0.2085E-01  0.2740E-02
    -20.069  0.1499E-01  0.4133E-02
    -19.976  0.1758E-01  0.5767E-02
    -19.884  0.2544E-01  0.8131E-02
    -19.791  0.3723E-01  0.1159E-01
    -19.698  0.3974E-01  0.1528E-01
    -19.605  0.2674E-01  0.1777E-01
    -19.512  0.3867E-01  0.2136E-01
    -19.419  0.4988E-01  0.2600E-01
    -19.326  0.3624E-01  0.2936E-01
    -19.233  0.2204E-01  0.3141E-01
    -19.140  0.5948E-02  0.3196E-01
    -19.047  0.3795E-03  0.3200E-01
    -18.954  0.4950E-05  0.3200E-01
    -18.861  0.1252E-07  0.3200E-01
    -18.768  0.5954E-11  0.3200E-01
    -18.676  0.5241E-15  0.3200E-01
    -18.583  0.0000E+00  0.3200E-01
    -18.490  0.0000E+00  0.3200E-01
    -18.397  0.0000E+00  0.3200E-01
    -18.304  0.0000E+00  0.3200E-01
    -18.211  0.0000E+00  0.3200E-01
    -18.118  0.0000E+00  0.3200E-01
    -18.025  0.0000E+00  0.3200E-01
    -17.932  0.0000E+00  0.3200E-01
    -17.839  0.0000E+00  0.3200E-01
    -17.746  0.0000E+00  0.3200E-01
    -17.653  0.0000E+00  0.3200E-01
    -17.560  0.0000E+00  0.3200E-01
    -17.467  0.0000E+00  0.3200E-01
    -17.375  0.0000E+00  0.3200E-01
    -17.282  0.0000E+00  0.3200E-01
    -17.189  0.0000E+00  0.3200E-01
    -17.096  0.0000E+00  0.3200E-01
    -17.003  0.0000E+00  0.3200E-01
    -16.910  0.0000E+00  0.3200E-01
    -16.817  0.0000E+00  0.3200E-01
    -16.724  0.0000E+00  0.3200E-01
    -16.631  0.0000E+00  0.3200E-01
    -16.538  0.0000E+00  0.3200E-01
    -16.445  0.0000E+00  0.3200E-01
    -16.352  0.0000E+00  0.3200E-01
    -16.259  0.0000E+00  0.3200E-01
    -16.166  0.0000E+00  0.3200E-01
    -16.074  0.0000E+00  0.3200E-01
    -15.981  0.0000E+00  0.3200E-01
    -15.888  0.0000E+00  0.3200E-01
    -15.795  0.0000E+00  0.3200E-01
    -15.702  0.0000E+00  0.3200E-01
    -15.609  0.0000E+00  0.3200E-01
    -15.516  0.0000E+00  0.3200E-01
    -15.423  0.0000E+00  0.3200E-01
    -15.330  0.0000E+00  0.3200E-01
    -15.237  0.0000E+00  0.3200E-01
    -15.144  0.0000E+00  0.3200E-01
    -15.051  0.0000E+00  0.3200E-01
    -14.958  0.0000E+00  0.3200E-01
    -14.865  0.0000E+00  0.3200E-01
    -14.773  0.0000E+00  0.3200E-01
    -14.680  0.0000E+00  0.3200E-01
    -14.587  0.0000E+00  0.3200E-01
    -14.494  0.0000E+00  0.3200E-01
    -14.401  0.0000E+00  0.3200E-01
    -14.308  0.0000E+00  0.3200E-01
    -14.215  0.0000E+00  0.3200E-01
    -14.122  0.0000E+00  0.3200E-01
    -14.029  0.0000E+00  0.3200E-01
    -13.936  0.0000E+00  0.3200E-01
    -13.843  0.0000E+00  0.3200E-01
    -13.750  0.0000E+00  0.3200E-01
    -13.657  0.0000E+00  0.3200E-01
    -13.564  0.0000E+00  0.3200E-01
    -13.472  0.0000E+00  0.3200E-01
    -13.379  0.0000E+00  0.3200E-01
    -13.286  0.0000E+00  0.3200E-01
    -13.193  0.0000E+00  0.3200E-01
    -13.100  0.0000E+00  0.3200E-01
    -13.007  0.0000E+00  0.3200E-01
    -12.914  0.0000E+00  0.3200E-01
    -12.821  0.0000E+00  0.3200E-01
    -12.728  0.0000E+00  0.3200E-01
    -12.635  0.0000E+00  0.3200E-01
    -12.542  0.0000E+00  0.3200E-01
    -12.449  0.0000E+00  0.3200E-01
    -12.356  0.0000E+00  0.3200E-01
    -12.263  0.0000E+00  0.3200E-01
    -12.171  0.0000E+00  0.3200E-01
    -12.078  0.0000E+00  0.3200E-01
    -11.985  0.0000E+00  0.3200E-01
    -11.892  0.0000E+00  0.3200E-01
    -11.799  0.0000E+00  0.3200E-01
    -11.706  0.0000E+00  0.3200E-01
    -11.613  0.0000E+00  0.3200E-01
    -11.520  0.0000E+00  0.3200E-01
    -11.427  0.0000E+00  0.3200E-01
    -11.334  0.0000E+00  0.3200E-01
    -11.241  0.0000E+00  0.3200E-01
    -11.148  0.0000E+00  0.3200E-01
    -11.055  0.0000E+00  0.3200E-01
    -10.963  0.0000E+00  0.3200E-01
    -10.870  0.0000E+00  0.3200E-01
    -10.777  0.0000E+00  0.3200E-01
    -10.684  0.0000E+00  0.3200E-01
    -10.591  0.0000E+00  0.3200E-01
    -10.498  0.0000E+00  0.3200E-01
    -10.405  0.0000E+00  0.3200E-01
    -10.312  0.0000E+00  0.3200E-01
    -10.219  0.0000E+00  0.3200E-01
    -10.126  0.0000E+00  0.3200E-01
    -10.033  0.0000E+00  0.3200E-01
     -9.940  0.0000E+00  0.3200E-01
     -9.847  0.2190E-16  0.3200E-01
     -9.754  0.3576E-12  0.3200E-01
     -9.662  0.1097E-08  0.3200E-01
     -9.569  0.6385E-06  0.3200E-01
     -9.476  0.7248E-04  0.3201E-01
     -9.383  0.1673E-02  0.3216E-01
     -9.290  0.8459E-02  0.3295E-01
     -9.197  0.1212E-01  0.3408E-01
     -9.104  0.1188E-01  0.3518E-01
     -9.011  0.7448E-02  0.3587E-01
     -8.918  0.1350E-02  0.3600E-01
     -8.825  0.5426E-03  0.3605E-01
     -8.732  0.3296E-02  0.3635E-01
     -8.639  0.8817E-02  0.3717E-01
     -8.546  0.1724E-01  0.3877E-01
     -8.453  0.2301E-01  0.4091E-01
     -8.361  0.2068E-01  0.4283E-01
     -8.268  0.2631E-01  0.4528E-01
     -8.175  0.3125E-01  0.4818E-01
     -8.082  0.2914E-01  0.5089E-01
     -7.989  0.2914E-01  0.5360E-01
     -7.896  0.4421E-01  0.5771E-01
     -7.803  0.6369E-01  0.6363E-01
     -7.710  0.6967E-01  0.7010E-01
     -7.617  0.6462E-01  0.7610E-01
     -7.524  0.7478E-01  0.8305E-01
     -7.431  0.1007E+00  0.9241E-01
     -7.338  0.1265E+00  0.1042E+00
     -7.245  0.1397E+00  0.1172E+00
     -7.152  0.1273E+00  0.1290E+00
     -7.060  0.1251E+00  0.1406E+00
     -6.967  0.1367E+00  0.1533E+00
     -6.874  0.1589E+00  0.1681E+00
     -6.781  0.1651E+00  0.1834E+00
     -6.688  0.1504E+00  0.1974E+00
     -6.595  0.1467E+00  0.2110E+00
     -6.502  0.1616E+00  0.2260E+00
     -6.409  0.1665E+00  0.2415E+00
     -6.316  0.1653E+00  0.2569E+00
     -6.223  0.1705E+00  0.2727E+00
     -6.130  0.1647E+00  0.2880E+00
     -6.037  0.1626E+00  0.3031E+00
     -5.944  0.1754E+00  0.3194E+00
     -5.851  0.1806E+00  0.3362E+00
     -5.759  0.1784E+00  0.3528E+00
     -5.666  0.1669E+00  0.3683E+00
     -5.573  0.1643E+00  0.3836E+00
     -5.480  0.1632E+00  0.3987E+00
     -5.387  0.1602E+00  0.4136E+00
     -5.294  0.1637E+00  0.4288E+00
     -5.201  0.1700E+00  0.4446E+00
     -5.108  0.1812E+00  0.4615E+00
     -5.015  0.1834E+00  0.4785E+00
     -4.922  0.1798E+00  0.4952E+00
     -4.829  0.1814E+00  0.5121E+00
     -4.736  0.1830E+00  0.5291E+00
     -4.643  0.1764E+00  0.5455E+00
     -4.550  0.1760E+00  0.5618E+00
     -4.458  0.1786E+00  0.5784E+00
     -4.365  0.1826E+00  0.5954E+00
     -4.272  0.1918E+00  0.6132E+00
     -4.179  0.1952E+00  0.6313E+00
     -4.086  0.1927E+00  0.6492E+00
     -3.993  0.1960E+00  0.6674E+00
     -3.900  0.2010E+00  0.6861E+00
     -3.807  0.1936E+00  0.7041E+00
     -3.714  0.1832E+00  0.7211E+00
     -3.621  0.1855E+00  0.7384E+00
     -3.528  0.1891E+00  0.7560E+00
     -3.435  0.1901E+00  0.7736E+00
     -3.342  0.1876E+00  0.7911E+00
     -3.250  0.1821E+00  0.8080E+00
     -3.157  0.1830E+00  0.8250E+00
     -3.064  0.1790E+00  0.8416E+00
     -2.971  0.1737E+00  0.8577E+00
     -2.878  0.1761E+00  0.8741E+00
     -2.785  0.1773E+00  0.8906E+00
     -2.692  0.1807E+00  0.9074E+00
     -2.599  0.1815E+00  0.9243E+00
     -2.506  0.1827E+00  0.9412E+00
     -2.413  0.1910E+00  0.9590E+00
     -2.320  0.1886E+00  0.9765E+00
     -2.227  0.1842E+00  0.9936E+00
     -2.134  0.1800E+00  0.1010E+01
     -2.041  0.1769E+00  0.1027E+01
     -1.949  0.1735E+00  0.1043E+01
     -1.856  0.1626E+00  0.1058E+01
     -1.763  0.1438E+00  0.1071E+01
     -1.670  0.1307E+00  0.1084E+01
     -1.577  0.1160E+00  0.1094E+01
     -1.484  0.9118E-01  0.1103E+01
     -1.391  0.6548E-01  0.1109E+01
     -1.298  0.5611E-01  0.1114E+01
     -1.205  0.5874E-01  0.1120E+01
     -1.112  0.6029E-01  0.1125E+01
     -1.019  0.5757E-01  0.1131E+01
     -0.926  0.5515E-01  0.1136E+01
     -0.833  0.5852E-01  0.1141E+01
     -0.740  0.5876E-01  0.1147E+01
     -0.648  0.5028E-01  0.1151E+01
     -0.555  0.4611E-01  0.1155E+01
     -0.462  0.4689E-01  0.1160E+01
     -0.369  0.3349E-01  0.1163E+01
     -0.276  0.1751E-01  0.1165E+01
     -0.183  0.1520E-01  0.1166E+01
     -0.090  0.1831E-01  0.1168E+01
      0.003  0.2158E-01  0.1170E+01
      0.096  0.2778E-01  0.1172E+01
      0.189  0.3432E-01  0.1175E+01
      0.282  0.3852E-01  0.1179E+01
      0.375  0.4032E-01  0.1183E+01
      0.468  0.4420E-01  0.1187E+01
      0.561  0.4083E-01  0.1191E+01
      0.653  0.3120E-01  0.1194E+01
      0.746  0.2265E-01  0.1196E+01
      0.839  0.1563E-01  0.1197E+01
      0.932  0.2088E-01  0.1199E+01
      1.025  0.3002E-01  0.1202E+01
      1.118  0.2640E-01  0.1204E+01
      1.211  0.1995E-01  0.1206E+01
      1.304  0.1884E-01  0.1208E+01
      1.397  0.3147E-01  0.1211E+01
      1.490  0.3634E-01  0.1214E+01
      1.583  0.3178E-01  0.1217E+01
      1.676  0.3638E-01  0.1221E+01
      1.769  0.3816E-01  0.1224E+01
      1.862  0.3638E-01  0.1228E+01
      1.954  0.3380E-01  0.1231E+01
      2.047  0.2880E-01  0.1233E+01
      2.140  0.2744E-01  0.1236E+01
      2.233  0.2851E-01  0.1239E+01
      2.326  0.2326E-01  0.1241E+01
      2.419  0.2164E-01  0.1243E+01
      2.512  0.2562E-01  0.1245E+01
      2.605  0.2170E-01  0.1247E+01
      2.698  0.2283E-01  0.1249E+01
      2.791  0.2627E-01  0.1252E+01
      2.884  0.2783E-01  0.1254E+01
      2.977  0.2992E-01  0.1257E+01
      3.070  0.3218E-01  0.1260E+01
      3.163  0.2754E-01  0.1263E+01
      3.255  0.2854E-01  0.1265E+01
      3.348  0.3503E-01  0.1268E+01
      3.441  0.3457E-01  0.1272E+01
      3.534  0.3012E-01  0.1274E+01
      3.627  0.2752E-01  0.1277E+01
      3.720  0.3097E-01  0.1280E+01
      3.813  0.3104E-01  0.1283E+01
      3.906  0.3273E-01  0.1286E+01
      3.999  0.3335E-01  0.1289E+01
      4.092  0.3304E-01  0.1292E+01
      4.185  0.3300E-01  0.1295E+01
      4.278  0.3762E-01  0.1299E+01
      4.371  0.4437E-01  0.1303E+01
      4.463  0.4906E-01  0.1307E+01
      4.556  0.4889E-01  0.1312E+01
      4.649  0.4869E-01  0.1316E+01
      4.742  0.5324E-01  0.1321E+01
      4.835  0.5318E-01  0.1326E+01
      4.928  0.5409E-01  0.1331E+01
      5.021  0.5973E-01  0.1337E+01
      5.114  0.4878E-01  0.1341E+01
      5.207  0.2376E-01  0.1344E+01
      5.300  0.4662E-02  0.1344E+01
      5.393  0.2660E-03  0.1344E+01
      5.486  0.3616E-05  0.1344E+01
      5.579  0.1039E-07  0.1344E+01
      5.672  0.5889E-11  0.1344E+01
      5.764  0.6340E-15  0.1344E+01
      5.857  0.0000E+00  0.1344E+01
      5.950  0.0000E+00  0.1344E+01
      6.043  0.0000E+00  0.1344E+01
      6.136  0.0000E+00  0.1344E+01
      6.229  0.0000E+00  0.1344E+01
      6.322  0.0000E+00  0.1344E+01
      6.415  0.0000E+00  0.1344E+01
