       N       E                     dE             d eps       ncg     rms          rms(c)
DAV:   1     0.320112725437E+04    0.32011E+04   -0.18988E+05  3672   0.112E+03
DAV:   2     0.125541182755E+02   -0.31886E+04   -0.29309E+04  4368   0.263E+02
DAV:   3    -0.202626680738E+03   -0.21518E+03   -0.20053E+03  4152   0.651E+01
DAV:   4    -0.208372002620E+03   -0.57453E+01   -0.56861E+01  4260   0.107E+01
DAV:   5    -0.208540839204E+03   -0.16884E+00   -0.16834E+00  4452   0.189E+00    0.620E+01
RMM:   6    -0.204615937415E+03    0.39249E+01   -0.10569E+02  3678   0.159E+01    0.562E+01
RMM:   7    -0.202011706256E+03    0.26042E+01   -0.57550E+01  3684   0.127E+01    0.403E+01
RMM:   8    -0.217185053058E+03   -0.15173E+02   -0.76605E+01  3672   0.130E+01    0.395E+01
RMM:   9    -0.209491433386E+03    0.76936E+01   -0.37771E+01  3678   0.934E+00    0.318E+01
RMM:  10    -0.194597419586E+03    0.14894E+02   -0.18132E+01  3679   0.677E+00    0.143E+01
RMM:  11    -0.191211136349E+03    0.33863E+01   -0.88962E+00  3680   0.459E+00    0.130E+01
RMM:  12    -0.190292545203E+03    0.91859E+00   -0.31675E+00  3678   0.281E+00    0.798E+00
RMM:  13    -0.189922484286E+03    0.37006E+00   -0.10744E+00  3679   0.163E+00    0.622E+00
RMM:  14    -0.189834838969E+03    0.87645E-01   -0.48122E-01  3679   0.110E+00    0.512E+00
RMM:  15    -0.189706223336E+03    0.12862E+00   -0.26354E-01  3678   0.802E-01    0.364E+00
RMM:  16    -0.189644925245E+03    0.61298E-01   -0.21429E-01  3679   0.699E-01    0.282E+00
RMM:  17    -0.189593625685E+03    0.51300E-01   -0.10483E-01  3680   0.499E-01    0.171E+00
RMM:  18    -0.189575411129E+03    0.18215E-01   -0.47189E-02  3680   0.339E-01    0.113E+00
RMM:  19    -0.189566715347E+03    0.86958E-02   -0.15008E-02  3679   0.192E-01    0.757E-01
RMM:  20    -0.189562786819E+03    0.39285E-02   -0.79315E-03  3678   0.137E-01    0.442E-01
RMM:  21    -0.189561615655E+03    0.11712E-02   -0.20559E-03  3679   0.681E-02    0.333E-01
RMM:  22    -0.189561411354E+03    0.20430E-03   -0.15591E-03  3677   0.615E-02    0.269E-01
RMM:  23    -0.189561136831E+03    0.27452E-03   -0.69536E-04  3677   0.420E-02    0.150E-01
RMM:  24    -0.189561163867E+03   -0.27036E-04   -0.47165E-04  3679   0.327E-02    0.674E-02
RMM:  25    -0.189561469839E+03   -0.30597E-03   -0.13741E-04  3679   0.173E-02    0.523E-02
RMM:  26    -0.189561809378E+03   -0.33954E-03   -0.55493E-05  3677   0.111E-02    0.368E-02
RMM:  27    -0.189562317902E+03   -0.50852E-03   -0.45732E-05  3672   0.987E-03    0.331E-02
RMM:  28    -0.189562758394E+03   -0.44049E-03   -0.31724E-05  3672   0.802E-03    0.195E-02
RMM:  29    -0.189563120604E+03   -0.36221E-03   -0.14931E-05  3392   0.541E-03    0.178E-02
RMM:  30    -0.189563743361E+03   -0.62276E-03   -0.32077E-05  3634   0.779E-03    0.169E-02
RMM:  31    -0.189564139200E+03   -0.39584E-03   -0.32051E-05  3562   0.730E-03    0.115E-02
RMM:  32    -0.189564245906E+03   -0.10671E-03   -0.68482E-06  2726   0.314E-03    0.713E-03
RMM:  33    -0.189564353077E+03   -0.10717E-03   -0.33232E-06  2513   0.247E-03    0.434E-03
RMM:  34    -0.189564435973E+03   -0.82896E-04   -0.22067E-06  2347   0.198E-03    0.290E-03
RMM:  35    -0.189564456083E+03   -0.20110E-04   -0.55350E-07  2139   0.102E-03    0.123E-03
RMM:  36    -0.189564486242E+03   -0.30159E-04   -0.42834E-07  2136   0.892E-04    0.123E-03
RMM:  37    -0.189564496146E+03   -0.99032E-05   -0.16409E-07  1323   0.554E-04    0.996E-04
RMM:  38    -0.189564509753E+03   -0.13607E-04   -0.26058E-07  2105   0.834E-04    0.514E-04
RMM:  39    -0.189564511622E+03   -0.18698E-05   -0.61897E-08   854   0.327E-04    0.455E-04
RMM:  40    -0.189564512250E+03   -0.62795E-06   -0.15152E-08   592   0.319E-04
   1 F= -.18956451E+03 E0= -.18942561E+03  d E =-.189565E+03
       N       E                     dE             d eps       ncg     rms          rms(c)
DAV:   1    -0.190595998874E+03   -0.10315E+01   -0.35807E+02  3696   0.290E+01    0.365E+00
RMM:   2    -0.190978282493E+03   -0.38228E+00   -0.37598E+00  3678   0.420E+00    0.259E+00
RMM:   3    -0.191112196479E+03   -0.13391E+00   -0.44999E-01  3703   0.116E+00    0.439E+00
RMM:   4    -0.190941900462E+03    0.17030E+00   -0.17454E-01  3686   0.706E-01    0.131E+00
RMM:   5    -0.190996264573E+03   -0.54364E-01   -0.98162E-02  3681   0.495E-01    0.249E+00
RMM:   6    -0.190944566206E+03    0.51698E-01   -0.49433E-02  3681   0.354E-01    0.108E+00
RMM:   7    -0.190933900645E+03    0.10666E-01   -0.14805E-02  3685   0.192E-01    0.509E-01
RMM:   8    -0.190931994592E+03    0.19061E-02   -0.50767E-03  3680   0.108E-01    0.386E-01
RMM:   9    -0.190930572641E+03    0.14220E-02   -0.25263E-03  3681   0.782E-02    0.204E-01
RMM:  10    -0.190930206002E+03    0.36664E-03   -0.99709E-04  3682   0.501E-02    0.981E-02
RMM:  11    -0.190930133516E+03    0.72486E-04   -0.24038E-04  3685   0.246E-02    0.563E-02
RMM:  12    -0.190930124672E+03    0.88439E-05   -0.43292E-05  3690   0.108E-02    0.419E-02
RMM:  13    -0.190930116125E+03    0.85473E-05   -0.26162E-05  3672   0.826E-03    0.277E-02
RMM:  14    -0.190930112026E+03    0.40987E-05   -0.12499E-05  3660   0.584E-03    0.147E-02
RMM:  15    -0.190930110385E+03    0.16410E-05   -0.41950E-06  2762   0.335E-03    0.587E-03
RMM:  16    -0.190930110800E+03   -0.41469E-06   -0.10041E-06  2011   0.175E-03
   2 F= -.19093011E+03 E0= -.19079105E+03  d E =-.136560E+01
       N       E                     dE             d eps       ncg     rms          rms(c)
DAV:   1    -0.189496849348E+03    0.14333E+01   -0.33503E+03  3672   0.908E+01    0.887E+00
RMM:   2    -0.192879621271E+03   -0.33828E+01   -0.33200E+01  3679   0.125E+01    0.668E+00
RMM:   3    -0.193554866978E+03   -0.67525E+00   -0.30535E+00  3705   0.299E+00    0.102E+01
RMM:   4    -0.192529577603E+03    0.10253E+01   -0.88907E-01  3683   0.161E+00    0.358E+00
RMM:   5    -0.192850965431E+03   -0.32139E+00   -0.66136E-01  3681   0.128E+00    0.613E+00
RMM:   6    -0.192658953627E+03    0.19201E+00   -0.42312E-01  3681   0.103E+00    0.419E+00
RMM:   7    -0.192481120857E+03    0.17783E+00   -0.16545E-01  3683   0.637E-01    0.145E+00
RMM:   8    -0.192475553742E+03    0.55671E-02   -0.67216E-02  3681   0.394E-01    0.145E+00
RMM:   9    -0.192450305663E+03    0.25248E-01   -0.28288E-02  3681   0.263E-01    0.541E-01
RMM:  10    -0.192448319218E+03    0.19864E-02   -0.67262E-03  3681   0.130E-01    0.330E-01
RMM:  11    -0.192447733230E+03    0.58599E-03   -0.18765E-03  3686   0.681E-02    0.216E-01
RMM:  12    -0.192447547859E+03    0.18537E-03   -0.73807E-04  3684   0.438E-02    0.152E-01
RMM:  13    -0.192447425249E+03    0.12261E-03   -0.33739E-04  3681   0.302E-02    0.775E-02
RMM:  14    -0.192447401087E+03    0.24162E-04   -0.14271E-04  3680   0.193E-02    0.435E-02
RMM:  15    -0.192447390071E+03    0.11016E-04   -0.38893E-05  3680   0.101E-02    0.237E-02
RMM:  16    -0.192447389927E+03    0.14407E-06   -0.97826E-06  3433   0.508E-03
   3 F= -.19244739E+03 E0= -.19231135E+03  d E =-.288288E+01
       N       E                     dE             d eps       ncg     rms          rms(c)
DAV:   1    -0.192608859384E+03   -0.16147E+00   -0.27062E+02  3684   0.254E+01    0.225E+00
RMM:   2    -0.192907914651E+03   -0.29906E+00   -0.30492E+00  3681   0.373E+00    0.177E+00
RMM:   3    -0.192957676008E+03   -0.49761E-01   -0.25146E-01  3709   0.868E-01    0.282E+00
RMM:   4    -0.192885692900E+03    0.71983E-01   -0.59722E-02  3685   0.422E-01    0.883E-01
RMM:   5    -0.192918167054E+03   -0.32474E-01   -0.45490E-02  3681   0.330E-01    0.184E+00
RMM:   6    -0.192893683045E+03    0.24484E-01   -0.35097E-02  3681   0.286E-01    0.111E+00
RMM:   7    -0.192880923366E+03    0.12760E-01   -0.13752E-02  3681   0.186E-01    0.319E-01
RMM:   8    -0.192879824666E+03    0.10987E-02   -0.33889E-03  3680   0.954E-02    0.210E-01
RMM:   9    -0.192879361006E+03    0.46366E-03   -0.13118E-03  3683   0.559E-02    0.147E-01
RMM:  10    -0.192879156403E+03    0.20460E-03   -0.35005E-04  3684   0.292E-02    0.648E-02
RMM:  11    -0.192879128559E+03    0.27844E-04   -0.11032E-04  3681   0.164E-02    0.371E-02
RMM:  12    -0.192879127810E+03    0.74854E-06   -0.48110E-05  3681   0.109E-02    0.287E-02
RMM:  13    -0.192879125223E+03    0.25879E-05   -0.17553E-05  3675   0.675E-03    0.173E-02
RMM:  14    -0.192879126444E+03   -0.12212E-05   -0.45003E-06  2794   0.361E-03    0.953E-03
RMM:  15    -0.192879127021E+03   -0.57681E-06   -0.13725E-06  2062   0.209E-03
   4 F= -.19287913E+03 E0= -.19274523E+03  d E =-.431737E+00
       N       E                     dE             d eps       ncg     rms          rms(c)
DAV:   1    -0.192832991205E+03    0.46135E-01   -0.11817E+02  3696   0.168E+01    0.138E+00
RMM:   2    -0.192964995522E+03   -0.13200E+00   -0.13457E+00  3681   0.248E+00    0.114E+00
RMM:   3    -0.192983180245E+03   -0.18185E-01   -0.10708E-01  3710   0.568E-01    0.176E+00
RMM:   4    -0.192955294589E+03    0.27886E-01   -0.22545E-02  3686   0.261E-01    0.576E-01
RMM:   5    -0.192969530123E+03   -0.14236E-01   -0.16353E-02  3681   0.196E-01    0.123E+00
RMM:   6    -0.192957085829E+03    0.12444E-01   -0.15810E-02  3680   0.193E-01    0.646E-01
RMM:   7    -0.192953032349E+03    0.40535E-02   -0.59497E-03  3680   0.123E-01    0.213E-01
RMM:   8    -0.192952575109E+03    0.45724E-03   -0.14341E-03  3681   0.621E-02    0.144E-01
RMM:   9    -0.192952362660E+03    0.21245E-03   -0.54776E-04  3681   0.363E-02    0.983E-02
RMM:  10    -0.192952262836E+03    0.99824E-04   -0.15443E-04  3682   0.193E-02    0.385E-02
RMM:  11    -0.192952254046E+03    0.87892E-05   -0.48885E-05  3679   0.109E-02    0.240E-02
RMM:  12    -0.192952252996E+03    0.10506E-05   -0.24832E-05  3681   0.772E-03    0.171E-02
RMM:  13    -0.192952252991E+03    0.53042E-08   -0.74877E-06  3320   0.442E-03
   5 F= -.19295225E+03 E0= -.19281982E+03  d E =-.504863E+00
       N       E                     dE             d eps       ncg     rms          rms(c)
DAV:   1    -0.192960309054E+03   -0.80561E-02   -0.35505E+01  3720   0.922E+00    0.741E-01
RMM:   2    -0.192997965475E+03   -0.37656E-01   -0.40643E-01  3681   0.135E+00    0.452E-01
RMM:   3    -0.193001063206E+03   -0.30977E-02   -0.24635E-02  3715   0.277E-01    0.684E-01
RMM:   4    -0.192997211897E+03    0.38513E-02   -0.52427E-03  3679   0.126E-01    0.312E-01
RMM:   5    -0.192998003526E+03   -0.79163E-03   -0.44274E-03  3680   0.106E-01    0.393E-01
RMM:   6    -0.192997484859E+03    0.51867E-03   -0.33486E-03  3680   0.910E-02    0.325E-01
RMM:   7    -0.192996711909E+03    0.77295E-03   -0.11046E-03  3684   0.510E-02    0.185E-01
RMM:   8    -0.192996381808E+03    0.33010E-03   -0.41600E-04  3680   0.326E-02    0.782E-02
RMM:   9    -0.192996323379E+03    0.58429E-04   -0.16909E-04  3679   0.201E-02    0.524E-02
RMM:  10    -0.192996289829E+03    0.33550E-04   -0.58762E-05  3681   0.121E-02    0.227E-02
RMM:  11    -0.192996286356E+03    0.34732E-05   -0.12273E-05  3667   0.546E-03    0.125E-02
RMM:  12    -0.192996286121E+03    0.23504E-06   -0.73741E-06  3672   0.412E-03
   6 F= -.19299629E+03 E0= -.19286470E+03  d E =-.440331E-01
       N       E                     dE             d eps       ncg     rms          rms(c)
DAV:   1    -0.192995815412E+03    0.47094E-03   -0.23148E+00  3744   0.235E+00    0.185E-01
RMM:   2    -0.192998269980E+03   -0.24546E-02   -0.26543E-02  3681   0.346E-01    0.117E-01
RMM:   3    -0.192998504081E+03   -0.23410E-03   -0.16724E-03  3716   0.720E-02    0.187E-01
RMM:   4    -0.192998206514E+03    0.29757E-03   -0.34484E-04  3679   0.323E-02    0.787E-02
RMM:   5    -0.192998326948E+03   -0.12043E-03   -0.27324E-04  3680   0.260E-02    0.125E-01
RMM:   6    -0.192998282811E+03    0.44137E-04   -0.24231E-04  3680   0.237E-02    0.109E-01
RMM:   7    -0.192998166876E+03    0.11594E-03   -0.12072E-04  3681   0.172E-02    0.362E-02
RMM:   8    -0.192998158681E+03    0.81948E-05   -0.27027E-05  3672   0.854E-03    0.183E-02
RMM:   9    -0.192998155529E+03    0.31521E-05   -0.10914E-05  3663   0.510E-03    0.144E-02
RMM:  10    -0.192998153004E+03    0.25253E-05   -0.38680E-06  2631   0.319E-03    0.608E-03
RMM:  11    -0.192998152738E+03    0.26583E-06   -0.98636E-07  1957   0.179E-03
   7 F= -.19299815E+03 E0= -.19286679E+03  d E =-.458997E-01
       N       E                     dE             d eps       ncg     rms          rms(c)
DAV:   1    -0.193001950789E+03   -0.37978E-02   -0.69655E+00  3684   0.407E+00    0.254E-01
RMM:   2    -0.193009778586E+03   -0.78278E-02   -0.79616E-02  3679   0.603E-01    0.288E-01
RMM:   3    -0.193009846777E+03   -0.68191E-04   -0.55195E-03  3742   0.131E-01    0.248E-01
RMM:   4    -0.193009437498E+03    0.40928E-03   -0.83230E-04  3675   0.488E-02    0.184E-01
RMM:   5    -0.193009580697E+03   -0.14320E-03   -0.58848E-04  3683   0.374E-02    0.234E-01
RMM:   6    -0.193009253927E+03    0.32677E-03   -0.81552E-04  3680   0.439E-02    0.166E-01
RMM:   7    -0.193009097035E+03    0.15689E-03   -0.76578E-04  3681   0.434E-02    0.803E-02
RMM:   8    -0.193009060778E+03    0.36257E-04   -0.15059E-04  3681   0.198E-02    0.442E-02
RMM:   9    -0.193009040890E+03    0.19888E-04   -0.33872E-05  3677   0.936E-03    0.342E-02
RMM:  10    -0.193009022559E+03    0.18331E-04   -0.31143E-05  3680   0.841E-03    0.199E-02
RMM:  11    -0.193009017608E+03    0.49511E-05   -0.98468E-06  3669   0.475E-03    0.101E-02
RMM:  12    -0.193009016254E+03    0.13543E-05   -0.11852E-05  3672   0.503E-03    0.534E-03
RMM:  13    -0.193009016185E+03    0.69042E-07   -0.16100E-06  1995   0.212E-03
   8 F= -.19300902E+03 E0= -.19287759E+03  d E =-.108634E-01
       N       E                     dE             d eps       ncg     rms          rms(c)
DAV:   1    -0.193006795278E+03    0.22210E-02   -0.56609E+00  3672   0.367E+00    0.226E-01
RMM:   2    -0.193013159195E+03   -0.63639E-02   -0.64623E-02  3679   0.544E-01    0.261E-01
RMM:   3    -0.193013192365E+03   -0.33169E-04   -0.44738E-03  3743   0.118E-01    0.221E-01
RMM:   4    -0.193012873038E+03    0.31933E-03   -0.66374E-04  3676   0.435E-02    0.167E-01
RMM:   5    -0.193012965235E+03   -0.92197E-04   -0.45957E-04  3684   0.331E-02    0.207E-01
RMM:   6    -0.193012717047E+03    0.24819E-03   -0.66143E-04  3679   0.395E-02    0.149E-01
RMM:   7    -0.193012591856E+03    0.12519E-03   -0.63178E-04  3681   0.394E-02    0.723E-02
RMM:   8    -0.193012563345E+03    0.28511E-04   -0.12313E-04  3681   0.179E-02    0.402E-02
RMM:   9    -0.193012547028E+03    0.16317E-04   -0.27372E-05  3675   0.841E-03    0.310E-02
RMM:  10    -0.193012531749E+03    0.15279E-04   -0.25964E-05  3677   0.769E-03    0.179E-02
RMM:  11    -0.193012527839E+03    0.39101E-05   -0.80199E-06  3639   0.429E-03    0.936E-03
RMM:  12    -0.193012526752E+03    0.10866E-05   -0.96435E-06  3672   0.455E-03    0.523E-03
RMM:  13    -0.193012526691E+03    0.61409E-07   -0.14436E-06  1971   0.200E-03
   9 F= -.19301253E+03 E0= -.19288106E+03  d E =-.143740E-01
       N       E                     dE             d eps       ncg     rms          rms(c)
DAV:   1    -0.193012519208E+03    0.75443E-05   -0.92905E+00  3672   0.470E+00    0.257E-01
RMM:   2    -0.193023702929E+03   -0.11184E-01   -0.10831E-01  3679   0.703E-01    0.408E-01
RMM:   3    -0.193022936736E+03    0.76619E-03   -0.77997E-03  3746   0.155E-01    0.243E-01
RMM:   4    -0.193022502002E+03    0.43473E-03   -0.71912E-04  3673   0.473E-02    0.179E-01
RMM:   5    -0.193022629792E+03   -0.12779E-03   -0.52912E-04  3687   0.363E-02    0.234E-01
RMM:   6    -0.193022427779E+03    0.20201E-03   -0.82685E-04  3680   0.432E-02    0.211E-01
RMM:   7    -0.193022135347E+03    0.29243E-03   -0.13355E-03  3679   0.562E-02    0.100E-01
RMM:   8    -0.193022101144E+03    0.34203E-04   -0.27581E-04  3679   0.263E-02    0.566E-02
RMM:   9    -0.193022075469E+03    0.25675E-04   -0.36638E-05  3681   0.983E-03    0.442E-02
RMM:  10    -0.193022048241E+03    0.27227E-04   -0.41912E-05  3676   0.977E-03    0.300E-02
RMM:  11    -0.193022036693E+03    0.11549E-04   -0.22546E-05  3675   0.707E-03    0.150E-02
RMM:  12    -0.193022034416E+03    0.22766E-05   -0.23738E-05  3679   0.713E-03    0.760E-03
RMM:  13    -0.193022034312E+03    0.10378E-06   -0.29881E-06  2370   0.281E-03
  10 F= -.19302203E+03 E0= -.19289009E+03  d E =-.950762E-02
       N       E                     dE             d eps       ncg     rms          rms(c)
DAV:   1    -0.193009602001E+03    0.12432E-01   -0.17873E+01  3672   0.652E+00    0.356E-01
RMM:   2    -0.193031256284E+03   -0.21654E-01   -0.20843E-01  3679   0.975E-01    0.570E-01
RMM:   3    -0.193029734528E+03    0.15218E-02   -0.15040E-02  3744   0.215E-01    0.335E-01
RMM:   4    -0.193028883478E+03    0.85105E-03   -0.13736E-03  3673   0.653E-02    0.248E-01
RMM:   5    -0.193029107435E+03   -0.22396E-03   -0.97737E-04  3690   0.494E-02    0.323E-01
RMM:   6    -0.193028660189E+03    0.44725E-03   -0.15688E-03  3681   0.596E-02    0.286E-01
RMM:   7    -0.193028109533E+03    0.55066E-03   -0.25967E-03  3679   0.784E-02    0.138E-01
RMM:   8    -0.193028039858E+03    0.69675E-04   -0.53327E-04  3679   0.366E-02    0.787E-02
RMM:   9    -0.193027990178E+03    0.49679E-04   -0.70719E-05  3686   0.136E-02    0.611E-02
RMM:  10    -0.193027938246E+03    0.51932E-04   -0.80232E-05  3679   0.135E-02    0.420E-02
RMM:  11    -0.193027915741E+03    0.22505E-04   -0.43123E-05  3678   0.979E-03    0.209E-02
RMM:  12    -0.193027911234E+03    0.45070E-05   -0.45342E-05  3680   0.986E-03    0.111E-02
RMM:  13    -0.193027910948E+03    0.28514E-06   -0.66519E-06  3262   0.399E-03
  11 F= -.19302791E+03 E0= -.19289535E+03  d E =-.153843E-01
       N       E                     dE             d eps       ncg     rms          rms(c)
DAV:   1    -0.193020785194E+03    0.71260E-02   -0.14972E+01  3672   0.598E+00    0.329E-01
RMM:   2    -0.193038427298E+03   -0.17642E-01   -0.17038E-01  3679   0.884E-01    0.492E-01
RMM:   3    -0.193037340185E+03    0.10871E-02   -0.12074E-02  3725   0.192E-01    0.328E-01
RMM:   4    -0.193036369855E+03    0.97033E-03   -0.11184E-03  3675   0.599E-02    0.193E-01
RMM:   5    -0.193036183788E+03    0.18607E-03   -0.67346E-04  3682   0.425E-02    0.194E-01
RMM:   6    -0.193036016756E+03    0.16703E-03   -0.22945E-03  3679   0.740E-02    0.166E-01
RMM:   7    -0.193036067440E+03   -0.50685E-04   -0.85145E-04  3679   0.447E-02    0.155E-01
RMM:   8    -0.193035844548E+03    0.22289E-03   -0.19813E-04  3683   0.216E-02    0.685E-02
RMM:   9    -0.193035818885E+03    0.25662E-04   -0.47864E-05  3678   0.111E-02    0.472E-02
RMM:  10    -0.193035793024E+03    0.25861E-04   -0.46636E-05  3675   0.105E-02    0.330E-02
RMM:  11    -0.193035779998E+03    0.13026E-04   -0.27615E-05  3677   0.794E-03    0.159E-02
RMM:  12    -0.193035778810E+03    0.11888E-05   -0.22968E-05  3676   0.710E-03    0.102E-02
RMM:  13    -0.193035778434E+03    0.37521E-06   -0.37932E-06  2628   0.312E-03
  12 F= -.19303578E+03 E0= -.19290289E+03  d E =-.786749E-02
       N       E                     dE             d eps       ncg     rms          rms(c)
DAV:   1    -0.193033782091E+03    0.19967E-02   -0.31122E+00  3672   0.273E+00    0.150E-01
RMM:   2    -0.193037419774E+03   -0.36377E-02   -0.35410E-02  3679   0.403E-01    0.226E-01
RMM:   3    -0.193037172938E+03    0.24684E-03   -0.25171E-03  3725   0.877E-02    0.150E-01
RMM:   4    -0.193036983687E+03    0.18925E-03   -0.23072E-04  3675   0.272E-02    0.882E-02
RMM:   5    -0.193036955447E+03    0.28240E-04   -0.13856E-04  3682   0.193E-02    0.882E-02
RMM:   6    -0.193036930103E+03    0.25344E-04   -0.48898E-04  3678   0.342E-02    0.689E-02
RMM:   7    -0.193036939982E+03   -0.98791E-05   -0.17053E-04  3678   0.202E-02    0.603E-02
RMM:   8    -0.193036910646E+03    0.29336E-04   -0.33817E-05  3682   0.890E-03    0.328E-02
RMM:   9    -0.193036903662E+03    0.69843E-05   -0.94123E-06  3374   0.486E-03    0.218E-02
RMM:  10    -0.193036898473E+03    0.51887E-05   -0.97143E-06  3670   0.482E-03    0.150E-02
RMM:  11    -0.193036895862E+03    0.26111E-05   -0.54812E-06  3029   0.360E-03    0.740E-03
RMM:  12    -0.193036895747E+03    0.11464E-06   -0.49328E-06  3116   0.347E-03
  13 F= -.19303690E+03 E0= -.19290387E+03  d E =-.898480E-02
       N       E                     dE             d eps       ncg     rms          rms(c)
DAV:   1    -0.193032160895E+03    0.47350E-02   -0.85075E+00  3672   0.451E+00    0.230E-01
RMM:   2    -0.193042079997E+03   -0.99191E-02   -0.95976E-02  3679   0.662E-01    0.362E-01
RMM:   3    -0.193041430966E+03    0.64903E-03   -0.66128E-03  3719   0.141E-01    0.233E-01
RMM:   4    -0.193040971626E+03    0.45934E-03   -0.59363E-04  3676   0.434E-02    0.155E-01
RMM:   5    -0.193040913785E+03    0.57842E-04   -0.19106E-04  3686   0.226E-02    0.155E-01
RMM:   6    -0.193040831499E+03    0.82286E-04   -0.46322E-04  3677   0.330E-02    0.156E-01
RMM:   7    -0.193040653311E+03    0.17819E-03   -0.13313E-03  3679   0.559E-02    0.660E-02
RMM:   8    -0.193040661933E+03   -0.86227E-05   -0.17851E-04  3674   0.210E-02    0.498E-02
RMM:   9    -0.193040643390E+03    0.18544E-04   -0.26187E-05  3689   0.842E-03    0.348E-02
RMM:  10    -0.193040631559E+03    0.11830E-04   -0.16668E-05  3673   0.641E-03    0.259E-02
RMM:  11    -0.193040623913E+03    0.76465E-05   -0.14074E-05  3672   0.569E-03    0.141E-02
RMM:  12    -0.193040622042E+03    0.18706E-05   -0.19708E-05  3678   0.660E-03    0.661E-03
RMM:  13    -0.193040622155E+03   -0.11252E-06   -0.27339E-06  2273   0.269E-03
  14 F= -.19304062E+03 E0= -.19290745E+03  d E =-.372641E-02
       N       E                     dE             d eps       ncg     rms          rms(c)
DAV:   1    -0.193039897061E+03    0.72498E-03   -0.10765E+00  3696   0.160E+00    0.815E-02
RMM:   2    -0.193041138607E+03   -0.12415E-02   -0.12121E-02  3679   0.236E-01    0.131E-01
RMM:   3    -0.193041041162E+03    0.97445E-04   -0.83706E-04  3720   0.503E-02    0.824E-02
RMM:   4    -0.193040989260E+03    0.51903E-04   -0.73669E-05  3675   0.153E-02    0.557E-02
RMM:   5    -0.193040984059E+03    0.52006E-05   -0.23396E-05  3682   0.792E-03    0.552E-02
RMM:   6    -0.193040980096E+03    0.39635E-05   -0.59994E-05  3674   0.119E-02    0.561E-02
RMM:   7    -0.193040966261E+03    0.13835E-04   -0.17358E-04  3678   0.202E-02    0.236E-02
RMM:   8    -0.193040968421E+03   -0.21600E-05   -0.22888E-05  3672   0.753E-03    0.180E-02
RMM:   9    -0.193040966056E+03    0.23649E-05   -0.31697E-06  2530   0.302E-03    0.124E-02
RMM:  10    -0.193040964542E+03    0.15135E-05   -0.20511E-06  2043   0.246E-03    0.950E-03
RMM:  11    -0.193040963563E+03    0.97922E-06   -0.19337E-06  1957   0.244E-03
  15 F= -.19304096E+03 E0= -.19290774E+03  d E =-.406782E-02
       N       E                     dE             d eps       ncg     rms          rms(c)
DAV:   1    -0.193035783502E+03    0.51810E-02   -0.84969E+00  3672   0.450E+00    0.227E-01
RMM:   2    -0.193045959342E+03   -0.10176E-01   -0.96757E-02  3677   0.665E-01    0.388E-01
RMM:   3    -0.193045146732E+03    0.81261E-03   -0.68406E-03  3738   0.145E-01    0.223E-01
RMM:   4    -0.193044802480E+03    0.34425E-03   -0.59176E-04  3674   0.429E-02    0.175E-01
RMM:   5    -0.193044736236E+03    0.66244E-04   -0.23304E-04  3686   0.247E-02    0.178E-01
RMM:   6    -0.193044625419E+03    0.11082E-03   -0.58782E-04  3680   0.371E-02    0.176E-01
RMM:   7    -0.193044390039E+03    0.23538E-03   -0.16460E-03  3679   0.620E-02    0.642E-02
RMM:   8    -0.193044411536E+03   -0.21497E-04   -0.17635E-04  3673   0.209E-02    0.562E-02
RMM:   9    -0.193044388848E+03    0.22689E-04   -0.23430E-05  3688   0.809E-03    0.406E-02
RMM:  10    -0.193044373977E+03    0.14871E-04   -0.16728E-05  3672   0.639E-03    0.320E-02
RMM:  11    -0.193044358962E+03    0.15015E-04   -0.30395E-05  3674   0.825E-03    0.163E-02
RMM:  12    -0.193044355829E+03    0.31325E-05   -0.26208E-05  3678   0.756E-03    0.677E-03
RMM:  13    -0.193044356041E+03   -0.21188E-06   -0.35562E-06  2516   0.301E-03
  16 F= -.19304436E+03 E0= -.19291106E+03  d E =-.339248E-02
       N       E                     dE             d eps       ncg     rms          rms(c)
DAV:   1    -0.193041787766E+03    0.25681E-02   -0.35520E+00  3672   0.291E+00    0.146E-01
RMM:   2    -0.193046013288E+03   -0.42255E-02   -0.40332E-02  3677   0.430E-01    0.252E-01
RMM:   3    -0.193045651515E+03    0.36177E-03   -0.28487E-03  3738   0.935E-02    0.143E-01
RMM:   4    -0.193045516930E+03    0.13458E-03   -0.24192E-04  3674   0.275E-02    0.113E-01
RMM:   5    -0.193045495351E+03    0.21579E-04   -0.95989E-05  3685   0.159E-02    0.116E-01
RMM:   6    -0.193045457305E+03    0.38046E-04   -0.25182E-04  3678   0.243E-02    0.115E-01
RMM:   7    -0.193045368109E+03    0.89196E-04   -0.70122E-04  3679   0.405E-02    0.413E-02
RMM:   8    -0.193045378659E+03   -0.10550E-04   -0.73560E-05  3673   0.135E-02    0.367E-02
RMM:   9    -0.193045368927E+03    0.97328E-05   -0.98347E-06  3529   0.525E-03    0.264E-02
RMM:  10    -0.193045362469E+03    0.64574E-05   -0.72497E-06  3377   0.424E-03    0.208E-02
RMM:  11    -0.193045356212E+03    0.62571E-05   -0.12765E-05  3671   0.540E-03    0.107E-02
RMM:  12    -0.193045354931E+03    0.12809E-05   -0.11304E-05  3670   0.497E-03    0.449E-03
RMM:  13    -0.193045355034E+03   -0.10248E-06   -0.14124E-06  1983   0.197E-03
  17 F= -.19304536E+03 E0= -.19291202E+03  d E =-.439147E-02
       N       E                     dE             d eps       ncg     rms          rms(c)
DAV:   1    -0.193030283747E+03    0.15071E-01   -0.14208E+01  3672   0.582E+00    0.294E-01
RMM:   2    -0.193047359052E+03   -0.17075E-01   -0.16161E-01  3676   0.860E-01    0.504E-01
RMM:   3    -0.193045982663E+03    0.13764E-02   -0.11445E-02  3738   0.187E-01    0.287E-01
RMM:   4    -0.193045391907E+03    0.59076E-03   -0.98613E-04  3674   0.553E-02    0.227E-01
RMM:   5    -0.193045268870E+03    0.12304E-03   -0.38858E-04  3685   0.319E-02    0.229E-01
RMM:   6    -0.193045066340E+03    0.20253E-03   -0.99676E-04  3677   0.483E-02    0.227E-01
RMM:   7    -0.193044644942E+03    0.42140E-03   -0.27665E-03  3679   0.804E-02    0.820E-02
RMM:   8    -0.193044678607E+03   -0.33665E-04   -0.28786E-04  3673   0.267E-02    0.728E-02
RMM:   9    -0.193044639383E+03    0.39225E-04   -0.39111E-05  3691   0.104E-02    0.524E-02
RMM:  10    -0.193044614132E+03    0.25250E-04   -0.28636E-05  3677   0.836E-03    0.412E-02
RMM:  11    -0.193044589254E+03    0.24878E-04   -0.50188E-05  3675   0.106E-02    0.211E-02
RMM:  12    -0.193044583813E+03    0.54409E-05   -0.44079E-05  3680   0.981E-03    0.857E-03
RMM:  13    -0.193044584145E+03   -0.33175E-06   -0.61699E-06  3212   0.384E-03
  18 F= -.19304458E+03 E0= -.19291116E+03  d E =-.362058E-02
       N       E                     dE             d eps       ncg     rms          rms(c)
DAV:   1    -0.193037957525E+03    0.66263E-02   -0.74910E+00  3672   0.422E+00    0.213E-01
RMM:   2    -0.193046849180E+03   -0.88917E-02   -0.85185E-02  3676   0.624E-01    0.358E-01
RMM:   3    -0.193046204860E+03    0.64432E-03   -0.60203E-03  3739   0.136E-01    0.210E-01
RMM:   4    -0.193045892227E+03    0.31263E-03   -0.52806E-04  3676   0.406E-02    0.162E-01
RMM:   5    -0.193045841948E+03    0.50279E-04   -0.20759E-04  3685   0.233E-02    0.167E-01
RMM:   6    -0.193045760726E+03    0.81221E-04   -0.52612E-04  3678   0.350E-02    0.166E-01
