unknown system                          
           1
    11.002582    0.000000    0.000000
     5.501291    9.528515    0.000000
     0.000000    0.000000   24.491785
   Au   Pd
  24  24
Direct configuration=     1
   0.25000000  0.75000000  0.59169983
   0.83333333  0.83333333  0.40830017
   0.75000000  0.50000000  0.59169983
   0.66666667  0.66666667  0.50000000
   0.83333333  0.33333333  0.40830017
   0.66666667  0.16666667  0.50000000
   0.50000000  0.75000000  0.59169983
   0.58333333  0.83333333  0.40830017
   0.50000000  0.50000000  0.59169983
   0.41666667  0.66666667  0.50000000
   0.58333333  0.58333333  0.40830017
   0.58333333  0.33333333  0.40830017
   0.58333333  0.08333333  0.40830017
   0.66666667  0.91666667  0.50000000
   0.33333333  0.83333333  0.40830017
   0.25000000  0.50000000  0.59169983
   0.75000000  0.75000000  0.59169983
   0.00000000  0.50000000  0.59169983
   0.91666667  0.16666667  0.50000000
   0.00000000  0.00000000  0.59169983
   0.25000000  0.00000000  0.59169983
   0.33333333  0.08333333  0.40830017
   0.00000000  0.25000000  0.59169983
   0.08333333  0.58333333  0.40830017
   0.08333333  0.33333333  0.40830017
   0.83333333  0.58333333  0.40830017
   0.75000000  0.25000000  0.59169983
   0.66666667  0.41666667  0.50000000
   0.91666667  0.41666667  0.50000000
   0.75000000  0.00000000  0.59169983
   0.83333333  0.08333333  0.40830017
   0.41666667  0.91666667  0.50000000
   0.91666667  0.66666667  0.50000000
   0.25000000  0.25000000  0.59169983
   0.08333333  0.83333333  0.40830017
   0.91666667  0.91666667  0.50000000
   0.50000000  0.25000000  0.59169983
   0.41666667  0.41666667  0.50000000
   0.00000000  0.75000000  0.59169983
   0.50000000  0.00000000  0.59169983
   0.41666667  0.16666667  0.50000000
   0.16666667  0.16666667  0.50000000
   0.16666667  0.91666667  0.50000000
   0.33333333  0.33333333  0.40830017
   0.16666667  0.66666667  0.50000000
   0.33333333  0.58333333  0.40830017
   0.16666667  0.41666667  0.50000000
   0.08333333  0.08333333  0.40830017
Direct configuration=     2
   0.24859157  0.75033690  0.59359242
   0.83475233  0.83302658  0.40641822
   0.75029888  0.49869274  0.59365875
   0.66844193  0.66544222  0.49963099
   0.83462516  0.33312044  0.40645425
   0.66637364  0.16718011  0.50075864
   0.49972309  0.75138410  0.59392749
   0.58351624  0.83291847  0.40603346
   0.50094180  0.49793488  0.59359883
   0.41516739  0.66632180  0.49954500
   0.58368317  0.58259651  0.40612272
   0.58228250  0.33385396  0.40641229
   0.58278328  0.08445714  0.40605193
   0.66633192  0.91755522  0.50083018
   0.33143869  0.83399927  0.40649929
   0.24996470  0.49926877  0.59318183
   0.75055439  0.75125849  0.59388093
   0.00088001  0.50003173  0.59322200
   0.91717187  0.16621833  0.49955564
  -0.00110976 -0.00067263  0.59354767
   0.25081741  0.00078202  0.59329274
   0.33171777  0.08490746  0.40676244
   0.00030502  0.25023974  0.59355710
   0.08410432  0.58252373  0.40688621
   0.08337822  0.33333794  0.40765160
   0.83415142  0.58260245  0.40727101
   0.74920333  0.24993647  0.59284570
   0.66685755  0.41605235  0.50021313
   0.91783075  0.41673634  0.49949884
   0.74991391  0.00027372  0.59276397
   0.83455895  0.08244637  0.40708004
   0.41543730  0.91845982  0.50029151
   0.91804282  0.66603798  0.49995933
   0.25101684  0.24944734  0.59235075
   0.08318238  0.83391062  0.40757853
   0.91809117  0.91533323  0.49999066
   0.50021937  0.24920479  0.59256312
   0.41577824  0.41629663  0.49985385
  -0.00049236  0.75050476  0.59247173
   0.49942007  0.00118330  0.59265199
   0.41504178  0.16787195  0.50053384
   0.16723381  0.16706105  0.49969802
   0.16607262  0.91681811  0.49943954
   0.33268529  0.33394634  0.40756924
   0.16582203  0.66718794  0.49970008
   0.33261665  0.58309772  0.40743340
   0.16739606  0.41561547  0.49975533
   0.08318448  0.08325933  0.40741378
Direct configuration=     3
   0.24436626  0.75134760  0.59927020
   0.83900931  0.83210633  0.40077239
   0.75119554  0.49477097  0.59953550
   0.67376772  0.66176887  0.49852397
   0.83850065  0.33248176  0.40091649
   0.66549455  0.16872044  0.50303454
   0.49889235  0.75553641  0.60061049
   0.58406498  0.83167389  0.39923332
   0.50376721  0.49173954  0.59929585
   0.41066956  0.66528718  0.49818000
   0.58473268  0.58038603  0.39959037
   0.57912999  0.33541585  0.40074865
   0.58113312  0.08782858  0.39930722
   0.66532770  0.92022088  0.50332071
   0.32575477  0.83599706  0.40109665
   0.24985879  0.49707508  0.59762784
   0.75221758  0.75503394  0.60042421
   0.00352002  0.50012692  0.59778852
   0.91868749  0.16487331  0.49822257
  -0.00443906 -0.00269054  0.59909120
   0.25326965  0.00312807  0.59807146
   0.32687109  0.08962983  0.40214925
   0.00122008  0.25095897  0.59912891
   0.08641730  0.58009491  0.40264432
   0.08351288  0.33335177  0.40570587
   0.83660568  0.58040981  0.40418352
   0.74681333  0.24974588  0.59628331
   0.66743018  0.41420940  0.50085252
   0.92132299  0.41694536  0.49799536
   0.74965563  0.00109488  0.59595638
   0.83823582  0.07978548  0.40341964
   0.41174920  0.92383926  0.50116603
   0.92217126  0.66415190  0.49983732
   0.25406737  0.24778937  0.59430352
   0.08272951  0.83564250  0.40541359
   0.92236467  0.91133292  0.49996266
   0.50087747  0.24681916  0.59515301
   0.41311296  0.41518651  0.49941538
  -0.00196942  0.75201902  0.59478743
   0.49768027  0.00473321  0.59550846
   0.41016713  0.17148781  0.50213537
   0.16893525  0.16824421  0.49879207
   0.16429048  0.91727242  0.49775814
   0.33074114  0.33578537  0.40537646
   0.16328813  0.66875177  0.49880031
   0.33046659  0.58239088  0.40483307
   0.16958423  0.41246187  0.49902133
   0.08273792  0.08303731  0.40475463
Direct configuration=     4
   0.24645107  0.75063754  0.60031333
   0.83718359  0.83255704  0.39970047
   0.75083325  0.49704419  0.60063757
   0.67114252  0.66356077  0.49897106
   0.83744216  0.33193003  0.39946299
   0.66562092  0.16809937  0.50176939
   0.50020537  0.75309505  0.60148342
   0.58352154  0.83288508  0.39818029
   0.50139037  0.49462606  0.60040995
   0.41296349  0.66573096  0.49886512
   0.58405186  0.58098108  0.39826114
   0.58075316  0.33453189  0.39964014
   0.58177918  0.08648186  0.39828689
   0.66551330  0.91900727  0.50224578
   0.32811467  0.83525190  0.39969972
   0.25066297  0.49751024  0.59862477
   0.75169806  0.75345535  0.60202055
   0.00228021  0.50033046  0.59882096
   0.91868238  0.16575861  0.49882655
  -0.00415651 -0.00036052  0.60030953
   0.25061266  0.00312068  0.59919045
   0.32885494  0.08811040  0.40082731
   0.00160640  0.24943893  0.60006259
   0.08581720  0.58045065  0.40127445
   0.08333703  0.33376924  0.40460490
   0.83647839  0.58159102  0.40305457
   0.74918545  0.24793627  0.59735138
   0.66706348  0.41541756  0.50042497
   0.92159000  0.41570912  0.49877426
   0.74927318  0.00172621  0.59727816
   0.83645065  0.08114322  0.40270725
   0.41305109  0.92115268  0.50058776
   0.92164542  0.66449526  0.49976525
   0.25311844  0.24876719  0.59525336
   0.08267561  0.83492734  0.40426188
   0.92069301  0.91227074  0.49986355
   0.50053431  0.24668975  0.59641318
   0.41330904  0.41574988  0.49971911
  -0.00162724  0.75096900  0.59555439
   0.49874760  0.00447736  0.59678210
   0.41216916  0.17024983  0.50124175
   0.16751395  0.16766670  0.49926816
   0.16557693  0.91742807  0.49874213
   0.33117657  0.33517163  0.40448866
   0.16382524  0.66735577  0.49923544
   0.33038339  0.58297531  0.40374859
   0.16853114  0.41431896  0.49940880
   0.08227342  0.08380701  0.40358598
Direct configuration=     5
   0.24782975  0.75016797  0.60100316
   0.83597625  0.83285509  0.39899162
   0.75059367  0.49854747  0.60136637
   0.66940647  0.66474575  0.49926671
   0.83674219  0.33156517  0.39850180
   0.66570449  0.16768865  0.50093275
   0.50107367  0.75148058  0.60206068
   0.58316217  0.83368604  0.39748392
   0.49981857  0.49653491  0.60114671
   0.41448047  0.66602443  0.49931819
   0.58360163  0.58137459  0.39738213
   0.58182657  0.33394733  0.39890708
   0.58220643  0.08559127  0.39761215
   0.66563603  0.91820471  0.50153493
   0.32967526  0.83475912  0.39877593
   0.25119477  0.49779801  0.59928404
   0.75135451  0.75241143  0.60307620
   0.00146032  0.50046506  0.59950371
   0.91867900  0.16634406  0.49922596
  -0.00396965  0.00118031  0.60111520
   0.24885559  0.00311578  0.59993044
   0.33016685  0.08710561  0.39995311
   0.00186186  0.24843373  0.60068003
   0.08542036  0.58068590  0.40036856
   0.08322074  0.33404530  0.40387683
   0.83639422  0.58237215  0.40230799
   0.75075413  0.24673958  0.59805770
   0.66682098  0.41621652  0.50014224
   0.92176657  0.41489160  0.49928934
   0.74902027  0.00214371  0.59815226
   0.83527012  0.08204110  0.40223614
   0.41391203  0.91937604  0.50020535
   0.92129768  0.66472233  0.49971760
   0.25249092  0.24941382  0.59588149
   0.08263996  0.83445441  0.40350025
   0.91958753  0.91289092  0.49979800
   0.50030738  0.24660418  0.59724654
   0.41343871  0.41612243  0.49991996
  -0.00140096  0.75027462  0.59606159
   0.49945343  0.00430816  0.59762436
   0.41349310  0.16943116  0.50065079
   0.16657404  0.16728479  0.49958300
   0.16642766  0.91753100  0.49939284
   0.33146451  0.33476576  0.40390156
   0.16418043  0.66643260  0.49952319
   0.33032837  0.58336179  0.40303142
   0.16783473  0.41554706  0.49966503
   0.08196625  0.08431600  0.40281316
Direct configuration=     6
   0.24769624  0.75081429  0.60134891
   0.83529470  0.83322963  0.39864940
   0.75056414  0.49808766  0.60163677
   0.66928869  0.66497396  0.49931489
   0.83613713  0.33230792  0.39808820
   0.66577514  0.16773768  0.50055853
   0.50055055  0.75194731  0.60229397
   0.58336863  0.83331545  0.39709397
   0.50107380  0.49615716  0.60143409
   0.41481910  0.66617245  0.49944856
   0.58365162  0.58192433  0.39695778
   0.58183492  0.33387933  0.39857032
   0.58254226  0.08532888  0.39715822
   0.66601329  0.91719574  0.50127201
   0.32993128  0.83454164  0.39844285
   0.25071415  0.49811329  0.59972640
   0.75082149  0.75279591  0.60363266
   0.00141089  0.50001270  0.59984480
   0.91794883  0.16649537  0.49935793
  -0.00305664 -0.00037409  0.60154854
   0.25045371  0.00153913  0.60022404
   0.33014913  0.08686225  0.39957699
   0.00079864  0.24994152  0.60112824
   0.08517847  0.58122181  0.39984401
   0.08312482  0.33384451  0.40366469
   0.83535978  0.58263269  0.40224942
   0.74967018  0.24842234  0.59806921
   0.66688346  0.41653708  0.50005324
   0.92045960  0.41556905  0.49959046
   0.74909004  0.00149460  0.59831261
   0.83488397  0.08224336  0.40216415
   0.41423673  0.91894169  0.50014231
   0.91980714  0.66504344  0.49961850
   0.25216420  0.24934418  0.59597619
   0.08282502  0.83454306  0.40339651
   0.91930050  0.91359759  0.49981821
   0.50083769  0.24701561  0.59744321
   0.41433028  0.41641455  0.50005919
  -0.00125397  0.75074901  0.59626729
   0.49922782  0.00327139  0.59775599
   0.41387270  0.16838054  0.50021501
   0.16772157  0.16657568  0.49964870
   0.16681330  0.91668432  0.49970504
   0.33195521  0.33456514  0.40364698
   0.16501103  0.66666417  0.49967733
   0.33083195  0.58357286  0.40289368
   0.16760010  0.41574832  0.49988114
   0.08228670  0.08392350  0.40259883
Direct configuration=     7
   0.24766215  0.75097936  0.60143721
   0.83512063  0.83332528  0.39856200
   0.75055659  0.49797023  0.60170583
   0.66925861  0.66503224  0.49932719
   0.83598260  0.33249762  0.39798258
   0.66579318  0.16775020  0.50046295
   0.50041695  0.75206651  0.60235354
   0.58342135  0.83322081  0.39699438
   0.50139437  0.49606069  0.60150749
   0.41490559  0.66621025  0.49948186
   0.58366438  0.58206473  0.39684940
   0.58183705  0.33386197  0.39848432
   0.58262803  0.08526187  0.39704229
   0.66610964  0.91693805  0.50120486
   0.32999666  0.83448610  0.39835778
   0.25059140  0.49819381  0.59983938
   0.75068536  0.75289410  0.60377478
   0.00139827  0.49989717  0.59993192
   0.91776235  0.16653401  0.49939164
  -0.00282346 -0.00077108  0.60165921
   0.25086186  0.00113647  0.60029902
   0.33014460  0.08680010  0.39948093
   0.00052710  0.25032660  0.60124271
   0.08511670  0.58135868  0.39971005
   0.08310033  0.33379322  0.40361051
   0.83509559  0.58269923  0.40223446
   0.74939335  0.24885211  0.59807215
   0.66689942  0.41661895  0.50003051
   0.92012581  0.41574206  0.49966736
   0.74910787  0.00132882  0.59835357
   0.83478535  0.08229501  0.40214576
   0.41431966  0.91883077  0.50012621
   0.91942647  0.66512545  0.49959319
   0.25208076  0.24932640  0.59600038
   0.08287229  0.83456570  0.40337002
   0.91922720  0.91377807  0.49982337
   0.50097313  0.24712068  0.59749344
   0.41455798  0.41648915  0.50009475
  -0.00121643  0.75087017  0.59631982
   0.49917020  0.00300661  0.59778960
   0.41396965  0.16811222  0.50010372
   0.16801464  0.16639457  0.49966548
   0.16691179  0.91646808  0.49978478
   0.33208054  0.33451390  0.40358196
   0.16522316  0.66672332  0.49971669
   0.33096056  0.58362676  0.40285851
   0.16754018  0.41579972  0.49993633
   0.08236855  0.08382326  0.40254409
Direct configuration=     8
   0.24784732  0.75050384  0.60168261
   0.83533370  0.83333338  0.39842143
   0.75022929  0.49826964  0.60186182
   0.66921582  0.66483834  0.49937147
   0.83605388  0.33270595  0.39789263
   0.66541975  0.16771432  0.50046728
   0.50051375  0.75193060  0.60250752
   0.58338868  0.83305493  0.39668644
   0.50163145  0.49605548  0.60164475
   0.41503127  0.66613353  0.49947602
   0.58359443  0.58223872  0.39660756
   0.58150316  0.33426277  0.39830792
   0.58251418  0.08535684  0.39668457
   0.66630202  0.91691468  0.50123599
   0.32970532  0.83456901  0.39829090
   0.25052899  0.49834019  0.60005456
   0.75074300  0.75297937  0.60409096
   0.00127141  0.50038766  0.60007565
   0.91807939  0.16634984  0.49942465
  -0.00299645 -0.00070350  0.60185571
   0.25106634  0.00148415  0.60040373
   0.32989205  0.08687762  0.39929710
   0.00072140  0.24983483  0.60145868
   0.08505647  0.58156483  0.39960167
   0.08290791  0.33381514  0.40378147
   0.83484266  0.58253721  0.40236259
   0.74907971  0.24899599  0.59785420
   0.66688879  0.41672612  0.49991478
   0.91966473  0.41593771  0.49970983
   0.74903391  0.00121391  0.59814338
   0.83507301  0.08223935  0.40217036
   0.41434671  0.91888946  0.50007740
   0.91928639  0.66519081  0.49955426
   0.25240666  0.24882011  0.59585240
   0.08283584  0.83480305  0.40353521
   0.91939358  0.91378468  0.49984626
   0.50121969  0.24699905  0.59728456
   0.41496277  0.41640595  0.50021840
  -0.00137903  0.75086393  0.59629149
   0.49898088  0.00285616  0.59758431
   0.41411611  0.16783000  0.49995614
   0.16843052  0.16608097  0.49966151
   0.16667260  0.91633723  0.49983834
   0.33209137  0.33473960  0.40358193
   0.16524458  0.66690574  0.49974823
   0.33130319  0.58358864  0.40297505
   0.16761016  0.41580731  0.49995636
   0.08234061  0.08363487  0.40269991
Direct configuration=     9
   0.24801423  0.75007520  0.60190381
   0.83552577  0.83334068  0.39829472
   0.74993425  0.49853953  0.60200242
   0.66917724  0.66466355  0.49941138
   0.83611814  0.33289375  0.39781154
   0.66508314  0.16768198  0.50047118
   0.50060101  0.75180808  0.60264632
   0.58335923  0.83290540  0.39640886
   0.50184516  0.49605077  0.60176849
   0.41514457  0.66606437  0.49947077
   0.58353138  0.58239557  0.39638956
   0.58120218  0.33462407  0.39814891
   0.58241155  0.08544246  0.39636211
   0.66647544  0.91689360  0.50126404
   0.32944270  0.83464375  0.39823061
   0.25047274  0.49847214  0.60024854
   0.75079496  0.75305624  0.60437597
   0.00115706  0.50082980  0.60020522
   0.91836518  0.16618383  0.49945442
  -0.00315239 -0.00064259  0.60203284
   0.25125067  0.00179757  0.60049812
   0.32966440  0.08694749  0.39913139
   0.00089655  0.24939153  0.60165335
   0.08500219  0.58175066  0.39950397
   0.08273446  0.33383489  0.40393559
   0.83461465  0.58239116  0.40247809
   0.74879699  0.24912569  0.59765773
   0.66687921  0.41682272  0.49981045
   0.91924910  0.41611406  0.49974812
   0.74896724  0.00111033  0.59795390
   0.83533232  0.08218918  0.40219254
   0.41437108  0.91894237  0.50003340
   0.91916012  0.66524972  0.49951917
   0.25270044  0.24836374  0.59571900
   0.08280299  0.83501700  0.40368413
   0.91954356  0.91379065  0.49986690
   0.50144194  0.24688940  0.59709627
   0.41532766  0.41633095  0.50032987
  -0.00152561  0.75085830  0.59626595
   0.49881022  0.00272054  0.59739924
   0.41424814  0.16757561  0.49982310
   0.16880540  0.16579828  0.49965793
   0.16645699  0.91621928  0.49988663
   0.33210113  0.33494304  0.40358190
   0.16526390  0.66707018  0.49977665
   0.33161205  0.58355427  0.40308011
   0.16767324  0.41581415  0.49997442
   0.08231543  0.08346505  0.40284037
Direct configuration=    10
   0.24807165  0.75001990  0.60220679
   0.83554990  0.83336695  0.39816692
   0.75027130  0.49853009  0.60219918
   0.66892272  0.66494239  0.49948577
   0.83616121  0.33272253  0.39775379
   0.66512396  0.16764448  0.50027538
   0.50050588  0.75184481  0.60283768
   0.58326544  0.83307692  0.39602765
   0.50161974  0.49610618  0.60193742
   0.41511907  0.66620945  0.49950238
   0.58336190  0.58257364  0.39606209
   0.58128004  0.33469623  0.39796795
   0.58232708  0.08548995  0.39589247
   0.66669729  0.91659838  0.50119252
   0.32922950  0.83477553  0.39820226
   0.25071700  0.49811411  0.60044403
   0.75071125  0.75318509  0.60478680
   0.00117940  0.50069988  0.60031070
   0.91851904  0.16623719  0.49952950
  -0.00324812 -0.00060257  0.60225194
   0.25115128  0.00160533  0.60060796
   0.32948808  0.08710930  0.39888948
   0.00088266  0.24934619  0.60185519
   0.08503331  0.58179948  0.39948740
   0.08261708  0.33403590  0.40425760
   0.83463095  0.58247823  0.40267250
   0.74893016  0.24889840  0.59730936
   0.66704890  0.41647840  0.49960630
   0.91936607  0.41589228  0.49993329
   0.74890166  0.00110983  0.59765531
   0.83520927  0.08249890  0.40226670
   0.41448965  0.91869712  0.49990244
   0.91938174  0.66518856  0.49947883
   0.25284347  0.24856123  0.59546073
   0.08281982  0.83498262  0.40390375
   0.91954458  0.91375749  0.49990606
   0.50130931  0.24677969  0.59679521
   0.41532610  0.41630731  0.50048759
  -0.00164229  0.75096575  0.59618610
   0.49901001  0.00257438  0.59707943
   0.41426648  0.16757540  0.49955575
   0.16879873  0.16577038  0.49964131
   0.16657810  0.91605161  0.50009303
   0.33184896  0.33528566  0.40366689
   0.16525799  0.66688679  0.49984254
   0.33157966  0.58367007  0.40330899
   0.16776695  0.41591074  0.50001919
   0.08217608  0.08355183  0.40309785
Direct configuration=    11
   0.24815129  0.74994321  0.60262698
   0.83558338  0.83340338  0.39798969
   0.75073875  0.49851699  0.60247206
   0.66856972  0.66532911  0.49958894
   0.83622095  0.33248506  0.39767369
   0.66518057  0.16759246  0.50000381
   0.50037395  0.75189575  0.60310308
   0.58313536  0.83331478  0.39549894
   0.50130711  0.49618302  0.60217172
   0.41508370  0.66641065  0.49954622
   0.58312684  0.58282060  0.39560794
   0.58138803  0.33479630  0.39771699
   0.58220994  0.08555581  0.39524114
   0.66700498  0.91618894  0.50109332
   0.32893382  0.83495829  0.39816293
   0.25105575  0.49761758  0.60071515
   0.75059514  0.75336380  0.60535658
   0.00121038  0.50051969  0.60045699
   0.91873241  0.16631121  0.49963363
  -0.00338090 -0.00054707  0.60255580
   0.25101344  0.00133871  0.60076029
   0.32924355  0.08733372  0.39855399
   0.00086339  0.24928331  0.60213512
   0.08507648  0.58186719  0.39946441
   0.08245429  0.33431468  0.40470419
   0.83465356  0.58259898  0.40294211
   0.74911484  0.24858316  0.59682621
   0.66728423  0.41600087  0.49932317
   0.91952830  0.41558469  0.50019009
   0.74881069  0.00110914  0.59724120
   0.83503860  0.08292844  0.40236955
   0.41465408  0.91835700  0.49972082
   0.91968910  0.66510374  0.49942288
   0.25304183  0.24883513  0.59510253
   0.08284315  0.83493494  0.40420835
   0.91954599  0.91371151  0.49996036
   0.50112536  0.24662755  0.59637768
   0.41532394  0.41627453  0.50070633
  -0.00180410  0.75111477  0.59607535
   0.49928710  0.00237168  0.59663588
   0.41429191  0.16757512  0.49918497
   0.16878947  0.16573167  0.49961827
   0.16674608  0.91581908  0.50037928
   0.33149924  0.33576084  0.40378476
   0.16524980  0.66663244  0.49993392
   0.33153476  0.58383068  0.40362643
   0.16789690  0.41604470  0.50008129
   0.08198281  0.08367219  0.40345495
Direct configuration=    12
   0.24777033  0.75005081  0.60297044
   0.83525426  0.83374412  0.39790751
   0.75060675  0.49832475  0.60262379
   0.66876510  0.66502320  0.49966423
   0.83604900  0.33280199  0.39764955
   0.66541148  0.16725438  0.49940196
   0.50054769  0.75168959  0.60330762
   0.58301473  0.83359350  0.39511165
   0.50180383  0.49587034  0.60224918
   0.41530111  0.66608991  0.49971765
   0.58315814  0.58296025  0.39531719
   0.58129261  0.33468870  0.39752882
   0.58210208  0.08580553  0.39472408
   0.66699892  0.91593512  0.50069786
   0.32898636  0.83518635  0.39818700
   0.25078682  0.49778394  0.60092394
   0.75053168  0.75334735  0.60582529
   0.00151834  0.50026330  0.60052290
   0.91886084  0.16609442  0.49980967
  -0.00327385 -0.00081170  0.60277779
   0.25085432  0.00129770  0.60079475
   0.32915956  0.08761620  0.39827535
   0.00108961  0.24938504  0.60232987
   0.08496639  0.58200502  0.39949541
   0.08236349  0.33455862  0.40505418
   0.83450836  0.58288413  0.40319994
   0.74907403  0.24885484  0.59647020
   0.66705768  0.41641942  0.49912352
   0.91966798  0.41568498  0.50054885
   0.74889227  0.00117762  0.59696539
   0.83459991  0.08292152  0.40244392
   0.41455496  0.91846457  0.49948831
   0.91980329  0.66479815  0.49948792
   0.25283800  0.24873436  0.59479303
   0.08266941  0.83492465  0.40445077
   0.91948771  0.91380189  0.49995402
   0.50111588  0.24652685  0.59607551
   0.41520871  0.41649338  0.50078723
  -0.00152991  0.75083878  0.59601324
   0.49918653  0.00241895  0.59623841
   0.41445756  0.16730768  0.49867257
   0.16891767  0.16556876  0.49972739
   0.16703309  0.91572682  0.50079174
   0.33166347  0.33571492  0.40389018
   0.16554428  0.66624426  0.50018966
   0.33140693  0.58389836  0.40388428
   0.16787681  0.41619694  0.50021246
   0.08204578  0.08383975  0.40372378
Direct configuration=    13
   0.24759664  0.75009987  0.60312703
   0.83510420  0.83389948  0.39787004
   0.75054657  0.49823711  0.60269297
   0.66885418  0.66488372  0.49969856
   0.83597061  0.33294649  0.39763854
   0.66551676  0.16710023  0.49912755
   0.50062690  0.75159560  0.60340088
   0.58295973  0.83372057  0.39493508
   0.50203031  0.49572778  0.60228450
   0.41540024  0.66594367  0.49979581
   0.58317241  0.58302392  0.39518463
   0.58124910  0.33463964  0.39744302
   0.58205290  0.08591938  0.39448833
   0.66699615  0.91581939  0.50051755
   0.32901032  0.83529033  0.39819798
   0.25066420  0.49785979  0.60101914
   0.75050275  0.75333985  0.60603898
   0.00165875  0.50014640  0.60055295
   0.91891940  0.16599557  0.49988992
  -0.00322505 -0.00093235  0.60287900
   0.25078177  0.00127901  0.60081046
   0.32912127  0.08774500  0.39814830
   0.00119275  0.24943142  0.60241866
   0.08491619  0.58206786  0.39950955
   0.08232209  0.33466984  0.40521375
   0.83444215  0.58301414  0.40331749
   0.74905542  0.24897870  0.59630788
   0.66695439  0.41661025  0.49903250
   0.91973167  0.41573070  0.50071242
   0.74892947  0.00120884  0.59683965
   0.83439989  0.08291837  0.40247783
   0.41450977  0.91851362  0.49938230
   0.91985535  0.66465883  0.49951758
   0.25274507  0.24868841  0.59465193
   0.08259020  0.83491996  0.40456129
   0.91946114  0.91384310  0.49995113
   0.50111155  0.24648094  0.59593774
   0.41515617  0.41659317  0.50082412
  -0.00140490  0.75071295  0.59598492
   0.49914068  0.00244050  0.59605719
   0.41453308  0.16718574  0.49843894
   0.16897612  0.16549448  0.49977714
   0.16716395  0.91568475  0.50097980
   0.33173834  0.33569398  0.40393824
   0.16567854  0.66606727  0.50030626
   0.33134866  0.58392922  0.40400184
   0.16786765  0.41626635  0.50027227
   0.08207449  0.08391615  0.40384634
Direct configuration=    14
   0.24792289  0.74981750  0.60337326
   0.83491187  0.83398359  0.39785419
   0.75050826  0.49817618  0.60275101
   0.66898114  0.66475611  0.49978511
   0.83593356  0.33319099  0.39776248
   0.66525335  0.16723584  0.49869161
   0.50053733  0.75160688  0.60345997
   0.58287937  0.83381925  0.39474905
   0.50194502  0.49561413  0.60222840
   0.41552011  0.66602890  0.50002662
   0.58312533  0.58313050  0.39514456
   0.58095330  0.33506114  0.39727950
   0.58182255  0.08607454  0.39405573
   0.66698374  0.91552411  0.50013051
   0.32908672  0.83527244  0.39834450
   0.25088310  0.49798336  0.60117071
   0.75071716  0.75322925  0.60617788
   0.00134039  0.50042992  0.60064157
   0.91884597  0.16605876  0.50000046
  -0.00351444 -0.00072240  0.60302930
   0.25110163  0.00108332  0.60081229
   0.32904935  0.08797633  0.39792815
   0.00122481  0.24931152  0.60256572
   0.08470676  0.58228403  0.39962327
   0.08225444  0.33479042  0.40540395
   0.83423849  0.58330028  0.40346615
   0.74918686  0.24890042  0.59608041
   0.66689704  0.41675068  0.49889841
   0.91978591  0.41561162  0.50099230
   0.74897220  0.00117060  0.59660255
   0.83458204  0.08280680  0.40238958
   0.41454417  0.91840644  0.49918276
   0.91965377  0.66481971  0.49968942
   0.25292035  0.24825409  0.59449283
   0.08252292  0.83512317  0.40476881
   0.91970835  0.91349500  0.49996452
   0.50124078  0.24647110  0.59565220
   0.41539992  0.41628189  0.50084482
  -0.00163322  0.75051057  0.59602891
   0.49888260  0.00250310  0.59569200
   0.41481825  0.16700385  0.49808709
   0.16908507  0.16535602  0.49988269
   0.16732075  0.91541076  0.50126277
   0.33179282  0.33572445  0.40393586
   0.16576390  0.66616833  0.50057824
   0.33137253  0.58404636  0.40412474
   0.16798503  0.41616345  0.50038869
   0.08198577  0.08400468  0.40400445
Direct configuration=    15
   0.24803893  0.74971707  0.60346083
   0.83484346  0.83401351  0.39784855
   0.75049463  0.49815451  0.60277166
   0.66902629  0.66471072  0.49981589
   0.83592039  0.33327796  0.39780656
   0.66515966  0.16728407  0.49853656
   0.50050547  0.75161090  0.60348099
   0.58285080  0.83385434  0.39468288
   0.50191468  0.49557371  0.60220845
   0.41556274  0.66605921  0.50010871
   0.58310859  0.58316841  0.39513030
   0.58084809  0.33521106  0.39722134
   0.58174062  0.08612972  0.39390186
   0.66697932  0.91541909  0.49999286
   0.32911389  0.83526608  0.39839661
   0.25096095  0.49802732  0.60122463
   0.75079342  0.75318992  0.60622728
   0.00122716  0.50053076  0.60067309
   0.91881985  0.16608123  0.50003978
  -0.00361737 -0.00064773  0.60308276
   0.25121539  0.00101372  0.60081295
   0.32902377  0.08805861  0.39784985
   0.00123621  0.24926887  0.60261803
   0.08463227  0.58236092  0.39966372
   0.08223038  0.33483331  0.40547159
   0.83416606  0.58340206  0.40351902
   0.74923362  0.24887257  0.59599950
   0.66687664  0.41680063  0.49885072
   0.91980520  0.41556927  0.50109184
   0.74898740  0.00115699  0.59651822
   0.83464683  0.08276712  0.40235820
   0.41455641  0.91836832  0.49911179
   0.91958207  0.66487693  0.49975054
   0.25298270  0.24809962  0.59443625
   0.08249899  0.83519545  0.40484262
   0.91979627  0.91337119  0.49996929
   0.50128674  0.24646760  0.59555064
   0.41548662  0.41617117  0.50085218
  -0.00171443  0.75043859  0.59604455
   0.49879081  0.00252536  0.59556211
   0.41491968  0.16693916  0.49796195
   0.16912382  0.16530677  0.49992023
   0.16737652  0.91531330  0.50136341
   0.33181219  0.33573529  0.40393502
   0.16579425  0.66620428  0.50067498
   0.33138102  0.58408803  0.40416845
   0.16802678  0.41612685  0.50043010
   0.08195421  0.08403617  0.40406068
Direct configuration=    16
   0.24812111  0.74975666  0.60373126
   0.83482387  0.83406204  0.39783070
   0.75032366  0.49820371  0.60280961
   0.66902859  0.66467088  0.49994317
   0.83594322  0.33336398  0.39801852
   0.66518448  0.16716505  0.49824546
   0.50068356  0.75158861  0.60348624
   0.58270105  0.83387779  0.39453691
   0.50195693  0.49545639  0.60212406
   0.41563146  0.66612025  0.50031166
   0.58297713  0.58339622  0.39522601
   0.58072189  0.33560249  0.39698621
   0.58166626  0.08631560  0.39339996
   0.66701535  0.91537997  0.49966599
   0.32906183  0.83528821  0.39862868
   0.25104317  0.49773191  0.60135718
   0.75046436  0.75344729  0.60620262
   0.00127478  0.50042543  0.60081994
   0.91875005  0.16598976  0.50004435
  -0.00357788 -0.00077998  0.60321026
   0.25135562  0.00074387  0.60082470
   0.32871694  0.08821204  0.39763063
   0.00130974  0.24908347  0.60277887
   0.08454127  0.58257291  0.39992677
   0.08213126  0.33498433  0.40563827
   0.83400688  0.58357696  0.40365097
   0.74919022  0.24871152  0.59579646
   0.66690344  0.41674731  0.49875640
   0.91988985  0.41541293  0.50130715
   0.74878554  0.00104639  0.59617265
   0.83483015  0.08288723  0.40217629
   0.41470212  0.91819030  0.49890904
   0.91954234  0.66495164  0.49993443
   0.25318833  0.24807599  0.59433897
   0.08260867  0.83532623  0.40505579
   0.91983096  0.91329137  0.50000845
   0.50144748  0.24630064  0.59523933
   0.41556416  0.41606864  0.50078571
  -0.00180300  0.75056783  0.59621637
   0.49902083  0.00230672  0.59512620
   0.41510598  0.16670408  0.49767710
   0.16924336  0.16510987  0.49996946
   0.16729852  0.91521892  0.50161459
   0.33154740  0.33611986  0.40384005
   0.16592773  0.66621865  0.50094771
   0.33124425  0.58434755  0.40430107
   0.16816725  0.41605126  0.50056887
   0.08190784  0.08410925  0.40422890
Direct configuration=    17
   0.24817424  0.74978224  0.60390610
   0.83481121  0.83409342  0.39781916
   0.75021313  0.49823552  0.60283415
   0.66903008  0.66464512  0.50002546