  56  56   0   0
  0.4903395E+02  0.1100258E-08  0.1100258E-08  0.2619179E-08  0.3500000E-15
  1.000000000000000E-004
  CAR 
 unknown system                          
      6.41510185    -21.24789142  301     -1.43633782      1.00000000
    -21.248  0.0000E+00  0.0000E+00
    -21.156  0.0000E+00  0.0000E+00
    -21.063  0.0000E+00  0.0000E+00
    -20.971  0.0000E+00  0.0000E+00
    -20.879  0.0000E+00  0.0000E+00
    -20.787  0.0000E+00  0.0000E+00
    -20.695  0.0000E+00  0.0000E+00
    -20.602  0.0000E+00  0.0000E+00
    -20.510  0.3925E-14  0.3619E-15
    -20.418  0.2986E-10  0.2754E-11
    -20.326  0.4319E-07  0.3986E-08
    -20.234  0.1211E-04  0.1121E-05
    -20.141  0.6796E-03  0.6379E-04
    -20.049  0.8076E-02  0.8085E-03
    -19.957  0.2348E-01  0.2974E-02
    -19.865  0.3084E-01  0.5818E-02
    -19.773  0.3811E-01  0.9332E-02
    -19.680  0.2477E-01  0.1162E-01
    -19.588  0.1609E-01  0.1310E-01
    -19.496  0.3979E-01  0.1677E-01
    -19.404  0.4617E-01  0.2103E-01
    -19.311  0.3236E-01  0.2401E-01
    -19.219  0.2713E-01  0.2651E-01
    -19.127  0.2471E-01  0.2879E-01
    -19.035  0.2341E-01  0.3095E-01
    -18.943  0.1028E-01  0.3190E-01
    -18.850  0.1100E-02  0.3200E-01
    -18.758  0.2506E-04  0.3200E-01
    -18.666  0.1149E-06  0.3200E-01
    -18.574  0.1025E-09  0.3200E-01
    -18.482  0.1743E-13  0.3200E-01
    -18.389  0.0000E+00  0.3200E-01
    -18.297  0.0000E+00  0.3200E-01
    -18.205  0.0000E+00  0.3200E-01
    -18.113  0.0000E+00  0.3200E-01
    -18.021  0.0000E+00  0.3200E-01
    -17.928  0.0000E+00  0.3200E-01
    -17.836  0.0000E+00  0.3200E-01
    -17.744  0.0000E+00  0.3200E-01
    -17.652  0.0000E+00  0.3200E-01
    -17.559  0.0000E+00  0.3200E-01
    -17.467  0.0000E+00  0.3200E-01
    -17.375  0.0000E+00  0.3200E-01
    -17.283  0.0000E+00  0.3200E-01
    -17.191  0.0000E+00  0.3200E-01
    -17.098  0.0000E+00  0.3200E-01
    -17.006  0.0000E+00  0.3200E-01
    -16.914  0.0000E+00  0.3200E-01
    -16.822  0.0000E+00  0.3200E-01
    -16.730  0.0000E+00  0.3200E-01
    -16.637  0.0000E+00  0.3200E-01
    -16.545  0.0000E+00  0.3200E-01
    -16.453  0.0000E+00  0.3200E-01
    -16.361  0.0000E+00  0.3200E-01
    -16.269  0.0000E+00  0.3200E-01
    -16.176  0.0000E+00  0.3200E-01
    -16.084  0.0000E+00  0.3200E-01
    -15.992  0.0000E+00  0.3200E-01
    -15.900  0.0000E+00  0.3200E-01
    -15.808  0.0000E+00  0.3200E-01
    -15.715  0.0000E+00  0.3200E-01
    -15.623  0.0000E+00  0.3200E-01
    -15.531  0.0000E+00  0.3200E-01
    -15.439  0.0000E+00  0.3200E-01
    -15.346  0.0000E+00  0.3200E-01
    -15.254  0.0000E+00  0.3200E-01
    -15.162  0.0000E+00  0.3200E-01
    -15.070  0.0000E+00  0.3200E-01
    -14.978  0.0000E+00  0.3200E-01
    -14.885  0.0000E+00  0.3200E-01
    -14.793  0.0000E+00  0.3200E-01
    -14.701  0.0000E+00  0.3200E-01
    -14.609  0.0000E+00  0.3200E-01
    -14.517  0.0000E+00  0.3200E-01
    -14.424  0.0000E+00  0.3200E-01
    -14.332  0.0000E+00  0.3200E-01
    -14.240  0.0000E+00  0.3200E-01
    -14.148  0.0000E+00  0.3200E-01
    -14.056  0.0000E+00  0.3200E-01
    -13.963  0.0000E+00  0.3200E-01
    -13.871  0.0000E+00  0.3200E-01
    -13.779  0.0000E+00  0.3200E-01
    -13.687  0.0000E+00  0.3200E-01
    -13.594  0.0000E+00  0.3200E-01
    -13.502  0.0000E+00  0.3200E-01
    -13.410  0.0000E+00  0.3200E-01
    -13.318  0.0000E+00  0.3200E-01
    -13.226  0.0000E+00  0.3200E-01
    -13.133  0.0000E+00  0.3200E-01
    -13.041  0.0000E+00  0.3200E-01
    -12.949  0.0000E+00  0.3200E-01
    -12.857  0.0000E+00  0.3200E-01
    -12.765  0.0000E+00  0.3200E-01
    -12.672  0.0000E+00  0.3200E-01
    -12.580  0.0000E+00  0.3200E-01
    -12.488  0.0000E+00  0.3200E-01
    -12.396  0.0000E+00  0.3200E-01
    -12.304  0.0000E+00  0.3200E-01
    -12.211  0.0000E+00  0.3200E-01
    -12.119  0.0000E+00  0.3200E-01
    -12.027  0.0000E+00  0.3200E-01
    -11.935  0.0000E+00  0.3200E-01
    -11.842  0.0000E+00  0.3200E-01
    -11.750  0.0000E+00  0.3200E-01
    -11.658  0.0000E+00  0.3200E-01
    -11.566  0.0000E+00  0.3200E-01
    -11.474  0.0000E+00  0.3200E-01
    -11.381  0.0000E+00  0.3200E-01
    -11.289  0.0000E+00  0.3200E-01
    -11.197  0.0000E+00  0.3200E-01
    -11.105  0.0000E+00  0.3200E-01
    -11.013  0.0000E+00  0.3200E-01
    -10.920  0.0000E+00  0.3200E-01
    -10.828  0.0000E+00  0.3200E-01
    -10.736  0.0000E+00  0.3200E-01
    -10.644  0.0000E+00  0.3200E-01
    -10.552  0.0000E+00  0.3200E-01
    -10.459  0.0000E+00  0.3200E-01
    -10.367  0.0000E+00  0.3200E-01
    -10.275  0.0000E+00  0.3200E-01
    -10.183  0.0000E+00  0.3200E-01
    -10.090  0.0000E+00  0.3200E-01
     -9.998  0.0000E+00  0.3200E-01
     -9.906  0.0000E+00  0.3200E-01
     -9.814  0.0000E+00  0.3200E-01
     -9.722  0.0000E+00  0.3200E-01
     -9.629  0.0000E+00  0.3200E-01
     -9.537  0.8428E-17  0.3200E-01
     -9.445  0.1525E-12  0.3200E-01
     -9.353  0.5353E-09  0.3200E-01
     -9.261  0.3603E-06  0.3200E-01
     -9.168  0.4764E-04  0.3200E-01
     -9.076  0.1286E-02  0.3212E-01
     -8.984  0.7493E-02  0.3281E-01
     -8.892  0.1068E-01  0.3380E-01
     -8.800  0.9292E-02  0.3466E-01
     -8.707  0.1045E-01  0.3562E-01
     -8.615  0.4060E-02  0.3599E-01
     -8.523  0.3722E-02  0.3634E-01
     -8.431  0.1472E-01  0.3769E-01
     -8.338  0.2789E-01  0.4027E-01
     -8.246  0.2771E-01  0.4282E-01
     -8.154  0.2777E-01  0.4538E-01
     -8.062  0.3423E-01  0.4854E-01
     -7.970  0.2792E-01  0.5111E-01
     -7.877  0.2680E-01  0.5358E-01
     -7.785  0.4267E-01  0.5752E-01
     -7.693  0.5745E-01  0.6281E-01
     -7.601  0.5914E-01  0.6827E-01
     -7.509  0.5315E-01  0.7317E-01
     -7.416  0.5366E-01  0.7812E-01
     -7.324  0.6917E-01  0.8449E-01
     -7.232  0.7913E-01  0.9179E-01
     -7.140  0.9842E-01  0.1009E+00
     -7.048  0.1233E+00  0.1122E+00
     -6.955  0.1378E+00  0.1249E+00
     -6.863  0.1437E+00  0.1382E+00
     -6.771  0.1467E+00  0.1517E+00
     -6.679  0.1494E+00  0.1655E+00
     -6.587  0.1595E+00  0.1802E+00
     -6.494  0.1757E+00  0.1964E+00
     -6.402  0.1892E+00  0.2138E+00
     -6.310  0.1918E+00  0.2315E+00
     -6.218  0.1788E+00  0.2480E+00
     -6.125  0.1700E+00  0.2637E+00
     -6.033  0.1703E+00  0.2794E+00
     -5.941  0.1715E+00  0.2952E+00
     -5.849  0.1719E+00  0.3111E+00
     -5.757  0.1614E+00  0.3259E+00
     -5.664  0.1535E+00  0.3401E+00
     -5.572  0.1561E+00  0.3545E+00
     -5.480  0.1666E+00  0.3699E+00
     -5.388  0.1732E+00  0.3858E+00
     -5.296  0.1723E+00  0.4017E+00
     -5.203  0.1772E+00  0.4180E+00
     -5.111  0.1782E+00  0.4345E+00
     -5.019  0.1765E+00  0.4508E+00
     -4.927  0.1795E+00  0.4673E+00
     -4.835  0.1812E+00  0.4840E+00
     -4.742  0.1841E+00  0.5010E+00
     -4.650  0.1844E+00  0.5180E+00
     -4.558  0.1748E+00  0.5341E+00
     -4.466  0.1704E+00  0.5498E+00
     -4.373  0.1747E+00  0.5659E+00
     -4.281  0.1761E+00  0.5822E+00
     -4.189  0.1848E+00  0.5992E+00
     -4.097  0.1946E+00  0.6172E+00
     -4.005  0.1920E+00  0.6349E+00
     -3.912  0.1931E+00  0.6527E+00
     -3.820  0.1987E+00  0.6710E+00
     -3.728  0.1944E+00  0.6889E+00
     -3.636  0.1906E+00  0.7065E+00
     -3.544  0.1849E+00  0.7235E+00
     -3.451  0.1815E+00  0.7403E+00
     -3.359  0.1829E+00  0.7572E+00
     -3.267  0.1928E+00  0.7749E+00
     -3.175  0.1945E+00  0.7929E+00
     -3.083  0.1868E+00  0.8101E+00
     -2.990  0.1865E+00  0.8273E+00
     -2.898  0.1902E+00  0.8448E+00
     -2.806  0.1914E+00  0.8625E+00
     -2.714  0.1955E+00  0.8805E+00
     -2.621  0.1930E+00  0.8983E+00
     -2.529  0.1934E+00  0.9162E+00
     -2.437  0.1981E+00  0.9344E+00
     -2.345  0.1996E+00  0.9528E+00
     -2.253  0.2050E+00  0.9717E+00
     -2.160  0.2030E+00  0.9905E+00
     -2.068  0.1946E+00  0.1008E+01
     -1.976  0.1817E+00  0.1025E+01
     -1.884  0.1718E+00  0.1041E+01
     -1.792  0.1678E+00  0.1056E+01
     -1.699  0.1605E+00  0.1071E+01
     -1.607  0.1409E+00  0.1084E+01
     -1.515  0.1215E+00  0.1095E+01
     -1.423  0.1070E+00  0.1105E+01
     -1.331  0.7953E-01  0.1113E+01
     -1.238  0.5656E-01  0.1118E+01
     -1.146  0.5455E-01  0.1123E+01
     -1.054  0.4892E-01  0.1127E+01
     -0.962  0.4387E-01  0.1131E+01
     -0.869  0.4501E-01  0.1136E+01
     -0.777  0.4523E-01  0.1140E+01
     -0.685  0.4434E-01  0.1144E+01
     -0.593  0.4237E-01  0.1148E+01
     -0.501  0.4535E-01  0.1152E+01
     -0.408  0.4765E-01  0.1156E+01
     -0.316  0.3453E-01  0.1160E+01
     -0.224  0.2011E-01  0.1161E+01
     -0.132  0.1334E-01  0.1163E+01
     -0.040  0.2146E-01  0.1165E+01
      0.053  0.2223E-01  0.1167E+01
      0.145  0.2362E-01  0.1169E+01
      0.237  0.2277E-01  0.1171E+01
      0.329  0.2724E-01  0.1173E+01
      0.421  0.3536E-01  0.1177E+01
      0.514  0.4050E-01  0.1180E+01
      0.606  0.4106E-01  0.1184E+01
      0.698  0.3702E-01  0.1188E+01
      0.790  0.3288E-01  0.1191E+01
      0.883  0.2780E-01  0.1193E+01
      0.975  0.2643E-01  0.1196E+01
      1.067  0.2721E-01  0.1198E+01
      1.159  0.2676E-01  0.1201E+01
      1.251  0.2175E-01  0.1203E+01
      1.344  0.2803E-01  0.1205E+01
      1.436  0.3116E-01  0.1208E+01
      1.528  0.3099E-01  0.1211E+01
      1.620  0.3452E-01  0.1214E+01
      1.712  0.2986E-01  0.1217E+01
      1.805  0.3117E-01  0.1220E+01
      1.897  0.2989E-01  0.1223E+01
      1.989  0.3276E-01  0.1226E+01
      2.081  0.3897E-01  0.1229E+01
      2.173  0.3570E-01  0.1232E+01
      2.266  0.2924E-01  0.1235E+01
      2.358  0.2525E-01  0.1237E+01
      2.450  0.2715E-01  0.1240E+01
      2.542  0.2540E-01  0.1242E+01
      2.634  0.2860E-01  0.1245E+01
      2.727  0.3048E-01  0.1248E+01
      2.819  0.3159E-01  0.1251E+01
      2.911  0.3325E-01  0.1254E+01
      3.003  0.2948E-01  0.1256E+01
      3.096  0.2656E-01  0.1259E+01
      3.188  0.3155E-01  0.1262E+01
      3.280  0.3082E-01  0.1265E+01
      3.372  0.2914E-01  0.1267E+01
      3.464  0.3273E-01  0.1270E+01
      3.557  0.3259E-01  0.1273E+01
      3.649  0.2731E-01  0.1276E+01
      3.741  0.2886E-01  0.1279E+01
      3.833  0.3761E-01  0.1282E+01
      3.925  0.4068E-01  0.1286E+01
      4.018  0.3425E-01  0.1289E+01
      4.110  0.3260E-01  0.1292E+01
      4.202  0.3928E-01  0.1296E+01
      4.294  0.4279E-01  0.1299E+01
      4.386  0.4031E-01  0.1303E+01
      4.479  0.4486E-01  0.1307E+01
      4.571  0.5357E-01  0.1312E+01
      4.663  0.5470E-01  0.1317E+01
      4.755  0.5310E-01  0.1322E+01
      4.848  0.5054E-01  0.1327E+01
      4.940  0.5280E-01  0.1332E+01
      5.032  0.5557E-01  0.1337E+01
      5.124  0.4883E-01  0.1341E+01
      5.216  0.2387E-01  0.1344E+01
      5.309  0.4243E-02  0.1344E+01
      5.401  0.2214E-03  0.1344E+01
      5.493  0.2974E-05  0.1344E+01
      5.585  0.9152E-08  0.1344E+01
      5.677  0.5902E-11  0.1344E+01
      5.770  0.7521E-15  0.1344E+01
      5.862  0.0000E+00  0.1344E+01
      5.954  0.0000E+00  0.1344E+01
      6.046  0.0000E+00  0.1344E+01
      6.138  0.0000E+00  0.1344E+01
      6.231  0.0000E+00  0.1344E+01
      6.323  0.0000E+00  0.1344E+01
      6.415  0.0000E+00  0.1344E+01
