<?xml version="1.0" encoding="ISO-8859-1"?>
<modeling>
 <generator>
  <i name="program" type="string">vasp </i>
  <i name="version" type="string">5.4.1  </i>
  <i name="subversion" type="string">24Jun15 (build Mar 14 2019 10:18:33) complex                          parallel </i>
  <i name="platform" type="string">INTEL-19.0.2+OPENMPI-3.1.3 </i>
  <i name="date" type="string">2023 01 21 </i>
  <i name="time" type="string">19:17:07 </i>
 </generator>
 <incar>
  <i type="int" name="ISTART">     0</i>
  <i type="string" name="PREC">normal</i>
  <i type="string" name="ALGO"> Fast</i>
  <i type="int" name="NELM">   500</i>
  <i type="int" name="IBRION">     2</i>
  <i type="int" name="NFREE">     2</i>
  <i name="EDIFF">      0.00000100</i>
  <i name="EDIFFG">     -0.02000000</i>
  <i type="int" name="NSW">   500</i>
  <i type="int" name="ISIF">     0</i>
  <i type="int" name="ISYM">     2</i>
  <i name="ENCUT">    400.00000000</i>
  <i name="POTIM">      0.35000000</i>
  <i type="string" name="LREAL"> Auto</i>
  <i type="logical" name="LPLANE"> T  </i>
  <i type="int" name="ISMEAR">     0</i>
  <i name="SIGMA">      0.10000000</i>
  <i type="int" name="NWRITE">     1</i>
  <i type="logical" name="LWAVE"> F  </i>
  <i type="logical" name="LCHARG"> F  </i>
  <i type="logical" name="LVTOT"> F  </i>
  <i type="logical" name="LORBIT"> F  </i>
  <i type="logical" name="LAECHG"> F  </i>
  <v type="int" name="KPOINT_BSE">    -1     0     0     0</v>
  <i type="int" name="NELM">   500</i>
  <i type="string" name="GGA"> PE          ! optPBE-vdW XC-functional</i>
  <i type="int" name="VOSKOWN">     1</i>
  <i type="logical" name="LDIPOL"> T  </i>
  <i type="logical" name="LMONO"> F  </i>
  <i type="int" name="IDIPOL">     3</i>
  <v name="DIPOL">      0.00000000      0.00000000      0.50000000</v>
 </incar>
 <kpoints>
  <generation param="Monkhorst-Pack">
   <v type="int" name="divisions">       2        2        1 </v>
   <v name="usershift">      0.00000000       0.00000000       0.00000000 </v>
   <v name="genvec1">      0.50000000       0.00000000       0.00000000 </v>
   <v name="genvec2">      0.00000000       0.50000000       0.00000000 </v>
   <v name="genvec3">      0.00000000       0.00000000       1.00000000 </v>
   <v name="shift">      0.50000000       0.50000000       0.00000000 </v>
  </generation>
  <varray name="kpointlist" >
   <v>       0.25000000       0.25000000       0.00000000 </v>
   <v>       0.00000000       0.25000000       0.00000000 </v>
   <v>      -0.25000000       0.00000000       0.00000000 </v>
   <v>      -0.25000000       0.25000000       0.00000000 </v>
   <v>       0.50000000      -0.25000000       0.00000000 </v>
   <v>      -0.25000000       0.50000000       0.00000000 </v>
  </varray>
  <varray name="weights" >
   <v>       0.16666667 </v>
   <v>       0.16666667 </v>
   <v>       0.16666667 </v>
   <v>       0.16666667 </v>
   <v>       0.16666667 </v>
   <v>       0.16666667 </v>
  </varray>
 </kpoints>
 <parameters>
  <separator name="general" >
   <i type="string" name="SYSTEM">unknown system</i>
   <i type="logical" name="LCOMPAT"> F  </i>
  </separator>
  <separator name="electronic" >
   <i type="string" name="PREC">normal</i>
   <i name="ENMAX">    400.00000000</i>
   <i name="ENAUG">    605.39200000</i>
   <i name="EDIFF">      0.00000100</i>
   <i type="int" name="IALGO">    68</i>
   <i type="int" name="IWAVPR">    11</i>
   <i type="int" name="NBANDS">   336</i>
   <i name="NELECT">    552.00000000</i>
   <i type="int" name="TURBO">     0</i>
   <i type="int" name="IRESTART">     0</i>
   <i type="int" name="NREBOOT">     0</i>
   <i type="int" name="NMIN">     0</i>
   <i name="EREF">      0.00000000</i>
   <separator name="electronic smearing" >
    <i type="int" name="ISMEAR">     0</i>
    <i name="SIGMA">      0.10000000</i>
    <i name="KSPACING">      0.50000000</i>
    <i type="logical" name="KGAMMA"> T  </i>
   </separator>
   <separator name="electronic projectors" >
    <i type="logical" name="LREAL"> T  </i>
    <v name="ROPT">     -0.00050000     -0.00050000     -0.00050000</v>
    <i type="int" name="LMAXPAW">  -100</i>
    <i type="int" name="LMAXMIX">     2</i>
    <i type="logical" name="NLSPLINE"> F  </i>
   </separator>
   <separator name="electronic startup" >
    <i type="int" name="ISTART">     0</i>
    <i type="int" name="ICHARG">     2</i>
    <i type="int" name="INIWAV">     1</i>
   </separator>
   <separator name="electronic spin" >
    <i type="int" name="ISPIN">     1</i>
    <i type="logical" name="LNONCOLLINEAR"> F  </i>
    <v name="MAGMOM">      1.00000000      1.00000000      1.00000000      1.00000000      1.00000000      1.00000000      1.00000000      1.00000000      1.00000000      1.00000000      1.00000000      1.00000000      1.00000000      1.00000000      1.00000000      1.00000000      1.00000000      1.00000000      1.00000000      1.00000000
      1.00000000      1.00000000      1.00000000      1.00000000      1.00000000      1.00000000      1.00000000      1.00000000      1.00000000      1.00000000      1.00000000      1.00000000      1.00000000      1.00000000      1.00000000      1.00000000      1.00000000      1.00000000      1.00000000      1.00000000
      1.00000000      1.00000000      1.00000000      1.00000000      1.00000000      1.00000000      1.00000000      1.00000000      1.00000000      1.00000000      1.00000000      1.00000000      1.00000000      1.00000000      1.00000000      1.00000000</v>
    <i name="NUPDOWN">     -1.00000000</i>
    <i type="logical" name="LSORBIT"> F  </i>
    <v name="SAXIS">      0.00000000      0.00000000      1.00000000</v>
    <i type="logical" name="LSPIRAL"> F  </i>
    <v name="QSPIRAL">      0.00000000      0.00000000      0.00000000</v>
    <i type="logical" name="LZEROZ"> F  </i>
   </separator>
   <separator name="electronic exchange-correlation" >
    <i type="logical" name="LASPH"> F  </i>
    <i type="logical" name="LMETAGGA"> F  </i>
   </separator>
   <separator name="electronic convergence" >
    <i type="int" name="NELM">   500</i>
    <i type="int" name="NELMDL">    -5</i>
    <i type="int" name="NELMIN">     2</i>
    <i name="ENINI">    400.00000000</i>
    <separator name="electronic convergence detail" >
     <i type="logical" name="LDIAG"> T  </i>
     <i type="logical" name="LSUBROT"> F  </i>
     <i name="WEIMIN">      0.00100000</i>
     <i name="EBREAK">      0.00000000</i>
     <i name="DEPER">      0.30000000</i>
     <i type="int" name="NRMM">     4</i>
     <i name="TIME">      0.40000000</i>
    </separator>
   </separator>
   <separator name="electronic mixer" >
    <i name="AMIX">      0.40000000</i>
    <i name="BMIX">      1.00000000</i>
    <i name="AMIN">      0.10000000</i>
    <i name="AMIX_MAG">      1.60000000</i>
    <i name="BMIX_MAG">      1.00000000</i>
    <separator name="electronic mixer details" >
     <i type="int" name="IMIX">     4</i>
     <i type="logical" name="MIXFIRST"> F  </i>
     <i type="int" name="MAXMIX">   -45</i>
     <i name="WC">    100.00000000</i>
     <i type="int" name="INIMIX">     1</i>
     <i type="int" name="MIXPRE">     1</i>
     <i type="int" name="MREMOVE">     5</i>
    </separator>
   </separator>
   <separator name="electronic dipolcorrection" >
    <i type="logical" name="LDIPOL"> T  </i>
    <i type="logical" name="LMONO"> F  </i>
    <i type="int" name="IDIPOL">     3</i>
    <i name="EPSILON">      1.00000000</i>
    <v name="DIPOL">      0.00000000      0.00000000      0.50000000</v>
    <i name="EFIELD">      0.00000000</i>
   </separator>
  </separator>
  <separator name="grids" >
   <i type="int" name="NGX">    54</i>
   <i type="int" name="NGY">    54</i>
   <i type="int" name="NGZ">   128</i>
   <i type="int" name="NGXF">   108</i>
   <i type="int" name="NGYF">   108</i>
   <i type="int" name="NGZF">   256</i>
   <i type="logical" name="ADDGRID"> F  </i>
  </separator>
  <separator name="ionic" >
   <i type="int" name="NSW">   500</i>
   <i type="int" name="IBRION">     2</i>
   <i type="int" name="ISIF">     0</i>
   <i name="PSTRESS">      0.00000000</i>
   <i name="EDIFFG">     -0.02000000</i>
   <i type="int" name="NFREE">     2</i>
   <i name="POTIM">      0.35000000</i>
   <i name="SMASS">     -3.00000000</i>
   <i name="SCALEE">      1.00000000</i>
  </separator>
  <separator name="ionic md" >
   <i name="TEBEG">      0.00010000</i>
   <i name="TEEND">      0.00010000</i>
   <i type="int" name="NBLOCK">     1</i>
   <i type="int" name="KBLOCK">   500</i>
   <i type="int" name="NPACO">   256</i>
   <i name="APACO">     16.00000000</i>
  </separator>
  <separator name="symmetry" >
   <i type="int" name="ISYM">     2</i>
   <i name="SYMPREC">      0.00001000</i>
  </separator>
  <separator name="dos" >
   <i type="logical" name="LORBIT"> F  </i>
   <v name="RWIGS">     -1.00000000     -1.00000000     -1.00000000</v>
   <i type="int" name="NEDOS">   301</i>
   <i name="EMIN">     10.00000000</i>
   <i name="EMAX">    -10.00000000</i>
   <i name="EFERMI">      0.00000000</i>
  </separator>
  <separator name="writing" >
   <i type="int" name="NWRITE">     1</i>
   <i type="logical" name="LWAVE"> F  </i>
   <i type="logical" name="LCHARG"> F  </i>
   <i type="logical" name="LPARD"> F  </i>
   <i type="logical" name="LVTOT"> F  </i>
   <i type="logical" name="LVHAR"> F  </i>
   <i type="logical" name="LELF"> F  </i>
   <i type="logical" name="LOPTICS"> F  </i>
   <v name="STM">      0.00000000      0.00000000      0.00000000      0.00000000      0.00000000      0.00000000      0.00000000</v>
  </separator>
  <separator name="performance" >
   <i type="int" name="NPAR">     6</i>
   <i type="int" name="NSIM">     4</i>
   <i type="int" name="NBLK">    -1</i>
   <i type="logical" name="LPLANE"> T  </i>
   <i type="logical" name="LSCALAPACK"> T  </i>
   <i type="logical" name="LSCAAWARE"> F  </i>
   <i type="logical" name="LSCALU"> F  </i>
   <i type="logical" name="LASYNC"> F  </i>
   <i type="logical" name="LORBITALREAL"> F  </i>
  </separator>
  <separator name="miscellaneous" >
   <i type="int" name="IDIOT">     3</i>
   <i type="logical" name="LMUSIC"> F  </i>
   <v name="POMASS">    196.96600000     16.00000000    106.42000000</v>
   <v name="DARWINR">      0.00000000      0.00000000      0.00000000</v>
   <v name="DARWINV">      1.00000000      1.00000000      1.00000000</v>
   <i type="logical" name="LCORR"> T  </i>
  </separator>
  <i type="logical" name="GGA_COMPAT"> T  </i>
  <i type="logical" name="LBERRY"> F  </i>
  <i type="int" name="ICORELEVEL">     0</i>
  <i type="logical" name="LDAU"> F  </i>
  <i type="int" name="I_CONSTRAINED_M">     0</i>
  <separator name="electronic exchange-correlation" >
   <i type="string" name="GGA">PE</i>
   <i type="int" name="VOSKOWN">     1</i>
   <i type="logical" name="LHFCALC"> F  </i>
   <i type="string" name="PRECFOCK"></i>
   <i type="logical" name="LSYMGRAD"> F  </i>
   <i type="logical" name="LHFONE"> F  </i>
   <i type="logical" name="LRHFCALC"> F  </i>
   <i type="logical" name="LTHOMAS"> F  </i>
   <i type="logical" name="LMODELHF"> F  </i>
   <i name="ENCUT4O">     -1.00000000</i>
   <i type="int" name="EXXOEP">     0</i>
   <i type="int" name="FOURORBIT">     0</i>
   <i name="AEXX">      0.00000000</i>
   <i name="HFALPHA">      0.00000000</i>
   <i name="MCALPHA">      0.00000000</i>
   <i name="ALDAX">      1.00000000</i>
   <i name="AGGAX">      1.00000000</i>
   <i name="ALDAC">      1.00000000</i>
   <i name="AGGAC">      1.00000000</i>
   <i type="int" name="NKREDX">     1</i>
   <i type="int" name="NKREDY">     1</i>
   <i type="int" name="NKREDZ">     1</i>
   <i type="logical" name="SHIFTRED"> F  </i>
   <i type="logical" name="ODDONLY"> F  </i>
   <i type="logical" name="EVENONLY"> F  </i>
   <i type="int" name="LMAXFOCK">     0</i>
   <i type="int" name="NMAXFOCKAE">     0</i>
   <i type="logical" name="LFOCKAEDFT"> F  </i>
   <i name="HFSCREEN">      0.00000000</i>
   <i name="HFSCREENC">      0.00000000</i>
   <i type="int" name="NBANDSGWLOW">     0</i>
  </separator>
  <separator name="vdW DFT" >
   <i type="logical" name="LUSE_VDW"> F  </i>
   <i name="Zab_VDW">     -0.84910000</i>
   <i name="PARAM1">      0.12340000</i>
   <i name="PARAM2">      1.00000000</i>
   <i name="PARAM3">      0.00000000</i>
  </separator>
  <separator name="model GW" >
   <i type="int" name="MODEL_GW">     0</i>
   <i name="MODEL_EPS0">     29.42037089</i>
   <i name="MODEL_ALPHA">      1.00000000</i>
  </separator>
  <separator name="linear response parameters" >
   <i type="logical" name="LEPSILON"> F  </i>
   <i type="logical" name="LRPA"> F  </i>
   <i type="logical" name="LNABLA"> F  </i>
   <i type="logical" name="LVEL"> F  </i>
   <i type="int" name="KINTER">     0</i>
   <i name="CSHIFT">      0.10000000</i>
   <i name="OMEGAMAX">     -1.00000000</i>
   <i name="DEG_THRESHOLD">      0.00200000</i>
  </separator>
  <separator name="orbital magnetization" >
   <i type="logical" name="NUCIND"> F  </i>
   <v name="MAGPOS">      0.00000000      0.00000000      0.00000000</v>
   <i type="logical" name="LNICSALL"> T  </i>
   <i type="logical" name="ORBITALMAG"> F  </i>
   <i type="logical" name="LMAGBLOCH"> F  </i>
   <i type="logical" name="LCHIMAG"> F  </i>
   <i type="logical" name="LGAUGE"> T  </i>
   <i type="int" name="MAGATOM">     0</i>
   <v name="MAGDIPOL">      0.00000000      0.00000000      0.00000000</v>
   <v name="AVECCONST">      0.00000000      0.00000000      0.00000000</v>
  </separator>
  <separator name="response functions" >
   <i type="logical" name="LADDER"> F  </i>
   <i type="logical" name="LFXC"> F  </i>
   <i type="logical" name="LHARTREE"> T  </i>
   <i type="int" name="IBSE">     0</i>
   <v type="int" name="KPOINT">    -1     0     0     0</v>
   <i type="logical" name="LTCTE"> F  </i>
   <i type="logical" name="LTETE"> F  </i>
   <i type="logical" name="LTRIPLET"> F  </i>
   <i type="logical" name="LFXCEPS"> F  </i>
   <i type="logical" name="LFXHEG"> F  </i>
   <i type="int" name="NATURALO">     0</i>
   <i type="logical" name="L2ORDER"> F  </i>
   <i type="logical" name="LUSEW"> F  </i>
   <i name="ENCUTGW">     -2.00000000</i>
   <i name="ENCUTGWSOFT">     -2.00000000</i>
   <i name="ENCUTLF">     -1.00000000</i>
   <i type="int" name="LMAXMP2">    -1</i>
   <i name="SCISSOR">      0.00000000</i>
   <i type="int" name="NOMEGA">     0</i>
   <i type="int" name="NOMEGAR">     0</i>
   <i type="int" name="NBANDSGW">    -1</i>
   <i type="int" name="NBANDSO">    -1</i>
   <i type="int" name="NBANDSV">    -1</i>
   <i type="int" name="NELM">   500</i>
   <i type="int" name="NELMHF">     1</i>
   <i type="int" name="DIM">     3</i>
   <i type="int" name="ANTIRES">     0</i>
   <i name="OMEGAMAX">    -30.00000000</i>
   <i name="OMEGAMIN">    -30.00000000</i>
   <i name="OMEGATL">   -200.00000000</i>
   <i type="int" name="OMEGAGRID">     0</i>
   <i name="CSHIFT">     -0.10000000</i>
   <i type="logical" name="SELFENERGY"> F  </i>
   <i type="logical" name="LSPECTRAL"> F  </i>
   <i type="logical" name="LSPECTRALGW"> F  </i>
   <i type="logical" name="LSINGLES"> F  </i>
   <i type="logical" name="LFERMIGW"> F  </i>
   <i type="logical" name="ODDONLYGW"> F  </i>
   <i type="logical" name="EVENONLYGW"> F  </i>
   <i type="int" name="NKREDLFX">     1</i>
   <i type="int" name="NKREDLFY">     1</i>
   <i type="int" name="NKREDLFZ">     1</i>
   <i type="int" name="MAXMEM">  1800</i>
   <i type="int" name="TELESCOPE">     0</i>
   <i type="int" name="TAUPAR">     1</i>
   <i type="int" name="OMEGAPAR">    -1</i>
   <i name="LAMBDA">      1.00000000</i>
  </separator>
  <separator name="External order field" >
   <i name="OFIELD_KAPPA">      0.00000000</i>
   <v name="OFIELD_K">      0.00000000      0.00000000      0.00000000</v>
   <i name="OFIELD_Q6_NEAR">      0.00000000</i>
   <i name="OFIELD_Q6_FAR">      0.00000000</i>
   <i name="OFIELD_A">      0.00000000</i>
  </separator>
 </parameters>
 <atominfo>
  <atoms>      56 </atoms>
  <types>       3 </types>
  <array name="atoms" >
   <dimension dim="1">ion</dimension>
   <field type="string">element</field>
   <field type="int">atomtype</field>
   <set>
    <rc><c>Au</c><c>   1</c></rc>
    <rc><c>Au</c><c>   1</c></rc>
    <rc><c>Au</c><c>   1</c></rc>
    <rc><c>Au</c><c>   1</c></rc>
    <rc><c>Au</c><c>   1</c></rc>
    <rc><c>Au</c><c>   1</c></rc>
    <rc><c>Au</c><c>   1</c></rc>
    <rc><c>Au</c><c>   1</c></rc>
    <rc><c>Au</c><c>   1</c></rc>
    <rc><c>Au</c><c>   1</c></rc>
    <rc><c>Au</c><c>   1</c></rc>
    <rc><c>Au</c><c>   1</c></rc>
    <rc><c>Au</c><c>   1</c></rc>
    <rc><c>Au</c><c>   1</c></rc>
    <rc><c>Au</c><c>   1</c></rc>
    <rc><c>Au</c><c>   1</c></rc>
    <rc><c>Au</c><c>   1</c></rc>
    <rc><c>Au</c><c>   1</c></rc>
    <rc><c>Au</c><c>   1</c></rc>
    <rc><c>Au</c><c>   1</c></rc>
    <rc><c>Au</c><c>   1</c></rc>
    <rc><c>Au</c><c>   1</c></rc>
    <rc><c>Au</c><c>   1</c></rc>
    <rc><c>Au</c><c>   1</c></rc>
    <rc><c>O </c><c>   2</c></rc>
    <rc><c>O </c><c>   2</c></rc>
    <rc><c>O </c><c>   2</c></rc>
    <rc><c>O </c><c>   2</c></rc>
    <rc><c>O </c><c>   2</c></rc>
    <rc><c>O </c><c>   2</c></rc>
    <rc><c>O </c><c>   2</c></rc>
    <rc><c>O </c><c>   2</c></rc>
    <rc><c>Pd</c><c>   3</c></rc>
    <rc><c>Pd</c><c>   3</c></rc>
    <rc><c>Pd</c><c>   3</c></rc>
    <rc><c>Pd</c><c>   3</c></rc>
    <rc><c>Pd</c><c>   3</c></rc>
    <rc><c>Pd</c><c>   3</c></rc>
    <rc><c>Pd</c><c>   3</c></rc>
    <rc><c>Pd</c><c>   3</c></rc>
    <rc><c>Pd</c><c>   3</c></rc>
    <rc><c>Pd</c><c>   3</c></rc>
    <rc><c>Pd</c><c>   3</c></rc>
    <rc><c>Pd</c><c>   3</c></rc>
    <rc><c>Pd</c><c>   3</c></rc>
    <rc><c>Pd</c><c>   3</c></rc>
    <rc><c>Pd</c><c>   3</c></rc>
    <rc><c>Pd</c><c>   3</c></rc>
    <rc><c>Pd</c><c>   3</c></rc>
    <rc><c>Pd</c><c>   3</c></rc>
    <rc><c>Pd</c><c>   3</c></rc>
    <rc><c>Pd</c><c>   3</c></rc>
    <rc><c>Pd</c><c>   3</c></rc>
    <rc><c>Pd</c><c>   3</c></rc>
    <rc><c>Pd</c><c>   3</c></rc>
    <rc><c>Pd</c><c>   3</c></rc>
   </set>
  </array>
  <array name="atomtypes" >
   <dimension dim="1">type</dimension>
   <field type="int">atomspertype</field>
   <field type="string">element</field>
   <field>mass</field>
   <field>valence</field>
   <field type="string">pseudopotential</field>
   <set>
    <rc><c>  24</c><c>Au</c><c>    196.96600000</c><c>     11.00000000</c><c>  PAW_PBE Au 04Oct2007                  </c></rc>
    <rc><c>   8</c><c>O </c><c>     16.00000000</c><c>      6.00000000</c><c>  PAW_PBE O 08Apr2002                   </c></rc>
    <rc><c>  24</c><c>Pd</c><c>    106.42000000</c><c>     10.00000000</c><c>  PAW_PBE Pd 04Jan2005                  </c></rc>
   </set>
  </array>
 </atominfo>
 <structure name="initialpos" >
  <crystal>
   <varray name="basis" >
    <v>      11.00258152       0.00000000       0.00000000 </v>
    <v>       5.50129076       9.52851510       0.00000000 </v>
    <v>       0.00000000       0.00000000      26.19178509 </v>
   </varray>
   <i name="volume">   2745.90128299 </i>
   <varray name="rec_basis" >
    <v>       0.09088776      -0.05247407       0.00000000 </v>
    <v>       0.00000000       0.10494815       0.00000000 </v>
    <v>       0.00000000       0.00000000       0.03817991 </v>
   </varray>
  </crystal>
  <varray name="positions" >
   <v>       0.58333333       0.58333333       0.38179910 </v>
   <v>       0.66666667       0.16666667       0.46754708 </v>
   <v>       0.50000000       0.00000000       0.55329505 </v>
   <v>       0.66666667       0.91666667       0.46754708 </v>
   <v>       0.83333333       0.83333333       0.38179910 </v>
   <v>       0.41666667       0.41666667       0.46754708 </v>
   <v>       0.08333333       0.33333333       0.38179910 </v>
   <v>       0.50000000       0.50000000       0.55329505 </v>
   <v>       0.00000000       0.25000000       0.55329505 </v>
   <v>       0.08333333       0.58333333       0.38179910 </v>
   <v>       0.66666667       0.66666667       0.46754708 </v>
   <v>       0.75000000       0.75000000       0.55329505 </v>
   <v>       0.00000000       0.50000000       0.55329505 </v>
   <v>       0.75000000       0.25000000       0.55329505 </v>
   <v>       0.00000000       0.75000000       0.55329505 </v>
   <v>       0.16666667       0.91666667       0.46754708 </v>
   <v>       0.83333333       0.33333333       0.38179910 </v>
   <v>       0.33333333       0.83333333       0.38179910 </v>
   <v>       0.25000000       0.00000000       0.55329505 </v>
   <v>       0.33333333       0.33333333       0.38179910 </v>
   <v>       0.16666667       0.41666667       0.46754708 </v>
   <v>       0.25000000       0.25000000       0.55329505 </v>
   <v>       0.83333333       0.08333333       0.38179910 </v>
   <v>       0.33333333       0.58333333       0.38179910 </v>
   <v>       0.08333333       0.08333333       0.61820090 </v>
   <v>       0.33333333       0.08333333       0.61820090 </v>
   <v>       0.33333333       0.33333333       0.61820090 </v>
   <v>       0.08333333       0.33333333       0.61820090 </v>
   <v>       0.08333333       0.58333333       0.61820090 </v>
   <v>       0.33333333       0.83333333       0.61820090 </v>
   <v>       0.58333333       0.83333333       0.61820090 </v>
   <v>       0.58333333       0.58333333       0.61820090 </v>
   <v>       0.41666667       0.16666667       0.46754708 </v>
   <v>       0.58333333       0.08333333       0.38179910 </v>
   <v>       0.25000000       0.75000000       0.55329505 </v>
   <v>       0.25000000       0.50000000       0.55329505 </v>
   <v>       0.33333333       0.08333333       0.38179910 </v>
   <v>       0.16666667       0.16666667       0.46754708 </v>
   <v>       0.91666667       0.91666667       0.46754708 </v>
   <v>       0.08333333       0.83333333       0.38179910 </v>
   <v>       0.91666667       0.66666667       0.46754708 </v>
   <v>       0.91666667       0.41666667       0.46754708 </v>
   <v>       0.00000000       0.00000000       0.55329505 </v>
   <v>       0.91666667       0.16666667       0.46754708 </v>
   <v>       0.50000000       0.25000000       0.55329505 </v>
   <v>       0.08333333       0.08333333       0.38179910 </v>
   <v>       0.75000000       0.50000000       0.55329505 </v>
   <v>       0.58333333       0.83333333       0.38179910 </v>
   <v>       0.41666667       0.91666667       0.46754708 </v>
   <v>       0.83333333       0.58333333       0.38179910 </v>
   <v>       0.50000000       0.75000000       0.55329505 </v>
   <v>       0.66666667       0.41666667       0.46754708 </v>
   <v>       0.75000000       0.00000000       0.55329505 </v>
   <v>       0.41666667       0.66666667       0.46754708 </v>
   <v>       0.58333333       0.33333333       0.38179910 </v>
   <v>       0.16666667       0.66666667       0.46754708 </v>
  </varray>
  <varray name="selective"  type="logical" >
   <v type="logical" >  F  F  F </v>
   <v type="logical" >  T  T  T </v>
   <v type="logical" >  T  T  T </v>
   <v type="logical" >  T  T  T </v>
   <v type="logical" >  F  F  F </v>
   <v type="logical" >  T  T  T </v>
   <v type="logical" >  F  F  F </v>
   <v type="logical" >  T  T  T </v>
   <v type="logical" >  T  T  T </v>
   <v type="logical" >  F  F  F </v>
   <v type="logical" >  T  T  T </v>
   <v type="logical" >  T  T  T </v>
   <v type="logical" >  T  T  T </v>
   <v type="logical" >  T  T  T </v>
   <v type="logical" >  T  T  T </v>
   <v type="logical" >  T  T  T </v>
   <v type="logical" >  F  F  F </v>
   <v type="logical" >  F  F  F </v>
   <v type="logical" >  T  T  T </v>
   <v type="logical" >  F  F  F </v>
   <v type="logical" >  T  T  T </v>
   <v type="logical" >  T  T  T </v>
   <v type="logical" >  F  F  F </v>
   <v type="logical" >  F  F  F </v>
   <v type="logical" >  T  T  T </v>
   <v type="logical" >  T  T  T </v>
   <v type="logical" >  T  T  T </v>
   <v type="logical" >  T  T  T </v>
   <v type="logical" >  T  T  T </v>
   <v type="logical" >  T  T  T </v>
   <v type="logical" >  T  T  T </v>
   <v type="logical" >  T  T  T </v>
   <v type="logical" >  T  T  T </v>
   <v type="logical" >  F  F  F </v>
   <v type="logical" >  T  T  T </v>
   <v type="logical" >  T  T  T </v>
   <v type="logical" >  F  F  F </v>
   <v type="logical" >  T  T  T </v>
   <v type="logical" >  T  T  T </v>
   <v type="logical" >  F  F  F </v>
   <v type="logical" >  T  T  T </v>
   <v type="logical" >  T  T  T </v>
   <v type="logical" >  T  T  T </v>
   <v type="logical" >  T  T  T </v>
   <v type="logical" >  T  T  T </v>
   <v type="logical" >  F  F  F </v>
   <v type="logical" >  T  T  T </v>
   <v type="logical" >  F  F  F </v>
   <v type="logical" >  T  T  T </v>
   <v type="logical" >  F  F  F </v>
   <v type="logical" >  T  T  T </v>
   <v type="logical" >  T  T  T </v>
   <v type="logical" >  T  T  T </v>
   <v type="logical" >  T  T  T </v>
   <v type="logical" >  F  F  F </v>
   <v type="logical" >  T  T  T </v>
  </varray>
  <nose>
   <v>      -3.00000000       0.00000000       0.00010000       0.00010000 </v>
  </nose>
 </structure>
 <calculation>
  <scstep>
   <time name="dav">    8.25    8.27</time>
   <time name="total">    8.31    8.34</time>
   <dipole>
    <v name="dipole">      0.00000000       0.00000000       0.00011686 </v>
    <i name="Tr[quadrupol]"> -11253.27021824 </i>
    <i name="Echarged">      0.00000000 </i>
    <i name="Edipol_quadrupol">      0.00000000 </i>
    <i name="Eion">      0.00000000 </i>
   </dipole>
   <energy>
    <i name="alphaZ">    862.57863602 </i>
    <i name="ewald"> 255122.36382769 </i>
    <i name="hartreedc">-300695.83494258 </i>
    <i name="XCdc">   -109.73443161 </i>
    <i name="pawpsdc">  43112.45544455 </i>
    <i name="pawaedc"> -41079.41300390 </i>
    <i name="eentropy">     -0.13938937 </i>
    <i name="bandstr">   1330.22498804 </i>
    <i name="atom">  45117.89144060 </i>
    <i name="e_fr_energy">   3660.39256944 </i>
    <i name="e_wo_entrp">   3660.53195881 </i>
    <i name="e_0_energy">   3660.46226413 </i>
   </energy>
  </scstep>
  <scstep>
   <time name="dav">    9.78    9.84</time>
   <time name="total">    9.78    9.84</time>
   <dipole>
    <v name="dipole">      0.00000000       0.00000000       0.00011686 </v>
    <i name="Tr[quadrupol]"> -11253.27021824 </i>
    <i name="Echarged">      0.00000000 </i>
    <i name="Edipol_quadrupol">      0.00000000 </i>
    <i name="Eion">      0.00000000 </i>
   </dipole>
   <energy>
    <i name="e_fr_energy">     58.01195827 </i>
    <i name="e_wo_entrp">     58.15526094 </i>
    <i name="e_0_energy">     58.08360960 </i>
   </energy>
  </scstep>
  <scstep>
   <time name="dav">    9.67    9.78</time>
   <time name="total">    9.67    9.78</time>
   <dipole>
    <v name="dipole">      0.00000000       0.00000000       0.00011686 </v>
    <i name="Tr[quadrupol]"> -11253.27021824 </i>
    <i name="Echarged">      0.00000000 </i>
    <i name="Edipol_quadrupol">      0.00000000 </i>
    <i name="Eion">      0.00000000 </i>
   </dipole>
   <energy>
    <i name="e_fr_energy">   -249.74347507 </i>
    <i name="e_wo_entrp">   -249.32070189 </i>
    <i name="e_0_energy">   -249.53208848 </i>
   </energy>
  </scstep>
  <scstep>
   <time name="dav">    9.37    9.40</time>
   <time name="total">    9.37    9.40</time>
   <dipole>
    <v name="dipole">      0.00000000       0.00000000       0.00011686 </v>
    <i name="Tr[quadrupol]"> -11253.27021824 </i>
    <i name="Echarged">      0.00000000 </i>
    <i name="Edipol_quadrupol">      0.00000000 </i>
    <i name="Eion">      0.00000000 </i>
   </dipole>
   <energy>
    <i name="e_fr_energy">   -261.41275154 </i>
    <i name="e_wo_entrp">   -260.96860000 </i>
    <i name="e_0_energy">   -261.19067577 </i>
   </energy>
  </scstep>
  <scstep>
   <time name="dav">    9.92    9.94</time>
   <time name="total">   10.20   10.23</time>
   <dipole>
    <v name="dipole">      0.00000000       0.00000000       0.00011686 </v>
    <i name="Tr[quadrupol]"> -11253.27021824 </i>
    <i name="Echarged">      0.00000000 </i>
    <i name="Edipol_quadrupol">      0.00000000 </i>
    <i name="Eion">      0.00000000 </i>
   </dipole>
   <energy>
    <i name="e_fr_energy">   -261.76563766 </i>
    <i name="e_wo_entrp">   -261.32026265 </i>
    <i name="e_0_energy">   -261.54295015 </i>
   </energy>
  </scstep>
  <scstep>
   <time name="diag">    1.51    1.52</time>
   <time name="diis">    4.09    4.10</time>
   <time name="orth">    0.37    0.37</time>
   <time name="total">    6.31    6.33</time>
   <dipole>
    <v name="dipole">      0.00000000       0.00000000       4.02507109 </v>
    <i name="Tr[quadrupol]"> -11248.72958676 </i>
    <i name="Echarged">      0.00000000 </i>
    <i name="Edipol_quadrupol">      0.00000000 </i>
    <i name="Eion">      0.00000000 </i>
   </dipole>
   <energy>
    <i name="e_fr_energy">   -370.27453783 </i>
    <i name="e_wo_entrp">   -370.14192115 </i>
    <i name="e_0_energy">   -370.20822949 </i>
   </energy>
  </scstep>
  <scstep>
   <time name="diag">    1.51    1.51</time>
   <time name="diis">    4.04    4.05</time>
   <time name="orth">    0.37    0.37</time>
   <time name="total">    6.24    6.27</time>
   <dipole>
    <v name="dipole">      0.00000000       0.00000000      -1.08412922 </v>
    <i name="Tr[quadrupol]"> -11250.46396770 </i>
    <i name="Echarged">      0.00000000 </i>
    <i name="Edipol_quadrupol">      0.00000000 </i>
    <i name="Eion">      0.00000000 </i>
   </dipole>
   <energy>
    <i name="e_fr_energy">   -264.59072941 </i>
    <i name="e_wo_entrp">   -264.32551160 </i>
    <i name="e_0_energy">   -264.45812051 </i>
   </energy>
  </scstep>
  <scstep>
   <time name="diag">    1.48    1.57</time>
   <time name="diis">    4.05    4.07</time>
   <time name="orth">    0.37    0.37</time>
   <time name="total">    6.24    6.34</time>
   <dipole>
    <v name="dipole">      0.00000000       0.00000000       1.26449352 </v>
    <i name="Tr[quadrupol]"> -11253.50029866 </i>
    <i name="Echarged">      0.00000000 </i>
    <i name="Edipol_quadrupol">      0.00000000 </i>
    <i name="Eion">      0.00000000 </i>
   </dipole>
   <energy>
    <i name="e_fr_energy">   -241.44971096 </i>
    <i name="e_wo_entrp">   -241.19147391 </i>
    <i name="e_0_energy">   -241.32059244 </i>
   </energy>
  </scstep>
  <scstep>
   <time name="diag">    1.49    1.49</time>
   <time name="diis">    4.06    4.07</time>
   <time name="orth">    0.37    0.37</time>
   <time name="total">    6.25    6.27</time>
   <dipole>
    <v name="dipole">      0.00000000       0.00000000       0.57126473 </v>
    <i name="Tr[quadrupol]"> -11246.86985503 </i>
    <i name="Echarged">      0.00000000 </i>
    <i name="Edipol_quadrupol">      0.00000000 </i>
    <i name="Eion">      0.00000000 </i>
   </dipole>
   <energy>
    <i name="e_fr_energy">   -258.65825376 </i>
    <i name="e_wo_entrp">   -258.50537044 </i>
    <i name="e_0_energy">   -258.58181210 </i>
   </energy>
  </scstep>
  <scstep>
   <time name="diag">    1.49    1.50</time>
   <time name="diis">    4.03    4.04</time>
   <time name="orth">    0.36    0.37</time>
   <time name="total">    6.22    6.24</time>
   <dipole>
    <v name="dipole">      0.00000000       0.00000000       1.39870971 </v>
    <i name="Tr[quadrupol]"> -11248.67653607 </i>
    <i name="Echarged">      0.00000000 </i>
    <i name="Edipol_quadrupol">      0.00000000 </i>
    <i name="Eion">      0.00000000 </i>
   </dipole>
   <energy>
    <i name="e_fr_energy">   -250.53983409 </i>
    <i name="e_wo_entrp">   -250.41040820 </i>
    <i name="e_0_energy">   -250.47512115 </i>
   </energy>
  </scstep>
  <scstep>
   <time name="diag">    1.50    1.51</time>
   <time name="diis">    4.07    4.08</time>
   <time name="orth">    0.36    0.37</time>
   <time name="total">    6.26    6.28</time>
   <dipole>
    <v name="dipole">      0.00000000       0.00000000       1.42566318 </v>
    <i name="Tr[quadrupol]"> -11250.03672457 </i>
    <i name="Echarged">      0.00000000 </i>
    <i name="Edipol_quadrupol">      0.00000000 </i>
    <i name="Eion">      0.00000000 </i>
   </dipole>
   <energy>
    <i name="e_fr_energy">   -233.78186341 </i>
    <i name="e_wo_entrp">   -233.62740342 </i>
    <i name="e_0_energy">   -233.70463341 </i>
   </energy>
  </scstep>
  <scstep>
   <time name="diag">    1.49    1.50</time>
   <time name="diis">    4.02    4.03</time>
   <time name="orth">    0.36    0.36</time>
   <time name="total">    6.21    6.23</time>
   <dipole>
    <v name="dipole">      0.00000000       0.00000000       1.14688724 </v>
    <i name="Tr[quadrupol]"> -11250.79283404 </i>
    <i name="Echarged">      0.00000000 </i>
    <i name="Edipol_quadrupol">      0.00000000 </i>
    <i name="Eion">      0.00000000 </i>
   </dipole>
   <energy>
    <i name="e_fr_energy">   -225.66738125 </i>
    <i name="e_wo_entrp">   -225.47465671 </i>
    <i name="e_0_energy">   -225.57101898 </i>
   </energy>
  </scstep>
  <scstep>
   <time name="diag">    1.48    1.49</time>
   <time name="diis">    4.11    4.12</time>
   <time name="orth">    0.36    0.37</time>
   <time name="total">    6.29    6.32</time>
   <dipole>
    <v name="dipole">      0.00000000       0.00000000       1.10733432 </v>
    <i name="Tr[quadrupol]"> -11250.99802743 </i>
    <i name="Echarged">      0.00000000 </i>
    <i name="Edipol_quadrupol">      0.00000000 </i>
    <i name="Eion">      0.00000000 </i>
   </dipole>
   <energy>
    <i name="e_fr_energy">   -222.14553895 </i>
    <i name="e_wo_entrp">   -221.87054616 </i>
    <i name="e_0_energy">   -222.00804256 </i>
   </energy>
  </scstep>
  <scstep>
   <time name="diag">    1.49    1.50</time>
   <time name="diis">    3.99    4.09</time>
   <time name="orth">    0.36    0.36</time>
   <time name="total">    6.18    6.29</time>
   <dipole>
    <v name="dipole">      0.00000000       0.00000000       1.13397658 </v>
    <i name="Tr[quadrupol]"> -11250.93559738 </i>
    <i name="Echarged">      0.00000000 </i>
    <i name="Edipol_quadrupol">      0.00000000 </i>
    <i name="Eion">      0.00000000 </i>
   </dipole>
   <energy>
    <i name="e_fr_energy">   -220.84582440 </i>
    <i name="e_wo_entrp">   -220.51018151 </i>
    <i name="e_0_energy">   -220.67800295 </i>
   </energy>
  </scstep>
  <scstep>
   <time name="diag">    1.50    1.50</time>
   <time name="diis">    4.08    4.09</time>
   <time name="orth">    0.37    0.37</time>
   <time name="total">    6.27    6.29</time>
   <dipole>
    <v name="dipole">      0.00000000       0.00000000       1.15790205 </v>
    <i name="Tr[quadrupol]"> -11250.83502440 </i>
    <i name="Echarged">      0.00000000 </i>
    <i name="Edipol_quadrupol">      0.00000000 </i>
    <i name="Eion">      0.00000000 </i>
   </dipole>
   <energy>
    <i name="e_fr_energy">   -220.53385524 </i>
    <i name="e_wo_entrp">   -220.21143328 </i>
    <i name="e_0_energy">   -220.37264426 </i>
   </energy>
  </scstep>
  <scstep>
   <time name="diag">    1.49    1.49</time>
   <time name="diis">    4.13    4.14</time>
   <time name="orth">    0.36    0.37</time>
   <time name="total">    6.32    6.34</time>
   <dipole>
    <v name="dipole">      0.00000000       0.00000000       1.18270447 </v>
    <i name="Tr[quadrupol]"> -11250.76753371 </i>
    <i name="Echarged">      0.00000000 </i>
    <i name="Edipol_quadrupol">      0.00000000 </i>
    <i name="Eion">      0.00000000 </i>
   </dipole>
   <energy>
    <i name="e_fr_energy">   -220.48977430 </i>
    <i name="e_wo_entrp">   -220.17673670 </i>
    <i name="e_0_energy">   -220.33325550 </i>
   </energy>
  </scstep>
  <scstep>
   <time name="diag">    1.49    1.49</time>
   <time name="diis">    4.12    4.13</time>
   <time name="orth">    0.37    0.37</time>
   <time name="total">    6.31    6.33</time>
   <dipole>
    <v name="dipole">      0.00000000       0.00000000       1.19886887 </v>
    <i name="Tr[quadrupol]"> -11250.70824889 </i>
    <i name="Echarged">      0.00000000 </i>
    <i name="Edipol_quadrupol">      0.00000000 </i>
    <i name="Eion">      0.00000000 </i>
   </dipole>
   <energy>
    <i name="e_fr_energy">   -220.56281502 </i>
    <i name="e_wo_entrp">   -220.23587636 </i>
    <i name="e_0_energy">   -220.39934569 </i>
   </energy>
  </scstep>
  <scstep>
   <time name="diag">    1.49    1.50</time>
   <time name="diis">    4.12    4.13</time>
   <time name="orth">    0.36    0.37</time>
   <time name="total">    6.32    6.34</time>
   <dipole>
    <v name="dipole">      0.00000000       0.00000000       1.20080822 </v>
    <i name="Tr[quadrupol]"> -11250.75443703 </i>
    <i name="Echarged">      0.00000000 </i>
    <i name="Edipol_quadrupol">      0.00000000 </i>
    <i name="Eion">      0.00000000 </i>
   </dipole>
   <energy>
    <i name="e_fr_energy">   -220.47879705 </i>
    <i name="e_wo_entrp">   -220.14062737 </i>
    <i name="e_0_energy">   -220.30971221 </i>
   </energy>
  </scstep>
  <scstep>
   <time name="diag">    1.47    1.51</time>
   <time name="diis">    4.09    4.11</time>
   <time name="orth">    0.36    0.37</time>
   <time name="total">    6.26    6.31</time>
   <dipole>
    <v name="dipole">      0.00000000       0.00000000       1.21206853 </v>
    <i name="Tr[quadrupol]"> -11250.84497123 </i>
    <i name="Echarged">      0.00000000 </i>
    <i name="Edipol_quadrupol">      0.00000000 </i>
    <i name="Eion">      0.00000000 </i>
   </dipole>
   <energy>
    <i name="e_fr_energy">   -220.31378696 </i>
    <i name="e_wo_entrp">   -219.95264965 </i>
    <i name="e_0_energy">   -220.13321831 </i>
   </energy>
  </scstep>
  <scstep>
   <time name="diag">    1.49    1.49</time>
   <time name="diis">    4.02    4.10</time>
   <time name="orth">    0.36    0.37</time>
   <time name="total">    6.21    6.31</time>
   <dipole>
    <v name="dipole">      0.00000000       0.00000000       1.22071816 </v>
    <i name="Tr[quadrupol]"> -11250.99051857 </i>
    <i name="Echarged">      0.00000000 </i>
    <i name="Edipol_quadrupol">      0.00000000 </i>
    <i name="Eion">      0.00000000 </i>
   </dipole>
   <energy>
    <i name="e_fr_energy">   -220.29567118 </i>
    <i name="e_wo_entrp">   -219.90722715 </i>
    <i name="e_0_energy">   -220.10144917 </i>
   </energy>
  </scstep>
  <scstep>
   <time name="diag">    1.48    1.48</time>
   <time name="diis">    4.13    4.15</time>
   <time name="orth">    0.37    0.37</time>
   <time name="total">    6.31    6.34</time>
   <dipole>
    <v name="dipole">      0.00000000       0.00000000       1.22026576 </v>
    <i name="Tr[quadrupol]"> -11250.98204168 </i>
    <i name="Echarged">      0.00000000 </i>
    <i name="Edipol_quadrupol">      0.00000000 </i>
    <i name="Eion">      0.00000000 </i>
   </dipole>
   <energy>
    <i name="e_fr_energy">   -220.26164246 </i>
    <i name="e_wo_entrp">   -219.88124976 </i>
    <i name="e_0_energy">   -220.07144611 </i>
   </energy>
  </scstep>
  <scstep>
   <time name="diag">    1.48    1.48</time>
   <time name="diis">    4.12    4.13</time>
   <time name="orth">    0.36    0.36</time>
   <time name="total">    6.30    6.32</time>
   <dipole>
    <v name="dipole">      0.00000000       0.00000000       1.22128265 </v>
    <i name="Tr[quadrupol]"> -11251.00107706 </i>
    <i name="Echarged">      0.00000000 </i>
    <i name="Edipol_quadrupol">      0.00000000 </i>
    <i name="Eion">      0.00000000 </i>
   </dipole>
   <energy>
    <i name="e_fr_energy">   -220.24549738 </i>
    <i name="e_wo_entrp">   -219.86611281 </i>
    <i name="e_0_energy">   -220.05580509 </i>
   </energy>
  </scstep>
  <scstep>
   <time name="diag">    1.49    1.50</time>
   <time name="diis">    4.06    4.07</time>
   <time name="orth">    0.36    0.37</time>
   <time name="total">    6.24    6.26</time>
   <dipole>
    <v name="dipole">      0.00000000       0.00000000       1.22927305 </v>
    <i name="Tr[quadrupol]"> -11251.06668541 </i>
    <i name="Echarged">      0.00000000 </i>
    <i name="Edipol_quadrupol">      0.00000000 </i>
    <i name="Eion">      0.00000000 </i>
   </dipole>
   <energy>
    <i name="e_fr_energy">   -220.24355638 </i>
    <i name="e_wo_entrp">   -219.87207001 </i>
    <i name="e_0_energy">   -220.05781320 </i>
   </energy>
  </scstep>
  <scstep>
   <time name="diag">    1.49    1.49</time>
   <time name="diis">    4.12    4.14</time>
   <time name="orth">    0.36    0.36</time>
   <time name="total">    6.31    6.34</time>
   <dipole>
    <v name="dipole">      0.00000000       0.00000000       1.23939809 </v>
    <i name="Tr[quadrupol]"> -11251.17200166 </i>
    <i name="Echarged">      0.00000000 </i>
    <i name="Edipol_quadrupol">      0.00000000 </i>
    <i name="Eion">      0.00000000 </i>
   </dipole>
   <energy>
    <i name="e_fr_energy">   -220.22798260 </i>
    <i name="e_wo_entrp">   -219.85746135 </i>
    <i name="e_0_energy">   -220.04272197 </i>
   </energy>
  </scstep>
  <scstep>
   <time name="diag">    1.49    1.49</time>
   <time name="diis">    4.14    4.15</time>
   <time name="orth">    0.36    0.36</time>
   <time name="total">    6.33    6.35</time>
   <dipole>
    <v name="dipole">      0.00000000       0.00000000       1.24315490 </v>
    <i name="Tr[quadrupol]"> -11251.23745127 </i>
    <i name="Echarged">      0.00000000 </i>
    <i name="Edipol_quadrupol">      0.00000000 </i>
    <i name="Eion">      0.00000000 </i>
   </dipole>
   <energy>
    <i name="e_fr_energy">   -220.22247300 </i>
    <i name="e_wo_entrp">   -219.84859477 </i>
    <i name="e_0_energy">   -220.03553389 </i>
   </energy>
  </scstep>
  <scstep>
   <time name="diag">    1.48    1.49</time>
   <time name="diis">    4.09    4.10</time>
   <time name="orth">    0.37    0.37</time>
   <time name="total">    6.27    6.29</time>
   <dipole>
    <v name="dipole">      0.00000000       0.00000000       1.24349362 </v>
    <i name="Tr[quadrupol]"> -11251.28894831 </i>
    <i name="Echarged">      0.00000000 </i>
    <i name="Edipol_quadrupol">      0.00000000 </i>
    <i name="Eion">      0.00000000 </i>
   </dipole>
   <energy>
    <i name="e_fr_energy">   -220.22182487 </i>
    <i name="e_wo_entrp">   -219.84490415 </i>
    <i name="e_0_energy">   -220.03336451 </i>
   </energy>
  </scstep>
  <scstep>
   <time name="diag">    1.48    1.56</time>
   <time name="diis">    4.11    4.12</time>
   <time name="orth">    0.36    0.36</time>
   <time name="total">    6.28    6.39</time>
   <dipole>
    <v name="dipole">      0.00000000       0.00000000       1.24719613 </v>
    <i name="Tr[quadrupol]"> -11251.34064575 </i>
    <i name="Echarged">      0.00000000 </i>
    <i name="Edipol_quadrupol">      0.00000000 </i>
    <i name="Eion">      0.00000000 </i>
   </dipole>
   <energy>
    <i name="e_fr_energy">   -220.22274705 </i>
    <i name="e_wo_entrp">   -219.84563548 </i>
    <i name="e_0_energy">   -220.03419126 </i>
   </energy>
  </scstep>
  <scstep>
   <time name="diag">    1.48    1.49</time>
   <time name="diis">    4.08    4.13</time>
   <time name="orth">    0.36    0.36</time>
   <time name="total">    6.26    6.32</time>
   <dipole>
    <v name="dipole">      0.00000000       0.00000000       1.25070245 </v>
    <i name="Tr[quadrupol]"> -11251.38144449 </i>
    <i name="Echarged">      0.00000000 </i>
    <i name="Edipol_quadrupol">      0.00000000 </i>
    <i name="Eion">      0.00000000 </i>
   </dipole>
   <energy>
    <i name="e_fr_energy">   -220.22320129 </i>
    <i name="e_wo_entrp">   -219.84824329 </i>
    <i name="e_0_energy">   -220.03572229 </i>
   </energy>
  </scstep>
  <scstep>
   <time name="diag">    1.48    1.48</time>
   <time name="diis">    4.16    4.17</time>
   <time name="orth">    0.36    0.36</time>
   <time name="total">    6.34    6.36</time>
   <dipole>
    <v name="dipole">      0.00000000       0.00000000       1.25784792 </v>
    <i name="Tr[quadrupol]"> -11251.41667108 </i>
    <i name="Echarged">      0.00000000 </i>
    <i name="Edipol_quadrupol">      0.00000000 </i>
    <i name="Eion">      0.00000000 </i>
   </dipole>
   <energy>
    <i name="e_fr_energy">   -220.22361084 </i>
    <i name="e_wo_entrp">   -219.84854340 </i>
    <i name="e_0_energy">   -220.03607712 </i>
   </energy>
  </scstep>
  <scstep>
   <time name="diag">    1.48    1.48</time>
   <time name="diis">    4.15    4.16</time>
   <time name="orth">    0.36    0.36</time>
   <time name="total">    6.33    6.35</time>
   <dipole>
    <v name="dipole">      0.00000000       0.00000000       1.26244328 </v>
    <i name="Tr[quadrupol]"> -11251.44367155 </i>
    <i name="Echarged">      0.00000000 </i>
    <i name="Edipol_quadrupol">      0.00000000 </i>
    <i name="Eion">      0.00000000 </i>
   </dipole>
   <energy>
    <i name="e_fr_energy">   -220.22392928 </i>
    <i name="e_wo_entrp">   -219.84847425 </i>
    <i name="e_0_energy">   -220.03620176 </i>
   </energy>
  </scstep>
  <scstep>
   <time name="diag">    1.50    1.50</time>
   <time name="diis">    4.14    4.15</time>
   <time name="orth">    0.36    0.36</time>
   <time name="total">    6.33    6.35</time>
   <dipole>
    <v name="dipole">      0.00000000       0.00000000       1.26745032 </v>
    <i name="Tr[quadrupol]"> -11251.47758044 </i>
    <i name="Echarged">      0.00000000 </i>
    <i name="Edipol_quadrupol">      0.00000000 </i>
    <i name="Eion">      0.00000000 </i>
   </dipole>
   <energy>
    <i name="e_fr_energy">   -220.22439573 </i>
    <i name="e_wo_entrp">   -219.84835346 </i>
    <i name="e_0_energy">   -220.03637459 </i>
   </energy>
  </scstep>
  <scstep>
   <time name="diag">    1.48    1.49</time>
   <time name="diis">    4.12    4.13</time>
   <time name="orth">    0.36    0.36</time>
   <time name="total">    6.31    6.33</time>
   <dipole>
    <v name="dipole">      0.00000000       0.00000000       1.27199836 </v>
    <i name="Tr[quadrupol]"> -11251.50322646 </i>
    <i name="Echarged">      0.00000000 </i>
    <i name="Edipol_quadrupol">      0.00000000 </i>
    <i name="Eion">      0.00000000 </i>
   </dipole>
   <energy>
    <i name="e_fr_energy">   -220.22472378 </i>
    <i name="e_wo_entrp">   -219.84848686 </i>
    <i name="e_0_energy">   -220.03660532 </i>
   </energy>
  </scstep>
  <scstep>
   <time name="diag">    1.47    1.47</time>
   <time name="diis">    4.05    4.16</time>
   <time name="orth">    0.36    0.37</time>
   <time name="total">    6.23    6.34</time>
   <dipole>
    <v name="dipole">      0.00000000       0.00000000       1.27775881 </v>
    <i name="Tr[quadrupol]"> -11251.53322209 </i>
    <i name="Echarged">      0.00000000 </i>
    <i name="Edipol_quadrupol">      0.00000000 </i>
    <i name="Eion">      0.00000000 </i>
   </dipole>
   <energy>
    <i name="e_fr_energy">   -220.22511277 </i>
    <i name="e_wo_entrp">   -219.84923642 </i>
    <i name="e_0_energy">   -220.03717460 </i>
   </energy>
  </scstep>
  <scstep>
   <time name="diag">    1.49    1.49</time>
   <time name="diis">    3.98    3.99</time>
   <time name="orth">    0.36    0.36</time>
   <time name="total">    6.17    6.19</time>
   <dipole>
    <v name="dipole">      0.00000000       0.00000000       1.28283959 </v>
    <i name="Tr[quadrupol]"> -11251.55684332 </i>
    <i name="Echarged">      0.00000000 </i>
    <i name="Edipol_quadrupol">      0.00000000 </i>
    <i name="Eion">      0.00000000 </i>
   </dipole>
   <energy>
    <i name="e_fr_energy">   -220.22540202 </i>
    <i name="e_wo_entrp">   -219.84952606 </i>
    <i name="e_0_energy">   -220.03746404 </i>
   </energy>
  </scstep>
  <scstep>
   <time name="diag">    1.50    1.50</time>
   <time name="diis">    4.13    4.14</time>
   <time name="orth">    0.36    0.36</time>
   <time name="total">    6.33    6.34</time>
   <dipole>
    <v name="dipole">      0.00000000       0.00000000       1.29017307 </v>
    <i name="Tr[quadrupol]"> -11251.59148204 </i>
    <i name="Echarged">      0.00000000 </i>
    <i name="Edipol_quadrupol">      0.00000000 </i>
    <i name="Eion">      0.00000000 </i>
   </dipole>
   <energy>
    <i name="e_fr_energy">   -220.22578635 </i>
    <i name="e_wo_entrp">   -219.84995857 </i>
    <i name="e_0_energy">   -220.03787246 </i>
   </energy>
  </scstep>
  <scstep>
   <time name="diag">    1.49    1.49</time>
   <time name="diis">    3.76    3.77</time>
   <time name="orth">    0.36    0.36</time>
   <time name="total">    5.95    5.97</time>
   <dipole>
    <v name="dipole">      0.00000000       0.00000000       1.29505773 </v>
    <i name="Tr[quadrupol]"> -11251.61184918 </i>
    <i name="Echarged">      0.00000000 </i>
    <i name="Edipol_quadrupol">      0.00000000 </i>
    <i name="Eion">      0.00000000 </i>
   </dipole>
   <energy>
    <i name="e_fr_energy">   -220.22598876 </i>
    <i name="e_wo_entrp">   -219.85006671 </i>
    <i name="e_0_energy">   -220.03802774 </i>
   </energy>
  </scstep>
  <scstep>
   <time name="diag">    1.47    1.48</time>
   <time name="diis">    3.66    3.67</time>
   <time name="orth">    0.36    0.37</time>
   <time name="total">    5.84    5.86</time>
   <dipole>
    <v name="dipole">      0.00000000       0.00000000       1.30059490 </v>
    <i name="Tr[quadrupol]"> -11251.63435605 </i>
    <i name="Echarged">      0.00000000 </i>
    <i name="Edipol_quadrupol">      0.00000000 </i>
    <i name="Eion">      0.00000000 </i>
   </dipole>
   <energy>
    <i name="e_fr_energy">   -220.22614970 </i>
    <i name="e_wo_entrp">   -219.85023109 </i>
    <i name="e_0_energy">   -220.03819040 </i>
   </energy>
  </scstep>
  <scstep>
   <time name="diag">    1.48    1.49</time>
   <time name="diis">    3.19    3.20</time>
   <time name="orth">    0.36    0.36</time>
   <time name="total">    5.38    5.44</time>
   <dipole>
    <v name="dipole">      0.00000000       0.00000000       1.30501485 </v>
    <i name="Tr[quadrupol]"> -11251.64953918 </i>
    <i name="Echarged">      0.00000000 </i>
    <i name="Edipol_quadrupol">      0.00000000 </i>
    <i name="Eion">      0.00000000 </i>
   </dipole>
   <energy>
    <i name="e_fr_energy">   -220.22623150 </i>
    <i name="e_wo_entrp">   -219.85027753 </i>
    <i name="e_0_energy">   -220.03825452 </i>
   </energy>
  </scstep>
  <scstep>
   <time name="diag">    1.49    1.50</time>
   <time name="diis">    2.73    2.73</time>
   <time name="orth">    0.36    0.36</time>
   <time name="total">    4.92    4.93</time>
   <dipole>
    <v name="dipole">      0.00000000       0.00000000       1.30747734 </v>
    <i name="Tr[quadrupol]"> -11251.65684155 </i>
    <i name="Echarged">      0.00000000 </i>
    <i name="Edipol_quadrupol">      0.00000000 </i>
    <i name="Eion">      0.00000000 </i>
   </dipole>
   <energy>
    <i name="e_fr_energy">   -220.22626605 </i>
    <i name="e_wo_entrp">   -219.85028580 </i>
    <i name="e_0_energy">   -220.03827592 </i>
   </energy>
  </scstep>
  <scstep>
   <time name="diag">    1.48    1.48</time>
   <time name="diis">    2.50    2.51</time>
   <time name="orth">    0.36    0.36</time>
   <time name="total">    4.68    4.70</time>
   <dipole>
    <v name="dipole">      0.00000000       0.00000000       1.30995093 </v>
    <i name="Tr[quadrupol]"> -11251.66301696 </i>
    <i name="Echarged">      0.00000000 </i>
    <i name="Edipol_quadrupol">      0.00000000 </i>
    <i name="Eion">      0.00000000 </i>
   </dipole>
   <energy>
    <i name="e_fr_energy">   -220.22630338 </i>
    <i name="e_wo_entrp">   -219.85029284 </i>
    <i name="e_0_energy">   -220.03829811 </i>
   </energy>
  </scstep>
  <scstep>
   <time name="diag">    1.46    1.54</time>
   <time name="diis">    2.47    2.47</time>
   <time name="orth">    0.37    0.37</time>
   <time name="total">    4.64    4.73</time>
   <dipole>
    <v name="dipole">      0.00000000       0.00000000       1.31199388 </v>
    <i name="Tr[quadrupol]"> -11251.66733922 </i>
    <i name="Echarged">      0.00000000 </i>
    <i name="Edipol_quadrupol">      0.00000000 </i>
    <i name="Eion">      0.00000000 </i>
   </dipole>
   <energy>
    <i name="e_fr_energy">   -220.22633205 </i>
    <i name="e_wo_entrp">   -219.85032011 </i>
    <i name="e_0_energy">   -220.03832608 </i>
   </energy>
  </scstep>
  <scstep>
   <time name="diag">    1.48    1.49</time>
   <time name="diis">    2.49    2.49</time>
   <time name="orth">    0.36    0.36</time>
   <time name="total">    4.67    4.69</time>
   <dipole>
    <v name="dipole">      0.00000000       0.00000000       1.31514421 </v>
    <i name="Tr[quadrupol]"> -11251.67330466 </i>
    <i name="Echarged">      0.00000000 </i>
    <i name="Edipol_quadrupol">      0.00000000 </i>
    <i name="Eion">      0.00000000 </i>
   </dipole>
   <energy>
    <i name="e_fr_energy">   -220.22637369 </i>
    <i name="e_wo_entrp">   -219.85035738 </i>
    <i name="e_0_energy">   -220.03836553 </i>
   </energy>
  </scstep>
  <scstep>
   <time name="diag">    1.49    1.49</time>
   <time name="diis">    2.45    2.46</time>
   <time name="orth">    0.36    0.36</time>
   <time name="total">    4.64    4.65</time>
   <dipole>
    <v name="dipole">      0.00000000       0.00000000       1.31700365 </v>
    <i name="Tr[quadrupol]"> -11251.67652553 </i>
    <i name="Echarged">      0.00000000 </i>
    <i name="Edipol_quadrupol">      0.00000000 </i>
    <i name="Eion">      0.00000000 </i>
   </dipole>
   <energy>
    <i name="e_fr_energy">   -220.22639319 </i>
    <i name="e_wo_entrp">   -219.85037566 </i>
    <i name="e_0_energy">   -220.03838442 </i>
   </energy>
  </scstep>
  <scstep>
   <time name="diag">    1.48    1.48</time>
   <time name="diis">    2.45    2.45</time>
   <time name="orth">    0.36    0.36</time>
   <time name="total">    4.64    4.65</time>
   <dipole>
    <v name="dipole">      0.00000000       0.00000000       1.31869039 </v>
    <i name="Tr[quadrupol]"> -11251.67926599 </i>
    <i name="Echarged">      0.00000000 </i>
    <i name="Edipol_quadrupol">      0.00000000 </i>
    <i name="Eion">      0.00000000 </i>
   </dipole>
   <energy>
    <i name="e_fr_energy">   -220.22640780 </i>
    <i name="e_wo_entrp">   -219.85037494 </i>
    <i name="e_0_energy">   -220.03839137 </i>
   </energy>
  </scstep>
  <scstep>
   <time name="diag">    1.47    1.47</time>
   <time name="diis">    2.33    2.34</time>
   <time name="orth">    0.36    0.36</time>
   <time name="total">    4.51    4.52</time>
   <dipole>
    <v name="dipole">      0.00000000       0.00000000       1.32000973 </v>
    <i name="Tr[quadrupol]"> -11251.68113655 </i>
    <i name="Echarged">      0.00000000 </i>
    <i name="Edipol_quadrupol">      0.00000000 </i>
    <i name="Eion">      0.00000000 </i>
   </dipole>
   <energy>
    <i name="e_fr_energy">   -220.22641674 </i>
    <i name="e_wo_entrp">   -219.85037687 </i>
    <i name="e_0_energy">   -220.03839681 </i>
   </energy>
  </scstep>
  <scstep>
   <time name="diag">    1.51    1.51</time>
   <time name="diis">    2.07    2.08</time>
   <time name="orth">    0.36    0.36</time>
   <time name="total">    4.28    4.29</time>
   <dipole>
    <v name="dipole">      0.00000000       0.00000000       1.32089187 </v>
    <i name="Tr[quadrupol]"> -11251.68222804 </i>
    <i name="Echarged">      0.00000000 </i>
    <i name="Edipol_quadrupol">      0.00000000 </i>
    <i name="Eion">      0.00000000 </i>
   </dipole>
   <energy>
    <i name="e_fr_energy">   -220.22642171 </i>
    <i name="e_wo_entrp">   -219.85037453 </i>
    <i name="e_0_energy">   -220.03839812 </i>
   </energy>
  </scstep>
  <scstep>
   <time name="diag">    1.50    1.50</time>
   <time name="diis">    1.96    1.97</time>
   <time name="orth">    0.36    0.36</time>
   <time name="total">    4.16    4.17</time>
   <dipole>
    <v name="dipole">      0.00000000       0.00000000       1.32121971 </v>
    <i name="Tr[quadrupol]"> -11251.68245889 </i>
    <i name="Echarged">      0.00000000 </i>
    <i name="Edipol_quadrupol">      0.00000000 </i>
    <i name="Eion">      0.00000000 </i>
   </dipole>
   <energy>
    <i name="e_fr_energy">   -220.22642373 </i>
    <i name="e_wo_entrp">   -219.85037682 </i>
    <i name="e_0_energy">   -220.03840027 </i>
   </energy>
  </scstep>
  <scstep>
   <time name="diag">    1.48    1.48</time>
   <time name="diis">    1.83    1.85</time>
   <time name="orth">    0.36    0.36</time>
   <time name="total">    4.01    4.04</time>
   <dipole>
    <v name="dipole">      0.00000000       0.00000000       1.32136780 </v>
    <i name="Tr[quadrupol]"> -11251.68248245 </i>
    <i name="Echarged">      0.00000000 </i>
    <i name="Edipol_quadrupol">      0.00000000 </i>
    <i name="Eion">      0.00000000 </i>
   </dipole>
   <energy>
    <i name="e_fr_energy">   -220.22642505 </i>
    <i name="e_wo_entrp">   -219.85038007 </i>
    <i name="e_0_energy">   -220.03840256 </i>
   </energy>
  </scstep>
  <scstep>
   <time name="diag">    1.47    1.48</time>
   <time name="diis">    1.82    1.82</time>
   <time name="orth">    0.36    0.36</time>
   <time name="total">    4.00    4.01</time>
   <dipole>
    <v name="dipole">      0.00000000       0.00000000       1.32149305 </v>
    <i name="Tr[quadrupol]"> -11251.68245245 </i>
    <i name="Echarged">      0.00000000 </i>
    <i name="Edipol_quadrupol">      0.00000000 </i>
    <i name="Eion">      0.00000000 </i>
   </dipole>
   <energy>
    <i name="e_fr_energy">   -220.22642614 </i>
    <i name="e_wo_entrp">   -219.85038142 </i>
    <i name="e_0_energy">   -220.03840378 </i>
   </energy>
  </scstep>
  <scstep>
   <time name="diag">    1.47    1.55</time>
   <time name="diis">    1.64    1.65</time>
   <time name="orth">    0.36    0.36</time>
   <time name="total">    3.52    3.62</time>
   <dipole>
    <v name="dipole">      0.00000000       0.00000000       1.32154163 </v>
    <i name="Tr[quadrupol]"> -11251.68241828 </i>
    <i name="Echarged">      0.00000000 </i>
    <i name="Edipol_quadrupol">      0.00000000 </i>
    <i name="Eion">      0.00000000 </i>
   </dipole>
   <energy>
    <i name="alphaZ">    886.88615934 </i>
    <i name="ewald"> 255122.36382769 </i>
    <i name="hartreedc">-300147.04052364 </i>
    <i name="XCdc">   -124.35580422 </i>
    <i name="pawpsdc">  52766.34989754 </i>
    <i name="pawaedc"> -50864.85437590 </i>
    <i name="eentropy">     -0.37604514 </i>
    <i name="bandstr">  -2977.09100283 </i>
    <i name="atom">  45117.89144060 </i>
    <i name="e_fr_energy">   -220.22642656 </i>
    <i name="e_wo_entrp">   -219.85038142 </i>
    <i name="e_0_energy">   -220.03840399 </i>
   </energy>
  </scstep>
  <structure>
   <crystal>
    <varray name="basis" >
     <v>      11.00258152       0.00000000       0.00000000 </v>
     <v>       5.50129076       9.52851510       0.00000000 </v>
     <v>       0.00000000       0.00000000      26.19178509 </v>
    </varray>
    <i name="volume">   2745.90128299 </i>
    <varray name="rec_basis" >
     <v>       0.09088776      -0.05247407       0.00000000 </v>
     <v>       0.00000000       0.10494815       0.00000000 </v>
     <v>       0.00000000       0.00000000       0.03817991 </v>
    </varray>
   </crystal>
   <varray name="positions" >
    <v>       0.58333333       0.58333333       0.38179910 </v>
    <v>       0.66666667       0.16666667       0.46754708 </v>
    <v>       0.50000000       0.00000000       0.55329505 </v>
    <v>       0.66666667       0.91666667       0.46754708 </v>
    <v>       0.83333333       0.83333333       0.38179910 </v>
    <v>       0.41666667       0.41666667       0.46754708 </v>
    <v>       0.08333333       0.33333333       0.38179910 </v>
    <v>       0.50000000       0.50000000       0.55329505 </v>
    <v>       0.00000000       0.25000000       0.55329505 </v>
    <v>       0.08333333       0.58333333       0.38179910 </v>
    <v>       0.66666667       0.66666667       0.46754708 </v>
    <v>       0.75000000       0.75000000       0.55329505 </v>
    <v>       0.00000000       0.50000000       0.55329505 </v>
    <v>       0.75000000       0.25000000       0.55329505 </v>
    <v>       0.00000000       0.75000000       0.55329505 </v>
    <v>       0.16666667       0.91666667       0.46754708 </v>
    <v>       0.83333333       0.33333333       0.38179910 </v>
    <v>       0.33333333       0.83333333       0.38179910 </v>
    <v>       0.25000000       0.00000000       0.55329505 </v>
    <v>       0.33333333       0.33333333       0.38179910 </v>
    <v>       0.16666667       0.41666667       0.46754708 </v>
    <v>       0.25000000       0.25000000       0.55329505 </v>
    <v>       0.83333333       0.08333333       0.38179910 </v>
    <v>       0.33333333       0.58333333       0.38179910 </v>
    <v>       0.08333333       0.08333333       0.61820090 </v>
    <v>       0.33333333       0.08333333       0.61820090 </v>
    <v>       0.33333333       0.33333333       0.61820090 </v>
    <v>       0.08333333       0.33333333       0.61820090 </v>
    <v>       0.08333333       0.58333333       0.61820090 </v>
    <v>       0.33333333       0.83333333       0.61820090 </v>
    <v>       0.58333333       0.83333333       0.61820090 </v>
    <v>       0.58333333       0.58333333       0.61820090 </v>
    <v>       0.41666667       0.16666667       0.46754708 </v>
    <v>       0.58333333       0.08333333       0.38179910 </v>
    <v>       0.25000000       0.75000000       0.55329505 </v>
    <v>       0.25000000       0.50000000       0.55329505 </v>
    <v>       0.33333333       0.08333333       0.38179910 </v>
    <v>       0.16666667       0.16666667       0.46754708 </v>
    <v>       0.91666667       0.91666667       0.46754708 </v>
    <v>       0.08333333       0.83333333       0.38179910 </v>
    <v>       0.91666667       0.66666667       0.46754708 </v>
    <v>       0.91666667       0.41666667       0.46754708 </v>
    <v>       0.00000000       0.00000000       0.55329505 </v>
    <v>       0.91666667       0.16666667       0.46754708 </v>
    <v>       0.50000000       0.25000000       0.55329505 </v>
    <v>       0.08333333       0.08333333       0.38179910 </v>
    <v>       0.75000000       0.50000000       0.55329505 </v>
    <v>       0.58333333       0.83333333       0.38179910 </v>
    <v>       0.41666667       0.91666667       0.46754708 </v>
    <v>       0.83333333       0.58333333       0.38179910 </v>
    <v>       0.50000000       0.75000000       0.55329505 </v>
    <v>       0.66666667       0.41666667       0.46754708 </v>
    <v>       0.75000000       0.00000000       0.55329505 </v>
    <v>       0.41666667       0.66666667       0.46754708 </v>
    <v>       0.58333333       0.33333333       0.38179910 </v>
    <v>       0.16666667       0.66666667       0.46754708 </v>
   </varray>
  </structure>
  <varray name="forces" >
   <v>       0.10708710      -0.04559173      -1.29049472 </v>
   <v>      -0.05931592      -0.01325085       0.23586807 </v>
   <v>       0.57527047       0.29007443       2.17489447 </v>
   <v>      -0.11385652       0.26515710      -0.17989356 </v>
   <v>      -0.08175819      -0.06741524      -1.26665659 </v>
   <v>       0.22459934       0.16227612       0.55104843 </v>
   <v>      -0.29965707      -0.36040556      -1.30177438 </v>
   <v>       0.03593278       0.10448097       1.82761066 </v>
   <v>      -0.81079038       0.17850830       1.97924572 </v>
   <v>      -0.14161559       0.39815906      -1.29517981 </v>
   <v>      -0.22013729      -0.22202112      -0.05101375 </v>
   <v>       0.11488107      -0.10931168       2.00001134 </v>
   <v>      -0.52299217       0.35677997       2.08135692 </v>
   <v>      -0.03293177      -0.26267997       1.15014086 </v>
   <v>       0.37083784       0.43166657       1.63389953 </v>
   <v>      -0.15281030       0.02149856      -0.00847383 </v>
   <v>       0.06381559       0.01806644      -1.05788290 </v>
   <v>       0.13688698       0.35837144      -1.28200409 </v>
   <v>      -0.32273429      -0.55182666       2.11691679 </v>
   <v>       0.23395816      -0.63256889      -1.52927398 </v>
   <v>      -0.10216503      -0.07224609       0.26757555 </v>
   <v>       0.66211668       0.11503722       2.04296599 </v>
   <v>       0.13091567      -0.05261299      -1.22934318 </v>
   <v>       0.07644362       0.17255438      -1.36672121 </v>
   <v>      -0.93721090      -0.26311848      -2.16671029 </v>
   <v>       0.39571378      -0.08732187      -1.28685049 </v>
   <v>       0.96785934       0.12767752      -2.68914827 </v>
   <v>      -0.44959592       0.14307649      -1.52842154 </v>
   <v>       0.25986858       0.47915563      -2.32544712 </v>
   <v>      -0.69722663      -0.50054598      -2.54155686 </v>
   <v>       0.40115172      -0.05409689      -2.22517459 </v>
   <v>       0.24541724      -0.29043516      -2.82345151 </v>
   <v>      -0.24082218      -0.33745050       0.13358190 </v>
   <v>      -0.31752709       0.06992758      -0.77281799 </v>
   <v>       0.17688230       0.09430286       1.64557365 </v>
   <v>       0.27637543      -0.03621499       2.73691881 </v>
   <v>       0.09772830      -0.19495686      -0.54586805 </v>
   <v>       0.05678815      -0.22347911      -0.08300920 </v>
   <v>       0.34153088      -0.15500178       0.80872568 </v>
   <v>      -0.01131493       0.07672029      -0.64610034 </v>
   <v>      -0.10932760      -0.09454388       0.24020418 </v>
   <v>      -0.21255308       0.00284911       0.62486483 </v>
   <v>      -0.07568666      -0.01215540       1.63650978 </v>
   <v>       0.26340038       0.09363318       0.13758081 </v>
   <v>      -0.19519751       0.10148777       1.87293697 </v>
   <v>       0.12393543       0.00647415      -0.59984623 </v>
   <v>      -0.44495127       0.08182973       1.60911871 </v>
   <v>      -0.06276022       0.23234107      -0.79219647 </v>
   <v>      -0.12147954       0.06073621       0.01992980 </v>
   <v>      -0.05896846       0.04800399      -0.64863011 </v>
   <v>      -0.29855084      -0.42240506       3.20973569 </v>
   <v>       0.19758662       0.05190505      -0.08716376 </v>
   <v>       0.26345639       0.14603349       0.73624877 </v>
   <v>       0.14148860       0.19820488       0.36870331 </v>
   <v>      -0.03146907      -0.06790654      -0.82069803 </v>
   <v>       0.18347796       0.24257372       0.59963565 </v>
  </varray>
  <energy>
   <i name="e_fr_energy">   -220.22642656 </i>
   <i name="e_wo_entrp">   -220.03840399 </i>
   <i name="e_0_energy">     -0.37604514 </i>
  </energy>
  <time name="totalsc">  308.29  310.13</time>
 </calculation>
 <calculation>
  <scstep>
   <time name="dav">    8.41    8.44</time>
   <time name="total">    8.74    8.77</time>
   <dipole>
    <v name="dipole">      0.00000000       0.00000000       1.32160476 </v>
    <i name="Tr[quadrupol]"> -11247.83463733 </i>
    <i name="Echarged">      0.00000000 </i>
    <i name="Edipol_quadrupol">      0.00000000 </i>
    <i name="Eion">      0.00000000 </i>
   </dipole>
   <energy>
    <i name="alphaZ">    886.14432004 </i>
    <i name="ewald"> 254275.06692442 </i>
    <i name="hartreedc">-299291.21093329 </i>
    <i name="XCdc">   -124.15360336 </i>
    <i name="pawpsdc">  52766.34984041 </i>
    <i name="pawaedc"> -50864.85430423 </i>
    <i name="eentropy">     -0.32893875 </i>
    <i name="bandstr">  -2986.98176879 </i>
    <i name="atom">  45117.89144060 </i>
    <i name="e_fr_energy">   -222.07702293 </i>
    <i name="e_wo_entrp">   -221.74808419 </i>
    <i name="e_0_energy">   -221.91255356 </i>
   </energy>
  </scstep>
  <scstep>
   <time name="diag">    1.49    1.50</time>
   <time name="diis">    4.11    4.12</time>
   <time name="orth">    0.36    0.36</time>
   <time name="total">    6.29    6.31</time>
   <dipole>
    <v name="dipole">      0.00000000       0.00000000       0.91941133 </v>
    <i name="Tr[quadrupol]"> -11247.48215966 </i>
    <i name="Echarged">      0.00000000 </i>
    <i name="Edipol_quadrupol">      0.00000000 </i>
    <i name="Eion">      0.00000000 </i>
   </dipole>
   <energy>
    <i name="e_fr_energy">   -227.34000883 </i>
    <i name="e_wo_entrp">   -226.94235168 </i>
    <i name="e_0_energy">   -227.14118025 </i>
   </energy>
  </scstep>
  <scstep>
   <time name="diag">    1.49    1.50</time>
   <time name="diis">    4.08    4.10</time>
   <time name="orth">    0.36    0.36</time>
   <time name="total">    6.27    6.29</time>
   <dipole>
    <v name="dipole">      0.00000000       0.00000000       1.30186452 </v>
    <i name="Tr[quadrupol]"> -11247.70416086 </i>
    <i name="Echarged">      0.00000000 </i>
    <i name="Edipol_quadrupol">      0.00000000 </i>
    <i name="Eion">      0.00000000 </i>
   </dipole>
   <energy>
    <i name="e_fr_energy">   -224.21990527 </i>
    <i name="e_wo_entrp">   -223.90760208 </i>
    <i name="e_0_energy">   -224.06375367 </i>
   </energy>
  </scstep>
  <scstep>
   <time name="diag">    1.48    1.48</time>
   <time name="diis">    4.09    4.10</time>
   <time name="orth">    0.36    0.36</time>
   <time name="total">    6.25    6.27</time>
   <dipole>
    <v name="dipole">      0.00000000       0.00000000       1.02222530 </v>
    <i name="Tr[quadrupol]"> -11247.87806120 </i>
    <i name="Echarged">      0.00000000 </i>
    <i name="Edipol_quadrupol">      0.00000000 </i>
    <i name="Eion">      0.00000000 </i>
   </dipole>
   <energy>
    <i name="e_fr_energy">   -224.93122904 </i>
    <i name="e_wo_entrp">   -224.53788114 </i>
    <i name="e_0_energy">   -224.73455509 </i>
   </energy>
  </scstep>
  <scstep>
   <time name="diag">    1.48    1.49</time>
   <time name="diis">    4.16    4.17</time>
   <time name="orth">    0.36    0.36</time>
   <time name="total">    6.33    6.36</time>
   <dipole>
    <v name="dipole">      0.00000000       0.00000000       1.01866703 </v>
    <i name="Tr[quadrupol]"> -11248.01260718 </i>
    <i name="Echarged">      0.00000000 </i>
    <i name="Edipol_quadrupol">      0.00000000 </i>
    <i name="Eion">      0.00000000 </i>
   </dipole>
   <energy>
    <i name="e_fr_energy">   -224.55670228 </i>
    <i name="e_wo_entrp">   -224.12759254 </i>
    <i name="e_0_energy">   -224.34214741 </i>
   </energy>
  </scstep>
  <scstep>
   <time name="diag">    1.48    1.55</time>
   <time name="diis">    4.08    4.09</time>
   <time name="orth">    0.36    0.36</time>
   <time name="total">    6.25    6.33</time>
   <dipole>
    <v name="dipole">      0.00000000       0.00000000       1.01992750 </v>
    <i name="Tr[quadrupol]"> -11248.18268215 </i>
    <i name="Echarged">      0.00000000 </i>
    <i name="Edipol_quadrupol">      0.00000000 </i>
    <i name="Eion">      0.00000000 </i>
   </dipole>
   <energy>
    <i name="e_fr_energy">   -224.36076241 </i>
    <i name="e_wo_entrp">   -223.98397100 </i>
    <i name="e_0_energy">   -224.17236670 </i>
   </energy>
  </scstep>
  <scstep>
   <time name="diag">    1.50    1.51</time>
   <time name="diis">    4.08    4.09</time>
   <time name="orth">    0.36    0.36</time>
   <time name="total">    6.27    6.29</time>
   <dipole>
    <v name="dipole">      0.00000000       0.00000000       1.09134297 </v>
    <i name="Tr[quadrupol]"> -11248.33289256 </i>
    <i name="Echarged">      0.00000000 </i>
    <i name="Edipol_quadrupol">      0.00000000 </i>
    <i name="Eion">      0.00000000 </i>
   </dipole>
   <energy>
    <i name="e_fr_energy">   -223.84457881 </i>
    <i name="e_wo_entrp">   -223.45131342 </i>
    <i name="e_0_energy">   -223.64794612 </i>
   </energy>
  </scstep>
  <scstep>
   <time name="diag">    1.48    1.49</time>
   <time name="diis">    4.08    4.09</time>
   <time name="orth">    0.36    0.36</time>
   <time name="total">    6.25    6.27</time>
   <dipole>
    <v name="dipole">      0.00000000       0.00000000       1.11808952 </v>
    <i name="Tr[quadrupol]"> -11248.29169201 </i>
    <i name="Echarged">      0.00000000 </i>
    <i name="Edipol_quadrupol">      0.00000000 </i>
    <i name="Eion">      0.00000000 </i>
   </dipole>
   <energy>
    <i name="e_fr_energy">   -223.65309710 </i>
    <i name="e_wo_entrp">   -223.28027654 </i>
    <i name="e_0_energy">   -223.46668682 </i>
   </energy>
  </scstep>
  <scstep>
   <time name="diag">    1.48    1.49</time>
   <time name="diis">    4.13    4.14</time>
   <time name="orth">    0.36    0.36</time>
   <time name="total">    6.31    6.33</time>
   <dipole>
    <v name="dipole">      0.00000000       0.00000000       1.12237929 </v>
    <i name="Tr[quadrupol]"> -11248.37262075 </i>
    <i name="Echarged">      0.00000000 </i>
    <i name="Edipol_quadrupol">      0.00000000 </i>
    <i name="Eion">      0.00000000 </i>
   </dipole>
   <energy>
    <i name="e_fr_energy">   -223.61917103 </i>
    <i name="e_wo_entrp">   -223.25311123 </i>
    <i name="e_0_energy">   -223.43614113 </i>
   </energy>
  </scstep>
  <scstep>
   <time name="diag">    1.48    1.50</time>
   <time name="diis">    4.03    4.07</time>
   <time name="orth">    0.36    0.36</time>
   <time name="total">    6.20    6.26</time>
   <dipole>
    <v name="dipole">      0.00000000       0.00000000       1.12822605 </v>
    <i name="Tr[quadrupol]"> -11248.45876957 </i>
    <i name="Echarged">      0.00000000 </i>
    <i name="Edipol_quadrupol">      0.00000000 </i>
    <i name="Eion">      0.00000000 </i>
   </dipole>
   <energy>
    <i name="e_fr_energy">   -223.60269239 </i>
    <i name="e_wo_entrp">   -223.23270156 </i>
    <i name="e_0_energy">   -223.41769698 </i>
   </energy>
  </scstep>
  <scstep>
   <time name="diag">    1.49    1.49</time>
   <time name="diis">    4.10    4.11</time>
   <time name="orth">    0.36    0.36</time>
   <time name="total">    6.29    6.31</time>
   <dipole>
    <v name="dipole">      0.00000000       0.00000000       1.14292066 </v>
    <i name="Tr[quadrupol]"> -11248.47231138 </i>
    <i name="Echarged">      0.00000000 </i>
    <i name="Edipol_quadrupol">      0.00000000 </i>
    <i name="Eion">      0.00000000 </i>
   </dipole>
   <energy>
    <i name="e_fr_energy">   -223.59192322 </i>
    <i name="e_wo_entrp">   -223.23024296 </i>
    <i name="e_0_energy">   -223.41108309 </i>
   </energy>
  </scstep>
  <scstep>
   <time name="diag">    1.48    1.48</time>
   <time name="diis">    3.96    4.06</time>
   <time name="orth">    0.36    0.36</time>
   <time name="total">    6.12    6.24</time>
   <dipole>
    <v name="dipole">      0.00000000       0.00000000       1.14051122 </v>
    <i name="Tr[quadrupol]"> -11248.46615564 </i>
    <i name="Echarged">      0.00000000 </i>
    <i name="Edipol_quadrupol">      0.00000000 </i>
    <i name="Eion">      0.00000000 </i>
   </dipole>
   <energy>
    <i name="e_fr_energy">   -223.59244778 </i>
    <i name="e_wo_entrp">   -223.23140838 </i>
    <i name="e_0_energy">   -223.41192808 </i>
   </energy>
  </scstep>
  <scstep>
   <time name="diag">    1.49    1.50</time>
   <time name="diis">    4.06    4.07</time>
   <time name="orth">    0.36    0.36</time>
   <time name="total">    6.25    6.27</time>
   <dipole>
    <v name="dipole">      0.00000000       0.00000000       1.14218484 </v>
    <i name="Tr[quadrupol]"> -11248.48665537 </i>
    <i name="Echarged">      0.00000000 </i>
    <i name="Edipol_quadrupol">      0.00000000 </i>
    <i name="Eion">      0.00000000 </i>
   </dipole>
   <energy>
    <i name="e_fr_energy">   -223.59034864 </i>
    <i name="e_wo_entrp">   -223.22895665 </i>
    <i name="e_0_energy">   -223.40965265 </i>
   </energy>
  </scstep>
  <scstep>
   <time name="diag">    1.49    1.50</time>
   <time name="diis">    4.15    4.16</time>
   <time name="orth">    0.36    0.36</time>
   <time name="total">    6.34    6.36</time>
   <dipole>
    <v name="dipole">      0.00000000       0.00000000       1.14139201 </v>
    <i name="Tr[quadrupol]"> -11248.48587732 </i>
    <i name="Echarged">      0.00000000 </i>
    <i name="Edipol_quadrupol">      0.00000000 </i>
    <i name="Eion">      0.00000000 </i>
   </dipole>
   <energy>
    <i name="e_fr_energy">   -223.58930160 </i>
    <i name="e_wo_entrp">   -223.22674023 </i>
    <i name="e_0_energy">   -223.40802091 </i>
   </energy>
  </scstep>
  <scstep>
   <time name="diag">    1.49    1.49</time>
   <time name="diis">    4.12    4.13</time>
   <time name="orth">    0.36    0.36</time>
   <time name="total">    6.30    6.32</time>
   <dipole>
    <v name="dipole">      0.00000000       0.00000000       1.14245376 </v>
    <i name="Tr[quadrupol]"> -11248.49336715 </i>
    <i name="Echarged">      0.00000000 </i>
    <i name="Edipol_quadrupol">      0.00000000 </i>
    <i name="Eion">      0.00000000 </i>
   </dipole>
   <energy>
    <i name="e_fr_energy">   -223.58943823 </i>
    <i name="e_wo_entrp">   -223.22739751 </i>
    <i name="e_0_energy">   -223.40841787 </i>
   </energy>
  </scstep>
  <scstep>
   <time name="diag">    1.49    1.50</time>
   <time name="diis">    4.05    4.06</time>
   <time name="orth">    0.36    0.36</time>
   <time name="total">    6.23    6.26</time>
   <dipole>
    <v name="dipole">      0.00000000       0.00000000       1.14173297 </v>
    <i name="Tr[quadrupol]"> -11248.49711225 </i>
    <i name="Echarged">      0.00000000 </i>
    <i name="Edipol_quadrupol">      0.00000000 </i>
    <i name="Eion">      0.00000000 </i>
   </dipole>
   <energy>
    <i name="e_fr_energy">   -223.58883046 </i>
    <i name="e_wo_entrp">   -223.22662839 </i>
    <i name="e_0_energy">   -223.40772942 </i>
   </energy>
  </scstep>
  <scstep>
   <time name="diag">    1.48    1.49</time>
   <time name="diis">    4.14    4.15</time>
   <time name="orth">    0.36    0.36</time>
   <time name="total">    6.32    6.34</time>
   <dipole>
    <v name="dipole">      0.00000000       0.00000000       1.14160997 </v>
    <i name="Tr[quadrupol]"> -11248.50486294 </i>
    <i name="Echarged">      0.00000000 </i>
    <i name="Edipol_quadrupol">      0.00000000 </i>
    <i name="Eion">      0.00000000 </i>
   </dipole>
   <energy>
    <i name="e_fr_energy">   -223.58887698 </i>
    <i name="e_wo_entrp">   -223.22709535 </i>
    <i name="e_0_energy">   -223.40798617 </i>
   </energy>
  </scstep>
  <scstep>
   <time name="diag">    1.49    1.50</time>
   <time name="diis">    4.01    4.11</time>
   <time name="orth">    0.36    0.36</time>
   <time name="total">    6.20    6.31</time>
   <dipole>
    <v name="dipole">      0.00000000       0.00000000       1.14127105 </v>
    <i name="Tr[quadrupol]"> -11248.51295575 </i>
    <i name="Echarged">      0.00000000 </i>
    <i name="Edipol_quadrupol">      0.00000000 </i>
    <i name="Eion">      0.00000000 </i>
   </dipole>
   <energy>
    <i name="e_fr_energy">   -223.58890303 </i>
    <i name="e_wo_entrp">   -223.22715965 </i>
    <i name="e_0_energy">   -223.40803134 </i>
   </energy>
  </scstep>
  <scstep>
   <time name="diag">    1.49    1.49</time>
   <time name="diis">    4.14    4.15</time>
   <time name="orth">    0.36    0.36</time>
   <time name="total">    6.32    6.35</time>
   <dipole>
    <v name="dipole">      0.00000000       0.00000000       1.14080607 </v>
    <i name="Tr[quadrupol]"> -11248.51880185 </i>
    <i name="Echarged">      0.00000000 </i>
    <i name="Edipol_quadrupol">      0.00000000 </i>
    <i name="Eion">      0.00000000 </i>
   </dipole>
   <energy>
    <i name="e_fr_energy">   -223.58894690 </i>
    <i name="e_wo_entrp">   -223.22741004 </i>
    <i name="e_0_energy">   -223.40817847 </i>
   </energy>
  </scstep>
  <scstep>
   <time name="diag">    1.48    1.48</time>
   <time name="diis">    4.18    4.19</time>
   <time name="orth">    0.36    0.36</time>
   <time name="total">    6.35    6.37</time>
   <dipole>
    <v name="dipole">      0.00000000       0.00000000       1.14035663 </v>
    <i name="Tr[quadrupol]"> -11248.52651502 </i>
    <i name="Echarged">      0.00000000 </i>
    <i name="Edipol_quadrupol">      0.00000000 </i>
    <i name="Eion">      0.00000000 </i>
   </dipole>
[...]
       <r>   -18.9426     5.1393    15.9481 </r>
       <r>   -18.8504     0.5500    15.9988 </r>
       <r>   -18.7582     0.0125    16.0000 </r>
       <r>   -18.6660     0.0001    16.0000 </r>
       <r>   -18.5738     0.0000    16.0000 </r>
       <r>   -18.4816     0.0000    16.0000 </r>
       <r>   -18.3894     0.0000    16.0000 </r>
       <r>   -18.2972     0.0000    16.0000 </r>
       <r>   -18.2050     0.0000    16.0000 </r>
       <r>   -18.1128     0.0000    16.0000 </r>
       <r>   -18.0205     0.0000    16.0000 </r>
       <r>   -17.9283     0.0000    16.0000 </r>
       <r>   -17.8361     0.0000    16.0000 </r>
       <r>   -17.7439     0.0000    16.0000 </r>
       <r>   -17.6517     0.0000    16.0000 </r>
       <r>   -17.5595     0.0000    16.0000 </r>
       <r>   -17.4673     0.0000    16.0000 </r>
       <r>   -17.3751     0.0000    16.0000 </r>
       <r>   -17.2829     0.0000    16.0000 </r>
       <r>   -17.1907     0.0000    16.0000 </r>
       <r>   -17.0984     0.0000    16.0000 </r>
       <r>   -17.0062     0.0000    16.0000 </r>
       <r>   -16.9140     0.0000    16.0000 </r>
       <r>   -16.8218     0.0000    16.0000 </r>
       <r>   -16.7296     0.0000    16.0000 </r>
       <r>   -16.6374     0.0000    16.0000 </r>
       <r>   -16.5452     0.0000    16.0000 </r>
       <r>   -16.4530     0.0000    16.0000 </r>
       <r>   -16.3608     0.0000    16.0000 </r>
       <r>   -16.2686     0.0000    16.0000 </r>
       <r>   -16.1763     0.0000    16.0000 </r>
       <r>   -16.0841     0.0000    16.0000 </r>
       <r>   -15.9919     0.0000    16.0000 </r>
       <r>   -15.8997     0.0000    16.0000 </r>
       <r>   -15.8075     0.0000    16.0000 </r>
       <r>   -15.7153     0.0000    16.0000 </r>
       <r>   -15.6231     0.0000    16.0000 </r>
       <r>   -15.5309     0.0000    16.0000 </r>
       <r>   -15.4387     0.0000    16.0000 </r>
       <r>   -15.3465     0.0000    16.0000 </r>
       <r>   -15.2542     0.0000    16.0000 </r>
       <r>   -15.1620     0.0000    16.0000 </r>
       <r>   -15.0698     0.0000    16.0000 </r>
       <r>   -14.9776     0.0000    16.0000 </r>
       <r>   -14.8854     0.0000    16.0000 </r>
       <r>   -14.7932     0.0000    16.0000 </r>
       <r>   -14.7010     0.0000    16.0000 </r>
       <r>   -14.6088     0.0000    16.0000 </r>
       <r>   -14.5166     0.0000    16.0000 </r>
       <r>   -14.4244     0.0000    16.0000 </r>
       <r>   -14.3321     0.0000    16.0000 </r>
       <r>   -14.2399     0.0000    16.0000 </r>
       <r>   -14.1477     0.0000    16.0000 </r>
       <r>   -14.0555     0.0000    16.0000 </r>
       <r>   -13.9633     0.0000    16.0000 </r>
       <r>   -13.8711     0.0000    16.0000 </r>
       <r>   -13.7789     0.0000    16.0000 </r>
       <r>   -13.6867     0.0000    16.0000 </r>
       <r>   -13.5945     0.0000    16.0000 </r>
       <r>   -13.5023     0.0000    16.0000 </r>
       <r>   -13.4100     0.0000    16.0000 </r>
       <r>   -13.3178     0.0000    16.0000 </r>
       <r>   -13.2256     0.0000    16.0000 </r>
       <r>   -13.1334     0.0000    16.0000 </r>
       <r>   -13.0412     0.0000    16.0000 </r>
       <r>   -12.9490     0.0000    16.0000 </r>
       <r>   -12.8568     0.0000    16.0000 </r>
       <r>   -12.7646     0.0000    16.0000 </r>
       <r>   -12.6724     0.0000    16.0000 </r>
       <r>   -12.5802     0.0000    16.0000 </r>
       <r>   -12.4879     0.0000    16.0000 </r>
       <r>   -12.3957     0.0000    16.0000 </r>
       <r>   -12.3035     0.0000    16.0000 </r>
       <r>   -12.2113     0.0000    16.0000 </r>
       <r>   -12.1191     0.0000    16.0000 </r>
       <r>   -12.0269     0.0000    16.0000 </r>
       <r>   -11.9347     0.0000    16.0000 </r>
       <r>   -11.8425     0.0000    16.0000 </r>
       <r>   -11.7503     0.0000    16.0000 </r>
       <r>   -11.6581     0.0000    16.0000 </r>
       <r>   -11.5658     0.0000    16.0000 </r>
       <r>   -11.4736     0.0000    16.0000 </r>
       <r>   -11.3814     0.0000    16.0000 </r>
       <r>   -11.2892     0.0000    16.0000 </r>
       <r>   -11.1970     0.0000    16.0000 </r>
       <r>   -11.1048     0.0000    16.0000 </r>
       <r>   -11.0126     0.0000    16.0000 </r>
       <r>   -10.9204     0.0000    16.0000 </r>
       <r>   -10.8282     0.0000    16.0000 </r>
       <r>   -10.7360     0.0000    16.0000 </r>
       <r>   -10.6437     0.0000    16.0000 </r>
       <r>   -10.5515     0.0000    16.0000 </r>
       <r>   -10.4593     0.0000    16.0000 </r>
       <r>   -10.3671     0.0000    16.0000 </r>
       <r>   -10.2749     0.0000    16.0000 </r>
       <r>   -10.1827     0.0000    16.0000 </r>
       <r>   -10.0905     0.0000    16.0000 </r>
       <r>    -9.9983     0.0000    16.0000 </r>
       <r>    -9.9061     0.0000    16.0000 </r>
       <r>    -9.8139     0.0000    16.0000 </r>
       <r>    -9.7216     0.0000    16.0000 </r>
       <r>    -9.6294     0.0000    16.0000 </r>
       <r>    -9.5372     0.0000    16.0000 </r>
       <r>    -9.4450     0.0000    16.0000 </r>
       <r>    -9.3528     0.0000    16.0000 </r>
       <r>    -9.2606     0.0002    16.0000 </r>
       <r>    -9.1684     0.0238    16.0022 </r>
       <r>    -9.0762     0.6430    16.0615 </r>
       <r>    -8.9840     3.7466    16.4070 </r>
       <r>    -8.8918     5.3397    16.8993 </r>
       <r>    -8.7995     4.6462    17.3278 </r>
       <r>    -8.7073     5.2256    17.8096 </r>
       <r>    -8.6151     2.0300    17.9968 </r>
       <r>    -8.5229     1.8610    18.1684 </r>
       <r>    -8.4307     7.3596    18.8470 </r>
       <r>    -8.3385    13.9432    20.1327 </r>
       <r>    -8.2463    13.8547    21.4103 </r>
       <r>    -8.1541    13.8829    22.6904 </r>
       <r>    -8.0619    17.1136    24.2685 </r>
       <r>    -7.9697    13.9582    25.5556 </r>
       <r>    -7.8774    13.3979    26.7910 </r>
       <r>    -7.7852    21.3343    28.7582 </r>
       <r>    -7.6930    28.7247    31.4069 </r>
       <r>    -7.6008    29.5706    34.1336 </r>
       <r>    -7.5086    26.5748    36.5841 </r>
       <r>    -7.4164    26.8278    39.0579 </r>
       <r>    -7.3242    34.5835    42.2468 </r>
       <r>    -7.2320    39.5661    45.8952 </r>
       <r>    -7.1398    49.2109    50.4329 </r>
       <r>    -7.0476    61.6339    56.1162 </r>
       <r>    -6.9553    68.8892    62.4685 </r>
       <r>    -6.8631    71.8388    69.0927 </r>
       <r>    -6.7709    73.3374    75.8552 </r>
       <r>    -6.6787    74.7038    82.7436 </r>
       <r>    -6.5865    79.7261    90.0951 </r>
       <r>    -6.4943    87.8383    98.1947 </r>
       <r>    -6.4021    94.6010   106.9179 </r>
       <r>    -6.3099    95.9221   115.7628 </r>
       <r>    -6.2177    89.4198   124.0082 </r>
       <r>    -6.1255    84.9828   131.8445 </r>
       <r>    -6.0332    85.1703   139.6980 </r>
       <r>    -5.9410    85.7648   147.6064 </r>
       <r>    -5.8488    85.9280   155.5298 </r>
       <r>    -5.7566    80.7216   162.9732 </r>
       <r>    -5.6644    76.7341   170.0488 </r>
       <r>    -5.5722    78.0550   177.2463 </r>
       <r>    -5.4800    83.2994   184.9273 </r>
       <r>    -5.3878    86.5996   192.9127 </r>
       <r>    -5.2956    86.1344   200.8551 </r>
       <r>    -5.2034    88.5933   209.0243 </r>
       <r>    -5.1111    89.0844   217.2388 </r>
       <r>    -5.0189    88.2726   225.3784 </r>
       <r>    -4.9267    89.7491   233.6541 </r>
       <r>    -4.8345    90.6013   242.0085 </r>
       <r>    -4.7423    92.0409   250.4956 </r>
       <r>    -4.6501    92.1776   258.9953 </r>
       <r>    -4.5579    87.4244   267.0567 </r>
       <r>    -4.4657    85.2102   274.9139 </r>
       <r>    -4.3735    87.3473   282.9682 </r>
       <r>    -4.2813    88.0747   291.0896 </r>
       <r>    -4.1890    92.4144   299.6111 </r>
       <r>    -4.0968    97.3152   308.5845 </r>
       <r>    -4.0046    96.0105   317.4377 </r>
       <r>    -3.9124    96.5611   326.3416 </r>
       <r>    -3.8202    99.3442   335.5021 </r>
       <r>    -3.7280    97.2016   344.4650 </r>
       <r>    -3.6358    95.2889   353.2516 </r>
       <r>    -3.5436    92.4280   361.7744 </r>
       <r>    -3.4514    90.7568   370.1431 </r>
       <r>    -3.3592    91.4643   378.5770 </r>
       <r>    -3.2669    96.4138   387.4673 </r>
       <r>    -3.1747    97.2623   396.4359 </r>
       <r>    -3.0825    93.3991   405.0482 </r>
       <r>    -2.9903    93.2715   413.6488 </r>
       <r>    -2.8981    95.1035   422.4183 </r>
       <r>    -2.8059    95.7213   431.2447 </r>
       <r>    -2.7137    97.7735   440.2604 </r>
       <r>    -2.6215    96.5206   449.1606 </r>
       <r>    -2.5293    96.7047   458.0777 </r>
       <r>    -2.4371    99.0262   467.2089 </r>
       <r>    -2.3448    99.8236   476.4136 </r>
       <r>    -2.2526   102.5164   485.8667 </r>
       <r>    -2.1604   101.5035   495.2263 </r>
       <r>    -2.0682    97.3129   504.1995 </r>
       <r>    -1.9760    90.8340   512.5753 </r>
       <r>    -1.8838    85.9189   520.4979 </r>
       <r>    -1.7916    83.9006   528.2344 </r>
       <r>    -1.6994    80.2626   535.6354 </r>
       <r>    -1.6072    70.4403   542.1307 </r>
       <r>    -1.5150    60.7726   547.7345 </r>
       <r>    -1.4227    53.4851   552.6664 </r>
       <r>    -1.3305    39.7668   556.3333 </r>
       <r>    -1.2383    28.2825   558.9412 </r>
       <r>    -1.1461    27.2740   561.4561 </r>
       <r>    -1.0539    24.4588   563.7115 </r>
       <r>    -0.9617    21.9328   565.7339 </r>
       <r>    -0.8695    22.5065   567.8092 </r>
       <r>    -0.7773    22.6156   569.8946 </r>
       <r>    -0.6851    22.1722   571.9391 </r>
       <r>    -0.5929    21.1866   573.8927 </r>
       <r>    -0.5006    22.6726   575.9834 </r>
       <r>    -0.4084    23.8235   578.1802 </r>
       <r>    -0.3162    17.2672   579.7724 </r>
       <r>    -0.2240    10.0526   580.6993 </r>
       <r>    -0.1318     6.6690   581.3143 </r>
       <r>    -0.0396    10.7307   582.3037 </r>
       <r>     0.0526    11.1153   583.3287 </r>
       <r>     0.1448    11.8099   584.4177 </r>
       <r>     0.2370    11.3835   585.4673 </r>
       <r>     0.3292    13.6177   586.7230 </r>
       <r>     0.4215    17.6818   588.3535 </r>
       <r>     0.5137    20.2494   590.2207 </r>
       <r>     0.6059    20.5284   592.1136 </r>
       <r>     0.6981    18.5092   593.8203 </r>
       <r>     0.7903    16.4398   595.3362 </r>
       <r>     0.8825    13.9020   596.6181 </r>
       <r>     0.9747    13.2149   597.8367 </r>
       <r>     1.0669    13.6044   599.0911 </r>
       <r>     1.1591    13.3778   600.3247 </r>
       <r>     1.2513    10.8754   601.3275 </r>
       <r>     1.3436    14.0172   602.6200 </r>
       <r>     1.4358    15.5788   604.0566 </r>
       <r>     1.5280    15.4949   605.4853 </r>
       <r>     1.6202    17.2583   607.0767 </r>
       <r>     1.7124    14.9276   608.4532 </r>
       <r>     1.8046    15.5844   609.8902 </r>
       <r>     1.8968    14.9449   611.2683 </r>
       <r>     1.9890    16.3818   612.7789 </r>
       <r>     2.0812    19.4834   614.5754 </r>
       <r>     2.1734    17.8508   616.2215 </r>
       <r>     2.2657    14.6220   617.5698 </r>
       <r>     2.3579    12.6236   618.7338 </r>
       <r>     2.4501    13.5771   619.9857 </r>
       <r>     2.5423    12.6993   621.1567 </r>
       <r>     2.6345    14.2983   622.4752 </r>
       <r>     2.7267    15.2403   623.8805 </r>
       <r>     2.8189    15.7928   625.3367 </r>
       <r>     2.9111    16.6262   626.8698 </r>
       <r>     3.0033    14.7414   628.2291 </r>
       <r>     3.0955    13.2813   629.4538 </r>
       <r>     3.1878    15.7725   630.9082 </r>
       <r>     3.2800    15.4096   632.3291 </r>
       <r>     3.3722    14.5687   633.6725 </r>
       <r>     3.4644    16.3627   635.1813 </r>
       <r>     3.5566    16.2966   636.6840 </r>
       <r>     3.6488    13.6530   637.9430 </r>
       <r>     3.7410    14.4298   639.2735 </r>
       <r>     3.8332    18.8027   641.0073 </r>
       <r>     3.9254    20.3389   642.8828 </r>
       <r>     4.0176    17.1255   644.4619 </r>
       <r>     4.1099    16.2981   645.9648 </r>
       <r>     4.2021    19.6387   647.7756 </r>
       <r>     4.2943    21.3955   649.7485 </r>
       <r>     4.3865    20.1570   651.6072 </r>
       <r>     4.4787    22.4323   653.6757 </r>
       <r>     4.5709    26.7831   656.1453 </r>
       <r>     4.6631    27.3512   658.6674 </r>
       <r>     4.7553    26.5476   661.1154 </r>
       <r>     4.8475    25.2688   663.4454 </r>
       <r>     4.9397    26.4005   665.8798 </r>
       <r>     5.0320    27.7857   668.4419 </r>
       <r>     5.1242    24.4163   670.6933 </r>
       <r>     5.2164    11.9370   671.7940 </r>
       <r>     5.3086     2.1215   671.9897 </r>
       <r>     5.4008     0.1107   671.9999 </r>
       <r>     5.4930     0.0015   672.0000 </r>
       <r>     5.5852     0.0000   672.0000 </r>
       <r>     5.6774     0.0000   672.0000 </r>
       <r>     5.7696     0.0000   672.0000 </r>
       <r>     5.8618     0.0000   672.0000 </r>
       <r>     5.9541     0.0000   672.0000 </r>
       <r>     6.0463     0.0000   672.0000 </r>
       <r>     6.1385     0.0000   672.0000 </r>
       <r>     6.2307     0.0000   672.0000 </r>
       <r>     6.3229     0.0000   672.0000 </r>
       <r>     6.4151     0.0000   672.0000 </r>
      </set>
     </set>
    </array>
   </total>
  </dos>
 </calculation>
 <structure name="finalpos" >
  <crystal>
   <varray name="basis" >
    <v>      11.00258152       0.00000000       0.00000000 </v>
    <v>       5.50129076       9.52851510       0.00000000 </v>
    <v>       0.00000000       0.00000000      26.19178509 </v>
   </varray>
   <i name="volume">   2745.90128299 </i>
   <varray name="rec_basis" >
    <v>       0.09088776      -0.05247407       0.00000000 </v>
    <v>       0.00000000       0.10494815       0.00000000 </v>
    <v>       0.00000000       0.00000000       0.03817991 </v>
   </varray>
  </crystal>
  <varray name="positions" >
   <v>       0.58333333       0.58333333       0.38179910 </v>
   <v>       0.66597453       0.16683461       0.47319705 </v>
   <v>       0.51075590       0.01684006       0.60118629 </v>
   <v>       0.66246315       0.91868821       0.47399233 </v>
   <v>       0.83333333       0.83333333       0.38179910 </v>
   <v>       0.41463297       0.41968213       0.47689872 </v>
   <v>       0.08333333       0.33333333       0.38179910 </v>
   <v>       0.50041204       0.50617009       0.56138884 </v>
   <v>      -0.00295101       0.22712200       0.62343784 </v>
   <v>       0.08333333       0.58333333       0.38179910 </v>
   <v>       0.66502310       0.66597602       0.47437213 </v>
   <v>       0.75085683       0.75001939       0.56548547 </v>
   <v>      -0.00159289       0.50206410       0.57092290 </v>
   <v>       0.76120048       0.25253943       0.56189370 </v>
   <v>       0.00902423       0.75808542       0.56375063 </v>
   <v>       0.16576552       0.91843397       0.47405203 </v>
   <v>       0.83333333       0.33333333       0.38179910 </v>
   <v>       0.33333333       0.83333333       0.38179910 </v>
   <v>       0.25757212       0.01053098       0.55996834 </v>
   <v>       0.33333333       0.33333333       0.38179910 </v>
   <v>       0.16559568       0.41849152       0.47967614 </v>
   <v>       0.26709969       0.25475590       0.57253450 </v>
   <v>       0.83333333       0.08333333       0.38179910 </v>
   <v>       0.33333333       0.58333333       0.38179910 </v>
   <v>      -0.09844121       0.11428227       0.62471303 </v>
   <v>       0.35109917      -0.03468173       0.63267239 </v>
   <v>       0.48493016       0.33274130       0.63522500 </v>
   <v>       0.09139810       0.33795105       0.62639348 </v>
   <v>       0.10226657       0.59878002       0.61758728 </v>
   <v>       0.31545433       0.72749753       0.63300036 </v>
   <v>       0.62625142       0.80887769       0.63064953 </v>
   <v>       0.60991135       0.55783822       0.62070157 </v>
   <v>       0.41397097       0.16660286       0.47982671 </v>
   <v>       0.58333333       0.08333333       0.38179910 </v>
   <v>       0.25813289       0.75091888       0.56295476 </v>
   <v>       0.29996743       0.47483239       0.62074131 </v>
   <v>       0.33333333       0.08333333       0.38179910 </v>
   <v>       0.16561488       0.17009187       0.47354965 </v>
   <v>       0.91861634       0.91485999       0.47486253 </v>
   <v>       0.08333333       0.83333333       0.38179910 </v>
   <v>       0.91528592       0.66512021       0.47749612 </v>
   <v>       0.91833828       0.41439491       0.48004917 </v>
   <v>       0.00898120       0.00331255       0.56333077 </v>
   <v>       0.92007525       0.16798396       0.47227853 </v>
   <v>       0.51235846       0.24830577       0.56793613 </v>
   <v>       0.08333333       0.08333333       0.38179910 </v>
   <v>       0.75328089       0.50300029       0.56538150 </v>
   <v>       0.58333333       0.83333333       0.38179910 </v>
   <v>       0.41559588       0.91989171       0.47119285 </v>
   <v>       0.83333333       0.58333333       0.38179910 </v>
   <v>       0.47410585       0.75848097       0.62709912 </v>
   <v>       0.66961840       0.41567606       0.47303413 </v>
   <v>       0.74970504       0.00011720       0.56315072 </v>
   <v>       0.41691706       0.66938590       0.47337541 </v>
   <v>       0.58333333       0.33333333       0.38179910 </v>
   <v>       0.16642189       0.66845164       0.47367904 </v>
  </varray>
  <varray name="selective"  type="logical" >
   <v type="logical" >  F  F  F </v>
   <v type="logical" >  T  T  T </v>
   <v type="logical" >  T  T  T </v>
   <v type="logical" >  T  T  T </v>
   <v type="logical" >  F  F  F </v>
   <v type="logical" >  T  T  T </v>
   <v type="logical" >  F  F  F </v>
   <v type="logical" >  T  T  T </v>
   <v type="logical" >  T  T  T </v>
   <v type="logical" >  F  F  F </v>
   <v type="logical" >  T  T  T </v>
   <v type="logical" >  T  T  T </v>
   <v type="logical" >  T  T  T </v>
   <v type="logical" >  T  T  T </v>
   <v type="logical" >  T  T  T </v>
   <v type="logical" >  T  T  T </v>
   <v type="logical" >  F  F  F </v>
   <v type="logical" >  F  F  F </v>
   <v type="logical" >  T  T  T </v>
   <v type="logical" >  F  F  F </v>
   <v type="logical" >  T  T  T </v>
   <v type="logical" >  T  T  T </v>
   <v type="logical" >  F  F  F </v>
   <v type="logical" >  F  F  F </v>
   <v type="logical" >  T  T  T </v>
   <v type="logical" >  T  T  T </v>
   <v type="logical" >  T  T  T </v>
   <v type="logical" >  T  T  T </v>
   <v type="logical" >  T  T  T </v>
   <v type="logical" >  T  T  T </v>
   <v type="logical" >  T  T  T </v>
   <v type="logical" >  T  T  T </v>
   <v type="logical" >  T  T  T </v>
   <v type="logical" >  F  F  F </v>
   <v type="logical" >  T  T  T </v>
   <v type="logical" >  T  T  T </v>
   <v type="logical" >  F  F  F </v>
   <v type="logical" >  T  T  T </v>
   <v type="logical" >  T  T  T </v>
   <v type="logical" >  F  F  F </v>
   <v type="logical" >  T  T  T </v>
   <v type="logical" >  T  T  T </v>
   <v type="logical" >  T  T  T </v>
   <v type="logical" >  T  T  T </v>
   <v type="logical" >  T  T  T </v>
   <v type="logical" >  F  F  F </v>
   <v type="logical" >  T  T  T </v>
   <v type="logical" >  F  F  F </v>
   <v type="logical" >  T  T  T </v>
   <v type="logical" >  F  F  F </v>
   <v type="logical" >  T  T  T </v>
   <v type="logical" >  T  T  T </v>
   <v type="logical" >  T  T  T </v>
   <v type="logical" >  T  T  T </v>
   <v type="logical" >  F  F  F </v>
   <v type="logical" >  T  T  T </v>
  </varray>
  <nose>
   <v>      -3.00000000       0.00000000       0.00010000       0.00010000 </v>
  </nose>
 </structure>
</modeling>
