  48  48   0   0
  0.5349325E+02  0.1100258E-08  0.1100258E-08  0.2449179E-08  0.3500000E-15
  1.000000000000000E-004
  CAR 
 unknown system                          
      6.41139429     -9.76836355  301     -1.09284218      1.00000000
     -9.768  0.0000E+00  0.0000E+00
     -9.714  0.0000E+00  0.0000E+00
     -9.660  0.0000E+00  0.0000E+00
     -9.607  0.0000E+00  0.0000E+00
     -9.553  0.0000E+00  0.0000E+00
     -9.499  0.0000E+00  0.0000E+00
     -9.445  0.0000E+00  0.0000E+00
     -9.391  0.0000E+00  0.0000E+00
     -9.337  0.1167E-16  0.6291E-18
     -9.283  0.4454E-14  0.2408E-15
     -9.229  0.9729E-12  0.5271E-13
     -9.175  0.1203E-09  0.6540E-11
     -9.121  0.8435E-08  0.4614E-09
     -9.067  0.3362E-06  0.1859E-07
     -9.013  0.7634E-05  0.4303E-06
     -8.959  0.9905E-04  0.5772E-05
     -8.905  0.7362E-03  0.4548E-04
     -8.852  0.3142E-02  0.2149E-03
     -8.798  0.7725E-02  0.6316E-03
     -8.744  0.1102E-01  0.1226E-02
     -8.690  0.9598E-02  0.1744E-02
     -8.636  0.7071E-02  0.2125E-02
     -8.582  0.8317E-02  0.2573E-02
     -8.528  0.1078E-01  0.3155E-02
     -8.474  0.9251E-02  0.3654E-02
     -8.420  0.4730E-02  0.3909E-02
     -8.366  0.1425E-02  0.3986E-02
     -8.312  0.3459E-03  0.4004E-02
     -8.258  0.7498E-03  0.4045E-02
     -8.204  0.3128E-02  0.4213E-02
     -8.150  0.8197E-02  0.4656E-02
     -8.096  0.1418E-01  0.5420E-02
     -8.043  0.1884E-01  0.6437E-02
     -7.989  0.2167E-01  0.7605E-02
     -7.935  0.2063E-01  0.8718E-02
     -7.881  0.1528E-01  0.9542E-02
     -7.827  0.1040E-01  0.1010E-01
     -7.773  0.9376E-02  0.1061E-01
     -7.719  0.1014E-01  0.1116E-01
     -7.665  0.1048E-01  0.1172E-01
     -7.611  0.1149E-01  0.1234E-01
     -7.557  0.1464E-01  0.1313E-01
     -7.503  0.1944E-01  0.1418E-01
     -7.449  0.2321E-01  0.1543E-01
     -7.395  0.2283E-01  0.1666E-01
     -7.341  0.1929E-01  0.1770E-01
     -7.287  0.1901E-01  0.1873E-01
     -7.234  0.2519E-01  0.2009E-01
     -7.180  0.3334E-01  0.2188E-01
     -7.126  0.3904E-01  0.2399E-01
     -7.072  0.4114E-01  0.2621E-01
     -7.018  0.4197E-01  0.2847E-01
     -6.964  0.4587E-01  0.3095E-01
     -6.910  0.5455E-01  0.3389E-01
     -6.856  0.6719E-01  0.3751E-01
     -6.802  0.7954E-01  0.4180E-01
     -6.748  0.8652E-01  0.4647E-01
     -6.694  0.8759E-01  0.5119E-01
     -6.640  0.8509E-01  0.5578E-01
     -6.586  0.8358E-01  0.6029E-01
     -6.532  0.8895E-01  0.6509E-01
     -6.478  0.1019E+00  0.7058E-01
     -6.425  0.1155E+00  0.7681E-01
     -6.371  0.1237E+00  0.8348E-01
     -6.317  0.1282E+00  0.9039E-01
     -6.263  0.1345E+00  0.9765E-01
     -6.209  0.1430E+00  0.1054E+00
     -6.155  0.1474E+00  0.1133E+00
     -6.101  0.1479E+00  0.1213E+00
     -6.047  0.1509E+00  0.1294E+00
     -5.993  0.1573E+00  0.1379E+00
     -5.939  0.1627E+00  0.1467E+00
     -5.885  0.1668E+00  0.1557E+00
     -5.831  0.1695E+00  0.1648E+00
     -5.777  0.1655E+00  0.1737E+00
     -5.723  0.1517E+00  0.1819E+00
     -5.669  0.1376E+00  0.1893E+00
     -5.616  0.1333E+00  0.1965E+00
     -5.562  0.1342E+00  0.2038E+00
     -5.508  0.1323E+00  0.2109E+00
     -5.454  0.1323E+00  0.2180E+00
     -5.400  0.1407E+00  0.2256E+00
     -5.346  0.1532E+00  0.2339E+00
     -5.292  0.1614E+00  0.2426E+00
     -5.238  0.1650E+00  0.2515E+00
     -5.184  0.1693E+00  0.2606E+00
     -5.130  0.1740E+00  0.2700E+00
     -5.076  0.1736E+00  0.2794E+00
     -5.022  0.1679E+00  0.2884E+00
     -4.968  0.1626E+00  0.2972E+00
     -4.914  0.1636E+00  0.3060E+00
     -4.861  0.1696E+00  0.3152E+00
     -4.807  0.1755E+00  0.3246E+00
     -4.753  0.1781E+00  0.3342E+00
     -4.699  0.1774E+00  0.3438E+00
     -4.645  0.1766E+00  0.3533E+00
     -4.591  0.1779E+00  0.3629E+00
     -4.537  0.1781E+00  0.3725E+00
     -4.483  0.1748E+00  0.3820E+00
     -4.429  0.1723E+00  0.3913E+00
     -4.375  0.1744E+00  0.4007E+00
     -4.321  0.1777E+00  0.4102E+00
     -4.267  0.1783E+00  0.4199E+00
     -4.213  0.1781E+00  0.4295E+00
     -4.159  0.1801E+00  0.4392E+00
     -4.105  0.1835E+00  0.4491E+00
     -4.052  0.1861E+00  0.4591E+00
     -3.998  0.1874E+00  0.4692E+00
     -3.944  0.1887E+00  0.4794E+00
     -3.890  0.1910E+00  0.4897E+00
     -3.836  0.1917E+00  0.5000E+00
     -3.782  0.1887E+00  0.5102E+00
     -3.728  0.1841E+00  0.5201E+00
     -3.674  0.1818E+00  0.5300E+00
     -3.620  0.1820E+00  0.5398E+00
     -3.566  0.1825E+00  0.5496E+00
     -3.512  0.1827E+00  0.5595E+00
     -3.458  0.1834E+00  0.5694E+00
     -3.404  0.1837E+00  0.5793E+00
     -3.350  0.1801E+00  0.5890E+00
     -3.296  0.1743E+00  0.5984E+00
     -3.243  0.1736E+00  0.6077E+00
     -3.189  0.1781E+00  0.6173E+00
     -3.135  0.1817E+00  0.6271E+00
     -3.081  0.1819E+00  0.6370E+00
     -3.027  0.1817E+00  0.6468E+00
     -2.973  0.1822E+00  0.6566E+00
     -2.919  0.1830E+00  0.6665E+00
     -2.865  0.1838E+00  0.6764E+00
     -2.811  0.1835E+00  0.6863E+00
     -2.757  0.1832E+00  0.6961E+00
     -2.703  0.1855E+00  0.7061E+00
     -2.649  0.1891E+00  0.7163E+00
     -2.595  0.1924E+00  0.7267E+00
     -2.541  0.1945E+00  0.7372E+00
     -2.487  0.1940E+00  0.7477E+00
     -2.434  0.1907E+00  0.7580E+00
     -2.380  0.1854E+00  0.7680E+00
     -2.326  0.1812E+00  0.7777E+00
     -2.272  0.1795E+00  0.7874E+00
     -2.218  0.1801E+00  0.7971E+00
     -2.164  0.1826E+00  0.8070E+00
     -2.110  0.1854E+00  0.8170E+00
     -2.056  0.1882E+00  0.8271E+00
     -2.002  0.1919E+00  0.8375E+00
     -1.948  0.1953E+00  0.8480E+00
     -1.894  0.1992E+00  0.8588E+00
     -1.840  0.2056E+00  0.8698E+00
     -1.786  0.2136E+00  0.8814E+00
     -1.732  0.2189E+00  0.8932E+00
     -1.678  0.2182E+00  0.9049E+00
     -1.625  0.2132E+00  0.9164E+00
     -1.571  0.2094E+00  0.9277E+00
     -1.517  0.2081E+00  0.9390E+00
     -1.463  0.2037E+00  0.9499E+00
     -1.409  0.1948E+00  0.9604E+00
     -1.355  0.1862E+00  0.9705E+00
     -1.301  0.1782E+00  0.9801E+00
     -1.247  0.1668E+00  0.9891E+00
     -1.193  0.1479E+00  0.9971E+00
     -1.139  0.1213E+00  0.1004E+01
     -1.085  0.9293E-01  0.1009E+01
     -1.031  0.7017E-01  0.1012E+01
     -0.977  0.5463E-01  0.1015E+01
     -0.923  0.4198E-01  0.1018E+01
     -0.869  0.2988E-01  0.1019E+01
     -0.816  0.2027E-01  0.1020E+01
     -0.762  0.1531E-01  0.1021E+01
     -0.708  0.1533E-01  0.1022E+01
     -0.654  0.1822E-01  0.1023E+01
     -0.600  0.2237E-01  0.1024E+01
     -0.546  0.2899E-01  0.1026E+01
     -0.492  0.3728E-01  0.1028E+01
     -0.438  0.4329E-01  0.1030E+01
     -0.384  0.4590E-01  0.1033E+01
     -0.330  0.4724E-01  0.1035E+01
     -0.276  0.4783E-01  0.1038E+01
     -0.222  0.4500E-01  0.1040E+01
     -0.168  0.3685E-01  0.1042E+01
     -0.114  0.2668E-01  0.1044E+01
     -0.061  0.2031E-01  0.1045E+01
     -0.007  0.1979E-01  0.1046E+01
      0.047  0.2297E-01  0.1047E+01
      0.101  0.2813E-01  0.1048E+01
      0.155  0.3357E-01  0.1050E+01
      0.209  0.3529E-01  0.1052E+01
      0.263  0.3220E-01  0.1054E+01
      0.317  0.2965E-01  0.1055E+01
      0.371  0.3158E-01  0.1057E+01
      0.425  0.3579E-01  0.1059E+01
      0.479  0.3939E-01  0.1061E+01
      0.533  0.4343E-01  0.1064E+01
      0.587  0.4903E-01  0.1066E+01
      0.641  0.5307E-01  0.1069E+01
      0.695  0.5094E-01  0.1072E+01
      0.748  0.4328E-01  0.1074E+01
      0.802  0.3597E-01  0.1076E+01
      0.856  0.3124E-01  0.1078E+01
      0.910  0.2738E-01  0.1079E+01
      0.964  0.2451E-01  0.1081E+01
      1.018  0.2263E-01  0.1082E+01
      1.072  0.1899E-01  0.1083E+01
      1.126  0.1331E-01  0.1084E+01
      1.180  0.9636E-02  0.1084E+01
      1.234  0.1050E-01  0.1085E+01
      1.288  0.1392E-01  0.1085E+01
      1.342  0.1730E-01  0.1086E+01
      1.396  0.2130E-01  0.1087E+01
      1.450  0.2722E-01  0.1089E+01
      1.504  0.3255E-01  0.1091E+01
      1.557  0.3181E-01  0.1092E+01
      1.611  0.2597E-01  0.1094E+01
      1.665  0.2402E-01  0.1095E+01
      1.719  0.2942E-01  0.1097E+01
      1.773  0.3699E-01  0.1099E+01
      1.827  0.3983E-01  0.1101E+01
      1.881  0.3262E-01  0.1103E+01
      1.935  0.1910E-01  0.1104E+01
      1.989  0.1063E-01  0.1104E+01
      2.043  0.1138E-01  0.1105E+01
      2.097  0.1619E-01  0.1106E+01
      2.151  0.2241E-01  0.1107E+01
      2.205  0.3241E-01  0.1109E+01
      2.259  0.4458E-01  0.1111E+01
      2.313  0.5352E-01  0.1114E+01
      2.366  0.5631E-01  0.1117E+01
      2.420  0.5360E-01  0.1120E+01
      2.474  0.4880E-01  0.1123E+01
      2.528  0.4500E-01  0.1125E+01
      2.582  0.4322E-01  0.1127E+01
      2.636  0.4607E-01  0.1130E+01
      2.690  0.5061E-01  0.1132E+01
      2.744  0.4572E-01  0.1135E+01
      2.798  0.3104E-01  0.1137E+01
      2.852  0.1720E-01  0.1138E+01
      2.906  0.1046E-01  0.1138E+01
      2.960  0.1053E-01  0.1139E+01
      3.014  0.1225E-01  0.1139E+01
      3.068  0.1233E-01  0.1140E+01
      3.122  0.1527E-01  0.1141E+01
      3.175  0.2298E-01  0.1142E+01
      3.229  0.2775E-01  0.1144E+01
      3.283  0.2396E-01  0.1145E+01
      3.337  0.1694E-01  0.1146E+01
      3.391  0.1350E-01  0.1147E+01
      3.445  0.1407E-01  0.1147E+01
      3.499  0.1688E-01  0.1148E+01
      3.553  0.2068E-01  0.1149E+01
      3.607  0.2616E-01  0.1151E+01
      3.661  0.3556E-01  0.1153E+01
      3.715  0.4445E-01  0.1155E+01
      3.769  0.4467E-01  0.1157E+01
      3.823  0.3611E-01  0.1159E+01
      3.877  0.2648E-01  0.1161E+01
      3.930  0.2218E-01  0.1162E+01
      3.984  0.2487E-01  0.1163E+01
      4.038  0.3047E-01  0.1165E+01
      4.092  0.3019E-01  0.1167E+01
      4.146  0.2389E-01  0.1168E+01
      4.200  0.2158E-01  0.1169E+01
      4.254  0.2341E-01  0.1170E+01
      4.308  0.2079E-01  0.1171E+01
      4.362  0.1608E-01  0.1172E+01
      4.416  0.1717E-01  0.1173E+01
      4.470  0.2491E-01  0.1175E+01
      4.524  0.3781E-01  0.1177E+01
      4.578  0.5141E-01  0.1179E+01
      4.632  0.5838E-01  0.1183E+01
      4.686  0.5728E-01  0.1186E+01
      4.739  0.5082E-01  0.1188E+01
      4.793  0.4411E-01  0.1191E+01
      4.847  0.4477E-01  0.1193E+01
      4.901  0.5167E-01  0.1196E+01
      4.955  0.5775E-01  0.1199E+01
      5.009  0.6191E-01  0.1202E+01
      5.063  0.6481E-01  0.1206E+01
      5.117  0.6493E-01  0.1209E+01
      5.171  0.6240E-01  0.1213E+01
      5.225  0.5907E-01  0.1216E+01
      5.279  0.5331E-01  0.1219E+01
      5.333  0.4197E-01  0.1221E+01
      5.387  0.2786E-01  0.1223E+01
      5.441  0.1587E-01  0.1223E+01
      5.495  0.7289E-02  0.1224E+01
      5.548  0.2349E-02  0.1224E+01
      5.602  0.4794E-03  0.1224E+01
      5.656  0.5895E-04  0.1224E+01
      5.710  0.4272E-05  0.1224E+01
      5.764  0.1804E-06  0.1224E+01
      5.818  0.4402E-08  0.1224E+01
      5.872  0.6174E-10  0.1224E+01
      5.926  0.4950E-12  0.1224E+01
      5.980  0.2260E-14  0.1224E+01
      6.034  0.5489E-17  0.1224E+01
      6.088  0.0000E+00  0.1224E+01
      6.142  0.0000E+00  0.1224E+01
      6.196  0.0000E+00  0.1224E+01
      6.250  0.0000E+00  0.1224E+01
      6.304  0.0000E+00  0.1224E+01
      6.357  0.0000E+00  0.1224E+01
      6.411  0.0000E+00  0.1224E+01
