unknown system                          
           1
    11.002582    0.000000    0.000000
     5.501291    9.528515    0.000000
     0.000000    0.000000   24.491785
   Au   Pd
  24  24
Direct configuration=     1
   0.08333333  0.08333333  0.40830017
   0.83333333  0.83333333  0.40830017
   0.66666667  0.66666667  0.50000000
   0.83333333  0.58333333  0.40830017
   0.75000000  0.25000000  0.59169983
   0.83333333  0.33333333  0.40830017
   0.83333333  0.08333333  0.40830017
   0.41666667  0.91666667  0.50000000
   0.41666667  0.66666667  0.50000000
   0.41666667  0.41666667  0.50000000
   0.58333333  0.33333333  0.40830017
   0.50000000  0.00000000  0.59169983
   0.41666667  0.16666667  0.50000000
   0.66666667  0.91666667  0.50000000
   0.25000000  0.50000000  0.59169983
   0.33333333  0.58333333  0.40830017
   0.25000000  0.75000000  0.59169983
   0.33333333  0.08333333  0.40830017
   0.08333333  0.58333333  0.40830017
   0.00000000  0.00000000  0.59169983
   0.91666667  0.41666667  0.50000000
   0.16666667  0.16666667  0.50000000
   0.08333333  0.83333333  0.40830017
   0.00000000  0.75000000  0.59169983
   0.66666667  0.16666667  0.50000000
   0.75000000  0.00000000  0.59169983
   0.00000000  0.25000000  0.59169983
   0.25000000  0.25000000  0.59169983
   0.66666667  0.41666667  0.50000000
   0.08333333  0.33333333  0.40830017
   0.75000000  0.50000000  0.59169983
   0.91666667  0.16666667  0.50000000
   0.50000000  0.75000000  0.59169983
   0.91666667  0.66666667  0.50000000
   0.50000000  0.50000000  0.59169983
   0.16666667  0.41666667  0.50000000
   0.00000000  0.50000000  0.59169983
   0.58333333  0.58333333  0.40830017
   0.50000000  0.25000000  0.59169983
   0.91666667  0.91666667  0.50000000
   0.58333333  0.08333333  0.40830017
   0.16666667  0.91666667  0.50000000
   0.33333333  0.83333333  0.40830017
   0.25000000  0.00000000  0.59169983
   0.16666667  0.66666667  0.50000000
   0.33333333  0.33333333  0.40830017
   0.58333333  0.83333333  0.40830017
   0.75000000  0.75000000  0.59169983
Direct configuration=     2
   0.08388918  0.08297716  0.40640010
   0.83225071  0.83385798  0.40647210
   0.66689314  0.66604961  0.50039978
   0.83284687  0.58358126  0.40609519
   0.74919142  0.25057693  0.59317688
   0.83296258  0.33386577  0.40636466
   0.83258519  0.08342986  0.40674178
   0.41588602  0.91552374  0.49999426
   0.41701884  0.66670356  0.50005290
   0.41709095  0.41580626  0.50037164
   0.58326742  0.33304637  0.40643003
   0.50000273  0.00010534  0.59418324
   0.41665233  0.16864669  0.50000853
   0.66842948  0.91667520  0.50003366
   0.25012556  0.49877161  0.59358604
   0.33354140  0.58358739  0.40616140
   0.25090850  0.75028410  0.59360183
   0.33402028  0.08335617  0.40585608
   0.08405044  0.58179987  0.40676279
  -0.00005500  0.00067353  0.59322518
   0.91738956  0.41637227  0.50078660
   0.16538179  0.16751094  0.50073583
   0.08406571  0.83343308  0.40676116
  -0.00140383  0.74989617  0.59323459
   0.66726738  0.16626514  0.50025948
   0.74979639 -0.00003378  0.59270274
   0.00043342  0.25030552  0.59277371
   0.24939490  0.25022040  0.59288778
   0.66700107  0.41624997  0.50034951
   0.08386254  0.33352135  0.40702970
   0.74988497  0.50049676  0.59281280
   0.91631974  0.16640590  0.50038431
   0.50045146  0.74935850  0.59310860
   0.91755945  0.66642684  0.50057011
   0.50073908  0.49976557  0.59292403
   0.16600857  0.41724501  0.50009958
  -0.00023283  0.49961768  0.59260927
   0.58299203  0.58403741  0.40704353
   0.50028318  0.25000681  0.59287798
   0.91659194  0.91691288  0.50025297
   0.58309650  0.08343636  0.40708799
   0.16618548  0.91677499  0.50005549
   0.33385408  0.83298361  0.40702300
   0.24975823  0.00041663  0.59293669
   0.16548698  0.66720098  0.49998146
   0.33292880  0.33312051  0.40708407
   0.58294515  0.83331120  0.40683323
   0.75040019  0.74942289  0.59287572
Direct configuration=     3
   0.08555672  0.08190864  0.40069989
   0.82900285  0.83543193  0.40098790
   0.66757258  0.66419845  0.50159911
   0.83138749  0.58432504  0.39948025
   0.74676570  0.25230772  0.59760804
   0.83185031  0.33546306  0.40055812
   0.83034074  0.08371942  0.40206662
   0.41354408  0.91209496  0.49997704
   0.41807536  0.66681425  0.50021160
   0.41836380  0.41322503  0.50148654
   0.58306967  0.33218549  0.40081960
   0.50001094  0.00042137  0.60163346
   0.41660932  0.17458677  0.50003413
   0.67371794  0.91670079  0.50013465
   0.25050223  0.49508643  0.59924467
   0.33416560  0.58434958  0.39974510
   0.25363401  0.75113639  0.59930782
   0.33608113  0.08342467  0.39852382
   0.08620176  0.57719950  0.40215067
  -0.00021999  0.00269410  0.59780122
   0.91955825  0.41548910  0.50314640
   0.16152717  0.17004375  0.50294334
   0.08626286  0.83373230  0.40214412
  -0.00561531  0.74958470  0.59783886
   0.66906953  0.16506055  0.50103793
   0.74918555 -0.00013511  0.59571145
   0.00173369  0.25122206  0.59599536
   0.24757959  0.25088158  0.59645163
   0.66800428  0.41499988  0.50139805
   0.08545014  0.33408541  0.40321827
   0.74953988  0.50198703  0.59615170
   0.91527894  0.16562361  0.50153726
   0.50180586  0.74743401  0.59733489
   0.92023781  0.66570737  0.50228043
   0.50295633  0.49906228  0.59659662
   0.16403428  0.41898006  0.50039832
  -0.00093133  0.49847071  0.59533760
   0.58196811  0.58614964  0.40327362
   0.50113271  0.25002723  0.59641243
   0.91636775  0.91765153  0.50101188
   0.58238601  0.08374543  0.40345144
   0.16474192  0.91709996  0.50022194
   0.33541634  0.83193446  0.40319150
   0.24903292  0.00166651  0.59664729
   0.16194790  0.66880393  0.49992586
   0.33171520  0.33248206  0.40343577
   0.58178060  0.83324479  0.40243239
   0.75160076  0.74769158  0.59640338
Direct configuration=     4
   0.08545897  0.08332344  0.39974959
   0.83061266  0.83392132  0.39973753
   0.66938671  0.66481871  0.50098517
   0.83151441  0.58426903  0.39844144
   0.74757588  0.25216617  0.59903374
   0.83266867  0.33530538  0.39970518
   0.83134376  0.08356470  0.40117842
   0.41433861  0.91664793  0.50000830
   0.41628874  0.66403178  0.50011396
   0.41740311  0.41784616  0.50113054
   0.58188186  0.33330367  0.39974998
   0.49978108  0.00016631  0.60274039
   0.41640944  0.16927588  0.50006252
   0.67031704  0.91648254  0.50012745
   0.25018092  0.49654719  0.60056599
   0.33484252  0.58323128  0.39865367
   0.25279126  0.75021924  0.60044075
   0.33578585  0.08322248  0.39740896
   0.08503468  0.57930649  0.40114062
  -0.00022555  0.00209662  0.59910091
   0.91694880  0.41690847  0.50191618
   0.16485926  0.16739284  0.50186066
   0.08513034  0.83320835  0.40120456
  -0.00352019  0.74952271  0.59929229
   0.67004207  0.16582752  0.50072133
   0.74883796  0.00004259  0.59681914
   0.00053453  0.25141869  0.59777601
   0.24862527  0.25002398  0.59746716
   0.66875754  0.41383662  0.50084346
   0.08469476  0.33267495  0.40274169
   0.74974533  0.50162764  0.59749792
   0.91463382  0.16582117  0.50102243
   0.50218221  0.74807740  0.59854619
   0.91972126  0.66583981  0.50146949
   0.50189312  0.49982432  0.59753970
   0.16467701  0.41981183  0.50035603
  -0.00085359  0.49841047  0.59680225
   0.58213858  0.58575496  0.40264715
   0.50094358  0.24942458  0.59769634
   0.91826702  0.91727078  0.50073833
   0.58149702  0.08392360  0.40283911
   0.16347499  0.91714684  0.50023750
   0.33568854  0.83238933  0.40221740
   0.25002729  0.00141125  0.59763640
   0.16344783  0.66831068  0.50012037
   0.33277151  0.33246360  0.40255884
   0.58150928  0.83351864  0.40198984
   0.74993426  0.74837003  0.59736713
Direct configuration=     5
   0.08544150  0.08357629  0.39957976
   0.83090036  0.83365135  0.39951407
   0.66971092  0.66492956  0.50087545
   0.83153709  0.58425902  0.39825579
   0.74772067  0.25214087  0.59928853
   0.83281492  0.33527720  0.39955274
   0.83152301  0.08353705  0.40101968
   0.41448061  0.91746162  0.50001389
   0.41596944  0.66353451  0.50009651
   0.41723142  0.41867204  0.50106692
   0.58166958  0.33350351  0.39955882
   0.49974000  0.00012072  0.60293822
   0.41637372  0.16832673  0.50006759
   0.66970924  0.91644354  0.50012616
   0.25012350  0.49680826  0.60080213
   0.33496350  0.58303142  0.39845861
   0.25264064  0.75005533  0.60064323
   0.33573307  0.08318635  0.39720971
   0.08482610  0.57968304  0.40096010
  -0.00022654  0.00198984  0.59933319
   0.91648245  0.41716214  0.50169631
   0.16545476  0.16691907  0.50166717
   0.08492794  0.83311471  0.40103664
  -0.00314575  0.74951163  0.59955205
   0.67021587  0.16596460  0.50066475
   0.74877584  0.00007435  0.59701711
   0.00032022  0.25145383  0.59809425
   0.24881215  0.24987071  0.59764865
   0.66889216  0.41362872  0.50074434
   0.08455977  0.33242287  0.40265651
   0.74978205  0.50156341  0.59773851
   0.91451853  0.16585648  0.50093042
   0.50224947  0.74819238  0.59876267
   0.91962895  0.66586348  0.50132456
   0.50170311  0.49996050  0.59770824
   0.16479188  0.41996048  0.50034848
  -0.00083970  0.49839970  0.59706401
   0.58216904  0.58568443  0.40253519
   0.50090978  0.24931688  0.59792580
   0.91860645  0.91720273  0.50068944
   0.58133814  0.08395545  0.40272967
   0.16324857  0.91715522  0.50024028
   0.33573719  0.83247063  0.40204331
   0.25020500  0.00136563  0.59781317
   0.16371589  0.66822252  0.50015514
   0.33296029  0.33246030  0.40240212
   0.58146078  0.83356758  0.40191075
   0.74963643  0.74849128  0.59753936
Direct configuration=     6
   0.08536041  0.08357169  0.39922442
   0.83125029  0.83347123  0.39904018
   0.66838962  0.66571719  0.50052672
   0.83171799  0.58410005  0.39776567
   0.74804675  0.25206226  0.59997501
   0.83284239  0.33506931  0.39919235
   0.83186907  0.08358447  0.40067354
   0.41522973  0.91658147  0.50009502
   0.41578533  0.66563756  0.50007278
   0.41693757  0.41713973  0.50092255
   0.58182778  0.33348917  0.39909771
   0.49985151 -0.00002298  0.60349203
   0.41668846  0.16840992  0.50018901
   0.66927501  0.91661258  0.50014888
   0.25014368  0.49724132  0.60142257
   0.33467260  0.58306412  0.39786287
   0.25226663  0.74991402  0.60112097
   0.33531544  0.08329518  0.39658963
   0.08454425  0.58020314  0.40056428
  -0.00010560  0.00162769  0.59991869
   0.91691769  0.41637015  0.50110630
   0.16495346  0.16715657  0.50116013
   0.08478625  0.83299194  0.40064440
  -0.00250440  0.74951549  0.60013998
   0.66930835  0.16651051  0.50046705
   0.74877040 -0.00010696  0.59735112
   0.00007166  0.25145443  0.59860255
   0.24913711  0.24967997  0.59796646
   0.66925136  0.41341156  0.50040434
   0.08433608  0.33232321  0.40265593
   0.74980162  0.50140899  0.59827525
   0.91510338  0.16612771  0.50066885
   0.50193106  0.74859186  0.59897333
   0.91946352  0.66656043  0.50088556
   0.50119530  0.50023827  0.59815676
   0.16567554  0.41968646  0.50040858
  -0.00090271  0.49847060  0.59764465
   0.58236943  0.58540792  0.40246025
   0.50048684  0.24930059  0.59820613
   0.91849055  0.91665821  0.50056589
   0.58159570  0.08379042  0.40265569
   0.16386443  0.91684915  0.50024538
   0.33540279  0.83269196  0.40192960
   0.25053382  0.00090327  0.59815086
   0.16388934  0.66811567  0.50031265
   0.33314876  0.33262406  0.40227587
   0.58168692  0.83357427  0.40187470
   0.74932686  0.74892418  0.59791682
Direct configuration=     7
   0.08533250  0.08357011  0.39910207
   0.83137078  0.83340921  0.39887702
   0.66793467  0.66598838  0.50040664
   0.83178028  0.58404532  0.39759691
   0.74815902  0.25203519  0.60021138
   0.83285185  0.33499773  0.39906826
   0.83198822  0.08360080  0.40055436
   0.41548767  0.91627843  0.50012295
   0.41572194  0.66636167  0.50006461
   0.41683640  0.41661213  0.50087284
   0.58188225  0.33348424  0.39893895
   0.49988991 -0.00007246  0.60368272
   0.41679683  0.16843857  0.50023081
   0.66912550  0.91667078  0.50015671
   0.25015062  0.49739043  0.60163620
   0.33457244  0.58307538  0.39765774
   0.25213786  0.74986536  0.60128547
   0.33517164  0.08333265  0.39637612
   0.08444720  0.58038222  0.40042799
  -0.00006396  0.00150299  0.60012029
   0.91706755  0.41609746  0.50090315
   0.16478086  0.16723834  0.50098556
   0.08473746  0.83294967  0.40050935
  -0.00228357  0.74951682  0.60034242
   0.66899588  0.16669847  0.50039898
   0.74876852 -0.00016939  0.59746613
  -0.00001393  0.25145463  0.59877757
   0.24924899  0.24961430  0.59807589
   0.66937503  0.41333679  0.50028727
   0.08425906  0.33228889  0.40265573
   0.74980836  0.50135582  0.59846006
   0.91530475  0.16622110  0.50057879
   0.50182143  0.74872941  0.59904586
   0.91940656  0.66680040  0.50073441
   0.50102046  0.50033390  0.59831119
   0.16597979  0.41959211  0.50042928
  -0.00092440  0.49849501  0.59784457
   0.58243843  0.58531271  0.40243445
   0.50034121  0.24929498  0.59830266
   0.91845064  0.91647072  0.50052335
   0.58168438  0.08373360  0.40263022
   0.16407648  0.91674376  0.50024714
   0.33528765  0.83276816  0.40189045
   0.25064704  0.00074407  0.59826713
   0.16394906  0.66807888  0.50036688
   0.33321366  0.33268045  0.40223240
   0.58176478  0.83357658  0.40186229
   0.74922027  0.74907324  0.59804678
Direct configuration=     8
   0.08532299  0.08308050  0.39882805
   0.83108812  0.83379903  0.39858616
   0.66820976  0.66535502  0.50041709
   0.83183141  0.58394976  0.39725062
   0.74797317  0.25201675  0.60046916
   0.83263984  0.33491398  0.39874057
   0.83199287  0.08356181  0.40040700
   0.41513110  0.91640215  0.50021563
   0.41576994  0.66640170  0.50013048
   0.41705617  0.41648780  0.50086783
   0.58214046  0.33333157  0.39862528
   0.49992542 -0.00005490  0.60411762
   0.41670495  0.16859876  0.50033601
   0.66964508  0.91689879  0.50023626
   0.25023387  0.49718281  0.60202369
   0.33443376  0.58330489  0.39735182
   0.25224283  0.74997133  0.60157465
   0.33512930  0.08346137  0.39596412
   0.08466367  0.58000576  0.40023737
  -0.00010740  0.00159498  0.60034406
   0.91738620  0.41652026  0.50091856
   0.16481382  0.16729630  0.50097422
   0.08494208  0.83303771  0.40032299
  -0.00261801  0.74945479  0.60060170
   0.66894365  0.16665217  0.50037612
   0.74886473 -0.00023602  0.59751452
   0.00026693  0.25139516  0.59879682
   0.24903759  0.24963744  0.59811101
   0.66883142  0.41371740  0.50025034
   0.08440032  0.33267164  0.40264986
   0.74977356  0.50148836  0.59847447
   0.91562510  0.16581347  0.50059427
   0.50158968  0.74872020  0.59911371
   0.91926627  0.66679393  0.50063968
   0.50098498  0.50025573  0.59833249
   0.16581132  0.41954483  0.50059936
  -0.00113778  0.49862546  0.59789407
   0.58236730  0.58521819  0.40241942
   0.50027734  0.24940890  0.59840078
   0.91792781  0.91661486  0.50053148
   0.58203355  0.08352139  0.40265337
   0.16426435  0.91682098  0.50030449
   0.33500303  0.83278418  0.40189826
   0.25051550  0.00069099  0.59829340
   0.16430200  0.66789909  0.50046811
   0.33304676  0.33274518  0.40221293
   0.58187392  0.83366041  0.40183857
   0.74957927  0.74898312  0.59809156
Direct configuration=     9
   0.08531681  0.08276264  0.39865015
   0.83090463  0.83405211  0.39839733
   0.66838835  0.66494385  0.50042386
   0.83186460  0.58388773  0.39702580
   0.74785252  0.25200477  0.60063651
   0.83250220  0.33485962  0.39852785
   0.83199589  0.08353650  0.40031134
   0.41489962  0.91648248  0.50027579
   0.41580110  0.66642768  0.50017323
   0.41719885  0.41640708  0.50086458
   0.58230808  0.33323246  0.39842164
   0.49994847 -0.00004349  0.60439995
   0.41664530  0.16870276  0.50040431
   0.66998239  0.91704682  0.50028791
   0.25028790  0.49704803  0.60227524
   0.33434373  0.58345389  0.39715322
   0.25231098  0.75004012  0.60176239
   0.33510182  0.08354493  0.39569665
   0.08480420  0.57976136  0.40011362
  -0.00013560  0.00165470  0.60048933
   0.91759306  0.41679474  0.50092856
   0.16483521  0.16733392  0.50096687
   0.08507491  0.83309486  0.40020201
  -0.00283512  0.74941452  0.60077003
   0.66890975  0.16662211  0.50036128
   0.74892719 -0.00027927  0.59754594
   0.00044925  0.25135655  0.59880932
   0.24890035  0.24965246  0.59813381
   0.66847852  0.41396449  0.50022636
   0.08449203  0.33292011  0.40264604
   0.74975097  0.50157440  0.59848382
   0.91583306  0.16554884  0.50060432
   0.50143923  0.74871422  0.59915775
   0.91917520  0.66678974  0.50057819
   0.50096195  0.50020498  0.59834632
   0.16570196  0.41951414  0.50070977
  -0.00127630  0.49871014  0.59792621
   0.58232113  0.58515683  0.40240967
   0.50023587  0.24948285  0.59846448
   0.91758840  0.91670844  0.50053677
   0.58226023  0.08338362  0.40266839
   0.16438631  0.91687110  0.50034171
   0.33481826  0.83279458  0.40190332
   0.25043010  0.00065654  0.59831044
   0.16453112  0.66778238  0.50053382
   0.33293841  0.33278720  0.40220028
   0.58194476  0.83371483  0.40182317
   0.74981233  0.74892462  0.59812063
Direct configuration=    10
   0.08529668  0.08290643  0.39840447
   0.83099144  0.83399169  0.39812442
   0.66864271  0.66493342  0.50049014
   0.83174883  0.58394307  0.39666692
   0.74775547  0.25209120  0.60072867
   0.83272404  0.33476839  0.39829302
   0.83202874  0.08345398  0.40020017
   0.41514442  0.91672049  0.50033041
   0.41571657  0.66600042  0.50024548
   0.41722294  0.41676400  0.50084243
   0.58212519  0.33323556  0.39812405
   0.49997276 -0.00007960  0.60486008
   0.41660222  0.16850944  0.50047237
   0.66987610  0.91688858  0.50038370
   0.25022138  0.49689693  0.60262742
   0.33445612  0.58339101  0.39691644
   0.25220240  0.75007545  0.60201048
   0.33515659  0.08355527  0.39535315
   0.08486015  0.57985203  0.40000849
  -0.00024993  0.00174435  0.60060613
   0.91754696  0.41682642  0.50099800
   0.16487523  0.16736438  0.50095848
   0.08502312  0.83289729  0.40012218
  -0.00290833  0.74929823  0.60091394
   0.66914293  0.16679689  0.50039501
   0.74894079 -0.00019218  0.59758620
   0.00050935  0.25137431  0.59867623
   0.24873300  0.24963348  0.59813806
   0.66854858  0.41381632  0.50025332
   0.08451060  0.33286590  0.40264214
   0.74970234  0.50159829  0.59836827
   0.91571836  0.16558007  0.50068756
   0.50149065  0.74867438  0.59918244
   0.91928702  0.66679156  0.50049443
   0.50099884  0.50008767  0.59828078
   0.16563429  0.41973221  0.50092693
  -0.00137170  0.49880976  0.59789763
   0.58215882  0.58525145  0.40239705
   0.50024140  0.24949401  0.59852197
   0.91782775  0.91671728  0.50057105
   0.58213515  0.08346011  0.40273474
   0.16410029  0.91689062  0.50043100
   0.33495579  0.83280390  0.40196187
   0.25030018  0.00075949  0.59829351
   0.16460236  0.66773802  0.50066099
   0.33313354  0.33268357  0.40225175
   0.58182860  0.83375842  0.40190987
   0.74983926  0.74884605  0.59805611
Direct configuration=    11
   0.08528182  0.08301264  0.39822300
   0.83105557  0.83394707  0.39792284
   0.66883059  0.66492572  0.50053910
   0.83166332  0.58398394  0.39640183
   0.74768378  0.25215504  0.60079676
   0.83288791  0.33470100  0.39811957
   0.83205300  0.08339302  0.40011806
   0.41532525  0.91689629  0.50037075
   0.41565414  0.66568482  0.50029885
   0.41724074  0.41702763  0.50082608
   0.58199010  0.33323785  0.39790424
   0.49999070 -0.00010627  0.60519995
   0.41657040  0.16836665  0.50052264
   0.66979759  0.91677170  0.50045446
   0.25017224  0.49678532  0.60288756
   0.33453914  0.58334456  0.39674154
   0.25212219  0.75010154  0.60219373
   0.33519704  0.08356290  0.39509942
   0.08490148  0.57991901  0.39993084
  -0.00033438  0.00181057  0.60069241
   0.91751291  0.41684981  0.50104930
   0.16490479  0.16738688  0.50095229
   0.08498486  0.83275136  0.40006322
  -0.00296241  0.74921233  0.60102025
   0.66931518  0.16692599  0.50041993
   0.74895083 -0.00012785  0.59761594
   0.00055374  0.25138744  0.59857793
   0.24860939  0.24961946  0.59814120
   0.66860033  0.41370687  0.50027324
   0.08452432  0.33282585  0.40263926
   0.74966641  0.50161594  0.59828291
   0.91563364  0.16560314  0.50074905
   0.50152863  0.74864494  0.59920068
   0.91936962  0.66679291  0.50043257
   0.50102609  0.50000102  0.59823236
   0.16558431  0.41989328  0.50108734
  -0.00144217  0.49888335  0.59787652
   0.58203892  0.58532134  0.40238773
   0.50024548  0.24950226  0.59856443
   0.91800454  0.91672382  0.50059638
   0.58204275  0.08351662  0.40278375
   0.16388903  0.91690503  0.50049695
   0.33505738  0.83281079  0.40200512
   0.25020421  0.00083554  0.59828100
   0.16465499  0.66770525  0.50075493
   0.33327767  0.33260702  0.40228977
   0.58174279  0.83379062  0.40197391
   0.74985916  0.74878801  0.59800845
Direct configuration=    12
   0.08542528  0.08309194  0.39804966
   0.83099268  0.83379216  0.39773046
   0.66862069  0.66516373  0.50048154
   0.83157338  0.58402858  0.39607232
   0.74775689  0.25224167  0.60082291
   0.83294181  0.33480001  0.39798316
   0.83201847  0.08341224  0.40005891
   0.41546797  0.91660088  0.50043222
   0.41560882  0.66609753  0.50034097
   0.41710030  0.41672320  0.50079052
   0.58200013  0.33320851  0.39763174
   0.49998277 -0.00010973  0.60574886
   0.41671077  0.16860569  0.50060088
   0.66983791  0.91676059  0.50052583
   0.25012281  0.49673061  0.60320895
   0.33463235  0.58327156  0.39653278
   0.25199799  0.75002879  0.60242011
   0.33522128  0.08355563  0.39479581
   0.08492543  0.57990172  0.39992116
  -0.00042283  0.00176220  0.60077214
   0.91736546  0.41662108  0.50095652
   0.16484711  0.16729954  0.50081446
   0.08502359  0.83264599  0.40008325
  -0.00286138  0.74918771  0.60108820
   0.66930188  0.16700236  0.50043189
   0.74885909 -0.00004388  0.59762901
   0.00036548  0.25141515  0.59842410
   0.24866272  0.24951513  0.59816282
   0.66910787  0.41342178  0.50019940
   0.08454566  0.33275286  0.40269188
   0.74960785  0.50151523  0.59816708
   0.91550054  0.16587818  0.50077572
   0.50154029  0.74868409  0.59917051
   0.91958479  0.66692303  0.50027295
   0.50089408  0.50003867  0.59819214
   0.16581547  0.42006024  0.50124134
  -0.00150271  0.49893971  0.59785760
   0.58211750  0.58528033  0.40243744
   0.50016812  0.24941907  0.59854659
   0.91823973  0.91662392  0.50063520
   0.58191706  0.08356223  0.40294198
   0.16391074  0.91684584  0.50055404
   0.33509137  0.83290802  0.40216582
   0.25022011  0.00086895  0.59823590
   0.16446137  0.66776714  0.50090668
   0.33334546  0.33256582  0.40244294
   0.58170900  0.83376932  0.40211865
   0.74964685  0.74886497  0.59793496
Direct configuration=    13
   0.08544599  0.08310338  0.39802464
   0.83098360  0.83376980  0.39770269
   0.66859040  0.66519809  0.50047324
   0.83156040  0.58403502  0.39602476
   0.74776744  0.25225417  0.60082668
   0.83294959  0.33481430  0.39796347
   0.83201348  0.08341502  0.40005037
   0.41548858  0.91655824  0.50044109
   0.41560228  0.66615710  0.50034704
   0.41708003  0.41667926  0.50078539
   0.58200157  0.33320428  0.39759241
   0.49998163 -0.00011023  0.60582809
   0.41673103  0.16864020  0.50061218
   0.66984373  0.91675898  0.50053613
   0.25011568  0.49672272  0.60325533
   0.33464580  0.58326102  0.39650265
   0.25198007  0.75001829  0.60245278
   0.33522478  0.08355458  0.39475199
   0.08492888  0.57989922  0.39991976
  -0.00043560  0.00175522  0.60078365
   0.91734418  0.41658807  0.50094312
   0.16483879  0.16728694  0.50079456
   0.08502917  0.83263078  0.40008614
  -0.00284680  0.74918415  0.60109800
   0.66929996  0.16701338  0.50043362
   0.74884585 -0.00003176  0.59763090
   0.00033831  0.25141915  0.59840190
   0.24867042  0.24950007  0.59816594
   0.66918112  0.41338063  0.50018874
   0.08454874  0.33274233  0.40269948
   0.74959939  0.50150069  0.59815036
   0.91548133  0.16591788  0.50077957
   0.50154198  0.74868974  0.59916616
   0.91961584  0.66694181  0.50024991
   0.50087503  0.50004410  0.59818634
   0.16584883  0.42008434  0.50126357
  -0.00151144  0.49894785  0.59785487
   0.58212885  0.58527442  0.40244462
   0.50015695  0.24940706  0.59854402
   0.91827368  0.91660950  0.50064080
   0.58189892  0.08356882  0.40296482
   0.16391388  0.91683730  0.50056228
   0.33509628  0.83292205  0.40218902
   0.25022240  0.00087377  0.59822939
   0.16443343  0.66777607  0.50092859
   0.33335524  0.33255988  0.40246504
   0.58170412  0.83376624  0.40213954
   0.74961621  0.74887608  0.59792435
Direct configuration=    14
   0.08552389  0.08299530  0.39797559
   0.83081336  0.83379619  0.39765770
   0.66868382  0.66512046  0.50036238
   0.83160322  0.58401497  0.39585346
   0.74774604  0.25225154  0.60080222
   0.83283863  0.33488593  0.39792315
   0.83203744  0.08342723  0.40008148
   0.41530914  0.91673658  0.50052789
   0.41559715  0.66619434  0.50035615
   0.41714031  0.41678208  0.50076529
   0.58215825  0.33316910  0.39746100
   0.49993175 -0.00007217  0.60619318
   0.41682160  0.16848445  0.50070013
   0.66995698  0.91695520  0.50056916
   0.25011500  0.49674969  0.60343823
   0.33467323  0.58328436  0.39644476
   0.25200892  0.74994786  0.60257697
   0.33532663  0.08353628  0.39462379
   0.08496155  0.57973894  0.39998497
  -0.00042962  0.00165978  0.60080581
   0.91738362  0.41675914  0.50075363
   0.16507164  0.16712371  0.50063367
   0.08507499  0.83274394  0.40018668
  -0.00287630  0.74923840  0.60109355
   0.66931170  0.16687179  0.50041145
   0.74874240 -0.00002826  0.59762339
   0.00021028  0.25139062  0.59830125
   0.24876760  0.24938250  0.59817221
   0.66914722  0.41343624  0.50005382
   0.08457712  0.33282128  0.40276906
   0.74950263  0.50150952  0.59807206
   0.91554717  0.16584021  0.50072017
   0.50142932  0.74875603  0.59915029
   0.91962232  0.66691342  0.50011189
   0.50065480  0.50013170  0.59812072
   0.16582428  0.42005218  0.50131634
  -0.00158262  0.49894682  0.59780725
   0.58226740  0.58514311  0.40251275
   0.50011740  0.24933875  0.59851846
   0.91820627  0.91666312  0.50064267
   0.58193684  0.08350867  0.40311671
   0.16401329  0.91686277  0.50058113
   0.33497832  0.83299067  0.40232413
   0.25028493  0.00081269  0.59818383
   0.16451858  0.66780054  0.50103029
   0.33323588  0.33259360  0.40259198
   0.58173532  0.83376258  0.40223340
   0.74948029  0.74897615  0.59786387
Direct configuration=    15
   0.08556005  0.08294513  0.39795283
   0.83073435  0.83380844  0.39763683
   0.66872718  0.66508443  0.50031093
   0.83162309  0.58400565  0.39577396
   0.74773611  0.25225031  0.60079087
   0.83278713  0.33491918  0.39790443
   0.83204856  0.08343289  0.40009591
   0.41522586  0.91681936  0.50056818
   0.41559477  0.66621163  0.50036038
   0.41716829  0.41682981  0.50075596
   0.58223097  0.33315277  0.39740000
   0.49990859 -0.00005450  0.60636264
   0.41686363  0.16841217  0.50074096
   0.67000955  0.91704627  0.50058450
   0.25011469  0.49676221  0.60352311
   0.33468596  0.58329519  0.39641789
   0.25202232  0.74991518  0.60263461
   0.33537390  0.08352778  0.39456430
   0.08497672  0.57966454  0.40001524
  -0.00042684  0.00161548  0.60081610
   0.91740193  0.41683854  0.50066568
   0.16517972  0.16704795  0.50055899
   0.08509626  0.83279646  0.40023335
  -0.00288999  0.74926358  0.60109148
   0.66931715  0.16680607  0.50040116
   0.74869438 -0.00002663  0.59761991
   0.00015086  0.25137738  0.59825454
   0.24881271  0.24932794  0.59817512
   0.66913149  0.41346206  0.49999120
   0.08459029  0.33285792  0.40280136
   0.74945772  0.50151362  0.59803572
   0.91557772  0.16580417  0.50069260
   0.50137703  0.74878680  0.59914293
   0.91962533  0.66690024  0.50004782
   0.50055258  0.50017236  0.59809026
   0.16581289  0.42003725  0.50134084
  -0.00161565  0.49894634  0.59778515
   0.58233170  0.58508216  0.40254438
   0.50009904  0.24930705  0.59850659
   0.91817499  0.91668801  0.50064354
   0.58195444  0.08348075  0.40318720
   0.16405944  0.91687459  0.50058987
   0.33492357  0.83302252  0.40238685
   0.25031395  0.00078434  0.59816269
   0.16455810  0.66781190  0.50107750
   0.33318048  0.33260924  0.40265090
   0.58174980  0.83376087  0.40227696
   0.74941720  0.74902259  0.59783580
Direct configuration=    16
   0.08548823  0.08303923  0.39794396
   0.83080093  0.83386189  0.39764575
   0.66876346  0.66522084  0.50024074
   0.83165100  0.58399070  0.39565161
   0.74757859  0.25225216  0.60070638
   0.83289397  0.33481004  0.39788334
   0.83211178  0.08336682  0.40014837
   0.41545415  0.91687717  0.50066625
   0.41563153  0.66612860  0.50036636
   0.41728039  0.41690074  0.50074369
   0.58217150  0.33312711  0.39733593
   0.49987390 -0.00008499  0.60657895
   0.41685792  0.16830991  0.50085419
   0.67001163  0.91696146  0.50064321
   0.25006969  0.49671555  0.60361706
   0.33465887  0.58330099  0.39644897
   0.25203698  0.74995252  0.60270905
   0.33548689  0.08349197  0.39452072
   0.08501167  0.57979847  0.40010846
  -0.00038895  0.00159111  0.60079156
   0.91759301  0.41684782  0.50052546
   0.16511448  0.16720019  0.50046637
   0.08502699  0.83274142  0.40036771
  -0.00302916  0.74924945  0.60103607
   0.66928417  0.16695724  0.50038523
   0.74861615 -0.00003603  0.59764351
   0.00018306  0.25133101  0.59810889
   0.24876223  0.24930793  0.59815805
   0.66898112  0.41350427  0.49988527
   0.08460186  0.33279958  0.40280748
   0.74933827  0.50159718  0.59792895
   0.91573553  0.16570768  0.50061221
   0.50131022  0.74882487  0.59912327
   0.91951751  0.66689570  0.49996230
   0.50052313  0.50009537  0.59802927
   0.16586589  0.41991130  0.50140797
  -0.00169536  0.49895069  0.59770459
   0.58230878  0.58511018  0.40256650
   0.50008772  0.24932732  0.59849011
   0.91818966  0.91671117  0.50062732
   0.58198355  0.08350786  0.40329389
   0.16401450  0.91692369  0.50063350
   0.33499908  0.83295188  0.40248204
   0.25025104  0.00078767  0.59814686
   0.16471071  0.66778055  0.50115569
   0.33323667  0.33257630  0.40274288
   0.58170726  0.83374800  0.40234471
   0.74933779  0.74907738  0.59775936
Direct configuration=    17
   0.08547325  0.08305885  0.39794212
   0.83081481  0.83387304  0.39764761
   0.66877103  0.66524928  0.50022611
   0.83165682  0.58398759  0.39562610