unknown system                          
           1
    11.002582    0.000000    0.000000
     5.501291    9.528515    0.000000
     0.000000    0.000000   26.191785
   Au   O    Pd
  24   8  24
Direct configuration=     1
   0.08333333  0.08333333  0.38179910
   0.33333333  0.83333333  0.38179910
   0.08333333  0.83333333  0.38179910
   0.91926919  0.16854858  0.47579704
   0.66421206  0.91821735  0.48017554
   0.83333333  0.83333333  0.38179910
   0.08333333  0.33333333  0.38179910
   0.74620753  0.50049480  0.56449790
   0.83333333  0.33333333  0.38179910
   0.75601977  0.96895175  0.60345988
   0.66737954  0.16725752  0.47572070
   0.91767027  0.91875549  0.47627491
   0.98697358  0.51226731  0.56350566
   0.53586850  0.68608066  0.62312744
   0.41950158  0.67228042  0.48530837
   0.58333333  0.58333333  0.38179910
   0.50523455  0.25170815  0.56459294
   0.28495428  0.99557262  0.56052473
   0.58333333  0.33333333  0.38179910
   0.16882773  0.41906107  0.47310464
   0.58333333  0.08333333  0.38179910
   0.71542319  0.76403260  0.56999705
   0.33333333  0.58333333  0.38179910
   0.16895034  0.91934629  0.48415253
   0.24749146  0.40319282  0.61985183
   0.06730889  0.81137973  0.61914234
   0.32525461  0.09606907  0.62145433
   0.03422595  0.18218635  0.63213406
   0.25041355  0.88821368  0.62312857
   0.56173488  0.12350871  0.63115852
   0.83257335  0.10479944  0.62222792
   0.52260468  0.82096880  0.67723061
   0.58333333  0.83333333  0.38179910
   0.41840254  0.41790729  0.47629208
   0.17105836  0.16947661  0.47597011
   0.24826255  0.26337775  0.57425498
   0.33333333  0.08333333  0.38179910
   0.49758165  0.50517489  0.56868326
   0.24274534  0.74594309  0.57582115
   0.16937773  0.66988556  0.47641565
   0.33333333  0.33333333  0.38179910
   0.42137122  0.91852437  0.46989093
   0.97715483  0.76378102  0.56299824
   0.83333333  0.08333333  0.38179910
   0.91477119  0.67044624  0.47375380
   0.08333333  0.58333333  0.38179910
   0.00290063  0.25258744  0.56396416
   0.66587115  0.41798362  0.47705121
   0.75791723  0.24614048  0.56580842
   0.83333333  0.58333333  0.38179910
   0.66753344  0.66791371  0.47342741
   0.91518780  0.42013226  0.47400861
   0.03907270  0.00728587  0.62373140
   0.24037530  0.51370211  0.56224400
   0.41592634  0.16810280  0.47474686
   0.51588663  0.97843734  0.64762704
Direct configuration=     2
   0.08333333  0.08333333  0.38179910
   0.33333333  0.83333333  0.38179910
   0.08333333  0.83333333  0.38179910
   0.91931176  0.16848105  0.47579418
   0.66422733  0.91819672  0.48018247
   0.83333333  0.83333333  0.38179910
   0.08333333  0.33333333  0.38179910
   0.74622884  0.50047820  0.56449396
   0.83333333  0.33333333  0.38179910
   0.75596278  0.96894628  0.60346419
   0.66737066  0.16725992  0.47571711
   0.91768561  0.91877387  0.47626610
   0.98696028  0.51221657  0.56350419
   0.53588084  0.68610676  0.62313784
   0.41951527  0.67224778  0.48530997
   0.58333333  0.58333333  0.38179910
   0.50521767  0.25173613  0.56458836
   0.28495235  0.99555237  0.56050982
   0.58333333  0.33333333  0.38179910
   0.16881471  0.41905140  0.47310900
   0.58333333  0.08333333  0.38179910
   0.71542548  0.76406847  0.56999867
   0.33333333  0.58333333  0.38179910
   0.16892119  0.91938024  0.48414819
   0.24755147  0.40316814  0.61986032
   0.06722925  0.81136479  0.61911327
   0.32524577  0.09605864  0.62144958
   0.03423061  0.18213876  0.63212777
   0.25041275  0.88820685  0.62312234
   0.56171447  0.12355637  0.63115968
   0.83261715  0.10484268  0.62221440
   0.52257510  0.82105110  0.67721278
   0.58333333  0.83333333  0.38179910
   0.41842977  0.41791648  0.47629199
   0.17107999  0.16944913  0.47597696
   0.24827931  0.26336983  0.57425125
   0.33333333  0.08333333  0.38179910
   0.49755526  0.50515395  0.56868904
   0.24273566  0.74589138  0.57580481
   0.16935498  0.66989745  0.47642293
   0.33333333  0.33333333  0.38179910
   0.42135379  0.91854156  0.46989217
   0.97721422  0.76383207  0.56303110
   0.83333333  0.08333333  0.38179910
   0.91476840  0.67043245  0.47374285
   0.08333333  0.58333333  0.38179910
   0.00288505  0.25261589  0.56396168
   0.66584269  0.41800824  0.47704647
   0.75791669  0.24610257  0.56582290
   0.83333333  0.58333333  0.38179910
   0.66753516  0.66790809  0.47342309
   0.91518680  0.42014945  0.47400819
   0.03903064  0.00733131  0.62374371
   0.24036797  0.51374446  0.56224167
   0.41592363  0.16808899  0.47473885
   0.51587429  0.97834660  0.64765128
Direct configuration=     3
   0.08333333  0.08333333  0.38179910
   0.33333333  0.83333333  0.38179910
   0.08333333  0.83333333  0.38179910
   0.91932104  0.16846631  0.47579355
   0.66423066  0.91819222  0.48018399
   0.83333333  0.83333333  0.38179910
   0.08333333  0.33333333  0.38179910
   0.74623349  0.50047457  0.56449310
   0.83333333  0.33333333  0.38179910
   0.75595035  0.96894509  0.60346513
   0.66736872  0.16726044  0.47571633
   0.91768895  0.91877788  0.47626418
   0.98695738  0.51220550  0.56350386
   0.53588353  0.68611245  0.62314011
   0.41951826  0.67224066  0.48531032
   0.58333333  0.58333333  0.38179910
   0.50521399  0.25174223  0.56458736
   0.28495192  0.99554795  0.56050657
   0.58333333  0.33333333  0.38179910
   0.16881188  0.41904928  0.47310995
   0.58333333  0.08333333  0.38179910
   0.71542597  0.76407630  0.56999903
   0.33333333  0.58333333  0.38179910
   0.16891483  0.91938765  0.48414724
   0.24756456  0.40316276  0.61986217
   0.06721187  0.81136153  0.61910693
   0.32524384  0.09605637  0.62144854
   0.03423163  0.18212838  0.63212640
   0.25041258  0.88820536  0.62312099
   0.56171002  0.12356677  0.63115994
   0.83262671  0.10485212  0.62221145
   0.52256865  0.82106905  0.67720889
   0.58333333  0.83333333  0.38179910
   0.41843571  0.41791849  0.47629197
   0.17108471  0.16944313  0.47597846
   0.24828297  0.26336811  0.57425043
   0.33333333  0.08333333  0.38179910
   0.49754950  0.50514938  0.56869030
   0.24273354  0.74588010  0.57580125
   0.16935002  0.66990004  0.47642452
   0.33333333  0.33333333  0.38179910
   0.42134999  0.91854531  0.46989244
   0.97722718  0.76384321  0.56303826
   0.83333333  0.08333333  0.38179910
   0.91476779  0.67042944  0.47374046
   0.08333333  0.58333333  0.38179910
   0.00288165  0.25262210  0.56396114
   0.66583648  0.41801361  0.47704543
   0.75791658  0.24609430  0.56582605
   0.83333333  0.58333333  0.38179910
   0.66753554  0.66790687  0.47342215
   0.91518658  0.42015320  0.47400809
   0.03902146  0.00734122  0.62374639
   0.24036637  0.51375369  0.56224116
   0.41592304  0.16808598  0.47473710
   0.51587159  0.97832680  0.64765657
Direct configuration=     4
   0.08333333  0.08333333  0.38179910
   0.33333333  0.83333333  0.38179910
   0.08333333  0.83333333  0.38179910
   0.91934838  0.16842354  0.47579176
   0.66424781  0.91817343  0.48019087
   0.83333333  0.83333333  0.38179910
   0.08333333  0.33333333  0.38179910
   0.74622755  0.50046706  0.56449039
   0.83333333  0.33333333  0.38179910
   0.75588072  0.96896986  0.60347712
   0.66736432  0.16725877  0.47571290
   0.91770150  0.91878133  0.47625552
   0.98695190  0.51217348  0.56350276
   0.53590857  0.68610453  0.62314183
   0.41952302  0.67221780  0.48531254
   0.58333333  0.58333333  0.38179910
   0.50519504  0.25176391  0.56458493
   0.28494511  0.99552104  0.56049745
   0.58333333  0.33333333  0.38179910
   0.16880674  0.41903640  0.47311659
   0.58333333  0.08333333  0.38179910
   0.71543365  0.76409643  0.56999810
   0.33333333  0.58333333  0.38179910
   0.16890565  0.91940008  0.48414038
   0.24764517  0.40313522  0.61986116
   0.06715465  0.81138429  0.61909591
   0.32524723  0.09602750  0.62144108
   0.03424104  0.18210756  0.63212203
   0.25039419  0.88819227  0.62310730
   0.56166544  0.12357618  0.63116573
   0.83264164  0.10488517  0.62220360
   0.52253226  0.82106616  0.67721912
   0.58333333  0.83333333  0.38179910
   0.41845584  0.41792808  0.47629071
   0.17110062  0.16942385  0.47598205
   0.24830449  0.26336927  0.57424820
   0.33333333  0.08333333  0.38179910
   0.49753538  0.50513224  0.56870112
   0.24272231  0.74585028  0.57578705
   0.16932137  0.66991317  0.47643195
   0.33333333  0.33333333  0.38179910
   0.42133869  0.91855344  0.46989181
   0.97723377  0.76387848  0.56304805
   0.83333333  0.08333333  0.38179910
   0.91477090  0.67041971  0.47373240
   0.08333333  0.58333333  0.38179910
   0.00286860  0.25264587  0.56395600
   0.66582100  0.41802727  0.47704069
   0.75790144  0.24608464  0.56583088
   0.83333333  0.58333333  0.38179910
   0.66753417  0.66790355  0.47341726
   0.91518577  0.42015639  0.47400721
   0.03902775  0.00731101  0.62375424
   0.24035289  0.51375916  0.56224640
   0.41592511  0.16807531  0.47472737
   0.51583798  0.97842273  0.64765345
