 vasp.5.4.1 24Jun15 (build Mar 14 2019 10:18:33) complex                        
  
 executed on INTEL-19.0.2+OPENMPI date 2023.01.31  01:57:44
 running on   36 total cores
 distrk:  each k-point on   36 cores,    1 groups
 distr:  one band on NCORES_PER_BAND=   6 cores,    6 groups


--------------------------------------------------------------------------------------------------------


 INCAR:
 POTCAR:    PAW_PBE Au 04Oct2007                  
 POTCAR:    PAW_PBE Pd 04Jan2005                  
 POTCAR:    PAW_PBE Au 04Oct2007                  
  local pseudopotential read in
  partial core-charges read in
  partial kinetic energy density read in
  atomic valenz-charges read in
  non local Contribution for L=           2  read in
    real space projection operators read in
  non local Contribution for L=           2  read in
    real space projection operators read in
  non local Contribution for L=           0  read in
    real space projection operators read in
  non local Contribution for L=           0  read in
    real space projection operators read in
  non local Contribution for L=           1  read in
    real space projection operators read in
  non local Contribution for L=           1  read in
    real space projection operators read in
    PAW grid and wavefunctions read in
 
   number of l-projection  operators is LMAX  =           6
   number of lm-projection operators is LMMAX =          18
 
 POTCAR:    PAW_PBE Pd 04Jan2005                  
  local pseudopotential read in
  partial core-charges read in
  partial kinetic energy density read in
  atomic valenz-charges read in
  non local Contribution for L=           2  read in
    real space projection operators read in
  non local Contribution for L=           2  read in
    real space projection operators read in
  non local Contribution for L=           0  read in
    real space projection operators read in
  non local Contribution for L=           0  read in
    real space projection operators read in
  non local Contribution for L=           1  read in
    real space projection operators read in
  non local Contribution for L=           1  read in
    real space projection operators read in
    PAW grid and wavefunctions read in
 
   number of l-projection  operators is LMAX  =           6
   number of lm-projection operators is LMMAX =          18
 
 Optimization of the real space projectors (new method)

 maximal supplied QI-value         = 15.12
 optimisation between [QCUT,QGAM] = [ 10.13, 20.41] = [ 28.73,116.64] Ry 
 Optimized for a Real-space Cutoff    1.51 Angstroem

   l    n(q)    QCUT    max X(q) W(low)/X(q) W(high)/X(q)  e(spline) 
   2      8    10.129    60.898    0.46E-03    0.46E-03    0.14E-06
   2      8    10.129    58.894    0.47E-03    0.47E-03    0.14E-06
   0      9    10.129   109.617    0.16E-03    0.11E-03    0.54E-07
   0      9    10.129    75.026    0.15E-03    0.11E-03    0.52E-07
   1      9    10.129    16.344    0.96E-04    0.15E-03    0.14E-06
   1      9    10.129    10.160    0.81E-04    0.12E-03    0.11E-06
 Optimization of the real space projectors (new method)

 maximal supplied QI-value         = 14.36
 optimisation between [QCUT,QGAM] = [ 10.20, 20.39] = [ 29.12,116.47] Ry 
 Optimized for a Real-space Cutoff    1.51 Angstroem

   l    n(q)    QCUT    max X(q) W(low)/X(q) W(high)/X(q)  e(spline) 
   2      8    10.197    59.108    0.26E-03    0.14E-03    0.96E-07
   2      8    10.197    58.101    0.27E-03    0.14E-03    0.98E-07
   0      9    10.197   102.235    0.54E-04    0.60E-05    0.72E-07
   0      9    10.197    58.388    0.52E-04    0.60E-05    0.68E-07
   1      9    10.197    22.191    0.18E-03    0.25E-03    0.79E-07
   1      9    10.197    15.590    0.15E-03    0.21E-03    0.69E-07
  PAW_PBE Au 04Oct2007                  :
 energy of atom  1       EATOM= -926.0867
 kinetic energy error for atom=    0.0062 (will be added to EATOM!!)
  PAW_PBE Pd 04Jan2005                  :
 energy of atom  2       EATOM= -809.7530
 kinetic energy error for atom=    0.0091 (will be added to EATOM!!)
 
 
 POSCAR: Au Pd                                   
  positions in cartesian coordinates
  No initial velocities read in
 exchange correlation table for  LEXCH =        8
   RHO(1)=    0.500       N(1)  =     2000
   RHO(2)=  100.500       N(2)  =     4000

 VTST: version 3.2, (02/03/18)

 CHAIN: initializing optimizer
 
 OPT: Using VASP Conjugate-Gradient optimizer
 CHAIN: Read ICHAIN            0
 
 POSCAR: Au Pd                                   
  positions in cartesian coordinates
  No initial velocities read in
 


--------------------------------------------------------------------------------------------------------


 ion  position               nearest neighbor table
   1  0.750  0.750  0.592-  21 2.75  47 2.75  12 2.75   2 2.75  35 2.75  11 2.75  14 2.75  10 2.75
                            44 2.75
   2  0.750  0.500  0.592-  44 2.75   4 2.75   6 2.75  14 2.75  38 2.75   1 2.75  17 2.75  35 2.75
                             7 2.75
   3  0.083  0.333  0.408-  28 2.75   5 2.75  33 2.75  37 2.75  41 2.75  27 2.75  42 2.75  26 2.75
                             4 2.75
   4  0.917  0.417  0.500-  42 2.75  38 2.75   2 2.75  26 2.75  36 2.75  44 2.75  47 2.75  28 2.75
                             7 2.75   5 2.75  35 2.75   3 2.75
   5  0.833  0.583  0.408-  47 2.75  16 2.75  42 2.75  43 2.75   3 2.75  37 2.75  19 2.75   4 2.75
                            44 2.75
   6  0.750  0.250  0.592-   7 2.75  36 2.75  11 2.75  17 2.75   2 2.75  39 2.75  38 2.75  20 2.75
                            45 2.75
   7  0.667  0.417  0.500-  13 2.75   6 2.75  17 2.75  18 2.75  36 2.75  44 2.75  45 2.75  25 2.75
                             4 2.75  19 2.75   2 2.75  42 2.75
   8  0.083  0.833  0.408-  40 2.75  30 2.75  37 2.75  24 2.75  41 2.75  29 2.75  43 2.75  31 2.75
                             9 2.75
   9  0.917  0.917  0.500-  43 2.75  10 2.75  11 2.75  36 2.75  31 2.75  45 2.75  47 2.75  40 2.75
                            21 2.75  24 2.75   8 2.75  39 2.75
  10  0.000  0.750  0.592-   9 2.75  31 2.75  11 2.75  32 2.75  35 2.75  39 2.75   1 2.75  48 2.75
                            47 2.75
  11  0.750  0.000  0.592-  45 2.75   9 2.75   1 2.75  10 2.75  20 2.75   6 2.75  39 2.75  12 2.75
                            21 2.75
  12  0.500  0.000  0.592-  23 2.75  21 2.75  20 2.75   1 2.75  14 2.75  34 2.75  11 2.75  46 2.75
                            15 2.75
  13  0.583  0.333  0.408-   7 2.75  19 2.75  22 2.75  24 2.75  30 2.75  27 2.75  42 2.75  45 2.75
                            25 2.75
  14  0.500  0.750  0.592-  15 2.75  44 2.75   2 2.75  17 2.75  12 2.75  46 2.75   1 2.75  48 2.75
                            18 2.75
  15  0.417  0.917  0.500-  29 2.75  14 2.75  46 2.75  26 2.75  18 2.75  44 2.75  23 2.75  21 2.75
                            40 2.75  33 2.75  16 2.75  12 2.75
  16  0.583  0.833  0.408-  21 2.75  19 2.75   5 2.75  22 2.75  33 2.75  29 2.75  43 2.75  44 2.75
                            15 2.75
  17  0.500  0.500  0.592-  18 2.75   7 2.75  14 2.75   6 2.75  20 2.75  48 2.75  32 2.75   2 2.75
                            25 2.75
  18  0.417  0.667  0.500-  30 2.75  17 2.75  48 2.75  25 2.75  15 2.75  40 2.75   7 2.75  44 2.75
                            31 2.75  29 2.75  19 2.75  14 2.75
  19  0.583  0.583  0.408-  44 2.75  16 2.75  29 2.75  42 2.75  13 2.75   5 2.75  30 2.75   7 2.75
                            18 2.75
  20  0.500  0.250  0.592-  25 2.75  45 2.75  17 2.75  11 2.75  32 2.75  12 2.75  34 2.75   6 2.75
                            23 2.75
  21  0.667  0.917  0.500-  16 2.75   1 2.75  12 2.75  23 2.75  44 2.75  45 2.75  47 2.75  15 2.75
                             9 2.75  22 2.75  43 2.75  11 2.75
  22  0.583  0.083  0.408-  45 2.75  16 2.75  27 2.75  43 2.75  13 2.75  24 2.75  33 2.75  21 2.75
                            23 2.75
  23  0.417  0.167  0.500-  33 2.75  12 2.75  34 2.75  25 2.75  28 2.75  15 2.75  21 2.75  26 2.75
                            45 2.75  27 2.75  22 2.75  20 2.75
  24  0.833  0.083  0.408-  36 2.75  13 2.75   8 2.75  42 2.75  43 2.75  22 2.75  41 2.75   9 2.75
                            45 2.75
  25  0.417  0.417  0.500-  27 2.75  20 2.75  32 2.75  18 2.75  31 2.75  23 2.75  45 2.75  28 2.75
                             7 2.75  30 2.75  17 2.75  13 2.75
  26  0.167  0.167  0.500-  41 2.75  46 2.75  38 2.75   4 2.75  40 2.75  15 2.75  28 2.75  23 2.75
                            36 2.75   3 2.75  34 2.75  33 2.75
  27  0.333  0.333  0.408-  25 2.75  22 2.75  30 2.75  33 2.75  37 2.75  13 2.75   3 2.75  23 2.75
                            28 2.75
  28  0.167  0.417  0.500-   3 2.75  34 2.75  35 2.75  31 2.75  23 2.75  26 2.75  47 2.75  25 2.75
                             4 2.75  37 2.75  27 2.75  32 2.75
  29  0.333  0.833  0.408-  15 2.75  19 2.75  30 2.75  33 2.75  41 2.75   8 2.75  16 2.75  18 2.75
                            40 2.75
  30  0.333  0.583  0.408-  18 2.75  13 2.75   8 2.75  27 2.75  29 2.75  19 2.75  37 2.75  25 2.75
                            31 2.75
  31  0.167  0.667  0.500-  37 2.75  32 2.75  10 2.75  28 2.75   9 2.75  25 2.75  40 2.75  18 2.75
                            47 2.75   8 2.75  30 2.75  48 2.75
  32  0.250  0.500  0.592-  31 2.75  25 2.75  10 2.75  20 2.75  34 2.75  48 2.75  35 2.75  17 2.75
                            28 2.75
  33  0.333  0.083  0.408-  23 2.75  16 2.75   3 2.75  27 2.75  29 2.75  22 2.75  41 2.75  15 2.75
                            26 2.75
  34  0.250  0.250  0.592-  28 2.75  23 2.75  12 2.75  32 2.75  35 2.75  46 2.75  38 2.75  20 2.75
                            26 2.75
  35  0.000  0.500  0.592-  47 2.75  28 2.75   1 2.75  34 2.75  38 2.75  10 2.75  32 2.75   2 2.75
                             4 2.75
  36  0.917  0.167  0.500-  24 2.75  39 2.75   6 2.75   9 2.75   4 2.75   7 2.75  40 2.75  26 2.75
                            45 2.75  42 2.75  38 2.75  41 2.75
  37  0.083  0.583  0.408-  31 2.75   8 2.75  27 2.75   3 2.75  43 2.75   5 2.75  30 2.75  28 2.75
                            47 2.75
  38  0.000  0.250  0.592-   4 2.75  26 2.75   2 2.75  35 2.75  39 2.75  46 2.75  34 2.75   6 2.75
                            36 2.75
  39  0.000  0.000  0.592-  36 2.75  40 2.75   6 2.75  38 2.75  10 2.75  48 2.75  46 2.75  11 2.75
                             9 2.75
  40  0.167  0.917  0.500-   8 2.75  48 2.75  39 2.75  31 2.75  36 2.75  18 2.75  26 2.75   9 2.75
                            15 2.75  41 2.75  46 2.75  29 2.75
  41  0.083  0.083  0.408-  26 2.75   8 2.75   3 2.75  29 2.75  42 2.75  33 2.75  24 2.75  40 2.75
                            36 2.75
  42  0.833  0.333  0.408-   4 2.75   5 2.75  19 2.75  24 2.75  41 2.75  13 2.75   3 2.75  36 2.75
                             7 2.75
  43  0.833  0.833  0.408-   9 2.75   5 2.75  22 2.75  24 2.75  37 2.75  16 2.75   8 2.75  47 2.75
                            21 2.75
  44  0.667  0.667  0.500-  19 2.75   2 2.75  14 2.75   4 2.75  15 2.75   7 2.75  21 2.75  18 2.75
                            47 2.75  16 2.75   1 2.75   5 2.75
  45  0.667  0.167  0.500-  22 2.75  11 2.75  20 2.75   9 2.75  21 2.75   7 2.75  25 2.75  23 2.75
                            36 2.75  13 2.75   6 2.75  24 2.75
  46  0.250  0.000  0.592-  26 2.75  15 2.75  14 2.75  34 2.75  38 2.75  48 2.75  39 2.75  12 2.75
                            40 2.75
  47  0.917  0.667  0.500-   5 2.75  35 2.75   1 2.75   9 2.75  21 2.75  28 2.75   4 2.75  31 2.75
                            44 2.75  43 2.75  10 2.75  37 2.75
  48  0.250  0.750  0.592-  40 2.75  18 2.75  32 2.75  39 2.75  17 2.75  46 2.75  10 2.75  14 2.75
                            31 2.75
 
  LATTYP: Found a hexagonal cell.
 ALAT       =    11.0025815153
 C/A-ratio  =     2.2260035120
  
  Lattice vectors:
  
 A1 = (   5.5012907576,  -9.5285150994,   0.0000000000)
 A2 = ( -11.0025815153,   0.0000000000,   0.0000000000)
 A3 = (   0.0000000000,   0.0000000000, -24.4917850943)


Analysis of symmetry for initial positions (statically):
=====================================================================
 Subroutine PRICEL returns:
 Original cell was already a primitive cell.
 

 Routine SETGRP: Setting up the symmetry group for a 
 hexagonal supercell.


 Subroutine GETGRP returns: Found  1 space group operations
 (whereof  1 operations were pure point group operations)
 out of a pool of 24 trial point group operations.


The static configuration has the point symmetry C_1 .


Analysis of symmetry for dynamics (positions and initial velocities):
=====================================================================
 Subroutine PRICEL returns:
 Original cell was already a primitive cell.
 

 Routine SETGRP: Setting up the symmetry group for a 
 hexagonal supercell.


 Subroutine GETGRP returns: Found  1 space group operations
 (whereof  1 operations were pure point group operations)
 out of a pool of 24 trial point group operations.


The dynamic configuration has the point symmetry C_1 .


Analysis of constrained symmetry for selective dynamics:
=====================================================================
 Subroutine PRICEL returns:
 Original cell was already a primitive cell.
 

 Routine SETGRP: Setting up the symmetry group for a 
 hexagonal supercell.


 Subroutine GETGRP returns: Found  1 space group operations
 (whereof  1 operations were pure point group operations)
 out of a pool of 24 trial point group operations.


The constrained configuration has the point symmetry C_1 .
 
 
 KPOINTS: Automatic mesh                          

Automatic generation of k-mesh.
Space group operators:
 irot       det(A)        alpha          n_x          n_y          n_z        tau_x        tau_y        tau_z
    1     1.000000     0.000000     1.000000     0.000000     0.000000     0.000000     0.000000     0.000000
 
 Subroutine IBZKPT returns following result:
 ===========================================
 
 Found      6 irreducible k-points:
 
 Following reciprocal coordinates:
            Coordinates               Weight
  0.250000  0.250000  0.000000     16.000000
  0.000000  0.250000  0.000000     16.000000
 -0.250000  0.000000  0.000000     16.000000
 -0.250000  0.250000  0.000000     16.000000
  0.500000 -0.250000  0.000000     16.000000
 -0.250000  0.500000  0.000000     16.000000
 
 Following cartesian coordinates:
            Coordinates               Weight
  0.022722  0.013119  0.000000     16.000000
  0.000000  0.026237  0.000000     16.000000
 -0.022722  0.013119  0.000000     16.000000
 -0.022722  0.039356  0.000000     16.000000
  0.045444 -0.052474  0.000000     16.000000
 -0.022722  0.065593  0.000000     16.000000
 


--------------------------------------------------------------------------------------------------------




 Dimension of arrays:
   k-points           NKPTS =      6   k-points in BZ     NKDIM =      6   number of bands    NBANDS=    306
   number of dos      NEDOS =    301   number of ions     NIONS =     48
   non local maximal  LDIM  =      6   non local SUM 2l+1 LMDIM =     18
   total plane-waves  NPLWV = 349920
   max r-space proj   IRMAX =   2009   max aug-charges    IRDMAX=   8532
   dimension x,y,z NGX =    54 NGY =   54 NGZ =  120
   dimension x,y,z NGXF=   108 NGYF=  108 NGZF=  240
   support grid    NGXF=   108 NGYF=  108 NGZF=  240
   ions per type =              24  24
 NGX,Y,Z   is equivalent  to a cutoff of   8.16,  8.16,  8.15 a.u.
 NGXF,Y,Z  is equivalent  to a cutoff of  16.32, 16.32, 16.29 a.u.


 I would recommend the setting:
   dimension x,y,z NGX =    54 NGY =   54 NGZ =  120
 SYSTEM =  unknown system                          
 POSCAR =  Au Pd                                   

 Startparameter for this run:
   NWRITE =      1    write-flag & timer
   PREC   = normal    normal or accurate (medium, high low for compatibility)
   ISTART =      0    job   : 0-new  1-cont  2-samecut
   ICHARG =      2    charge: 1-file 2-atom 10-const
   ISPIN  =      1    spin polarized calculation?
   LNONCOLLINEAR =      F non collinear calculations
   LSORBIT =      F    spin-orbit coupling
   INIWAV =      1    electr: 0-lowe 1-rand  2-diag
   LASPH  =      F    aspherical Exc in radial PAW
   METAGGA=      F    non-selfconsistent MetaGGA calc.

 Electronic Relaxation 1
   ENCUT  =  400.0 eV  29.40 Ry    5.42 a.u.  17.94 17.94 39.94*2*pi/ulx,y,z
   ENINI  =  400.0     initial cutoff
   ENAUG  =  416.2 eV  augmentation charge cutoff
   NELM   =    500;   NELMIN=  2; NELMDL= -5     # of ELM steps 
   EDIFF  = 0.1E-05   stopping-criterion for ELM
   LREAL  =      T    real-space projection
   NLSPLINE    = F    spline interpolate recip. space projectors
   LCOMPAT=      F    compatible to vasp.4.4
   GGA_COMPAT  = T    GGA compatible to vasp.4.4-vasp.4.6
   LMAXPAW     = -100 max onsite density
   LMAXMIX     =    2 max onsite mixed and CHGCAR
   VOSKOWN=      1    Vosko Wilk Nusair interpolation
   ROPT   =   -0.00050  -0.00050
 Ionic relaxation
   EDIFFG = -.2E-01   stopping-criterion for IOM
   NSW    =    500    number of steps for IOM
   NBLOCK =      1;   KBLOCK =    500    inner block; outer block 
   IBRION =      2    ionic relax: 0-MD 1-quasi-New 2-CG
   NFREE  =      2    steps in history (QN), initial steepest desc. (CG)
   ISIF   =      0    stress and relaxation
   IWAVPR =     11    prediction:  0-non 1-charg 2-wave 3-comb
   ISYM   =      2    0-nonsym 1-usesym 2-fastsym
   LCORR  =      T    Harris-Foulkes like correction to forces

   POTIM  = 0.3500    time-step for ionic-motion
   TEIN   =    0.0    initial temperature
   TEBEG  =    0.0;   TEEND  =   0.0 temperature during run
   SMASS  =  -3.00    Nose mass-parameter (am)
   estimated Nose-frequenzy (Omega)   =  0.10E-29 period in steps =****** mass=  -0.277E-26a.u.
   SCALEE = 1.0000    scale energy and forces
   NPACO  =    256;   APACO  = 16.0  distance and # of slots for P.C.
   PSTRESS=    0.0 pullay stress

  Mass of Ions in am
   POMASS = 196.97106.42
  Ionic Valenz
   ZVAL   =  11.00 10.00
  Atomic Wigner-Seitz radii
   RWIGS  =  -1.00 -1.00
  virtual crystal weights 
   VCA    =   1.00  1.00
   NELECT =     504.0000    total number of electrons
   NUPDOWN=      -1.0000    fix difference up-down

 DOS related values:
   EMIN   =  10.00;   EMAX   =-10.00  energy-range for DOS
   EFERMI =   0.00
   ISMEAR =     0;   SIGMA  =   0.10  broadening in eV -4-tet -1-fermi 0-gaus

 Electronic relaxation 2 (details)
   IALGO  =     68    algorithm
   LDIAG  =      T    sub-space diagonalisation (order eigenvalues)
   LSUBROT=      F    optimize rotation matrix (better conditioning)
   TURBO    =      0    0=normal 1=particle mesh
   IRESTART =      0    0=no restart 2=restart with 2 vectors
   NREBOOT  =      0    no. of reboots
   NMIN     =      0    reboot dimension
   EREF     =   0.00    reference energy to select bands
   IMIX   =      4    mixing-type and parameters
     AMIX     =   0.40;   BMIX     =  1.00
     AMIX_MAG =   1.60;   BMIX_MAG =  1.00
     AMIN     =   0.10
     WC   =   100.;   INIMIX=   1;  MIXPRE=   1;  MAXMIX= -45

 Intra band minimization:
   WEIMIN = 0.0010     energy-eigenvalue tresh-hold
   EBREAK =  0.82E-09  absolut break condition
   DEPER  =   0.30     relativ break condition  

   TIME   =   0.40     timestep for ELM

  volume/ion in A,a.u.               =      53.49       360.99
  Fermi-wavevector in a.u.,A,eV,Ry     =   0.951418  1.797920 12.315955  0.905197
  Thomas-Fermi vector in A             =   2.079887
 
 Write flags
   LWAVE  =      F    write WAVECAR
   LCHARG =      F    write CHGCAR
   LVTOT  =      F    write LOCPOT, total local potential
   LVHAR  =      F    write LOCPOT, Hartree potential only
   LELF   =      F    write electronic localiz. function (ELF)
   LORBIT =      0    0 simple, 1 ext, 2 COOP (PROOUT)


 Dipole corrections
   LMONO  =      F    monopole corrections only (constant potential shift)
   LDIPOL =      T    correct potential (dipole corrections)
   IDIPOL =      3    1-x, 2-y, 3-z, 4-all directions 
   EPSILON=  1.0000000 bulk dielectric constant

 Exchange correlation treatment:
   GGA     =    PE    GGA type
   LEXCH   =     8    internal setting for exchange type
   VOSKOWN=      1    Vosko Wilk Nusair interpolation
   LHFCALC =     F    Hartree Fock is set to
   LHFONE  =     F    Hartree Fock one center treatment
   AEXX    =    0.0000 exact exchange contribution

 Linear response parameters
   LEPSILON=     F    determine dielectric tensor
   LRPA    =     F    only Hartree local field effects (RPA)
   LNABLA  =     F    use nabla operator in PAW spheres
   LVEL    =     F    velocity operator in full k-point grid
   LINTERFAST=   F  fast interpolation
   KINTER  =     0    interpolate to denser k-point grid
   CSHIFT  =0.1000    complex shift for real part using Kramers Kronig
   OMEGAMAX=  -1.0    maximum frequency
   DEG_THRESHOLD= 0.2000000E-02 threshold for treating states as degnerate
   RTIME   =    0.100 relaxation time in fs

 Orbital magnetization related:
   ORBITALMAG=     F  switch on orbital magnetization
   LCHIMAG   =     F  perturbation theory with respect to B field
   DQ        =  0.001000  dq finite difference perturbation B field



--------------------------------------------------------------------------------------------------------


 conjugate gradient relaxation of ions
   using selective dynamics as specified on POSCAR
   WARNING: If single coordinates had been selected the selection of coordinates
            is made according to the corresponding   d i r e c t   coordinates!
            Don't support selection of single cartesian coordinates -- sorry ...
  !
 charge density and potential will be updated during run
 non-spin polarized calculation
 RMM-DIIS sequential band-by-band and
  variant of blocked Davidson during initial phase
 perform sub-space diagonalisation
    before iterative eigenvector-optimisation
 modified Broyden-mixing scheme, WC =      100.0
 initial mixing is a Kerker type mixing with AMIX =  0.4000 and BMIX =      1.0000
 Hartree-type preconditioning will be used
 using additional bands           54
 real space projection scheme for non local part
 use partial core corrections
 calculate Harris-corrections to forces 
   (improved forces if not selfconsistent)
 use gradient corrections 
 use of overlap-Matrix (Vanderbilt PP)
 Gauss-broadening in eV      SIGMA  =   0.10


--------------------------------------------------------------------------------------------------------


  energy-cutoff  :      400.00
  volume of cell :     2567.68
      direct lattice vectors                 reciprocal lattice vectors
    11.002581515  0.000000000  0.000000000     0.090887761 -0.052474073  0.000000000
     5.501290758  9.528515099  0.000000000     0.000000000  0.104948147  0.000000000
     0.000000000  0.000000000 24.491785094     0.000000000  0.000000000  0.040830017

  length of vectors
    11.002581515 11.002581515 24.491785094     0.104948147  0.104948147  0.040830017


 
 k-points in units of 2pi/SCALE and weight: Automatic mesh                          
   0.02272194  0.01311852  0.00000000       0.167
   0.00000000  0.02623704  0.00000000       0.167
  -0.02272194  0.01311852  0.00000000       0.167
  -0.02272194  0.03935555  0.00000000       0.167
   0.04544388 -0.05247407  0.00000000       0.167
  -0.02272194  0.06559259  0.00000000       0.167
 
 k-points in reciprocal lattice and weights: Automatic mesh                          
   0.25000000  0.25000000  0.00000000       0.167
   0.00000000  0.25000000  0.00000000       0.167
  -0.25000000  0.00000000  0.00000000       0.167
  -0.25000000  0.25000000  0.00000000       0.167
   0.50000000 -0.25000000  0.00000000       0.167
  -0.25000000  0.50000000  0.00000000       0.167
 
 position of ions in fractional coordinates (direct lattice) 
   0.75000000  0.75000000  0.59169983
   0.75000000  0.50000000  0.59169983
   0.08333333  0.33333333  0.40830017
   0.91666667  0.41666667  0.50000000
   0.83333333  0.58333333  0.40830017
   0.75000000  0.25000000  0.59169983
   0.66666667  0.41666667  0.50000000
   0.08333333  0.83333333  0.40830017
   0.91666667  0.91666667  0.50000000
   0.00000000  0.75000000  0.59169983
   0.75000000  0.00000000  0.59169983
   0.50000000  0.00000000  0.59169983
   0.58333333  0.33333333  0.40830017
   0.50000000  0.75000000  0.59169983
   0.41666667  0.91666667  0.50000000
   0.58333333  0.83333333  0.40830017
   0.50000000  0.50000000  0.59169983
   0.41666667  0.66666667  0.50000000
   0.58333333  0.58333333  0.40830017
   0.50000000  0.25000000  0.59169983
   0.66666667  0.91666667  0.50000000
   0.58333333  0.08333333  0.40830017
   0.41666667  0.16666667  0.50000000
   0.83333333  0.08333333  0.40830017
   0.41666667  0.41666667  0.50000000
   0.16666667  0.16666667  0.50000000
   0.33333333  0.33333333  0.40830017
   0.16666667  0.41666667  0.50000000
   0.33333333  0.83333333  0.40830017
   0.33333333  0.58333333  0.40830017
   0.16666667  0.66666667  0.50000000
   0.25000000  0.50000000  0.59169983
   0.33333333  0.08333333  0.40830017
   0.25000000  0.25000000  0.59169983
   0.00000000  0.50000000  0.59169983
   0.91666667  0.16666667  0.50000000
   0.08333333  0.58333333  0.40830017
   0.00000000  0.25000000  0.59169983
   0.00000000  0.00000000  0.59169983
   0.16666667  0.91666667  0.50000000
   0.08333333  0.08333333  0.40830017
   0.83333333  0.33333333  0.40830017
   0.83333333  0.83333333  0.40830017
   0.66666667  0.66666667  0.50000000
   0.66666667  0.16666667  0.50000000
   0.25000000  0.00000000  0.59169983
   0.91666667  0.66666667  0.50000000
   0.25000000  0.75000000  0.59169983
 
 position of ions in cartesian coordinates  (Angst):
  12.37790420  7.14638632 14.49178509
  11.00258152  4.76425755 14.49178509
   2.75064538  3.17617170 10.00000000
  12.37790420  3.97021462 12.24589255
  12.37790420  5.55830047 10.00000000
   9.62725883  2.38212877 14.49178509
   9.62725883  3.97021462 12.24589255
   5.50129076  7.94042925 10.00000000
  15.12854958  8.73447217 12.24589255
   4.12596807  7.14638632 14.49178509
   8.25193614  0.00000000 14.49178509
   5.50129076  0.00000000 14.49178509
   8.25193614  3.17617170 10.00000000
   9.62725883  7.14638632 14.49178509
   9.62725883  8.73447217 12.24589255
  11.00258152  7.94042925 10.00000000
   8.25193614  4.76425755 14.49178509
   8.25193614  6.35234340 12.24589255
   9.62725883  5.55830047 10.00000000
   6.87661345  2.38212877 14.49178509
  12.37790420  8.73447217 12.24589255
   6.87661345  0.79404292 10.00000000
   5.50129076  1.58808585 12.24589255
   9.62725883  0.79404292 10.00000000
   6.87661345  3.97021462 12.24589255
   2.75064538  1.58808585 12.24589255
   5.50129076  3.17617170 10.00000000
   4.12596807  3.97021462 12.24589255
   8.25193614  7.94042925 10.00000000
   6.87661345  5.55830047 10.00000000
   5.50129076  6.35234340 12.24589255
   5.50129076  4.76425755 14.49178509
   4.12596807  0.79404292 10.00000000
   4.12596807  2.38212877 14.49178509
   2.75064538  4.76425755 14.49178509
  11.00258152  1.58808585 12.24589255
   4.12596807  5.55830047 10.00000000
   1.37532269  2.38212877 14.49178509
   0.00000000  0.00000000 14.49178509
   6.87661345  8.73447217 12.24589255
   1.37532269  0.79404292 10.00000000
  11.00258152  3.17617170 10.00000000
  13.75322689  7.94042925 10.00000000
  11.00258152  6.35234340 12.24589255
   8.25193614  1.58808585 12.24589255
   2.75064538  0.00000000 14.49178509
  13.75322689  6.35234340 12.24589255
   6.87661345  7.14638632 14.49178509
 


--------------------------------------------------------------------------------------------------------


 k-point  1 :   0.2500 0.2500 0.0000  plane waves:   46635
 k-point  2 :   0.0000 0.2500 0.0000  plane waves:   46635
 k-point  3 :  -0.2500 0.0000 0.0000  plane waves:   46635
 k-point  4 :  -0.2500 0.2500 0.0000  plane waves:   46644
 k-point  5 :   0.5000-0.2500 0.0000  plane waves:   46644
 k-point  6 :  -0.2500 0.5000 0.0000  plane waves:   46644

 maximum and minimum number of plane-waves per node :      7818     7732

 maximum number of plane-waves:     46644
 maximum index in each direction: 
   IXMAX=   18   IYMAX=   18   IZMAX=   39
   IXMIN=  -18   IYMIN=  -18   IZMIN=  -39

 WARNING: aliasing errors must be expected set NGX to  74 to avoid them
 WARNING: aliasing errors must be expected set NGY to  74 to avoid them
 WARNING: aliasing errors must be expected set NGZ to 158 to avoid them
 aliasing errors are usually negligible using standard VASP settings
 and one can safely disregard these warnings

 real space projection operators:
  total allocation   :      12803.06 KBytes
  max/ min on nodes  :       2145.66       2127.94


 parallel 3D FFT for wavefunctions:
    minimum data exchange during FFTs selected (reduces bandwidth)
 parallel 3D FFT for charge:
    minimum data exchange during FFTs selected (reduces bandwidth)


 total amount of memory used by VASP on root node    84353. kBytes
========================================================================

   base      :      30000. kBytes
   nonlr-proj:       4285. kBytes
   fftplans  :       4447. kBytes
   grid      :       6721. kBytes
   one-center:        124. kBytes
   wavefun   :      38776. kBytes
 
     INWAV:  cpu time    0.0000: real time    0.0000
 Broyden mixing: mesh for mixing (old mesh)
   NGX = 35   NGY = 35   NGZ = 79
  (NGX  =108   NGY  =108   NGZ  =240)
  gives a total of  96775 points

 initial charge density was supplied:
 charge density of overlapping atoms calculated
 number of electron     504.0000000 magnetization 
 keeping initial charge density in first step


--------------------------------------------------------------------------------------------------------


 Maximum index for non-local projection operator          355
 Maximum index for augmentation-charges          437 (set IRDMAX)


--------------------------------------------------------------------------------------------------------


 First call to EWALD:  gamma=   0.129
 Maximum number of real-space cells 4x 4x 2
 Maximum number of reciprocal cells 2x 2x 5

 FEWALD executed in parallel
    FEWALD:  cpu time    0.0033: real time    0.0034


----------------------------------------- Iteration    1(   1)  ---------------------------------------


    POTLOK:  cpu time    0.0485: real time    0.0487
    SETDIJ:  cpu time    0.0060: real time    0.0061
     EDDAV:  cpu time    7.0734: real time    7.1767
       DOS:  cpu time    0.0015: real time    0.0015
    --------------------------------------------
      LOOP:  cpu time    7.1327: real time    7.2400

 eigenvalue-minimisations  :  3672
 total energy-change (2. order) : 0.3200004E+04  (-0.1897955E+05)
 number of electron     504.0000000 magnetization 
 augmentation part      504.0000000 magnetization 

 DIPCOR: dipole corrections for dipol
 direction  3 min pos     1,
 dipolmoment           0.000000      0.000000     -0.000001 electrons x Angstroem
 Tr[quadrupol]    -10352.982621

 energy correction for charged system         0.000000 eV
 dipol+quadrupol energy correction           -0.000000 eV
 added-field ion interaction          0.000000 eV  (added to PSCEN)


 Free energy of the ion-electron system (eV)
  ---------------------------------------------------
  alpha Z        PSCENC =       805.86936440
  Ewald energy   TEWEN  =    199941.25421129
  -Hartree energ DENC   =   -242355.10661519
  -exchange      EXHF   =         0.00000000
  -V(xc)+E(xc)   XCENC  =      -327.69372238
  PAW double counting   =     40340.05962942   -38292.62782345
  entropy T*S    EENTRO =        -0.12704066
  eigenvalues    EBANDS =      1428.59007307
  atomic energy  EATOM  =     41659.78587232
  Solvation  Ediel_sol  =         0.00000000
  ---------------------------------------------------
  free energy    TOTEN  =      3200.00394883 eV

  energy without entropy =     3200.13098949  energy(sigma->0) =     3200.06746916


--------------------------------------------------------------------------------------------------------




----------------------------------------- Iteration    1(   2)  ---------------------------------------


     EDDAV:  cpu time    8.2625: real time    8.2901
       DOS:  cpu time    0.0016: real time    0.0016
    --------------------------------------------
      LOOP:  cpu time    8.2646: real time    8.2955

 eigenvalue-minimisations  :  4380
 total energy-change (2. order) :-0.3185423E+04  (-0.2931005E+04)
 number of electron     504.0000000 magnetization 
 augmentation part      504.0000000 magnetization 

 DIPCOR: dipole corrections for dipol
 direction  3 min pos     1,
 dipolmoment           0.000000      0.000000     -0.000001 electrons x Angstroem
 Tr[quadrupol]    -10352.982621

 energy correction for charged system         0.000000 eV
 dipol+quadrupol energy correction           -0.000000 eV
 added-field ion interaction          0.000000 eV  (added to PSCEN)


 Free energy of the ion-electron system (eV)
  ---------------------------------------------------
  alpha Z        PSCENC =       805.86936440
  Ewald energy   TEWEN  =    199941.25421129
  -Hartree energ DENC   =   -242355.10661519
  -exchange      EXHF   =         0.00000000
  -V(xc)+E(xc)   XCENC  =      -327.69372238
  PAW double counting   =     40340.05962942   -38292.62782345
  entropy T*S    EENTRO =        -0.12333103
  eigenvalues    EBANDS =     -1756.83670317
  atomic energy  EATOM  =     41659.78587232
  Solvation  Ediel_sol  =         0.00000000
  ---------------------------------------------------
  free energy    TOTEN  =        14.58088221 eV

  energy without entropy =       14.70421325  energy(sigma->0) =       14.64254773


--------------------------------------------------------------------------------------------------------




----------------------------------------- Iteration    1(   3)  ---------------------------------------


     EDDAV:  cpu time    7.9106: real time    7.9368
       DOS:  cpu time    0.0016: real time    0.0016
    --------------------------------------------
      LOOP:  cpu time    7.9132: real time    7.9414

 eigenvalue-minimisations  :  4116
 total energy-change (2. order) :-0.2160123E+03  (-0.2005280E+03)
 number of electron     504.0000000 magnetization 
 augmentation part      504.0000000 magnetization 

 DIPCOR: dipole corrections for dipol
 direction  3 min pos     1,
 dipolmoment           0.000000      0.000000     -0.000001 electrons x Angstroem
 Tr[quadrupol]    -10352.982621

 energy correction for charged system         0.000000 eV
 dipol+quadrupol energy correction           -0.000000 eV
 added-field ion interaction          0.000000 eV  (added to PSCEN)


 Free energy of the ion-electron system (eV)
  ---------------------------------------------------
  alpha Z        PSCENC =       805.86936440
  Ewald energy   TEWEN  =    199941.25421129
  -Hartree energ DENC   =   -242355.10661519
  -exchange      EXHF   =         0.00000000
  -V(xc)+E(xc)   XCENC  =      -327.69372238
  PAW double counting   =     40340.05962942   -38292.62782345
  entropy T*S    EENTRO =        -0.18904267
  eigenvalues    EBANDS =     -1972.78331484
  atomic energy  EATOM  =     41659.78587232
  Solvation  Ediel_sol  =         0.00000000
  ---------------------------------------------------
  free energy    TOTEN  =      -201.43144109 eV

  energy without entropy =     -201.24239842  energy(sigma->0) =     -201.33691975


--------------------------------------------------------------------------------------------------------




----------------------------------------- Iteration    1(   4)  ---------------------------------------


     EDDAV:  cpu time    8.1729: real time    8.1962
       DOS:  cpu time    0.0016: real time    0.0016
    --------------------------------------------
      LOOP:  cpu time    8.1752: real time    8.2009

 eigenvalue-minimisations  :  4260
 total energy-change (2. order) :-0.5911609E+01  (-0.5840721E+01)
 number of electron     504.0000000 magnetization 
 augmentation part      504.0000000 magnetization 

 DIPCOR: dipole corrections for dipol
 direction  3 min pos     1,
 dipolmoment           0.000000      0.000000     -0.000001 electrons x Angstroem
 Tr[quadrupol]    -10352.982621

 energy correction for charged system         0.000000 eV
 dipol+quadrupol energy correction           -0.000000 eV
 added-field ion interaction          0.000000 eV  (added to PSCEN)


 Free energy of the ion-electron system (eV)
  ---------------------------------------------------
  alpha Z        PSCENC =       805.86936440
  Ewald energy   TEWEN  =    199941.25421129
  -Hartree energ DENC   =   -242355.10661519
  -exchange      EXHF   =         0.00000000
  -V(xc)+E(xc)   XCENC  =      -327.69372238
  PAW double counting   =     40340.05962942   -38292.62782345
  entropy T*S    EENTRO =        -0.19753054
  eigenvalues    EBANDS =     -1978.68643646
  atomic energy  EATOM  =     41659.78587232
  Solvation  Ediel_sol  =         0.00000000
  ---------------------------------------------------
  free energy    TOTEN  =      -207.34305058 eV

  energy without entropy =     -207.14552004  energy(sigma->0) =     -207.24428531


--------------------------------------------------------------------------------------------------------




----------------------------------------- Iteration    1(   5)  ---------------------------------------


     EDDAV:  cpu time    8.3868: real time    8.4136
       DOS:  cpu time    0.0017: real time    0.0017
    CHARGE:  cpu time    0.2445: real time    0.2452
    MIXING:  cpu time    0.0021: real time    0.0023
    --------------------------------------------
      LOOP:  cpu time    8.6359: real time    8.6665

 eigenvalue-minimisations  :  4428
 total energy-change (2. order) :-0.1903587E+00  (-0.1897224E+00)
 number of electron     503.9998403 magnetization 
 augmentation part      191.2622490 magnetization 

 DIPCOR: dipole corrections for dipol
 direction  3 min pos     1,
 dipolmoment           0.000000      0.000000     -0.000001 electrons x Angstroem
 Tr[quadrupol]    -10352.982621

 energy correction for charged system         0.000000 eV
 dipol+quadrupol energy correction           -0.000000 eV
 added-field ion interaction          0.000000 eV  (added to PSCEN)


 Broyden mixing:
  rms(total) = 0.62301E+01    rms(broyden)= 0.62301E+01
  rms(prec ) = 0.63791E+01
  weight for this iteration     100.00

 Free energy of the ion-electron system (eV)
  ---------------------------------------------------
  alpha Z        PSCENC =       805.86936440
  Ewald energy   TEWEN  =    199941.25421129
  -Hartree energ DENC   =   -242355.10661519
  -exchange      EXHF   =         0.00000000
  -V(xc)+E(xc)   XCENC  =      -327.69372238
  PAW double counting   =     40340.05962942   -38292.62782345
  entropy T*S    EENTRO =        -0.19717901
  eigenvalues    EBANDS =     -1978.87714668
  atomic energy  EATOM  =     41659.78587232
  Solvation  Ediel_sol  =         0.00000000
  ---------------------------------------------------
  free energy    TOTEN  =      -207.53340927 eV

  energy without entropy =     -207.33623026  energy(sigma->0) =     -207.43481976


--------------------------------------------------------------------------------------------------------




----------------------------------------- Iteration    1(   6)  ---------------------------------------


    POTLOK:  cpu time    0.0441: real time    0.0443
    SETDIJ:  cpu time    0.0060: real time    0.0061
    EDDIAG:  cpu time    1.2852: real time    1.2887
  RMM-DIIS:  cpu time    3.4581: real time    3.5534
    ORTHCH:  cpu time    0.3197: real time    0.3206
       DOS:  cpu time    0.0018: real time    0.0018
    CHARGE:  cpu time    0.2479: real time    0.2486
    MIXING:  cpu time    0.0020: real time    0.0020
    --------------------------------------------
      LOOP:  cpu time    5.3655: real time    5.4691

 eigenvalue-minimisations  :  3679
 total energy-change (2. order) : 0.4805296E+01  (-0.9975155E+01)
 number of electron     503.9998423 magnetization 
 augmentation part      191.1534595 magnetization 

 DIPCOR: dipole corrections for dipol
 direction  3 min pos     1,
 dipolmoment           0.000000      0.000000     -0.340332 electrons x Angstroem
 Tr[quadrupol]    -10355.033846

 energy correction for charged system         0.000000 eV
 dipol+quadrupol energy correction           -0.004081 eV
 added-field ion interaction          0.053867 eV  (added to PSCEN)


 Broyden mixing:
  rms(total) = 0.56624E+01    rms(broyden)= 0.56622E+01
  rms(prec ) = 0.59034E+01
  weight for this iteration     100.00

 eigenvalues of (default mixing * dielectric matrix)
  average eigenvalue GAMMA=   0.6685
  0.6685

 Free energy of the ion-electron system (eV)
  ---------------------------------------------------
  alpha Z        PSCENC =       805.91915011
  Ewald energy   TEWEN  =    199941.25421129
  -Hartree energ DENC   =   -242124.21250811
  -exchange      EXHF   =         0.00000000
  -V(xc)+E(xc)   XCENC  =      -340.40534758
  PAW double counting   =     43908.17421787   -41920.24966028
  entropy T*S    EENTRO =        -0.26010468
  eigenvalues    EBANDS =     -2132.73394375
  atomic energy  EATOM  =     41659.78587232
  Solvation  Ediel_sol  =         0.00000000
  ---------------------------------------------------
  free energy    TOTEN  =      -202.72811281 eV

  energy without entropy =     -202.46800814  energy(sigma->0) =     -202.59806048


--------------------------------------------------------------------------------------------------------




----------------------------------------- Iteration    1(   7)  ---------------------------------------


    POTLOK:  cpu time    0.0426: real time    0.0427
    SETDIJ:  cpu time    0.0050: real time    0.0056
    EDDIAG:  cpu time    1.2798: real time    1.2838
  RMM-DIIS:  cpu time    3.4849: real time    3.4946
    ORTHCH:  cpu time    0.3255: real time    0.3264
       DOS:  cpu time    0.0017: real time    0.0017
    CHARGE:  cpu time    0.2547: real time    0.2563
    MIXING:  cpu time    0.0021: real time    0.0021
    --------------------------------------------
      LOOP:  cpu time    5.3970: real time    5.4163

 eigenvalue-minimisations  :  3683
 total energy-change (2. order) : 0.3876481E+01  (-0.5378092E+01)
 number of electron     503.9998364 magnetization 
 augmentation part      197.1408010 magnetization 

 DIPCOR: dipole corrections for dipol
 direction  3 min pos     1,
 dipolmoment           0.000000      0.000000      0.161727 electrons x Angstroem
 Tr[quadrupol]    -10352.766676

 energy correction for charged system         0.000000 eV
 dipol+quadrupol energy correction           -0.000922 eV
 added-field ion interaction         -0.025598 eV  (added to PSCEN)


 Broyden mixing:
  rms(total) = 0.37023E+01    rms(broyden)= 0.37021E+01
  rms(prec ) = 0.38649E+01
  weight for this iteration     100.00

 eigenvalues of (default mixing * dielectric matrix)
  average eigenvalue GAMMA=   1.0459
  1.6916  0.4003

 Free energy of the ion-electron system (eV)
  ---------------------------------------------------
  alpha Z        PSCENC =       805.84284465
  Ewald energy   TEWEN  =    199941.25421129
  -Hartree energ DENC   =   -241946.07493371
  -exchange      EXHF   =         0.00000000
  -V(xc)+E(xc)   XCENC  =      -342.53192910
  PAW double counting   =     45221.09272998   -43257.78827944
  entropy T*S    EENTRO =        -0.22115261
  eigenvalues    EBANDS =     -2280.21099545
  atomic energy  EATOM  =     41659.78587232
  Solvation  Ediel_sol  =         0.00000000
  ---------------------------------------------------
  free energy    TOTEN  =      -198.85163208 eV

  energy without entropy =     -198.63047946  energy(sigma->0) =     -198.74105577


--------------------------------------------------------------------------------------------------------




----------------------------------------- Iteration    1(   8)  ---------------------------------------


    POTLOK:  cpu time    0.0425: real time    0.0430
    SETDIJ:  cpu time    0.0063: real time    0.0064
    EDDIAG:  cpu time    1.2902: real time    1.2941
  RMM-DIIS:  cpu time    3.4819: real time    3.4932
    ORTHCH:  cpu time    0.3210: real time    0.3219
       DOS:  cpu time    0.0017: real time    0.0017
    CHARGE:  cpu time    0.2457: real time    0.2463
    MIXING:  cpu time    0.0021: real time    0.0021
    --------------------------------------------
      LOOP:  cpu time    5.3922: real time    5.4127

 eigenvalue-minimisations  :  3681
 total energy-change (2. order) :-0.2943113E+00  (-0.4490908E+01)
 number of electron     503.9998345 magnetization 
 augmentation part      198.1361018 magnetization 

 DIPCOR: dipole corrections for dipol
 direction  3 min pos     1,
 dipolmoment           0.000000      0.000000     -0.518030 electrons x Angstroem
 Tr[quadrupol]    -10355.074991

 energy correction for charged system         0.000000 eV
 dipol+quadrupol energy correction           -0.009456 eV
 added-field ion interaction          0.081993 eV  (added to PSCEN)


 Broyden mixing:
  rms(total) = 0.26152E+01    rms(broyden)= 0.26149E+01
  rms(prec ) = 0.29541E+01
  weight for this iteration     100.00

 eigenvalues of (default mixing * dielectric matrix)
  average eigenvalue GAMMA=   1.0249
  2.1866  0.4954  0.3928

 Free energy of the ion-electron system (eV)
  ---------------------------------------------------
  alpha Z        PSCENC =       805.94190123
  Ewald energy   TEWEN  =    199941.25421129
  -Hartree energ DENC   =   -241964.20445028
  -exchange      EXHF   =         0.00000000
  -V(xc)+E(xc)   XCENC  =      -344.55563032
  PAW double counting   =     47746.38991340   -45815.26101867
  entropy T*S    EENTRO =        -0.20828575
  eigenvalues    EBANDS =     -2228.28845661
  atomic energy  EATOM  =     41659.78587232
  Solvation  Ediel_sol  =         0.00000000
  ---------------------------------------------------
  free energy    TOTEN  =      -199.14594339 eV

  energy without entropy =     -198.93765763  energy(sigma->0) =     -199.04180051


--------------------------------------------------------------------------------------------------------




----------------------------------------- Iteration    1(   9)  ---------------------------------------


    POTLOK:  cpu time    0.0442: real time    0.0443
    SETDIJ:  cpu time    0.0055: real time    0.0055
    EDDIAG:  cpu time    1.2904: real time    1.2943
  RMM-DIIS:  cpu time    3.4956: real time    3.5044
    ORTHCH:  cpu time    0.3207: real time    0.3216
       DOS:  cpu time    0.0017: real time    0.0017
    CHARGE:  cpu time    0.2496: real time    0.2502
    MIXING:  cpu time    0.0022: real time    0.0022
    --------------------------------------------
      LOOP:  cpu time    5.4105: real time    5.4270

 eigenvalue-minimisations  :  3681
 total energy-change (2. order) :-0.1292250E+01  (-0.2592198E+01)
 number of electron     503.9998360 magnetization 
 augmentation part      196.7787075 magnetization 

 DIPCOR: dipole corrections for dipol
 direction  3 min pos     1,
 dipolmoment           0.000000      0.000000      1.008845 electrons x Angstroem
 Tr[quadrupol]    -10356.166661

 energy correction for charged system         0.000000 eV
 dipol+quadrupol energy correction           -0.035863 eV
 added-field ion interaction         -0.159678 eV  (added to PSCEN)


 Broyden mixing:
  rms(total) = 0.25108E+01    rms(broyden)= 0.25104E+01
  rms(prec ) = 0.31605E+01
  weight for this iteration     100.00

 eigenvalues of (default mixing * dielectric matrix)
  average eigenvalue GAMMA=   0.8778
  2.2781  0.5291  0.4067  0.2975

 Free energy of the ion-electron system (eV)
  ---------------------------------------------------
  alpha Z        PSCENC =       805.67382241
  Ewald energy   TEWEN  =    199941.25421129
  -Hartree energ DENC   =   -242006.10542589
  -exchange      EXHF   =         0.00000000
  -V(xc)+E(xc)   XCENC  =      -344.93356534
  PAW double counting   =     48928.32790085   -47009.59170647
  entropy T*S    EENTRO =        -0.19034518
  eigenvalues    EBANDS =     -2174.65895711
  atomic energy  EATOM  =     41659.78587232
  Solvation  Ediel_sol  =         0.00000000
  ---------------------------------------------------
  free energy    TOTEN  =      -200.43819313 eV

  energy without entropy =     -200.24784795  energy(sigma->0) =     -200.34302054


--------------------------------------------------------------------------------------------------------




----------------------------------------- Iteration    1(  10)  ---------------------------------------


    POTLOK:  cpu time    0.0425: real time    0.0429
    SETDIJ:  cpu time    0.0048: real time    0.0057
    EDDIAG:  cpu time    1.2832: real time    1.2864
  RMM-DIIS:  cpu time    3.5050: real time    3.5138
    ORTHCH:  cpu time    0.3203: real time    0.3211
       DOS:  cpu time    0.0017: real time    0.0018
    CHARGE:  cpu time    0.2453: real time    0.2460
    MIXING:  cpu time    0.0023: real time    0.0023
    --------------------------------------------
      LOOP:  cpu time    5.4060: real time    5.4244

 eigenvalue-minimisations  :  3681
 total energy-change (2. order) : 0.8063219E+01  (-0.1140033E+01)
 number of electron     503.9998351 magnetization 
 augmentation part      197.9003528 magnetization 

 DIPCOR: dipole corrections for dipol
 direction  3 min pos     1,
 dipolmoment           0.000000      0.000000     -0.367154 electrons x Angstroem
 Tr[quadrupol]    -10356.311808

 energy correction for charged system         0.000000 eV
 dipol+quadrupol energy correction           -0.004750 eV
 added-field ion interaction          0.058113 eV  (added to PSCEN)


 Broyden mixing:
  rms(total) = 0.14497E+01    rms(broyden)= 0.14493E+01
  rms(prec ) = 0.17018E+01
  weight for this iteration     100.00

 eigenvalues of (default mixing * dielectric matrix)
  average eigenvalue GAMMA=   0.7815
  2.2718  0.5286  0.5286  0.3591  0.2192

 Free energy of the ion-electron system (eV)
  ---------------------------------------------------
  alpha Z        PSCENC =       805.92272678
  Ewald energy   TEWEN  =    199941.25421129
  -Hartree energ DENC   =   -242011.71234443
  -exchange      EXHF   =         0.00000000
  -V(xc)+E(xc)   XCENC  =      -345.00999670
  PAW double counting   =     49169.95313586   -47254.14906032
  entropy T*S    EENTRO =        -0.21545947
  eigenvalues    EBANDS =     -2158.20405962
  atomic energy  EATOM  =     41659.78587232
  Solvation  Ediel_sol  =         0.00000000
  ---------------------------------------------------
  free energy    TOTEN  =      -192.37497429 eV

  energy without entropy =     -192.15951482  energy(sigma->0) =     -192.26724455


--------------------------------------------------------------------------------------------------------




----------------------------------------- Iteration    1(  11)  ---------------------------------------


    POTLOK:  cpu time    0.0420: real time    0.0421
    SETDIJ:  cpu time    0.0048: real time    0.0056
    EDDIAG:  cpu time    1.2806: real time    1.2838
  RMM-DIIS:  cpu time    3.5182: real time    3.5271
    ORTHCH:  cpu time    0.3208: real time    0.3218
       DOS:  cpu time    0.0016: real time    0.0016
    CHARGE:  cpu time    0.2443: real time    0.2449
    MIXING:  cpu time    0.0024: real time    0.0024
    --------------------------------------------
      LOOP:  cpu time    5.4155: real time    5.4326

 eigenvalue-minimisations  :  3681
 total energy-change (2. order) : 0.3109484E+01  (-0.3742395E+00)
 number of electron     503.9998353 magnetization 
 augmentation part      197.8591312 magnetization 

 DIPCOR: dipole corrections for dipol
 direction  3 min pos     1,
 dipolmoment           0.000000      0.000000     -0.019798 electrons x Angstroem
 Tr[quadrupol]    -10356.006700

 energy correction for charged system         0.000000 eV
 dipol+quadrupol energy correction           -0.000014 eV
 added-field ion interaction          0.003134 eV  (added to PSCEN)


 Broyden mixing:
  rms(total) = 0.70547E+00    rms(broyden)= 0.70522E+00
  rms(prec ) = 0.77034E+00
  weight for this iteration     100.00

 eigenvalues of (default mixing * dielectric matrix)
  average eigenvalue GAMMA=   0.7412
  2.2576  0.5880  0.5880  0.4892  0.2660  0.2581

 Free energy of the ion-electron system (eV)
  ---------------------------------------------------
  alpha Z        PSCENC =       805.87248401
  Ewald energy   TEWEN  =    199941.25421129
  -Hartree energ DENC   =   -242011.34570954
  -exchange      EXHF   =         0.00000000
  -V(xc)+E(xc)   XCENC  =      -344.70982039
  PAW double counting   =     49229.18231939   -47312.90312011
  entropy T*S    EENTRO =        -0.22103441
  eigenvalues    EBANDS =     -2156.18069328
  atomic energy  EATOM  =     41659.78587232
  Solvation  Ediel_sol  =         0.00000000
  ---------------------------------------------------
  free energy    TOTEN  =      -189.26549072 eV

  energy without entropy =     -189.04445631  energy(sigma->0) =     -189.15497352


--------------------------------------------------------------------------------------------------------




----------------------------------------- Iteration    1(  12)  ---------------------------------------


    POTLOK:  cpu time    0.0427: real time    0.0428
    SETDIJ:  cpu time    0.0055: real time    0.0055
    EDDIAG:  cpu time    1.2899: real time    1.2932
  RMM-DIIS:  cpu time    3.5282: real time    3.5389
    ORTHCH:  cpu time    0.3215: real time    0.3223
       DOS:  cpu time    0.0017: real time    0.0017
    CHARGE:  cpu time    0.2455: real time    0.2461
    MIXING:  cpu time    0.0026: real time    0.0026
    --------------------------------------------
      LOOP:  cpu time    5.4383: real time    5.4554

 eigenvalue-minimisations  :  3679
 total energy-change (2. order) : 0.3160591E+00  (-0.1535978E+00)
 number of electron     503.9998359 magnetization 
 augmentation part      197.3241203 magnetization 

 DIPCOR: dipole corrections for dipol
 direction  3 min pos     1,
 dipolmoment           0.000000      0.000000     -0.131312 electrons x Angstroem
 Tr[quadrupol]    -10356.318567

 energy correction for charged system         0.000000 eV
 dipol+quadrupol energy correction           -0.000608 eV
 added-field ion interaction          0.020784 eV  (added to PSCEN)


 Broyden mixing:
  rms(total) = 0.55347E+00    rms(broyden)= 0.55334E+00
  rms(prec ) = 0.63929E+00
  weight for this iteration     100.00

 eigenvalues of (default mixing * dielectric matrix)
  average eigenvalue GAMMA=   0.7267
  2.2397  0.8580  0.5770  0.5770  0.3082  0.3082  0.2187

 Free energy of the ion-electron system (eV)
  ---------------------------------------------------
  alpha Z        PSCENC =       805.88954059
  Ewald energy   TEWEN  =    199941.25421129
  -Hartree energ DENC   =   -242035.47629769
  -exchange      EXHF   =         0.00000000
  -V(xc)+E(xc)   XCENC  =      -344.33912236
  PAW double counting   =     49264.83744032   -47346.96209527
  entropy T*S    EENTRO =        -0.25228198
  eigenvalues    EBANDS =     -2133.68669881
  atomic energy  EATOM  =     41659.78587232
  Solvation  Ediel_sol  =         0.00000000
  ---------------------------------------------------
  free energy    TOTEN  =      -188.94943159 eV

  energy without entropy =     -188.69714961  energy(sigma->0) =     -188.82329060


--------------------------------------------------------------------------------------------------------




----------------------------------------- Iteration    1(  13)  ---------------------------------------


    POTLOK:  cpu time    0.0420: real time    0.0421
    SETDIJ:  cpu time    0.0056: real time    0.0056
    EDDIAG:  cpu time    1.2858: real time    1.2891
  RMM-DIIS:  cpu time    3.4816: real time    3.5160
    ORTHCH:  cpu time    0.3037: real time    0.3366
       DOS:  cpu time    0.0019: real time    0.0020
    CHARGE:  cpu time    0.2539: real time    0.2831
    MIXING:  cpu time    0.0028: real time    0.0029
    --------------------------------------------
      LOOP:  cpu time    5.3779: real time    5.4806

 eigenvalue-minimisations  :  3679
 total energy-change (2. order) : 0.6486388E-01  (-0.6615412E-01)
 number of electron     503.9998362 magnetization 
 augmentation part      196.9726222 magnetization 

 DIPCOR: dipole corrections for dipol
 direction  3 min pos     1,
 dipolmoment           0.000000      0.000000     -0.027035 electrons x Angstroem
 Tr[quadrupol]    -10356.726670

 energy correction for charged system         0.000000 eV
 dipol+quadrupol energy correction           -0.000026 eV
 added-field ion interaction          0.004279 eV  (added to PSCEN)


 Broyden mixing:
  rms(total) = 0.53296E+00    rms(broyden)= 0.53283E+00
  rms(prec ) = 0.59184E+00
  weight for this iteration     100.00

 eigenvalues of (default mixing * dielectric matrix)
  average eigenvalue GAMMA=   0.7116
  2.2183  0.9654  0.6943  0.6943  0.3270  0.3270  0.2638  0.2026

 Free energy of the ion-electron system (eV)
  ---------------------------------------------------
  alpha Z        PSCENC =       805.87361752
  Ewald energy   TEWEN  =    199941.25421129
  -Hartree energ DENC   =   -242058.99759381
  -exchange      EXHF   =         0.00000000
  -V(xc)+E(xc)   XCENC  =      -344.06305058
  PAW double counting   =     49291.67699041   -47372.47267968
  entropy T*S    EENTRO =        -0.22817340
  eigenvalues    EBANDS =     -2111.71376178
  atomic energy  EATOM  =     41659.78587232
  Solvation  Ediel_sol  =         0.00000000
  ---------------------------------------------------
  free energy    TOTEN  =      -188.88456771 eV

  energy without entropy =     -188.65639431  energy(sigma->0) =     -188.77048101


--------------------------------------------------------------------------------------------------------




----------------------------------------- Iteration    1(  14)  ---------------------------------------


    POTLOK:  cpu time    0.0415: real time    0.0432
    SETDIJ:  cpu time    0.0049: real time    0.0058
    EDDIAG:  cpu time    1.2812: real time    1.2878
  RMM-DIIS:  cpu time    3.4807: real time    3.4911
    ORTHCH:  cpu time    0.3214: real time    0.3223
       DOS:  cpu time    0.0018: real time    0.0018
    CHARGE:  cpu time    0.2431: real time    0.2437
    MIXING:  cpu time    0.0030: real time    0.0030
    --------------------------------------------
      LOOP:  cpu time    5.3782: real time    5.4027

 eigenvalue-minimisations  :  3681
 total energy-change (2. order) : 0.1210186E+00  (-0.2800468E-01)
 number of electron     503.9998362 magnetization 
 augmentation part      196.9523744 magnetization 

 DIPCOR: dipole corrections for dipol
 direction  3 min pos     1,
 dipolmoment           0.000000      0.000000     -0.009638 electrons x Angstroem
 Tr[quadrupol]    -10356.783987

 energy correction for charged system         0.000000 eV
 dipol+quadrupol energy correction           -0.000003 eV
 added-field ion interaction          0.001526 eV  (added to PSCEN)


 Broyden mixing:
  rms(total) = 0.42151E+00    rms(broyden)= 0.42143E+00
  rms(prec ) = 0.46840E+00
  weight for this iteration     100.00

 eigenvalues of (default mixing * dielectric matrix)
  average eigenvalue GAMMA=   0.7236
  2.2070  0.9935  0.9935  0.8888  0.3503  0.3503  0.3118  0.2160  0.2016

 Free energy of the ion-electron system (eV)
  ---------------------------------------------------
  alpha Z        PSCENC =       805.87088656
  Ewald energy   TEWEN  =    199941.25421129
  -Hartree energ DENC   =   -242064.74831300
  -exchange      EXHF   =         0.00000000
  -V(xc)+E(xc)   XCENC  =      -343.92775909
  PAW double counting   =     49298.85102526   -47378.98766053
  entropy T*S    EENTRO =        -0.24364085
  eigenvalues    EBANDS =     -2106.61817109
  atomic energy  EATOM  =     41659.78587232
  Solvation  Ediel_sol  =         0.00000000
  ---------------------------------------------------
  free energy    TOTEN  =      -188.76354912 eV

  energy without entropy =     -188.51990827  energy(sigma->0) =     -188.64172870


--------------------------------------------------------------------------------------------------------




----------------------------------------- Iteration    1(  15)  ---------------------------------------


    POTLOK:  cpu time    0.0442: real time    0.0444
    SETDIJ:  cpu time    0.0062: real time    0.0062
    EDDIAG:  cpu time    1.2775: real time    1.2815
  RMM-DIIS:  cpu time    3.4914: real time    3.5009
    ORTHCH:  cpu time    0.3161: real time    0.3171
       DOS:  cpu time    0.0017: real time    0.0017
    CHARGE:  cpu time    0.2451: real time    0.2456
    MIXING:  cpu time    0.0031: real time    0.0031
    --------------------------------------------
      LOOP:  cpu time    5.3861: real time    5.4029

 eigenvalue-minimisations  :  3681
 total energy-change (2. order) : 0.4966902E-01  (-0.2525749E-01)
 number of electron     503.9998362 magnetization 
 augmentation part      196.9983603 magnetization 

 DIPCOR: dipole corrections for dipol
 direction  3 min pos     1,
 dipolmoment           0.000000      0.000000     -0.024299 electrons x Angstroem
 Tr[quadrupol]    -10356.962245

 energy correction for charged system         0.000000 eV
 dipol+quadrupol energy correction           -0.000021 eV
 added-field ion interaction          0.003846 eV  (added to PSCEN)


 Broyden mixing:
  rms(total) = 0.29331E+00    rms(broyden)= 0.29320E+00
  rms(prec ) = 0.32441E+00
  weight for this iteration     100.00

 eigenvalues of (default mixing * dielectric matrix)
  average eigenvalue GAMMA=   0.7555
  2.2075  1.4029  1.4029  0.6904  0.4851  0.3822  0.2961  0.2961  0.1957  0.1957

 Free energy of the ion-electron system (eV)
  ---------------------------------------------------
  alpha Z        PSCENC =       805.87318947
  Ewald energy   TEWEN  =    199941.25421129
  -Hartree energ DENC   =   -242072.50592780
  -exchange      EXHF   =         0.00000000
  -V(xc)+E(xc)   XCENC  =      -343.82346024
  PAW double counting   =     49311.23566277   -47390.74551879
  entropy T*S    EENTRO =        -0.26058446
  eigenvalues    EBANDS =     -2099.52732466
  atomic energy  EATOM  =     41659.78587232
  Solvation  Ediel_sol  =         0.00000000
  ---------------------------------------------------
  free energy    TOTEN  =      -188.71388010 eV

  energy without entropy =     -188.45329564  energy(sigma->0) =     -188.58358787


--------------------------------------------------------------------------------------------------------




----------------------------------------- Iteration    1(  16)  ---------------------------------------


    POTLOK:  cpu time    0.0424: real time    0.0425
    SETDIJ:  cpu time    0.0056: real time    0.0065
    EDDIAG:  cpu time    1.2873: real time    1.2914
  RMM-DIIS:  cpu time    3.5341: real time    3.5449
    ORTHCH:  cpu time    0.3166: real time    0.3174
       DOS:  cpu time    0.0016: real time    0.0017
    CHARGE:  cpu time    0.2452: real time    0.2457
    MIXING:  cpu time    0.0031: real time    0.0031
    --------------------------------------------
      LOOP:  cpu time    5.4366: real time    5.4565

 eigenvalue-minimisations  :  3679
 total energy-change (2. order) : 0.4759548E-01  (-0.1109812E-01)
 number of electron     503.9998361 magnetization 
 augmentation part      197.0860632 magnetization 

 DIPCOR: dipole corrections for dipol
 direction  3 min pos     1,
 dipolmoment           0.000000      0.000000     -0.037669 electrons x Angstroem
 Tr[quadrupol]    -10357.228281

 energy correction for charged system         0.000000 eV
 dipol+quadrupol energy correction           -0.000050 eV
 added-field ion interaction          0.005962 eV  (added to PSCEN)


 Broyden mixing:
  rms(total) = 0.16492E+00    rms(broyden)= 0.16488E+00
  rms(prec ) = 0.19022E+00
  weight for this iteration     100.00

 eigenvalues of (default mixing * dielectric matrix)
  average eigenvalue GAMMA=   0.7531
  2.1781  1.8016  1.3180  0.6452  0.6452  0.3800  0.3185  0.3185  0.2778  0.2136
  0.1876

 Free energy of the ion-electron system (eV)
  ---------------------------------------------------
  alpha Z        PSCENC =       805.87527643
  Ewald energy   TEWEN  =    199941.25421129
  -Hartree energ DENC   =   -242082.93136235
  -exchange      EXHF   =         0.00000000
  -V(xc)+E(xc)   XCENC  =      -343.74174730
  PAW double counting   =     49330.59254341   -47409.53579746
  entropy T*S    EENTRO =        -0.25621151
  eigenvalues    EBANDS =     -2089.70906945
  atomic energy  EATOM  =     41659.78587232
  Solvation  Ediel_sol  =         0.00000000
  ---------------------------------------------------
  free energy    TOTEN  =      -188.66628462 eV

  energy without entropy =     -188.41007310  energy(sigma->0) =     -188.53817886


--------------------------------------------------------------------------------------------------------




----------------------------------------- Iteration    1(  17)  ---------------------------------------


    POTLOK:  cpu time    0.0434: real time    0.0446
    SETDIJ:  cpu time    0.0048: real time    0.0056
    EDDIAG:  cpu time    1.2882: real time    1.2915
  RMM-DIIS:  cpu time    3.4896: real time    3.4989
    ORTHCH:  cpu time    0.3163: real time    0.3172
       DOS:  cpu time    0.0017: real time    0.0017
    CHARGE:  cpu time    0.2457: real time    0.2464
    MIXING:  cpu time    0.0033: real time    0.0033
    --------------------------------------------
      LOOP:  cpu time    5.3938: real time    5.4115

 eigenvalue-minimisations  :  3680
 total energy-change (2. order) : 0.2263643E-01  (-0.3202047E-02)
 number of electron     503.9998361 magnetization 
 augmentation part      197.0784333 magnetization 

 DIPCOR: dipole corrections for dipol
 direction  3 min pos     1,
 dipolmoment           0.000000      0.000000     -0.041984 electrons x Angstroem
 Tr[quadrupol]    -10357.359876

 energy correction for charged system         0.000000 eV
 dipol+quadrupol energy correction           -0.000062 eV
 added-field ion interaction          0.006645 eV  (added to PSCEN)


 Broyden mixing:
  rms(total) = 0.10734E+00    rms(broyden)= 0.10732E+00
  rms(prec ) = 0.12814E+00
  weight for this iteration     100.00

 eigenvalues of (default mixing * dielectric matrix)
  average eigenvalue GAMMA=   0.7562
  2.1631  2.1631  1.3070  0.6929  0.6929  0.4066  0.3315  0.3315  0.3325  0.2598
  0.2038  0.1898

 Free energy of the ion-electron system (eV)
  ---------------------------------------------------
  alpha Z        PSCENC =       805.87594734
  Ewald energy   TEWEN  =    199941.25421129
  -Hartree energ DENC   =   -242088.36352516
  -exchange      EXHF   =         0.00000000
  -V(xc)+E(xc)   XCENC  =      -343.71182847
  PAW double counting   =     49336.82385566   -47415.54855855
  entropy T*S    EENTRO =        -0.25801894
  eigenvalues    EBANDS =     -2084.50160366
  atomic energy  EATOM  =     41659.78587232
  Solvation  Ediel_sol  =         0.00000000
  ---------------------------------------------------
  free energy    TOTEN  =      -188.64364819 eV

  energy without entropy =     -188.38562924  energy(sigma->0) =     -188.51463871


--------------------------------------------------------------------------------------------------------




----------------------------------------- Iteration    1(  18)  ---------------------------------------


    POTLOK:  cpu time    0.0430: real time    0.0433
    SETDIJ:  cpu time    0.0055: real time    0.0057
    EDDIAG:  cpu time    1.2796: real time    1.2826
  RMM-DIIS:  cpu time    3.4587: real time    3.4908
    ORTHCH:  cpu time    0.3149: real time    0.3187
       DOS:  cpu time    0.0018: real time    0.0018
    CHARGE:  cpu time    0.2395: real time    0.2429
    MIXING:  cpu time    0.0034: real time    0.0036
    --------------------------------------------
      LOOP:  cpu time    5.3470: real time    5.3927

 eigenvalue-minimisations  :  3682
 total energy-change (2. order) : 0.6070395E-02  (-0.1378887E-02)
 number of electron     503.9998361 magnetization 
 augmentation part      197.0642667 magnetization 

 DIPCOR: dipole corrections for dipol
 direction  3 min pos     1,
 dipolmoment           0.000000      0.000000     -0.025200 electrons x Angstroem
 Tr[quadrupol]    -10357.491009

 energy correction for charged system         0.000000 eV
 dipol+quadrupol energy correction           -0.000022 eV
 added-field ion interaction          0.003989 eV  (added to PSCEN)


 Broyden mixing:
  rms(total) = 0.83076E-01    rms(broyden)= 0.83051E-01
  rms(prec ) = 0.94824E-01
  weight for this iteration     100.00

 eigenvalues of (default mixing * dielectric matrix)
  average eigenvalue GAMMA=   0.7547
  2.2622  2.2622  1.2700  0.7580  0.7580  0.5999  0.3752  0.3292  0.3292  0.2699
  0.1845  0.2104  0.2028

 Free energy of the ion-electron system (eV)
  ---------------------------------------------------
  alpha Z        PSCENC =       805.87333051
  Ewald energy   TEWEN  =    199941.25421129
  -Hartree energ DENC   =   -242093.61951784
  -exchange      EXHF   =         0.00000000
  -V(xc)+E(xc)   XCENC  =      -343.69213351
  PAW double counting   =     49342.12876336   -47420.72056509
  entropy T*S    EENTRO =        -0.26195628
  eigenvalues    EBANDS =     -2079.38558255
  atomic energy  EATOM  =     41659.78587232
  Solvation  Ediel_sol  =         0.00000000
  ---------------------------------------------------
  free energy    TOTEN  =      -188.63757779 eV

  energy without entropy =     -188.37562151  energy(sigma->0) =     -188.50659965


--------------------------------------------------------------------------------------------------------




----------------------------------------- Iteration    1(  19)  ---------------------------------------


    POTLOK:  cpu time    0.0422: real time    0.0427
    SETDIJ:  cpu time    0.0054: real time    0.0055
    EDDIAG:  cpu time    1.2723: real time    1.2893
  RMM-DIIS:  cpu time    3.5155: real time    3.5317
    ORTHCH:  cpu time    0.3165: real time    0.3174
       DOS:  cpu time    0.0017: real time    0.0017
    CHARGE:  cpu time    0.2450: real time    0.2455
    MIXING:  cpu time    0.0036: real time    0.0036
    --------------------------------------------
      LOOP:  cpu time    5.4029: real time    5.4409

 eigenvalue-minimisations  :  3679
 total energy-change (2. order) : 0.5305768E-02  (-0.6029869E-03)
 number of electron     503.9998361 magnetization 
 augmentation part      197.0395900 magnetization 

 DIPCOR: dipole corrections for dipol
 direction  3 min pos     1,
 dipolmoment           0.000000      0.000000     -0.018925 electrons x Angstroem
 Tr[quadrupol]    -10357.590867

 energy correction for charged system         0.000000 eV
 dipol+quadrupol energy correction           -0.000013 eV
 added-field ion interaction          0.002995 eV  (added to PSCEN)


 Broyden mixing:
  rms(total) = 0.39753E-01    rms(broyden)= 0.39738E-01
  rms(prec ) = 0.44176E-01
  weight for this iteration     100.00

 eigenvalues of (default mixing * dielectric matrix)
  average eigenvalue GAMMA=   0.7477
  2.3240  2.3240  1.2009  0.8513  0.8513  0.6911  0.3809  0.3398  0.3398  0.2894
  0.2894  0.2082  0.1950  0.1823

 Free energy of the ion-electron system (eV)
  ---------------------------------------------------
  alpha Z        PSCENC =       805.87234705
  Ewald energy   TEWEN  =    199941.25421129
  -Hartree energ DENC   =   -242098.03497141
  -exchange      EXHF   =         0.00000000
  -V(xc)+E(xc)   XCENC  =      -343.66927833
  PAW double counting   =     49344.33622770   -47422.83010075
  entropy T*S    EENTRO =        -0.26134683
  eigenvalues    EBANDS =     -2075.08523307
  atomic energy  EATOM  =     41659.78587232
  Solvation  Ediel_sol  =         0.00000000
  ---------------------------------------------------
  free energy    TOTEN  =      -188.63227202 eV

  energy without entropy =     -188.37092520  energy(sigma->0) =     -188.50159861


--------------------------------------------------------------------------------------------------------




----------------------------------------- Iteration    1(  20)  ---------------------------------------


    POTLOK:  cpu time    0.0422: real time    0.0423
    SETDIJ:  cpu time    0.0055: real time    0.0055
    EDDIAG:  cpu time    1.2902: real time    1.2935
  RMM-DIIS:  cpu time    3.5191: real time    3.5277
    ORTHCH:  cpu time    0.3166: real time    0.3175
       DOS:  cpu time    0.0018: real time    0.0018
    CHARGE:  cpu time    0.2438: real time    0.2443
    MIXING:  cpu time    0.0037: real time    0.0037
    --------------------------------------------
      LOOP:  cpu time    5.4235: real time    5.4387

 eigenvalue-minimisations  :  3679
 total energy-change (2. order) : 0.1079373E-02  (-0.2612641E-03)
 number of electron     503.9998362 magnetization 
 augmentation part      197.0248382 magnetization 

 DIPCOR: dipole corrections for dipol
 direction  3 min pos     1,
 dipolmoment           0.000000      0.000000     -0.016675 electrons x Angstroem
 Tr[quadrupol]    -10357.658419

 energy correction for charged system         0.000000 eV
 dipol+quadrupol energy correction           -0.000010 eV
 added-field ion interaction          0.002639 eV  (added to PSCEN)


 Broyden mixing:
  rms(total) = 0.22883E-01    rms(broyden)= 0.22874E-01
  rms(prec ) = 0.26077E-01
  weight for this iteration     100.00

 eigenvalues of (default mixing * dielectric matrix)
  average eigenvalue GAMMA=   0.7619
  2.5304  2.2872  1.1071  1.1071  0.8300  0.8300  0.5681  0.3881  0.3265  0.3265
  0.2693  0.2693  0.2090  0.1962  0.1840

 Free energy of the ion-electron system (eV)
  ---------------------------------------------------
  alpha Z        PSCENC =       805.87199371
  Ewald energy   TEWEN  =    199941.25421129
  -Hartree energ DENC   =   -242101.04197955
  -exchange      EXHF   =         0.00000000
  -V(xc)+E(xc)   XCENC  =      -343.65264893
  PAW double counting   =     49344.93945771   -47423.39686222
  entropy T*S    EENTRO =        -0.25982033
  eigenvalues    EBANDS =     -2072.13141664
  atomic energy  EATOM  =     41659.78587232
  Solvation  Ediel_sol  =         0.00000000
  ---------------------------------------------------
  free energy    TOTEN  =      -188.63119265 eV

  energy without entropy =     -188.37137232  energy(sigma->0) =     -188.50128248


--------------------------------------------------------------------------------------------------------




----------------------------------------- Iteration    1(  21)  ---------------------------------------


    POTLOK:  cpu time    0.0425: real time    0.0426
    SETDIJ:  cpu time    0.0057: real time    0.0057
    EDDIAG:  cpu time    1.2836: real time    1.2976
  RMM-DIIS:  cpu time    3.3973: real time    3.4885
    ORTHCH:  cpu time    0.3170: real time    0.3177
       DOS:  cpu time    0.0017: real time    0.0017
    CHARGE:  cpu time    0.2455: real time    0.2460
    MIXING:  cpu time    0.0040: real time    0.0040
    --------------------------------------------
      LOOP:  cpu time    5.2979: real time    5.4072

 eigenvalue-minimisations  :  3683
 total energy-change (2. order) : 0.2283771E-03  (-0.7402652E-04)
 number of electron     503.9998362 magnetization 
 augmentation part      197.0218931 magnetization 

 DIPCOR: dipole corrections for dipol
 direction  3 min pos     1,
 dipolmoment           0.000000      0.000000     -0.016468 electrons x Angstroem
 Tr[quadrupol]    -10357.767292

 energy correction for charged system         0.000000 eV
 dipol+quadrupol energy correction           -0.000010 eV
 added-field ion interaction          0.002607 eV  (added to PSCEN)


 Broyden mixing:
  rms(total) = 0.17363E-01    rms(broyden)= 0.17359E-01
  rms(prec ) = 0.19843E-01
  weight for this iteration     100.00

 eigenvalues of (default mixing * dielectric matrix)
  average eigenvalue GAMMA=   0.7754
  2.6249  2.2604  1.3875  1.3875  0.7765  0.7765  0.5220  0.5220  0.3333  0.3333
  0.3395  0.2871  0.2705  0.2086  0.1947  0.1829

 Free energy of the ion-electron system (eV)
  ---------------------------------------------------
  alpha Z        PSCENC =       805.87196125
  Ewald energy   TEWEN  =    199941.25421129
  -Hartree energ DENC   =   -242105.31871219
  -exchange      EXHF   =         0.00000000
  -V(xc)+E(xc)   XCENC  =      -343.64140515
  PAW double counting   =     49346.45357177   -47424.93505003
  entropy T*S    EENTRO =        -0.25918946
  eigenvalues    EBANDS =     -2067.84222408
  atomic energy  EATOM  =     41659.78587232
  Solvation  Ediel_sol  =         0.00000000
  ---------------------------------------------------
  free energy    TOTEN  =      -188.63096427 eV

  energy without entropy =     -188.37177482  energy(sigma->0) =     -188.50136955


--------------------------------------------------------------------------------------------------------




----------------------------------------- Iteration    1(  22)  ---------------------------------------


    POTLOK:  cpu time    0.0441: real time    0.0443
    SETDIJ:  cpu time    0.0057: real time    0.0057
    EDDIAG:  cpu time    1.2738: real time    1.2772
  RMM-DIIS:  cpu time    3.4745: real time    3.4894
    ORTHCH:  cpu time    0.3174: real time    0.3181
       DOS:  cpu time    0.0018: real time    0.0018
    CHARGE:  cpu time    0.2440: real time    0.2446
    MIXING:  cpu time    0.0042: real time    0.0043
    --------------------------------------------
      LOOP:  cpu time    5.3664: real time    5.3896

 eigenvalue-minimisations  :  3679
 total energy-change (2. order) :-0.8508705E-04  (-0.4932556E-04)
 number of electron     503.9998362 magnetization 
 augmentation part      197.0245129 magnetization 

 DIPCOR: dipole corrections for dipol
 direction  3 min pos     1,
 dipolmoment           0.000000      0.000000     -0.017719 electrons x Angstroem
 Tr[quadrupol]    -10357.842860

 energy correction for charged system         0.000000 eV
 dipol+quadrupol energy correction           -0.000011 eV
 added-field ion interaction          0.002804 eV  (added to PSCEN)


 Broyden mixing:
  rms(total) = 0.14799E-01    rms(broyden)= 0.14796E-01
  rms(prec ) = 0.17511E-01
  weight for this iteration     100.00

 eigenvalues of (default mixing * dielectric matrix)
  average eigenvalue GAMMA=   0.7914
  2.5028  2.2798  1.8352  1.3976  0.7639  0.7639  0.7237  0.7237  0.3718  0.3294
  0.3294  0.3194  0.2676  0.2591  0.2085  0.1951  0.1832

 Free energy of the ion-electron system (eV)
  ---------------------------------------------------
  alpha Z        PSCENC =       805.87215771
  Ewald energy   TEWEN  =    199941.25421129
  -Hartree energ DENC   =   -242108.31382767
  -exchange      EXHF   =         0.00000000
  -V(xc)+E(xc)   XCENC  =      -343.63514116
  PAW double counting   =     49346.03610973   -47424.56447492
  entropy T*S    EENTRO =        -0.25875227
  eigenvalues    EBANDS =     -2064.80720440
  atomic energy  EATOM  =     41659.78587232
  Solvation  Ediel_sol  =         0.00000000
  ---------------------------------------------------
  free energy    TOTEN  =      -188.63104936 eV

  energy without entropy =     -188.37229709  energy(sigma->0) =     -188.50167323


--------------------------------------------------------------------------------------------------------




----------------------------------------- Iteration    1(  23)  ---------------------------------------


    POTLOK:  cpu time    0.0434: real time    0.0443
    SETDIJ:  cpu time    0.0057: real time    0.0057
    EDDIAG:  cpu time    1.2760: real time    1.2803
  RMM-DIIS:  cpu time    3.5220: real time    3.5310
[...]
    275       1.8522      0.00000
    276       1.8701      0.00000
    277       2.2330      0.00000
    278       2.2995      0.00000
    279       2.3269      0.00000
    280       2.3892      0.00000
    281       2.5145      0.00000
    282       2.5858      0.00000
    283       2.7347      0.00000
    284       2.9586      0.00000
    285       3.1054      0.00000
    286       3.3013      0.00000
    287       3.5303      0.00000
    288       3.6354      0.00000
    289       3.7187      0.00000
    290       3.8688      0.00000
    291       4.1753      0.00000
    292       4.1927      0.00000
    293       4.4316      0.00000
    294       4.5543      0.00000
    295       4.5949      0.00000
    296       4.6346      0.00000
    297       4.6615      0.00000
    298       4.6839      0.00000
    299       4.8219      0.00000
    300       4.9088      0.00000
    301       5.0368      0.00000
    302       5.0406      0.00000
    303       5.0774      0.00000
    304       5.1234      0.00000
    305       5.1808      0.00000
    306       5.2369      0.00000


--------------------------------------------------------------------------------------------------------


 soft charge-density along one line, spin component           1
         0         1         2         3         4         5         6         7         8         9
 total charge-density along one line
 
 pseudopotential strength for first ion, spin component:           1
 -8.069   0.003   0.005  -0.004   0.002  -8.215   0.003   0.005
  0.003  -7.995   0.001  -0.004  -0.001   0.003  -8.143   0.001
  0.005   0.001  -7.990  -0.001   0.000   0.005   0.001  -8.139
 -0.004  -0.004  -0.001  -7.995   0.001  -0.004  -0.004  -0.001
  0.002  -0.001   0.000   0.001  -8.069   0.002  -0.001   0.000
 -8.215   0.003   0.005  -0.004   0.002  -8.345   0.003   0.005
  0.003  -8.143   0.001  -0.004  -0.001   0.003  -8.275   0.001
  0.005   0.001  -8.139  -0.001   0.000   0.005   0.001  -8.270
 -0.004  -0.004  -0.001  -8.143   0.001  -0.004  -0.004  -0.001
  0.002  -0.001   0.000   0.001  -8.215   0.002  -0.001   0.000
  0.003   0.001  -0.025  -0.001   0.000   0.003   0.001  -0.025
  0.004   0.002  -0.036  -0.001   0.001   0.004   0.002  -0.036
 -0.002   0.005  -0.002  -0.000  -0.004  -0.002   0.004  -0.002
 -0.000   0.004   0.007  -0.002   0.000  -0.000   0.004   0.007
  0.004  -0.000   0.001   0.005  -0.001   0.003  -0.000   0.001
 -0.002   0.005  -0.002  -0.000  -0.004  -0.002   0.004  -0.002
 -0.000   0.005   0.008  -0.002   0.000  -0.000   0.004   0.007
  0.004  -0.000   0.001   0.005  -0.002   0.004  -0.000   0.001
 total augmentation occupancy for first ion, spin component:           1
  4.446   0.017  -0.108   0.008  -0.086  -2.606   0.008   0.128  -0.056   0.108  -0.153   0.057   0.041  -0.005   0.012  -0.004
  0.017   4.071  -0.069  -0.004   0.032   0.008  -1.812   0.082  -0.009  -0.050  -0.017  -0.027   0.129  -0.017  -0.012  -0.003
 -0.108  -0.069   4.448  -0.016  -0.076   0.128   0.082  -2.331  -0.004   0.072   1.077  -0.180   0.002   0.221  -0.003  -0.002
  0.008  -0.004  -0.016   3.961  -0.009  -0.055  -0.009  -0.004  -1.706   0.009   0.034  -0.007  -0.012   0.000   0.123   0.000
 -0.086   0.032  -0.076  -0.009   4.592   0.108  -0.051   0.072   0.009  -2.736  -0.032   0.013   0.024  -0.007  -0.022  -0.005
 -2.606   0.008   0.128  -0.055   0.108   2.652  -0.027  -0.144   0.091  -0.126   0.143  -0.055  -0.033   0.007  -0.016   0.002
  0.008  -1.812   0.082  -0.009  -0.051  -0.027   1.522  -0.091   0.020   0.064   0.016   0.022  -0.118   0.013   0.012   0.005
  0.128   0.082  -2.331  -0.004   0.072  -0.144  -0.091   2.156   0.019  -0.067  -1.003   0.198   0.001  -0.229   0.000   0.000
 -0.056  -0.009  -0.004  -1.706   0.009   0.091   0.020   0.019   1.423  -0.008  -0.029   0.007   0.012  -0.002  -0.115  -0.000
  0.108  -0.050   0.072   0.009  -2.736  -0.126   0.064  -0.067  -0.008   2.768   0.026  -0.013  -0.018   0.005   0.020   0.002
 -0.153  -0.017   1.077   0.034  -0.032   0.143   0.016  -1.003  -0.029   0.026   2.435  -0.533   0.000  -0.105  -0.005   0.000
  0.057  -0.027  -0.180  -0.007   0.013  -0.055   0.022   0.198   0.007  -0.013  -0.533   0.159  -0.012   0.046   0.007   0.000
  0.041   0.129   0.002  -0.012   0.024  -0.033  -0.118   0.001   0.012  -0.018   0.000  -0.012   0.190   0.004   0.007  -0.006
 -0.005  -0.017   0.221   0.000  -0.007   0.007   0.013  -0.229  -0.002   0.005  -0.105   0.046   0.004   0.091  -0.001  -0.000
  0.012  -0.012  -0.003   0.123  -0.022  -0.016   0.012   0.000  -0.115   0.020  -0.005   0.007   0.007  -0.001   0.192  -0.000
 -0.004  -0.003  -0.002   0.000  -0.005   0.002   0.005   0.000  -0.000   0.002   0.000   0.000  -0.006  -0.000  -0.000   0.000
  0.000   0.005   0.002  -0.002   0.000  -0.000  -0.002   0.005   0.000  -0.000   0.007  -0.002   0.000  -0.003   0.000  -0.000
  0.004   0.000   0.001  -0.002  -0.001  -0.000  -0.000  -0.000   0.004  -0.001   0.000  -0.000  -0.000   0.000  -0.006   0.000


------------------------ aborting loop because EDIFF is reached ----------------------------------------


    CHARGE:  cpu time    0.2369: real time    0.2377
    FORLOC:  cpu time    0.0170: real time    0.0170
    FORNL :  cpu time    1.3414: real time    1.3462
    FORCOR:  cpu time    0.0583: real time    0.0598
    FORHAR:  cpu time    0.0256: real time    0.0256
    MIXING:  cpu time    0.0027: real time    0.0027
    OFIELD:  cpu time    0.0000: real time    0.0000

 VOLUME and BASIS-vectors are now :
 -----------------------------------------------------------------------------
  energy-cutoff  :      400.00
  volume of cell :     2567.68
      direct lattice vectors                 reciprocal lattice vectors
    11.002581515  0.000000000  0.000000000     0.090887761 -0.052474073  0.000000000
     5.501290758  9.528515099  0.000000000     0.000000000  0.104948147  0.000000000
     0.000000000  0.000000000 24.491785094     0.000000000  0.000000000  0.040830017

  length of vectors
    11.002581515 11.002581515 24.491785094     0.104948147  0.104948147  0.040830017


 FORCES acting on ions
    electron-ion (+dipol)            ewald-force                    non-local-force                 convergence-correction
 -----------------------------------------------------------------------------------------------
   -.124E+02 0.120E+02 -.224E+04   0.126E+02 -.127E+02 0.224E+04   -.255E+00 0.680E+00 0.185E+00   0.149E-01 -.126E-02 -.376E-01
   -.141E+02 0.133E+02 -.229E+04   0.148E+02 -.135E+02 0.229E+04   -.718E+00 0.139E+00 -.269E-01   -.667E-03 0.116E-01 -.113E-01
   -.820E+01 0.984E+01 0.223E+04   0.871E+01 -.106E+02 -.223E+04   -.419E+00 0.490E+00 -.271E+00   0.317E-01 0.517E-01 0.132E-01
   0.546E+01 -.774E+01 -.813E+01   -.510E+01 0.752E+01 0.876E+01   -.379E+00 0.158E+00 -.618E+00   0.211E-01 0.631E-01 -.754E-02
   -.959E+01 -.633E+01 0.221E+04   0.100E+02 0.665E+01 -.221E+04   -.311E+00 -.198E+00 -.133E+00   0.278E-01 0.131E-01 0.248E-01
   -.162E+02 0.708E+01 -.224E+04   0.171E+02 -.784E+01 0.224E+04   -.862E+00 0.744E+00 0.168E+00   -.203E-01 0.277E-01 0.169E-01
   0.227E+01 -.498E+01 -.341E+02   -.231E+01 0.432E+01 0.336E+02   0.523E-01 0.630E+00 0.527E+00   -.207E-01 0.408E-01 -.593E-03
   -.585E+01 0.127E+02 0.223E+04   0.645E+01 -.134E+02 -.223E+04   -.434E+00 0.480E+00 -.284E+00   -.255E-01 -.549E-01 0.225E-01
   0.819E+01 0.356E+01 -.199E+02   -.782E+01 -.335E+01 0.200E+02   -.358E+00 -.144E+00 -.862E-01   -.307E-01 -.685E-01 -.927E-02
   -.223E+02 0.157E+02 -.224E+04   0.231E+02 -.164E+02 0.224E+04   -.828E+00 0.736E+00 0.219E+00   -.468E-02 -.337E-01 -.186E-01
   -.149E+02 0.168E+01 -.229E+04   0.153E+02 -.139E+01 0.229E+04   -.390E+00 -.293E+00 -.812E-01   -.193E-01 -.151E-01 -.154E-01
   0.211E+02 -.152E+02 -.230E+04   -.218E+02 0.157E+02 0.230E+04   0.759E+00 -.422E+00 -.252E+00   0.176E-02 0.167E-02 0.244E-02
   0.873E+01 -.508E+01 0.221E+04   -.933E+01 0.551E+01 -.221E+04   0.481E+00 -.363E+00 -.238E+00   -.306E-01 0.207E-01 0.217E-01
   0.226E+02 -.815E+01 -.226E+04   -.232E+02 0.849E+01 0.226E+04   0.569E+00 -.339E+00 0.382E-01   -.685E-02 0.301E-02 -.632E-02
   -.116E+02 0.612E+01 0.532E+01   0.107E+02 -.585E+01 -.578E+01   0.895E+00 -.253E+00 0.446E+00   0.189E-01 -.272E-01 0.116E-01
   0.305E+01 -.319E+01 0.221E+04   -.339E+01 0.345E+01 -.221E+04   0.260E+00 -.208E+00 0.157E+00   0.212E-01 -.143E-01 0.165E-01
   0.206E+02 -.797E+01 -.225E+04   -.216E+02 0.831E+01 0.225E+04   0.985E+00 -.351E+00 0.634E-01   -.317E-01 0.655E-02 0.166E-02
   -.863E+01 0.421E+01 0.136E+02   0.777E+01 -.397E+01 -.140E+02   0.895E+00 -.205E+00 0.380E+00   -.283E-01 -.298E-01 0.183E-02
   0.546E+01 -.361E+01 0.221E+04   -.578E+01 0.376E+01 -.221E+04   0.218E+00 -.101E+00 0.618E-01   -.888E-02 -.173E-02 0.210E-01
   0.178E+02 -.162E+02 -.223E+04   -.184E+02 0.167E+02 0.223E+04   0.562E+00 -.561E+00 0.321E+00   -.236E-01 0.353E-01 -.170E-01
   0.258E+01 -.232E+01 -.499E+02   -.207E+01 0.163E+01 0.494E+02   -.527E+00 0.714E+00 0.461E+00   0.305E-01 -.230E-01 -.174E-01
   0.649E+01 -.917E+00 0.221E+04   -.682E+01 0.103E+01 -.221E+04   0.216E+00 -.739E-01 0.115E+00   0.426E-02 0.319E-02 0.129E-01
   -.928E+01 0.762E+01 0.844E+01   0.892E+01 -.655E+01 -.886E+01   0.351E+00 -.112E+01 0.416E+00   0.214E-01 0.488E-01 0.219E-02
   -.720E+01 -.935E+00 0.221E+04   0.782E+01 0.140E+01 -.221E+04   -.406E+00 -.336E+00 -.154E+00   -.295E-01 -.173E-01 -.520E-02
   -.472E+01 0.368E+01 0.281E+02   0.405E+01 -.349E+01 -.284E+02   0.693E+00 -.221E+00 0.331E+00   -.273E-01 0.295E-01 0.494E-03
   -.118E+01 0.153E+01 0.450E+02   0.751E+00 -.184E+01 -.447E+02   0.381E+00 0.300E+00 -.387E+00   0.435E-01 0.222E-01 0.126E-01
   0.467E+01 -.122E+02 0.203E+04   -.479E+01 0.126E+02 -.203E+04   0.328E-01 -.242E+00 -.184E+01   0.522E-02 0.386E-01 0.336E-01
   -.932E+00 -.127E+01 0.537E+02   0.133E+01 0.167E+01 -.533E+02   -.448E+00 -.465E+00 -.378E+00   0.419E-01 0.547E-01 -.109E-02
   0.739E+01 -.969E+01 0.203E+04   -.768E+01 0.101E+02 -.203E+04   0.175E+00 -.190E+00 -.161E+01   -.432E-02 -.333E-01 0.142E-01
   0.151E+02 0.573E+00 0.203E+04   -.155E+02 -.664E+00 -.203E+04   0.248E+00 0.792E-01 -.172E+01   -.295E-01 -.151E-01 0.396E-01
   0.224E+01 -.437E+01 0.437E+02   -.227E+01 0.367E+01 -.438E+02   0.383E-01 0.754E+00 0.864E-01   -.445E-02 -.481E-01 -.295E-02
   0.106E+02 -.372E+01 -.192E+04   -.108E+02 0.371E+01 0.192E+04   0.257E+00 0.234E-02 0.167E+01   -.933E-02 0.106E-01 -.468E-01
   0.123E+02 -.155E+01 0.203E+04   -.129E+02 0.163E+01 -.203E+04   0.337E+00 -.834E-01 -.150E+01   0.256E-01 0.114E-01 0.580E-02
   0.183E+02 -.109E+02 -.196E+04   -.188E+02 0.111E+02 0.196E+04   0.506E+00 -.247E+00 0.168E+01   0.169E-01 0.415E-01 -.191E-01
   -.185E+02 0.147E+02 -.196E+04   0.189E+02 -.151E+02 0.196E+04   -.385E+00 0.345E+00 0.191E+01   0.273E-01 0.240E-01 -.287E-01
   0.454E+01 -.143E+00 0.274E+02   -.405E+01 -.147E+00 -.274E+02   -.486E+00 0.272E+00 -.257E-01   -.369E-02 0.138E-01 0.798E-02
   -.999E+01 -.182E+01 0.203E+04   0.103E+02 0.187E+01 -.203E+04   -.232E+00 -.169E-01 -.198E+01   0.121E-01 0.104E-02 0.390E-01
   -.172E+02 0.133E+02 -.196E+04   0.177E+02 -.138E+02 0.196E+04   -.462E+00 0.447E+00 0.171E+01   0.114E-01 0.270E-01 0.889E-02
   -.237E+02 0.295E+01 -.196E+04   0.244E+02 -.280E+01 0.196E+04   -.657E+00 -.129E+00 0.191E+01   -.973E-02 -.243E-01 0.301E-02
   0.892E+00 0.139E+01 0.460E+02   -.826E+00 -.829E+00 -.456E+02   -.712E-01 -.503E+00 -.418E+00   0.180E-02 -.586E-01 0.819E-02
   -.110E+02 0.112E+01 0.203E+04   0.113E+02 -.108E+01 -.203E+04   -.191E+00 -.230E-01 -.196E+01   -.298E-02 -.690E-02 -.796E-02
   -.511E+01 0.961E+01 0.202E+04   0.525E+01 -.101E+02 -.202E+04   -.638E-01 0.311E+00 -.159E+01   -.644E-02 0.292E-01 0.111E-02
   -.466E+01 0.118E+02 0.202E+04   0.473E+01 -.123E+02 -.202E+04   -.243E-01 0.310E+00 -.156E+01   0.804E-02 -.255E-01 0.222E-01
   -.528E-01 -.137E+01 -.600E+02   0.419E+00 0.145E+01 0.600E+02   -.381E+00 -.870E-01 -.193E-01   0.186E-01 -.532E-02 -.836E-02
   0.275E+01 0.180E+01 -.473E+02   -.255E+01 -.153E+01 0.473E+02   -.166E+00 -.300E+00 -.873E-02   -.380E-01 0.148E-01 -.798E-02
   0.193E+02 -.131E+02 -.196E+04   -.198E+02 0.134E+02 0.195E+04   0.430E+00 -.300E+00 0.157E+01   0.938E-02 -.999E-02 -.471E-02
   0.202E+01 -.598E+01 0.104E+02   -.181E+01 0.566E+01 -.108E+02   -.251E+00 0.332E+00 0.371E+00   0.383E-01 -.122E-01 0.621E-02
   0.129E+02 -.760E+01 -.195E+04   -.131E+02 0.793E+01 0.195E+04   0.278E+00 -.315E+00 0.156E+01   -.125E-01 -.268E-01 -.347E-01
 -----------------------------------------------------------------------------------------------
   0.440E-01 0.820E-01 0.654E+00   0.817E-13 -.338E-13 -.341E-11   -.842E-01 -.165E+00 -.778E+00   0.241E-01 0.925E-01 0.634E-01
 
 
 POSITION                                       TOTAL-FORCE (eV/Angst)
 -----------------------------------------------------------------------------------
     12.40226      7.11802     14.99540         0.008868      0.006413     -0.002778
     11.04033      4.73742     15.04047        -0.002519     -0.012783      0.003638
      2.75065      3.17617     10.00000         0.130024     -0.193797     -0.284777
     12.37444      3.96849     12.45830        -0.003876     -0.001101      0.003388
     12.37790      5.55830     10.00000         0.170168      0.137858     -0.080933
      9.67429      2.35221     14.96802         0.001471      0.006630     -0.002200
      9.61585      3.94672     12.47689        -0.002525      0.005263     -0.002795
      5.50129      7.94043     10.00000         0.134253     -0.220344     -0.239709
     15.13025      8.73023     12.46697        -0.011705     -0.005284     -0.001764
      4.16949      7.10945     14.93816        -0.000785     -0.005026      0.008747
      8.28244     -0.00898     15.05450        -0.003741     -0.013473      0.004420
      5.47159      0.01564     15.06489         0.007105     -0.006642      0.006238
      8.25194      3.17617     10.00000        -0.147925      0.085926     -0.112855
      9.60999      7.15309     15.00999        -0.002436     -0.000858      0.008546
      9.59350      8.74907     12.43486        -0.014929     -0.011152     -0.001843
     11.00258      7.94043     10.00000        -0.054167      0.037797     -0.149095
      8.22471      4.77080     14.98216         0.007575     -0.004685      0.001568
      8.20476      6.35674     12.42724         0.000525      0.003203     -0.006710
      9.62726      5.55830     10.00000        -0.108961      0.042940     -0.159435
      6.86199      2.39086     14.95104         0.000262     -0.004181      0.006770
     12.37922      8.71629     12.49452         0.009646      0.003588     -0.002180
      6.87661      0.79404     10.00000        -0.113053      0.038853     -0.146571
      5.47603      1.62349     12.43186         0.009311      0.007665      0.001505
      9.62726      0.79404     10.00000         0.187081      0.115360     -0.118056
      6.85667      3.97525     12.41314        -0.013499     -0.005946      0.001529
      2.72184      1.58858     12.39599        -0.009190      0.003750      0.004512
      5.50129      3.17617     10.00000        -0.088456      0.209396      0.138464
      4.12485      3.99038     12.38645        -0.007263     -0.002484      0.006812
      8.25194      7.94043     10.00000        -0.119723      0.171638      0.104907
      6.87661      5.55830     10.00000        -0.179352     -0.027122      0.164448
      5.46862      6.32543     12.39670         0.000813      0.005301      0.002349
      5.49427      4.74812     14.73628         0.000996     -0.001262     -0.017338
      4.12597      0.79404     10.00000        -0.175647      0.012700      0.151670
      4.11062      2.38772     14.78254         0.005472     -0.002881     -0.005427
      2.78249      4.72850     14.79122         0.008960      0.000660     -0.000690
     11.00405      1.58076     12.41615        -0.000016     -0.003676     -0.000707
      4.12597      5.55830     10.00000         0.134792      0.031472      0.178009
      1.41406      2.35145     14.78664        -0.004186     -0.008124     -0.004648
      0.04507     -0.01031     14.79408         0.012608     -0.004263     -0.000863
      6.85842      8.75028     12.39444        -0.003589     -0.002162     -0.003605
      1.37532      0.79404     10.00000         0.106182      0.014489      0.132840
     11.00258      3.17617     10.00000         0.070674     -0.175316      0.181116
     13.75323      7.94043     10.00000         0.062490     -0.198092      0.253166
     10.99102      6.34858     12.51814         0.004137     -0.007827     -0.003120
      8.24587      1.58931     12.50136        -0.004248     -0.013331     -0.008662
      2.74028      0.00304     14.78029        -0.002405     -0.004152     -0.004430
     13.75408      6.34431     12.43739        -0.002007     -0.000618     -0.000034
      6.87547      7.15663     14.77795         0.002788     -0.004323     -0.003415
 -----------------------------------------------------------------------------------
    total drift:                               -0.016120      0.009824     -0.060165


--------------------------------------------------------------------------------------------------------



  FREE ENERGIE OF THE ION-ELECTRON SYSTEM (eV)
  ---------------------------------------------------
  free  energy   TOTEN  =      -192.20494646 eV

  energy  without entropy=     -191.95607018  energy(sigma->0) =     -192.08050832
 
 d Force = 0.4403842E-03[-0.613E-04, 0.942E-03]  d Energy = 0.4062300E-03 0.342E-04
 d Force = 0.5074751E+02[ 0.507E+02, 0.508E+02]  d Ewald  = 0.5074751E+02-0.769E-06


--------------------------------------------------------------------------------------------------------


    POTLOK:  cpu time    0.0495: real time    0.0505


--------------------------------------------------------------------------------------------------------


 stress matrix after NEB project (eV)
      0.00000      0.00000      0.00000
      0.00000      0.00000      0.00000
      0.00000      0.00000      0.00000
  FORCES: max atom, RMS     0.018725    0.008710
  FORCE total and by dimension    0.060346    0.017338
  Stress total and by dimension    0.000000    0.000000
 Conjugate gradient step on ions:
 trial-energy change:   -0.000406  1 .order   -0.000440   -0.000942    0.000061
  (g-gl).g = 0.352E-03      g.g   = 0.339E-03  gl.gl    = 0.550E-03
 g(Force)  = 0.339E-03   g(Stress)= 0.000E+00 ortho     =-0.249E-04
 gamma     =   0.63980
 trial     =   2.91497
 opt step  =   2.69553  (harmonic =   2.73698) maximal distance =0.00390801
 next E    =  -192.204949   (d E  =  -0.00041)


--------------------------------------------------------------------------------------------------------


  
 reached required accuracy - stopping structural energy minimisation
     LOOP+:  cpu time   46.2616: real time   46.5231
    4ORBIT:  cpu time    0.0000: real time    0.0000

 total amount of memory used by VASP on root node    84353. kBytes
========================================================================

   base      :      30000. kBytes
   nonlr-proj:       4285. kBytes
   fftplans  :       4447. kBytes
   grid      :       6721. kBytes
   one-center:        124. kBytes
   wavefun   :      38776. kBytes
 
  
  
 General timing and accounting informations for this job:
 ========================================================
  
                  Total CPU time used (sec):     1424.668
                            User time (sec):     1354.198
                          System time (sec):       70.470
                         Elapsed time (sec):     1434.024
  
                   Maximum memory used (kb):      785240.
                   Average memory used (kb):           0.
  
                          Minor page faults:       650421
                          Major page faults:            0
                 Voluntary context switches:         9308
