unknown system                          
           1
    11.002582    0.000000    0.000000
     5.501291    9.528515    0.000000
     0.000000    0.000000   24.491785
   Au   Pd
  24  24
Direct configuration=     1
   0.75000000  0.75000000  0.59169983
   0.75000000  0.50000000  0.59169983
   0.08333333  0.33333333  0.40830017
   0.91666667  0.41666667  0.50000000
   0.83333333  0.58333333  0.40830017
   0.75000000  0.25000000  0.59169983
   0.66666667  0.41666667  0.50000000
   0.08333333  0.83333333  0.40830017
   0.91666667  0.91666667  0.50000000
   0.00000000  0.75000000  0.59169983
   0.75000000  0.00000000  0.59169983
   0.50000000  0.00000000  0.59169983
   0.58333333  0.33333333  0.40830017
   0.50000000  0.75000000  0.59169983
   0.41666667  0.91666667  0.50000000
   0.58333333  0.83333333  0.40830017
   0.50000000  0.50000000  0.59169983
   0.41666667  0.66666667  0.50000000
   0.58333333  0.58333333  0.40830017
   0.50000000  0.25000000  0.59169983
   0.66666667  0.91666667  0.50000000
   0.58333333  0.08333333  0.40830017
   0.41666667  0.16666667  0.50000000
   0.83333333  0.08333333  0.40830017
   0.41666667  0.41666667  0.50000000
   0.16666667  0.16666667  0.50000000
   0.33333333  0.33333333  0.40830017
   0.16666667  0.41666667  0.50000000
   0.33333333  0.83333333  0.40830017
   0.33333333  0.58333333  0.40830017
   0.16666667  0.66666667  0.50000000
   0.25000000  0.50000000  0.59169983
   0.33333333  0.08333333  0.40830017
   0.25000000  0.25000000  0.59169983
   0.00000000  0.50000000  0.59169983
   0.91666667  0.16666667  0.50000000
   0.08333333  0.58333333  0.40830017
   0.00000000  0.25000000  0.59169983
   0.00000000  0.00000000  0.59169983
   0.16666667  0.91666667  0.50000000
   0.08333333  0.08333333  0.40830017
   0.83333333  0.33333333  0.40830017
   0.83333333  0.83333333  0.40830017
   0.66666667  0.66666667  0.50000000
   0.66666667  0.16666667  0.50000000
   0.25000000  0.00000000  0.59169983
   0.91666667  0.66666667  0.50000000
   0.25000000  0.75000000  0.59169983
Direct configuration=     2
   0.75111860  0.74861446  0.59365352
   0.75143324  0.49971054  0.59391165
   0.08333333  0.33333333  0.40830017
   0.91811128  0.41583113  0.50033420
   0.83333333  0.58333333  0.40830017
   0.75180002  0.24867510  0.59359457
   0.66751122  0.41529472  0.49957199
   0.08333333  0.83333333  0.40830017
   0.91776172  0.91663155  0.49993257
   0.00189749  0.74862886  0.59352874
   0.75064109  0.00053202  0.59396484
   0.49828253  0.00084492  0.59426515
   0.58333333  0.33333333  0.40830017
   0.49894164  0.75057960  0.59396611
   0.41390151  0.91758524  0.49963404
   0.58333333  0.83333333  0.40830017
   0.49809613  0.50047403  0.59390261
   0.41406010  0.66747811  0.49966383
   0.58333333  0.58333333  0.40830017
   0.49866610  0.25109151  0.59360658
   0.66839197  0.91534066  0.49953127
   0.58333333  0.08333333  0.40830017
   0.41399806  0.16947153  0.49968475
   0.83333333  0.08333333  0.40830017
   0.41481410  0.41731935  0.49978653
   0.16616286  0.16627701  0.50026737
   0.33333333  0.33333333  0.40830017
   0.16698977  0.41736652  0.50027582
   0.33333333  0.83333333  0.40830017
   0.33333333  0.58333333  0.40830017
   0.16747222  0.66513061  0.50000391
   0.24948723  0.49994176  0.59238165
   0.33333333  0.08333333  0.40830017
   0.24878226  0.25075545  0.59258709
   0.00135132  0.49903750  0.59258653
   0.91803016  0.16607591  0.50002612
   0.08333333  0.58333333  0.40830017
   0.00133665  0.24912424  0.59252628
   0.00128101  0.00018694  0.59258402
   0.16635105  0.91750890  0.50023357
   0.08333333  0.08333333  0.40830017
   0.83333333  0.33333333  0.40830017
   0.83333333  0.83333333  0.40830017
   0.66738660  0.66658821  0.49992158
   0.66673417  0.16727235  0.49990823
   0.24880422  0.00055407  0.59262163
   0.91783455  0.66575696  0.49980652
   0.24918848  0.75059898  0.59260227
Direct configuration=     3
   0.75400644  0.74503746  0.59869726
   0.75513338  0.49896326  0.59962181
   0.08333333  0.33333333  0.40830017
   0.92184077  0.41367406  0.50119699
   0.83333333  0.58333333  0.40830017
   0.75644704  0.24525465  0.59848614
   0.66969158  0.41175281  0.49846702
   0.08333333  0.83333333  0.40830017
   0.92058876  0.91654090  0.49975850
   0.00679617  0.74508906  0.59825037
   0.75229616  0.00190550  0.59981231
   0.49384861  0.00302622  0.60088794
   0.58333333  0.33333333  0.40830017
   0.49620931  0.75207593  0.59981688
   0.40676281  0.91995670  0.49868925
   0.58333333  0.83333333  0.40830017
   0.49318098  0.50169782  0.59958942
   0.40733084  0.66957298  0.49879594
   0.58333333  0.58333333  0.40830017
   0.49522243  0.25390941  0.59852914
   0.67284611  0.91191735  0.49832118
   0.58333333  0.08333333  0.40830017
   0.40710862  0.17671274  0.49887090
   0.83333333  0.08333333  0.40830017
   0.41003142  0.41900434  0.49923542
   0.16486222  0.16527104  0.50095761
   0.33333333  0.33333333  0.40830017
   0.16782390  0.41917329  0.50098789
   0.33333333  0.83333333  0.40830017
   0.33333333  0.58333333  0.40830017
   0.16955189  0.66116502  0.50001400
   0.24816343  0.49979140  0.59414188
   0.33333333  0.08333333  0.40830017
   0.24563848  0.25270578  0.59487770
   0.00483998  0.49655267  0.59487568
   0.92155025  0.16455076  0.50009356
   0.08333333  0.58333333  0.40830017
   0.00478742  0.24686334  0.59465988
   0.00458813  0.00066955  0.59486669
   0.16553624  0.91968325  0.50083656
   0.08333333  0.08333333  0.40830017
   0.83333333  0.33333333  0.40830017
   0.83333333  0.83333333  0.40830017
   0.66924523  0.66638565  0.49971913
   0.66690843  0.16883600  0.49967131
   0.24571711  0.00198449  0.59500141
   0.92084964  0.66340842  0.49930701
   0.24709340  0.75214536  0.59493205
Direct configuration=     4
   0.75449109  0.74571798  0.60109811
   0.75526369  0.49773780  0.60238485
   0.08333333  0.33333333  0.40830017
   0.92182908  0.41369040  0.50272187
   0.83333333  0.58333333  0.40830017
   0.75693753  0.24612544  0.60091107
   0.66948990  0.41237795  0.50074118
   0.08333333  0.83333333  0.40830017
   0.92137560  0.91570946  0.50171022
   0.00701511  0.74517492  0.60070120
   0.75262465  0.00089536  0.60251374
   0.49325010  0.00354996  0.60367547
   0.58333333  0.33333333  0.40830017
   0.49559031  0.75210835  0.60244233
   0.40797473  0.92030749  0.50040899
   0.58333333  0.83333333  0.40830017
   0.49324099  0.50213066  0.60214195
   0.40807854  0.66870445  0.50048018
   0.58333333  0.58333333  0.40830017
   0.49487872  0.25367017  0.60093650
   0.67223197  0.91264722  0.50071169
   0.58333333  0.08333333  0.40830017
   0.40767891  0.17547944  0.50052465
   0.83333333  0.08333333  0.40830017
   0.41079156  0.41932679  0.50037608
   0.16422888  0.16577323  0.50172560
   0.33333333  0.33333333  0.40830017
   0.16625411  0.42052364  0.50169564
   0.33333333  0.83333333  0.40830017
   0.33333333  0.58333333  0.40830017
   0.16783917  0.66132132  0.50084992
   0.24783599  0.49949177  0.59544351
   0.33333333  0.08333333  0.40830017
   0.24497490  0.25292261  0.59635206
   0.00609918  0.49566388  0.59638735
   0.92188203  0.16447526  0.50101713
   0.08333333  0.58333333  0.40830017
   0.00571243  0.24649710  0.59624481
   0.00571902 -0.00007752  0.59635396
   0.16392072  0.92009794  0.50163686
   0.08333333  0.08333333  0.40830017
   0.83333333  0.33333333  0.40830017
   0.83333333  0.83333333  0.40830017
   0.66841300  0.66593664  0.50161310
   0.66629769  0.16845434  0.50152131
   0.24555107  0.00210310  0.59660710
   0.92238127  0.66299152  0.50052555
   0.24669430  0.75281249  0.59631390
Direct configuration=     5
   0.75594505  0.74775955  0.60830065
   0.75565461  0.49406141  0.61067400
   0.08333333  0.33333333  0.40830017
   0.92179402  0.41373940  0.50729653
   0.83333333  0.58333333  0.40830017
   0.75840897  0.24873781  0.60818588
   0.66888484  0.41425337  0.50756366
   0.08333333  0.83333333  0.40830017
   0.92373610  0.91321513  0.50756541
   0.00767193  0.74543249  0.60805370
   0.75361013 -0.00213507  0.61061804
   0.49145456  0.00512118  0.61203806
   0.58333333  0.33333333  0.40830017
   0.49373331  0.75220560  0.61031868
   0.41161050  0.92135985  0.50556822
   0.58333333  0.83333333  0.40830017
   0.49342103  0.50342916  0.60979955
   0.41032164  0.66609888  0.50553291
   0.58333333  0.58333333  0.40830017
   0.49384759  0.25295244  0.60815859
   0.67038956  0.91483684  0.50788321
   0.58333333  0.08333333  0.40830017
   0.40938977  0.17177954  0.50548591
   0.83333333  0.08333333  0.40830017
   0.41307198  0.42029415  0.50379806
   0.16232885  0.16727982  0.50402955
   0.33333333  0.33333333  0.40830017
   0.16154475  0.42457470  0.50381891
   0.33333333  0.83333333  0.40830017
   0.33333333  0.58333333  0.40830017
   0.16270102  0.66179022  0.50335768
   0.24685367  0.49859288  0.59934837
   0.33333333  0.08333333  0.40830017
   0.24298416  0.25357309  0.60077515
   0.00987678  0.49299749  0.60092237
   0.92287739  0.16424874  0.50378786
   0.08333333  0.58333333  0.40830017
   0.00848746  0.24539840  0.60099961
   0.00911167 -0.00231873  0.60081578
   0.15907417  0.92134203  0.50403776
   0.08333333  0.08333333  0.40830017
   0.83333333  0.33333333  0.40830017
   0.83333333  0.83333333  0.40830017
   0.66591632  0.66458964  0.50729504
   0.66446545  0.16730933  0.50707130
   0.24505296  0.00245893  0.60142415
   0.92697619  0.66174083  0.50418116
   0.24549700  0.75481388  0.60045944
Direct configuration=     6
   0.75469123  0.74617965  0.60978924
   0.75502261  0.49747594  0.61263303
   0.08333333  0.33333333  0.40830017
   0.91710317  0.41672519  0.50839183
   0.83333333  0.58333333  0.40830017
   0.75712889  0.24630586  0.60975210
   0.66887646  0.41352177  0.50950646
   0.08333333  0.83333333  0.40830017
   0.91781672  0.91542290  0.50913236
   0.00625014  0.74622215  0.61006555
   0.75309704 -0.00009166  0.61250081
   0.49292300  0.00367846  0.61395781
   0.58333333  0.33333333  0.40830017
   0.49603658  0.75205922  0.61195793
   0.41303673  0.91850715  0.50745281
   0.58333333  0.83333333  0.40830017
   0.49431189  0.50229036  0.61151888
   0.41052055  0.66837675  0.50720511
   0.58333333  0.58333333  0.40830017
   0.49618663  0.25220205  0.60963642
   0.67068334  0.91374477  0.50992011
   0.58333333  0.08333333  0.40830017
   0.41044824  0.17232585  0.50721754
   0.83333333  0.08333333  0.40830017
   0.41469630  0.41783124  0.50562912
   0.16466799  0.16666887  0.50478088
   0.33333333  0.33333333  0.40830017
   0.16624626  0.41899455  0.50431894
   0.33333333  0.83333333  0.40830017
   0.33333333  0.58333333  0.40830017
   0.16605719  0.66313087  0.50468562
   0.24923527  0.49865231  0.60034453
   0.33333333  0.08333333  0.40830017
   0.24620516  0.25143242  0.60204463
   0.00542413  0.49615244  0.60279473
   0.91768067  0.16638837  0.50519715
   0.08333333  0.58333333  0.40830017
   0.00652251  0.24605020  0.60272715
   0.00524045 -0.00068282  0.60271377
   0.16505574  0.91816413  0.50465200
   0.08333333  0.08333333  0.40830017
   0.83333333  0.33333333  0.40830017
   0.83333333  0.83333333  0.40830017
   0.66623108  0.66569572  0.50960634
   0.66546477  0.16695247  0.50931232
   0.24779429  0.00133429  0.60256467
   0.91877944  0.66571865  0.50605347
   0.24744129  0.75266655  0.60151032
Direct configuration=     7
   0.75460786  0.74607460  0.60988822
   0.75498058  0.49770298  0.61276329
   0.08333333  0.33333333  0.40830017
   0.91679126  0.41692373  0.50846467
   0.83333333  0.58333333  0.40830017
   0.75704377  0.24614415  0.60985625
   0.66887590  0.41347312  0.50963564
   0.08333333  0.83333333  0.40830017
   0.91742312  0.91556970  0.50923656
   0.00615560  0.74627466  0.61019933
   0.75306292  0.00004422  0.61262600
   0.49302064  0.00358253  0.61408546
   0.58333333  0.33333333  0.40830017
   0.49618974  0.75204948  0.61206693
   0.41313157  0.91831746  0.50757812
   0.58333333  0.83333333  0.40830017
   0.49437113  0.50221463  0.61163321
   0.41053378  0.66852822  0.50731631
   0.58333333  0.58333333  0.40830017
   0.49634216  0.25215215  0.60973468
   0.67070288  0.91367215  0.51005555
   0.58333333  0.08333333  0.40830017
   0.41051863  0.17236218  0.50733268
   0.83333333  0.08333333  0.40830017
   0.41480431  0.41766747  0.50575088
   0.16482353  0.16662824  0.50483084
   0.33333333  0.33333333  0.40830017
   0.16655888  0.41862350  0.50435219
   0.33333333  0.83333333  0.40830017
   0.33333333  0.58333333  0.40830017
   0.16628036  0.66322002  0.50477392
   0.24939364  0.49865627  0.60041077
   0.33333333  0.08333333  0.40830017
   0.24641934  0.25129008  0.60212905
   0.00512805  0.49636223  0.60291924
   0.91733512  0.16653064  0.50529086
   0.08333333  0.58333333  0.40830017
   0.00639185  0.24609354  0.60284202
   0.00498303 -0.00057404  0.60283998
   0.16545348  0.91795281  0.50469285
   0.08333333  0.08333333  0.40830017
   0.83333333  0.33333333  0.40830017
   0.83333333  0.83333333  0.40830017
   0.66625201  0.66576927  0.50976003
   0.66553122  0.16692874  0.50946133
   0.24797658  0.00125951  0.60264050
   0.91823441  0.66598315  0.50617797
   0.24757057  0.75252376  0.60158019
Direct configuration=     8
   0.75343750  0.74702305  0.61036721
   0.75413249  0.49788222  0.61319416
   0.08333333  0.33333333  0.40830017
   0.91676995  0.41708384  0.50854253
   0.83333333  0.58333333  0.40830017
   0.75568309  0.24696626  0.61021754
   0.66693238  0.41439340  0.50983297
   0.08333333  0.83333333  0.40830017
   0.91762566  0.91625354  0.50921944
   0.00564724  0.74639130  0.61038310
   0.75218140 -0.00005661  0.61317752
   0.49529161  0.00243039  0.61445066
   0.58333333  0.33333333  0.40830017
   0.49752717  0.75131551  0.61235956
   0.41433571  0.91786080  0.50776973
   0.58333333  0.83333333  0.40830017
   0.49600145  0.50138719  0.61182166
   0.41292087  0.66721807  0.50735744
   0.58333333  0.58333333  0.40830017
   0.49762901  0.25156936  0.60997006
   0.66807220  0.91467939  0.51017270
   0.58333333  0.08333333  0.40830017
   0.41302737  0.17052293  0.50750238
   0.83333333  0.08333333  0.40830017
   0.41572199  0.41720963  0.50631363
   0.16428885  0.16661405  0.50523078
   0.33333333  0.33333333  0.40830017
   0.16605998  0.41857601  0.50475682
   0.33333333  0.83333333  0.40830017
   0.33333333  0.58333333  0.40830017
   0.16585653  0.66390137  0.50531728
   0.24951406  0.49889750  0.60054855
   0.33333333  0.08333333  0.40830017
   0.24722522  0.25128789  0.60256610
   0.00443741  0.49708256  0.60322301
   0.91722109  0.16586669  0.50592490
   0.08333333  0.58333333  0.40830017
   0.00506677  0.24673180  0.60309036
   0.00438306 -0.00041531  0.60316668
   0.16491307  0.91849517  0.50502937
   0.08333333  0.08333333  0.40830017
   0.83333333  0.33333333  0.40830017
   0.83333333  0.83333333  0.40830017
   0.66583435  0.66642970  0.51028774
   0.66568266  0.16699751  0.50994578
   0.24815786  0.00077811  0.60282343
   0.91749091  0.66580103  0.50688996
   0.24812755  0.75186950  0.60208916
Direct configuration=     9
   0.75334974  0.74709417  0.61040313
   0.75406890  0.49789566  0.61322647
   0.08333333  0.33333333  0.40830017
   0.91676836  0.41709585  0.50854837
   0.83333333  0.58333333  0.40830017
   0.75558105  0.24702791  0.61024463
   0.66678665  0.41446240  0.50984776
   0.08333333  0.83333333  0.40830017
   0.91764084  0.91630481  0.50921816
   0.00560912  0.74640004  0.61039688
   0.75211530 -0.00006417  0.61321887
   0.49546190  0.00234400  0.61447805
   0.58333333  0.33333333  0.40830017
   0.49762745  0.75126048  0.61238151
   0.41442600  0.91782656  0.50778410
   0.58333333  0.83333333  0.40830017
   0.49612370  0.50132515  0.61183579
   0.41309987  0.66711983  0.50736052
   0.58333333  0.58333333  0.40830017
   0.49772550  0.25152566  0.60998771
   0.66787494  0.91475492  0.51018148
   0.58333333  0.08333333  0.40830017
   0.41321549  0.17038501  0.50751510
   0.83333333  0.08333333  0.40830017
   0.41579080  0.41717530  0.50635582
   0.16424876  0.16661299  0.50526077
   0.33333333  0.33333333  0.40830017
   0.16602257  0.41857244  0.50478717
   0.33333333  0.83333333  0.40830017
   0.33333333  0.58333333  0.40830017
   0.16582475  0.66395246  0.50535802
   0.24952309  0.49891559  0.60055888
   0.33333333  0.08333333  0.40830017
   0.24728564  0.25128772  0.60259888
   0.00438562  0.49713657  0.60324579
   0.91721254  0.16581690  0.50597244
   0.08333333  0.58333333  0.40830017
   0.00496741  0.24677967  0.60310898
   0.00433808 -0.00040341  0.60319118
   0.16487254  0.91853583  0.50505460
   0.08333333  0.08333333  0.40830017
   0.83333333  0.33333333  0.40830017
   0.83333333  0.83333333  0.40830017
   0.66580303  0.66647923  0.51032731
   0.66569402  0.16700266  0.50998211
   0.24817146  0.00074202  0.60283715
   0.91743516  0.66578737  0.50694334
   0.24816931  0.75182044  0.60212733
Direct configuration=    10
   0.75325829  0.74746564  0.61076168
   0.75410394  0.49752469  0.61341383
   0.08333333  0.33333333  0.40830017
   0.91663362  0.41661778  0.50850474
   0.83333333  0.58333333  0.40830017
   0.75529706  0.24741522  0.61047504
   0.66691218  0.41449894  0.50966579
   0.08333333  0.83333333  0.40830017
   0.91754422  0.91603612  0.50904053
   0.00529669  0.74660375  0.61029931
   0.75235479 -0.00056491  0.61352821
   0.49591333  0.00214989  0.61469457
   0.58333333  0.33333333  0.40830017
   0.49764033  0.75102108  0.61253474
   0.41356581  0.91811645  0.50772034
   0.58333333  0.83333333  0.40830017
   0.49655924  0.50122889  0.61191336
   0.41316191  0.66704562  0.50726094
   0.58333333  0.58333333  0.40830017
   0.49767373  0.25156474  0.61009706
   0.66789447  0.91504809  0.50995591
   0.58333333  0.08333333  0.40830017
   0.41330104  0.17029125  0.50747713
   0.83333333  0.08333333  0.40830017
   0.41520474  0.41724711  0.50655311
   0.16424284  0.16656038  0.50555596
   0.33333333  0.33333333  0.40830017
   0.16597664  0.41869161  0.50508303
   0.33333333  0.83333333  0.40830017
   0.33333333  0.58333333  0.40830017
   0.16552909  0.66408102  0.50562661
   0.24964748  0.49887541  0.60063738
   0.33333333  0.08333333  0.40830017
   0.24760851  0.25126190  0.60275133
   0.00437361  0.49705185  0.60333848
   0.91720534  0.16601120  0.50630954
   0.08333333  0.58333333  0.40830017
   0.00450775  0.24712909  0.60313879
   0.00428029 -0.00055476  0.60335097
   0.16487488  0.91858422  0.50531479
   0.08333333  0.08333333  0.40830017
   0.83333333  0.33333333  0.40830017
   0.83333333  0.83333333  0.40830017
   0.66615023  0.66621860  0.51046860
   0.66622948  0.16674460  0.51003177
   0.24831699  0.00057464  0.60286649
   0.91760578  0.66603035  0.50727229
   0.24865330  0.75151001  0.60238544
Direct configuration=    11
   0.75321107  0.74765747  0.61094684
   0.75412203  0.49733311  0.61351059
   0.08333333  0.33333333  0.40830017
   0.91656403  0.41637090  0.50848221
   0.83333333  0.58333333  0.40830017
   0.75515040  0.24761524  0.61059402
   0.66697701  0.41451781  0.50957181
   0.08333333  0.83333333  0.40830017
   0.91749433  0.91589736  0.50894880
   0.00513535  0.74670895  0.61024893
   0.75247847 -0.00082350  0.61368796
   0.49614645  0.00204965  0.61480639
   0.58333333  0.33333333  0.40830017
   0.49764698  0.75089745  0.61261387
   0.41312159  0.91826615  0.50768741
   0.58333333  0.83333333  0.40830017
   0.49678416  0.50117919  0.61195342
   0.41319394  0.66700730  0.50720952
   0.58333333  0.58333333  0.40830017
   0.49764699  0.25158492  0.61015354
   0.66790456  0.91519948  0.50983941
   0.58333333  0.08333333  0.40830017
   0.41334521  0.17024283  0.50745752
   0.83333333  0.08333333  0.40830017
   0.41490209  0.41728419  0.50665499
   0.16423978  0.16653321  0.50570840
   0.33333333  0.33333333  0.40830017
   0.16595292  0.41875315  0.50523582
   0.33333333  0.83333333  0.40830017
   0.33333333  0.58333333  0.40830017
   0.16537641  0.66414740  0.50576532
   0.24971172  0.49885466  0.60067792
   0.33333333  0.08333333  0.40830017
   0.24777525  0.25124856  0.60283006
   0.00436740  0.49700809  0.60338635
   0.91720162  0.16611154  0.50648362
   0.08333333  0.58333333  0.40830017
   0.00427038  0.24730954  0.60315418
   0.00425045 -0.00063292  0.60343348
   0.16487608  0.91860920  0.50544916
   0.08333333  0.08333333  0.40830017
   0.83333333  0.33333333  0.40830017
   0.83333333  0.83333333  0.40830017
   0.66632953  0.66608401  0.51054157
   0.66650600  0.16661133  0.51005742
   0.24839215  0.00048820  0.60288164
   0.91769390  0.66615583  0.50744217
   0.24890324  0.75134969  0.60251873
Direct configuration=    12
   0.75320375  0.74731038  0.61130485
   0.75437680  0.49751825  0.61371420
   0.08333333  0.33333333  0.40830017
   0.91670328  0.41634609  0.50840649
   0.83333333  0.58333333  0.40830017
   0.75520187  0.24716001  0.61082535
   0.66696366  0.41431089  0.50935174
   0.08333333  0.83333333  0.40830017
   0.91756153  0.91594260  0.50881223
   0.00541444  0.74664795  0.61014439
   0.75272638 -0.00061300  0.61398395
   0.49604309  0.00199171  0.61496609
   0.58333333  0.33333333  0.40830017
   0.49765502  0.75098258  0.61272311
   0.41290920  0.91829470  0.50761561
   0.58333333  0.83333333  0.40830017
   0.49673528  0.50116356  0.61198646
   0.41270878  0.66708196  0.50715052
   0.58333333  0.58333333  0.40830017
   0.49769562  0.25149651  0.61023716
   0.66794482  0.91500242  0.50966119
   0.58333333  0.08333333  0.40830017
   0.41297378  0.17045062  0.50742917
   0.83333333  0.08333333  0.40830017
   0.41466021  0.41729632  0.50673172
   0.16425858  0.16675768  0.50593996
   0.33333333  0.33333333  0.40830017
   0.16570120  0.41878299  0.50542893
   0.33333333  0.83333333  0.40830017
   0.33333333  0.58333333  0.40830017
   0.16539948  0.66419772  0.50594383
   0.24979017  0.49891315  0.60089544
   0.33333333  0.08333333  0.40830017
   0.24798628  0.25100839  0.60298374
   0.00431033  0.49681884  0.60347126
   0.91731233  0.16592831  0.50672686
   0.08333333  0.58333333  0.40830017
   0.00447804  0.24725781  0.60326048
   0.00421686 -0.00074469  0.60356957
   0.16451462  0.91847278  0.50567546
   0.08333333  0.08333333  0.40830017
   0.83333333  0.33333333  0.40830017
   0.83333333  0.83333333  0.40830017
   0.66656655  0.66623362  0.51066754
   0.66670246  0.16669315  0.51010460
   0.24851958  0.00053965  0.60299137
   0.91771610  0.66596836  0.50766173
   0.24907284  0.75119904  0.60273116
Direct configuration=    13
   0.75320257  0.74725434  0.61136265
   0.75441794  0.49754815  0.61374708
   0.08333333  0.33333333  0.40830017
   0.91672576  0.41634208  0.50839426
   0.83333333  0.58333333  0.40830017
   0.75521018  0.24708651  0.61086271
   0.66696151  0.41427748  0.50931621
   0.08333333  0.83333333  0.40830017
   0.91757238  0.91594990  0.50879018
   0.00545950  0.74663810  0.61012751
   0.75276641 -0.00057902  0.61403174
   0.49602640  0.00198235  0.61499188
   0.58333333  0.33333333  0.40830017
   0.49765632  0.75099632  0.61274075
   0.41287491  0.91829931  0.50760401
   0.58333333  0.83333333  0.40830017
   0.49672738  0.50116104  0.61199179
   0.41263044  0.66709401  0.50714099
   0.58333333  0.58333333  0.40830017
   0.49770347  0.25148223  0.61025066
   0.66795132  0.91497060  0.50963242
   0.58333333  0.08333333  0.40830017
   0.41291380  0.17048417  0.50742459
   0.83333333  0.08333333  0.40830017
   0.41462115  0.41729828  0.50674411
   0.16426162  0.16679393  0.50597735
   0.33333333  0.33333333  0.40830017
   0.16566056  0.41878781  0.50546011
   0.33333333  0.83333333  0.40830017
   0.33333333  0.58333333  0.40830017
   0.16540320  0.66420584  0.50597266
   0.24980283  0.49892259  0.60093056
   0.33333333  0.08333333  0.40830017
   0.24802035  0.25096961  0.60300856
   0.00430111  0.49678828  0.60348497
   0.91733020  0.16589872  0.50676614
   0.08333333  0.58333333  0.40830017
   0.00451157  0.24724946  0.60327764
   0.00421144 -0.00076274  0.60359154
   0.16445625  0.91845076  0.50571200
   0.08333333  0.08333333  0.40830017
   0.83333333  0.33333333  0.40830017
   0.83333333  0.83333333  0.40830017
   0.66660482  0.66625778  0.51068789
   0.66673418  0.16670637  0.51011222
   0.24854015  0.00054796  0.60300908
   0.91771968  0.66593809  0.50769719
   0.24910022  0.75117471  0.60276547
Direct configuration=    14
   0.75327708  0.74733732  0.61157234
   0.75449085  0.49738070  0.61383697
   0.08333333  0.33333333  0.40830017
   0.91664840  0.41649701  0.50838818
   0.83333333  0.58333333  0.40830017
   0.75533942  0.24714166  0.61096019
   0.66688507  0.41434283  0.50929697
   0.08333333  0.83333333  0.40830017
   0.91740251  0.91604779  0.50879392
   0.00557542  0.74651404  0.61007596
   0.75278406 -0.00067657  0.61418605
   0.49610602  0.00193147  0.61502742
   0.58333333  0.33333333  0.40830017
   0.49765178  0.75105057  0.61276698
   0.41306950  0.91812139  0.50760027
   0.58333333  0.83333333  0.40830017
   0.49682772  0.50108151  0.61195756
   0.41254726  0.66709718  0.50717741
   0.58333333  0.58333333  0.40830017
   0.49776999  0.25130030  0.61029119
   0.66796685  0.91492529  0.50968738
   0.58333333  0.08333333  0.40830017
   0.41285215  0.17053194  0.50743686
   0.83333333  0.08333333  0.40830017
   0.41472894  0.41720663  0.50673429
   0.16416935  0.16687540  0.50602224
   0.33333333  0.33333333  0.40830017
   0.16553552  0.41884170  0.50550983
   0.33333333  0.83333333  0.40830017
   0.33333333  0.58333333  0.40830017
   0.16540426  0.66409125  0.50600835
   0.24982672  0.49881096  0.60113478
   0.33333333  0.08333333  0.40830017
   0.24803220  0.25088800  0.60314256
   0.00445097  0.49663441  0.60357563
   0.91744039  0.16581805  0.50682405
   0.08333333  0.58333333  0.40830017
   0.00474693  0.24704673  0.60340192
   0.00440110 -0.00085635  0.60369284
   0.16429427  0.91841785  0.50580824
   0.08333333  0.08333333  0.40830017
   0.83333333  0.33333333  0.40830017
   0.83333333  0.83333333  0.40830017
   0.66640456  0.66631343  0.51076416
   0.66646405  0.16675327  0.51015943
   0.24852424  0.00058419  0.60312177
   0.91764441  0.66579246  0.50774479
   0.24912444  0.75124807  0.60290643
Direct configuration=    15
   0.75334082  0.74740831  0.61175172
   0.75455323  0.49723745  0.61391388
   0.08333333  0.33333333  0.40830017
   0.91658221  0.41662955  0.50838298
   0.83333333  0.58333333  0.40830017
   0.75544998  0.24718885  0.61104358
   0.66681967  0.41439873  0.50928052
   0.08333333  0.83333333  0.40830017
   0.91725719  0.91613153  0.50879712
   0.00567458  0.74640791  0.61003186
   0.75279916 -0.00076002  0.61431806
   0.49617413  0.00188795  0.61505782
   0.58333333  0.33333333  0.40830017
   0.49764789  0.75109698  0.61278943
   0.41323597  0.91796919  0.50759707
   0.58333333  0.83333333  0.40830017
   0.49691355  0.50101348  0.61192828
   0.41247611  0.66709989  0.50720856
   0.58333333  0.58333333  0.40830017
   0.49782690  0.25114467  0.61032587
   0.66798014  0.91488653  0.50973440
   0.58333333  0.08333333  0.40830017
   0.41279941  0.17057281  0.50744735
   0.83333333  0.08333333  0.40830017
   0.41482116  0.41712822  0.50672589
   0.16409042  0.16694510  0.50606063
   0.33333333  0.33333333  0.40830017
   0.16542856  0.41888780  0.50555236
   0.33333333  0.83333333  0.40830017
   0.33333333  0.58333333  0.40830017
   0.16540517  0.66399322  0.50603888
   0.24984716  0.49871546  0.60130948
   0.33333333  0.08333333  0.40830017
   0.24804233  0.25081819  0.60325720
   0.00457918  0.49650278  0.60365318
   0.91753465  0.16574903  0.50687359
   0.08333333  0.58333333  0.40830017
   0.00494827  0.24687329  0.60350824
   0.00456336 -0.00093642  0.60377950
   0.16415569  0.91838970  0.50589056
   0.08333333  0.08333333  0.40830017
   0.83333333  0.33333333  0.40830017
   0.83333333  0.83333333  0.40830017
   0.66623325  0.66636103  0.51082942
   0.66623295  0.16679340  0.51019981
   0.24851064  0.00061518  0.60321817
   0.91758002  0.66566787  0.50778552
   0.24914515  0.75131083  0.60302701
Direct configuration=    16
   0.75347505  0.74730000  0.61197557
   0.75468779  0.49718015  0.61398929
   0.08333333  0.33333333  0.40830017
   0.91637431  0.41661257  0.50847952
   0.83333333  0.58333333  0.40830017
   0.75564842  0.24707600  0.61109808
   0.66694229  0.41432254  0.50933433
   0.08333333  0.83333333  0.40830017
   0.91702240  0.91615584  0.50888603
   0.00573920  0.74632140  0.60997701
   0.75297952 -0.00084998  0.61447116
   0.49626388  0.00178926  0.61507390
   0.58333333  0.33333333  0.40830017
   0.49776508  0.75101003  0.61281029
   0.41306966  0.91806297  0.50764433
   0.58333333  0.83333333  0.40830017
   0.49700436  0.50087841  0.61184901
   0.41233429  0.66713839  0.50729473
   0.58333333  0.58333333  0.40830017
   0.49794005  0.25106297  0.61037097
   0.66800938  0.91481754  0.50989893
   0.58333333  0.08333333  0.40830017
   0.41263668  0.17050921  0.50749869
   0.83333333  0.08333333  0.40830017
   0.41475541  0.41715437  0.50675473
   0.16414433  0.16680154  0.50608580
   0.33333333  0.33333333  0.40830017
   0.16551878  0.41886375  0.50561643
   0.33333333  0.83333333  0.40830017
   0.33333333  0.58333333  0.40830017
   0.16530899  0.66386119  0.50607844
   0.25001140  0.49851165  0.60150060
   0.33333333  0.08333333  0.40830017
   0.24812060  0.25072951  0.60340138
   0.00466018  0.49637147  0.60377926
   0.91735923  0.16592971  0.50690550
   0.08333333  0.58333333  0.40830017
   0.00505086  0.24682481  0.60362310
   0.00457812 -0.00099184  0.60390605
   0.16426526  0.91834195  0.50596805
   0.08333333  0.08333333  0.40830017
   0.83333333  0.33333333  0.40830017
   0.83333333  0.83333333  0.40830017
   0.66602846  0.66629104  0.51094918
   0.66610512  0.16679374  0.51029525
   0.24868306  0.00050629  0.60333130
   0.91738679  0.66579581  0.50780467
   0.24924188  0.75126828  0.60318345
Direct configuration=    17
   0.75354357  0.74724471  0.61208985
   0.75475648  0.49715090  0.61402779
   0.08333333  0.33333333  0.40830017
   0.91626817  0.41660391  0.50852880