  56  56   0   0
  0.4903395E+02  0.1100258E-08  0.1100258E-08  0.2619179E-08  0.3500000E-15
  1.000000000000000E-004
  CAR 
 unknown system                          
      6.40446398    -21.59956520  301     -1.43357323      1.00000000
    -21.600  0.0000E+00  0.0000E+00
    -21.506  0.0000E+00  0.0000E+00
    -21.413  0.0000E+00  0.0000E+00
    -21.320  0.0000E+00  0.0000E+00
    -21.226  0.0000E+00  0.0000E+00
    -21.133  0.0000E+00  0.0000E+00
    -21.039  0.0000E+00  0.0000E+00
    -20.946  0.0000E+00  0.0000E+00
    -20.853  0.1808E-14  0.1688E-15
    -20.759  0.1732E-10  0.1617E-11
    -20.666  0.3025E-07  0.2825E-08
    -20.573  0.9843E-05  0.9216E-06
    -20.479  0.6211E-03  0.5890E-04
    -20.386  0.8285E-02  0.8323E-03
    -20.293  0.2829E-01  0.3473E-02
    -20.199  0.3493E-01  0.6734E-02
    -20.106  0.2840E-01  0.9384E-02
    -20.013  0.2986E-01  0.1217E-01
    -19.919  0.2731E-01  0.1472E-01
    -19.826  0.1226E-01  0.1587E-01
    -19.733  0.3182E-02  0.1616E-01
    -19.639  0.1401E-01  0.1747E-01
    -19.546  0.3585E-01  0.2082E-01
    -19.453  0.4987E-01  0.2547E-01
    -19.359  0.3833E-01  0.2905E-01
    -19.266  0.2383E-01  0.3128E-01
    -19.173  0.7222E-02  0.3195E-01
    -19.079  0.5300E-03  0.3200E-01
    -18.986  0.7914E-05  0.3200E-01
    -18.893  0.2267E-07  0.3200E-01
    -18.799  0.1205E-10  0.3200E-01
    -18.706  0.1169E-14  0.3200E-01
    -18.612  0.0000E+00  0.3200E-01
    -18.519  0.0000E+00  0.3200E-01
    -18.426  0.0000E+00  0.3200E-01
    -18.332  0.0000E+00  0.3200E-01
    -18.239  0.0000E+00  0.3200E-01
    -18.146  0.0000E+00  0.3200E-01
    -18.052  0.0000E+00  0.3200E-01
    -17.959  0.0000E+00  0.3200E-01
    -17.866  0.0000E+00  0.3200E-01
    -17.772  0.0000E+00  0.3200E-01
    -17.679  0.0000E+00  0.3200E-01
    -17.586  0.0000E+00  0.3200E-01
    -17.492  0.0000E+00  0.3200E-01
    -17.399  0.0000E+00  0.3200E-01
    -17.306  0.0000E+00  0.3200E-01
    -17.212  0.0000E+00  0.3200E-01
    -17.119  0.0000E+00  0.3200E-01
    -17.026  0.0000E+00  0.3200E-01
    -16.932  0.0000E+00  0.3200E-01
    -16.839  0.0000E+00  0.3200E-01
    -16.746  0.0000E+00  0.3200E-01
    -16.652  0.0000E+00  0.3200E-01
    -16.559  0.0000E+00  0.3200E-01
    -16.465  0.0000E+00  0.3200E-01
    -16.372  0.0000E+00  0.3200E-01
    -16.279  0.0000E+00  0.3200E-01
    -16.185  0.0000E+00  0.3200E-01
    -16.092  0.0000E+00  0.3200E-01
    -15.999  0.0000E+00  0.3200E-01
    -15.905  0.0000E+00  0.3200E-01
    -15.812  0.0000E+00  0.3200E-01
    -15.719  0.0000E+00  0.3200E-01
    -15.625  0.0000E+00  0.3200E-01
    -15.532  0.0000E+00  0.3200E-01
    -15.439  0.0000E+00  0.3200E-01
    -15.345  0.0000E+00  0.3200E-01
    -15.252  0.0000E+00  0.3200E-01
    -15.159  0.0000E+00  0.3200E-01
    -15.065  0.0000E+00  0.3200E-01
    -14.972  0.0000E+00  0.3200E-01
    -14.879  0.0000E+00  0.3200E-01
    -14.785  0.0000E+00  0.3200E-01
    -14.692  0.0000E+00  0.3200E-01
    -14.599  0.0000E+00  0.3200E-01
    -14.505  0.0000E+00  0.3200E-01
    -14.412  0.0000E+00  0.3200E-01
    -14.319  0.0000E+00  0.3200E-01
    -14.225  0.0000E+00  0.3200E-01
    -14.132  0.0000E+00  0.3200E-01
    -14.038  0.0000E+00  0.3200E-01
    -13.945  0.0000E+00  0.3200E-01
    -13.852  0.0000E+00  0.3200E-01
    -13.758  0.0000E+00  0.3200E-01
    -13.665  0.0000E+00  0.3200E-01
    -13.572  0.0000E+00  0.3200E-01
    -13.478  0.0000E+00  0.3200E-01
    -13.385  0.0000E+00  0.3200E-01
    -13.292  0.0000E+00  0.3200E-01
    -13.198  0.0000E+00  0.3200E-01
    -13.105  0.0000E+00  0.3200E-01
    -13.012  0.0000E+00  0.3200E-01
    -12.918  0.0000E+00  0.3200E-01
    -12.825  0.0000E+00  0.3200E-01
    -12.732  0.0000E+00  0.3200E-01
    -12.638  0.0000E+00  0.3200E-01
    -12.545  0.0000E+00  0.3200E-01
    -12.452  0.0000E+00  0.3200E-01
    -12.358  0.0000E+00  0.3200E-01
    -12.265  0.0000E+00  0.3200E-01
    -12.172  0.0000E+00  0.3200E-01
    -12.078  0.0000E+00  0.3200E-01
    -11.985  0.0000E+00  0.3200E-01
    -11.892  0.0000E+00  0.3200E-01
    -11.798  0.0000E+00  0.3200E-01
    -11.705  0.0000E+00  0.3200E-01
    -11.611  0.0000E+00  0.3200E-01
    -11.518  0.0000E+00  0.3200E-01
    -11.425  0.0000E+00  0.3200E-01
    -11.331  0.0000E+00  0.3200E-01
    -11.238  0.0000E+00  0.3200E-01
    -11.145  0.0000E+00  0.3200E-01
    -11.051  0.0000E+00  0.3200E-01
    -10.958  0.0000E+00  0.3200E-01
    -10.865  0.0000E+00  0.3200E-01
    -10.771  0.0000E+00  0.3200E-01
    -10.678  0.0000E+00  0.3200E-01
    -10.585  0.0000E+00  0.3200E-01
    -10.491  0.0000E+00  0.3200E-01
    -10.398  0.0000E+00  0.3200E-01
    -10.305  0.0000E+00  0.3200E-01
    -10.211  0.0000E+00  0.3200E-01
    -10.118  0.0000E+00  0.3200E-01
    -10.025  0.0000E+00  0.3200E-01
     -9.931  0.0000E+00  0.3200E-01
     -9.838  0.3568E-17  0.3200E-01
     -9.745  0.8340E-13  0.3200E-01
     -9.651  0.3480E-09  0.3200E-01
     -9.558  0.2702E-06  0.3200E-01
     -9.464  0.4001E-04  0.3200E-01
     -9.371  0.1176E-02  0.3211E-01
     -9.278  0.7281E-02  0.3279E-01
     -9.184  0.1099E-01  0.3382E-01
     -9.091  0.9870E-02  0.3474E-01
     -8.998  0.9874E-02  0.3566E-01
     -8.904  0.3630E-02  0.3600E-01
     -8.811  0.2867E-02  0.3627E-01
     -8.718  0.7758E-02  0.3699E-01
     -8.624  0.1199E-01  0.3811E-01
     -8.531  0.1790E-01  0.3978E-01
     -8.438  0.2630E-01  0.4224E-01
     -8.344  0.2455E-01  0.4453E-01
     -8.251  0.2401E-01  0.4677E-01
     -8.158  0.2723E-01  0.4931E-01
     -8.064  0.3027E-01  0.5214E-01
     -7.971  0.4490E-01  0.5633E-01
     -7.878  0.5056E-01  0.6105E-01
     -7.784  0.5096E-01  0.6581E-01
     -7.691  0.6988E-01  0.7233E-01
     -7.598  0.8247E-01  0.8003E-01
     -7.504  0.7860E-01  0.8736E-01
     -7.411  0.8307E-01  0.9512E-01
     -7.318  0.1006E+00  0.1045E+00
     -7.224  0.1037E+00  0.1142E+00
     -7.131  0.1032E+00  0.1238E+00
     -7.037  0.1255E+00  0.1355E+00
     -6.944  0.1388E+00  0.1485E+00
     -6.851  0.1384E+00  0.1614E+00
     -6.757  0.1473E+00  0.1752E+00
     -6.664  0.1549E+00  0.1896E+00
     -6.571  0.1657E+00  0.2051E+00
     -6.477  0.1689E+00  0.2209E+00
     -6.384  0.1623E+00  0.2360E+00
     -6.291  0.1562E+00  0.2506E+00
     -6.197  0.1532E+00  0.2649E+00
     -6.104  0.1600E+00  0.2798E+00
     -6.011  0.1589E+00  0.2946E+00
     -5.917  0.1510E+00  0.3087E+00
     -5.824  0.1487E+00  0.3226E+00
     -5.731  0.1497E+00  0.3366E+00
     -5.637  0.1575E+00  0.3513E+00
     -5.544  0.1633E+00  0.3665E+00
     -5.451  0.1685E+00  0.3823E+00
     -5.357  0.1722E+00  0.3983E+00
     -5.264  0.1720E+00  0.4144E+00
     -5.171  0.1810E+00  0.4313E+00
     -5.077  0.1840E+00  0.4485E+00
     -4.984  0.1754E+00  0.4648E+00
     -4.890  0.1723E+00  0.4809E+00
     -4.797  0.1776E+00  0.4975E+00
     -4.704  0.1806E+00  0.5144E+00
     -4.610  0.1826E+00  0.5314E+00
     -4.517  0.1834E+00  0.5485E+00
     -4.424  0.1864E+00  0.5659E+00
     -4.330  0.1862E+00  0.5833E+00
     -4.237  0.1819E+00  0.6003E+00
     -4.144  0.1922E+00  0.6182E+00
     -4.050  0.2010E+00  0.6370E+00
     -3.957  0.2065E+00  0.6563E+00
     -3.864  0.2074E+00  0.6756E+00
     -3.770  0.2000E+00  0.6943E+00
     -3.677  0.1925E+00  0.7123E+00
     -3.584  0.1902E+00  0.7300E+00
     -3.490  0.1891E+00  0.7477E+00
     -3.397  0.1860E+00  0.7650E+00
     -3.304  0.1888E+00  0.7827E+00
     -3.210  0.1886E+00  0.8003E+00
     -3.117  0.1916E+00  0.8181E+00
     -3.024  0.1958E+00  0.8364E+00
     -2.930  0.1955E+00  0.8547E+00
     -2.837  0.1918E+00  0.8726E+00
     -2.744  0.1827E+00  0.8896E+00
     -2.650  0.1749E+00  0.9060E+00
     -2.557  0.1735E+00  0.9221E+00
     -2.463  0.1781E+00  0.9388E+00
     -2.370  0.1858E+00  0.9561E+00
     -2.277  0.1940E+00  0.9742E+00
     -2.183  0.1926E+00  0.9922E+00
     -2.090  0.1852E+00  0.1009E+01
     -1.997  0.1752E+00  0.1026E+01
     -1.903  0.1721E+00  0.1042E+01
     -1.810  0.1662E+00  0.1057E+01
     -1.717  0.1545E+00  0.1072E+01
     -1.623  0.1375E+00  0.1085E+01
     -1.530  0.1134E+00  0.1095E+01
     -1.437  0.9078E-01  0.1104E+01
     -1.343  0.7430E-01  0.1111E+01
     -1.250  0.6621E-01  0.1117E+01
     -1.157  0.5903E-01  0.1122E+01
     -1.063  0.5278E-01  0.1127E+01
     -0.970  0.4894E-01  0.1132E+01
     -0.877  0.4977E-01  0.1137E+01
     -0.783  0.5508E-01  0.1142E+01
     -0.690  0.5058E-01  0.1146E+01
     -0.597  0.4698E-01  0.1151E+01
     -0.503  0.4710E-01  0.1155E+01
     -0.410  0.4075E-01  0.1159E+01
     -0.317  0.3264E-01  0.1162E+01
     -0.223  0.2847E-01  0.1165E+01
     -0.130  0.2865E-01  0.1167E+01
     -0.036  0.2979E-01  0.1170E+01
      0.057  0.2458E-01  0.1172E+01
      0.150  0.2069E-01  0.1174E+01
      0.244  0.1973E-01  0.1176E+01
      0.337  0.2476E-01  0.1179E+01
      0.430  0.3245E-01  0.1182E+01
      0.524  0.3527E-01  0.1185E+01
      0.617  0.3322E-01  0.1188E+01
      0.710  0.3363E-01  0.1191E+01
      0.804  0.3818E-01  0.1195E+01
      0.897  0.3744E-01  0.1198E+01
      0.990  0.2358E-01  0.1200E+01
      1.084  0.2176E-01  0.1202E+01
      1.177  0.2153E-01  0.1204E+01
      1.270  0.2295E-01  0.1207E+01
      1.364  0.2378E-01  0.1209E+01
      1.457  0.2410E-01  0.1211E+01
      1.550  0.2725E-01  0.1214E+01
      1.644  0.3189E-01  0.1216E+01
      1.737  0.3849E-01  0.1220E+01
      1.830  0.3998E-01  0.1224E+01
      1.924  0.3760E-01  0.1227E+01
      2.017  0.3380E-01  0.1230E+01
      2.111  0.3289E-01  0.1234E+01
      2.204  0.3698E-01  0.1237E+01
      2.297  0.3129E-01  0.1240E+01
      2.391  0.2334E-01  0.1242E+01
      2.484  0.2041E-01  0.1244E+01
      2.577  0.1844E-01  0.1246E+01
      2.671  0.2260E-01  0.1248E+01
      2.764  0.2605E-01  0.1250E+01
      2.857  0.2228E-01  0.1252E+01
      2.951  0.1984E-01  0.1254E+01
      3.044  0.2002E-01  0.1256E+01
      3.137  0.2492E-01  0.1258E+01
      3.231  0.3436E-01  0.1262E+01
      3.324  0.4355E-01  0.1266E+01
      3.417  0.4516E-01  0.1270E+01
      3.511  0.3646E-01  0.1273E+01
      3.604  0.3601E-01  0.1277E+01
      3.697  0.3910E-01  0.1280E+01
      3.791  0.3798E-01  0.1284E+01
      3.884  0.3127E-01  0.1287E+01
      3.977  0.3004E-01  0.1290E+01
      4.071  0.3854E-01  0.1293E+01
      4.164  0.3896E-01  0.1297E+01
      4.257  0.3910E-01  0.1300E+01
      4.351  0.3793E-01  0.1304E+01
      4.444  0.3377E-01  0.1307E+01
      4.538  0.4016E-01  0.1311E+01
      4.631  0.5469E-01  0.1316E+01
      4.724  0.5971E-01  0.1322E+01
      4.818  0.5788E-01  0.1327E+01
      4.911  0.5796E-01  0.1332E+01
      5.004  0.5274E-01  0.1337E+01
      5.098  0.4193E-01  0.1341E+01
      5.191  0.2377E-01  0.1343E+01
      5.284  0.5565E-02  0.1344E+01
      5.378  0.3570E-03  0.1344E+01
      5.471  0.5051E-05  0.1344E+01
      5.564  0.1420E-07  0.1344E+01
      5.658  0.7550E-11  0.1344E+01
      5.751  0.7398E-15  0.1344E+01
      5.844  0.0000E+00  0.1344E+01
      5.938  0.0000E+00  0.1344E+01
      6.031  0.0000E+00  0.1344E+01
      6.124  0.0000E+00  0.1344E+01
      6.218  0.0000E+00  0.1344E+01
      6.311  0.0000E+00  0.1344E+01
      6.404  0.0000E+00  0.1344E+01
