<?xml version="1.0" encoding="ISO-8859-1"?>
<modeling>
 <generator>
  <i name="program" type="string">vasp </i>
  <i name="version" type="string">5.4.1  </i>
  <i name="subversion" type="string">24Jun15 (build Mar 14 2019 10:18:33) complex                          parallel </i>
  <i name="platform" type="string">INTEL-19.0.2+OPENMPI-3.1.3 </i>
  <i name="date" type="string">2023 01 23 </i>
  <i name="time" type="string">11:30:56 </i>
 </generator>
 <incar>
  <i type="int" name="ISTART">     0</i>
  <i type="string" name="PREC">normal</i>
  <i type="string" name="ALGO"> Fast</i>
  <i type="int" name="NELM">   500</i>
  <i type="int" name="IBRION">     2</i>
  <i type="int" name="NFREE">     2</i>
  <i name="EDIFF">      0.00000100</i>
  <i name="EDIFFG">     -0.02000000</i>
  <i type="int" name="NSW">   500</i>
  <i type="int" name="ISIF">     0</i>
  <i type="int" name="ISYM">     2</i>
  <i name="ENCUT">    400.00000000</i>
  <i name="POTIM">      0.35000000</i>
  <i type="string" name="LREAL"> Auto</i>
  <i type="logical" name="LPLANE"> T  </i>
  <i type="int" name="ISMEAR">     0</i>
  <i name="SIGMA">      0.10000000</i>
  <i type="int" name="NWRITE">     1</i>
  <i type="logical" name="LWAVE"> F  </i>
  <i type="logical" name="LCHARG"> F  </i>
  <i type="logical" name="LVTOT"> F  </i>
  <i type="logical" name="LORBIT"> F  </i>
  <i type="logical" name="LAECHG"> F  </i>
  <v type="int" name="KPOINT_BSE">    -1     0     0     0</v>
  <i type="int" name="NELM">   500</i>
  <i type="string" name="GGA"> PE          ! optPBE-vdW XC-functional</i>
  <i type="int" name="VOSKOWN">     1</i>
  <i type="logical" name="LDIPOL"> T  </i>
  <i type="logical" name="LMONO"> F  </i>
  <i type="int" name="IDIPOL">     3</i>
  <v name="DIPOL">      0.00000000      0.00000000      0.50000000</v>
 </incar>
 <kpoints>
  <generation param="Monkhorst-Pack">
   <v type="int" name="divisions">       2        2        1 </v>
   <v name="usershift">      0.00000000       0.00000000       0.00000000 </v>
   <v name="genvec1">      0.50000000       0.00000000       0.00000000 </v>
   <v name="genvec2">      0.00000000       0.50000000       0.00000000 </v>
   <v name="genvec3">      0.00000000       0.00000000       1.00000000 </v>
   <v name="shift">      0.50000000       0.50000000       0.00000000 </v>
  </generation>
  <varray name="kpointlist" >
   <v>       0.25000000       0.25000000       0.00000000 </v>
   <v>       0.00000000       0.25000000       0.00000000 </v>
   <v>      -0.25000000       0.00000000       0.00000000 </v>
   <v>      -0.25000000       0.25000000       0.00000000 </v>
   <v>       0.50000000      -0.25000000       0.00000000 </v>
   <v>      -0.25000000       0.50000000       0.00000000 </v>
  </varray>
  <varray name="weights" >
   <v>       0.16666667 </v>
   <v>       0.16666667 </v>
   <v>       0.16666667 </v>
   <v>       0.16666667 </v>
   <v>       0.16666667 </v>
   <v>       0.16666667 </v>
  </varray>
 </kpoints>
 <parameters>
  <separator name="general" >
   <i type="string" name="SYSTEM">unknown system</i>
   <i type="logical" name="LCOMPAT"> F  </i>
  </separator>
  <separator name="electronic" >
   <i type="string" name="PREC">normal</i>
   <i name="ENMAX">    400.00000000</i>
   <i name="ENAUG">    605.39200000</i>
   <i name="EDIFF">      0.00000100</i>
   <i type="int" name="IALGO">    68</i>
   <i type="int" name="IWAVPR">    11</i>
   <i type="int" name="NBANDS">   336</i>
   <i name="NELECT">    552.00000000</i>
   <i type="int" name="TURBO">     0</i>
   <i type="int" name="IRESTART">     0</i>
   <i type="int" name="NREBOOT">     0</i>
   <i type="int" name="NMIN">     0</i>
   <i name="EREF">      0.00000000</i>
   <separator name="electronic smearing" >
    <i type="int" name="ISMEAR">     0</i>
    <i name="SIGMA">      0.10000000</i>
    <i name="KSPACING">      0.50000000</i>
    <i type="logical" name="KGAMMA"> T  </i>
   </separator>
   <separator name="electronic projectors" >
    <i type="logical" name="LREAL"> T  </i>
    <v name="ROPT">     -0.00050000     -0.00050000     -0.00050000</v>
    <i type="int" name="LMAXPAW">  -100</i>
    <i type="int" name="LMAXMIX">     2</i>
    <i type="logical" name="NLSPLINE"> F  </i>
   </separator>
   <separator name="electronic startup" >
    <i type="int" name="ISTART">     0</i>
    <i type="int" name="ICHARG">     2</i>
    <i type="int" name="INIWAV">     1</i>
   </separator>
   <separator name="electronic spin" >
    <i type="int" name="ISPIN">     1</i>
    <i type="logical" name="LNONCOLLINEAR"> F  </i>
    <v name="MAGMOM">      1.00000000      1.00000000      1.00000000      1.00000000      1.00000000      1.00000000      1.00000000      1.00000000      1.00000000      1.00000000      1.00000000      1.00000000      1.00000000      1.00000000      1.00000000      1.00000000      1.00000000      1.00000000      1.00000000      1.00000000
      1.00000000      1.00000000      1.00000000      1.00000000      1.00000000      1.00000000      1.00000000      1.00000000      1.00000000      1.00000000      1.00000000      1.00000000      1.00000000      1.00000000      1.00000000      1.00000000      1.00000000      1.00000000      1.00000000      1.00000000
      1.00000000      1.00000000      1.00000000      1.00000000      1.00000000      1.00000000      1.00000000      1.00000000      1.00000000      1.00000000      1.00000000      1.00000000      1.00000000      1.00000000      1.00000000      1.00000000</v>
    <i name="NUPDOWN">     -1.00000000</i>
    <i type="logical" name="LSORBIT"> F  </i>
    <v name="SAXIS">      0.00000000      0.00000000      1.00000000</v>
    <i type="logical" name="LSPIRAL"> F  </i>
    <v name="QSPIRAL">      0.00000000      0.00000000      0.00000000</v>
    <i type="logical" name="LZEROZ"> F  </i>
   </separator>
   <separator name="electronic exchange-correlation" >
    <i type="logical" name="LASPH"> F  </i>
    <i type="logical" name="LMETAGGA"> F  </i>
   </separator>
   <separator name="electronic convergence" >
    <i type="int" name="NELM">   500</i>
    <i type="int" name="NELMDL">    -5</i>
    <i type="int" name="NELMIN">     2</i>
    <i name="ENINI">    400.00000000</i>
    <separator name="electronic convergence detail" >
     <i type="logical" name="LDIAG"> T  </i>
     <i type="logical" name="LSUBROT"> F  </i>
     <i name="WEIMIN">      0.00100000</i>
     <i name="EBREAK">      0.00000000</i>
     <i name="DEPER">      0.30000000</i>
     <i type="int" name="NRMM">     4</i>
     <i name="TIME">      0.40000000</i>
    </separator>
   </separator>
   <separator name="electronic mixer" >
    <i name="AMIX">      0.40000000</i>
    <i name="BMIX">      1.00000000</i>
    <i name="AMIN">      0.10000000</i>
    <i name="AMIX_MAG">      1.60000000</i>
    <i name="BMIX_MAG">      1.00000000</i>
    <separator name="electronic mixer details" >
     <i type="int" name="IMIX">     4</i>
     <i type="logical" name="MIXFIRST"> F  </i>
     <i type="int" name="MAXMIX">   -45</i>
     <i name="WC">    100.00000000</i>
     <i type="int" name="INIMIX">     1</i>
     <i type="int" name="MIXPRE">     1</i>
     <i type="int" name="MREMOVE">     5</i>
    </separator>
   </separator>
   <separator name="electronic dipolcorrection" >
    <i type="logical" name="LDIPOL"> T  </i>
    <i type="logical" name="LMONO"> F  </i>
    <i type="int" name="IDIPOL">     3</i>
    <i name="EPSILON">      1.00000000</i>
    <v name="DIPOL">      0.00000000      0.00000000      0.50000000</v>
    <i name="EFIELD">      0.00000000</i>
   </separator>
  </separator>
  <separator name="grids" >
   <i type="int" name="NGX">    54</i>
   <i type="int" name="NGY">    54</i>
   <i type="int" name="NGZ">   128</i>
   <i type="int" name="NGXF">   108</i>
   <i type="int" name="NGYF">   108</i>
   <i type="int" name="NGZF">   256</i>
   <i type="logical" name="ADDGRID"> F  </i>
  </separator>
  <separator name="ionic" >
   <i type="int" name="NSW">   500</i>
   <i type="int" name="IBRION">     2</i>
   <i type="int" name="ISIF">     0</i>
   <i name="PSTRESS">      0.00000000</i>
   <i name="EDIFFG">     -0.02000000</i>
   <i type="int" name="NFREE">     2</i>
   <i name="POTIM">      0.35000000</i>
   <i name="SMASS">     -3.00000000</i>
   <i name="SCALEE">      1.00000000</i>
  </separator>
  <separator name="ionic md" >
   <i name="TEBEG">      0.00010000</i>
   <i name="TEEND">      0.00010000</i>
   <i type="int" name="NBLOCK">     1</i>
   <i type="int" name="KBLOCK">   500</i>
   <i type="int" name="NPACO">   256</i>
   <i name="APACO">     16.00000000</i>
  </separator>
  <separator name="symmetry" >
   <i type="int" name="ISYM">     2</i>
   <i name="SYMPREC">      0.00001000</i>
  </separator>
  <separator name="dos" >
   <i type="logical" name="LORBIT"> F  </i>
   <v name="RWIGS">     -1.00000000     -1.00000000     -1.00000000</v>
   <i type="int" name="NEDOS">   301</i>
   <i name="EMIN">     10.00000000</i>
   <i name="EMAX">    -10.00000000</i>
   <i name="EFERMI">      0.00000000</i>
  </separator>
  <separator name="writing" >
   <i type="int" name="NWRITE">     1</i>
   <i type="logical" name="LWAVE"> F  </i>
   <i type="logical" name="LCHARG"> F  </i>
   <i type="logical" name="LPARD"> F  </i>
   <i type="logical" name="LVTOT"> F  </i>
   <i type="logical" name="LVHAR"> F  </i>
   <i type="logical" name="LELF"> F  </i>
   <i type="logical" name="LOPTICS"> F  </i>
   <v name="STM">      0.00000000      0.00000000      0.00000000      0.00000000      0.00000000      0.00000000      0.00000000</v>
  </separator>
  <separator name="performance" >
   <i type="int" name="NPAR">     6</i>
   <i type="int" name="NSIM">     4</i>
   <i type="int" name="NBLK">    -1</i>
   <i type="logical" name="LPLANE"> T  </i>
   <i type="logical" name="LSCALAPACK"> T  </i>
   <i type="logical" name="LSCAAWARE"> F  </i>
   <i type="logical" name="LSCALU"> F  </i>
   <i type="logical" name="LASYNC"> F  </i>
   <i type="logical" name="LORBITALREAL"> F  </i>
  </separator>
  <separator name="miscellaneous" >
   <i type="int" name="IDIOT">     3</i>
   <i type="logical" name="LMUSIC"> F  </i>
   <v name="POMASS">    196.96600000     16.00000000    106.42000000</v>
   <v name="DARWINR">      0.00000000      0.00000000      0.00000000</v>
   <v name="DARWINV">      1.00000000      1.00000000      1.00000000</v>
   <i type="logical" name="LCORR"> T  </i>
  </separator>
  <i type="logical" name="GGA_COMPAT"> T  </i>
  <i type="logical" name="LBERRY"> F  </i>
  <i type="int" name="ICORELEVEL">     0</i>
  <i type="logical" name="LDAU"> F  </i>
  <i type="int" name="I_CONSTRAINED_M">     0</i>
  <separator name="electronic exchange-correlation" >
   <i type="string" name="GGA">PE</i>
   <i type="int" name="VOSKOWN">     1</i>
   <i type="logical" name="LHFCALC"> F  </i>
   <i type="string" name="PRECFOCK"></i>
   <i type="logical" name="LSYMGRAD"> F  </i>
   <i type="logical" name="LHFONE"> F  </i>
   <i type="logical" name="LRHFCALC"> F  </i>
   <i type="logical" name="LTHOMAS"> F  </i>
   <i type="logical" name="LMODELHF"> F  </i>
   <i name="ENCUT4O">     -1.00000000</i>
   <i type="int" name="EXXOEP">     0</i>
   <i type="int" name="FOURORBIT">     0</i>
   <i name="AEXX">      0.00000000</i>
   <i name="HFALPHA">      0.00000000</i>
   <i name="MCALPHA">      0.00000000</i>
   <i name="ALDAX">      1.00000000</i>
   <i name="AGGAX">      1.00000000</i>
   <i name="ALDAC">      1.00000000</i>
   <i name="AGGAC">      1.00000000</i>
   <i type="int" name="NKREDX">     1</i>
   <i type="int" name="NKREDY">     1</i>
   <i type="int" name="NKREDZ">     1</i>
   <i type="logical" name="SHIFTRED"> F  </i>
   <i type="logical" name="ODDONLY"> F  </i>
   <i type="logical" name="EVENONLY"> F  </i>
   <i type="int" name="LMAXFOCK">     0</i>
   <i type="int" name="NMAXFOCKAE">     0</i>
   <i type="logical" name="LFOCKAEDFT"> F  </i>
   <i name="HFSCREEN">      0.00000000</i>
   <i name="HFSCREENC">      0.00000000</i>
   <i type="int" name="NBANDSGWLOW">     0</i>
  </separator>
  <separator name="vdW DFT" >
   <i type="logical" name="LUSE_VDW"> F  </i>
   <i name="Zab_VDW">     -0.84910000</i>
   <i name="PARAM1">      0.12340000</i>
   <i name="PARAM2">      1.00000000</i>
   <i name="PARAM3">      0.00000000</i>
  </separator>
  <separator name="model GW" >
   <i type="int" name="MODEL_GW">     0</i>
   <i name="MODEL_EPS0">     29.42037089</i>
   <i name="MODEL_ALPHA">      1.00000000</i>
  </separator>
  <separator name="linear response parameters" >
   <i type="logical" name="LEPSILON"> F  </i>
   <i type="logical" name="LRPA"> F  </i>
   <i type="logical" name="LNABLA"> F  </i>
   <i type="logical" name="LVEL"> F  </i>
   <i type="int" name="KINTER">     0</i>
   <i name="CSHIFT">      0.10000000</i>
   <i name="OMEGAMAX">     -1.00000000</i>
   <i name="DEG_THRESHOLD">      0.00200000</i>
  </separator>
  <separator name="orbital magnetization" >
   <i type="logical" name="NUCIND"> F  </i>
   <v name="MAGPOS">      0.00000000      0.00000000      0.00000000</v>
   <i type="logical" name="LNICSALL"> T  </i>
   <i type="logical" name="ORBITALMAG"> F  </i>
   <i type="logical" name="LMAGBLOCH"> F  </i>
   <i type="logical" name="LCHIMAG"> F  </i>
   <i type="logical" name="LGAUGE"> T  </i>
   <i type="int" name="MAGATOM">     0</i>
   <v name="MAGDIPOL">      0.00000000      0.00000000      0.00000000</v>
   <v name="AVECCONST">      0.00000000      0.00000000      0.00000000</v>
  </separator>
  <separator name="response functions" >
   <i type="logical" name="LADDER"> F  </i>
   <i type="logical" name="LFXC"> F  </i>
   <i type="logical" name="LHARTREE"> T  </i>
   <i type="int" name="IBSE">     0</i>
   <v type="int" name="KPOINT">    -1     0     0     0</v>
   <i type="logical" name="LTCTE"> F  </i>
   <i type="logical" name="LTETE"> F  </i>
   <i type="logical" name="LTRIPLET"> F  </i>
   <i type="logical" name="LFXCEPS"> F  </i>
   <i type="logical" name="LFXHEG"> F  </i>
   <i type="int" name="NATURALO">     0</i>
   <i type="logical" name="L2ORDER"> F  </i>
   <i type="logical" name="LUSEW"> F  </i>
   <i name="ENCUTGW">     -2.00000000</i>
   <i name="ENCUTGWSOFT">     -2.00000000</i>
   <i name="ENCUTLF">     -1.00000000</i>
   <i type="int" name="LMAXMP2">    -1</i>
   <i name="SCISSOR">      0.00000000</i>
   <i type="int" name="NOMEGA">     0</i>
   <i type="int" name="NOMEGAR">     0</i>
   <i type="int" name="NBANDSGW">    -1</i>
   <i type="int" name="NBANDSO">    -1</i>
   <i type="int" name="NBANDSV">    -1</i>
   <i type="int" name="NELM">   500</i>
   <i type="int" name="NELMHF">     1</i>
   <i type="int" name="DIM">     3</i>
   <i type="int" name="ANTIRES">     0</i>
   <i name="OMEGAMAX">    -30.00000000</i>
   <i name="OMEGAMIN">    -30.00000000</i>
   <i name="OMEGATL">   -200.00000000</i>
   <i type="int" name="OMEGAGRID">     0</i>
   <i name="CSHIFT">     -0.10000000</i>
   <i type="logical" name="SELFENERGY"> F  </i>
   <i type="logical" name="LSPECTRAL"> F  </i>
   <i type="logical" name="LSPECTRALGW"> F  </i>
   <i type="logical" name="LSINGLES"> F  </i>
   <i type="logical" name="LFERMIGW"> F  </i>
   <i type="logical" name="ODDONLYGW"> F  </i>
   <i type="logical" name="EVENONLYGW"> F  </i>
   <i type="int" name="NKREDLFX">     1</i>
   <i type="int" name="NKREDLFY">     1</i>
   <i type="int" name="NKREDLFZ">     1</i>
   <i type="int" name="MAXMEM">  1800</i>
   <i type="int" name="TELESCOPE">     0</i>
   <i type="int" name="TAUPAR">     1</i>
   <i type="int" name="OMEGAPAR">    -1</i>
   <i name="LAMBDA">      1.00000000</i>
  </separator>
  <separator name="External order field" >
   <i name="OFIELD_KAPPA">      0.00000000</i>
   <v name="OFIELD_K">      0.00000000      0.00000000      0.00000000</v>
   <i name="OFIELD_Q6_NEAR">      0.00000000</i>
   <i name="OFIELD_Q6_FAR">      0.00000000</i>
   <i name="OFIELD_A">      0.00000000</i>
  </separator>
 </parameters>
 <atominfo>
  <atoms>      56 </atoms>
  <types>       3 </types>
  <array name="atoms" >
   <dimension dim="1">ion</dimension>
   <field type="string">element</field>
   <field type="int">atomtype</field>
   <set>
    <rc><c>Au</c><c>   1</c></rc>
    <rc><c>Au</c><c>   1</c></rc>
    <rc><c>Au</c><c>   1</c></rc>
    <rc><c>Au</c><c>   1</c></rc>
    <rc><c>Au</c><c>   1</c></rc>
    <rc><c>Au</c><c>   1</c></rc>
    <rc><c>Au</c><c>   1</c></rc>
    <rc><c>Au</c><c>   1</c></rc>
    <rc><c>Au</c><c>   1</c></rc>
    <rc><c>Au</c><c>   1</c></rc>
    <rc><c>Au</c><c>   1</c></rc>
    <rc><c>Au</c><c>   1</c></rc>
    <rc><c>Au</c><c>   1</c></rc>
    <rc><c>Au</c><c>   1</c></rc>
    <rc><c>Au</c><c>   1</c></rc>
    <rc><c>Au</c><c>   1</c></rc>
    <rc><c>Au</c><c>   1</c></rc>
    <rc><c>Au</c><c>   1</c></rc>
    <rc><c>Au</c><c>   1</c></rc>
    <rc><c>Au</c><c>   1</c></rc>
    <rc><c>Au</c><c>   1</c></rc>
    <rc><c>Au</c><c>   1</c></rc>
    <rc><c>Au</c><c>   1</c></rc>
    <rc><c>Au</c><c>   1</c></rc>
    <rc><c>O </c><c>   2</c></rc>
    <rc><c>O </c><c>   2</c></rc>
    <rc><c>O </c><c>   2</c></rc>
    <rc><c>O </c><c>   2</c></rc>
    <rc><c>O </c><c>   2</c></rc>
    <rc><c>O </c><c>   2</c></rc>
    <rc><c>O </c><c>   2</c></rc>
    <rc><c>O </c><c>   2</c></rc>
    <rc><c>Pd</c><c>   3</c></rc>
    <rc><c>Pd</c><c>   3</c></rc>
    <rc><c>Pd</c><c>   3</c></rc>
    <rc><c>Pd</c><c>   3</c></rc>
    <rc><c>Pd</c><c>   3</c></rc>
    <rc><c>Pd</c><c>   3</c></rc>
    <rc><c>Pd</c><c>   3</c></rc>
    <rc><c>Pd</c><c>   3</c></rc>
    <rc><c>Pd</c><c>   3</c></rc>
    <rc><c>Pd</c><c>   3</c></rc>
    <rc><c>Pd</c><c>   3</c></rc>
    <rc><c>Pd</c><c>   3</c></rc>
    <rc><c>Pd</c><c>   3</c></rc>
    <rc><c>Pd</c><c>   3</c></rc>
    <rc><c>Pd</c><c>   3</c></rc>
    <rc><c>Pd</c><c>   3</c></rc>
    <rc><c>Pd</c><c>   3</c></rc>
    <rc><c>Pd</c><c>   3</c></rc>
    <rc><c>Pd</c><c>   3</c></rc>
    <rc><c>Pd</c><c>   3</c></rc>
    <rc><c>Pd</c><c>   3</c></rc>
    <rc><c>Pd</c><c>   3</c></rc>
    <rc><c>Pd</c><c>   3</c></rc>
    <rc><c>Pd</c><c>   3</c></rc>
   </set>
  </array>
  <array name="atomtypes" >
   <dimension dim="1">type</dimension>
   <field type="int">atomspertype</field>
   <field type="string">element</field>
   <field>mass</field>
   <field>valence</field>
   <field type="string">pseudopotential</field>
   <set>
    <rc><c>  24</c><c>Au</c><c>    196.96600000</c><c>     11.00000000</c><c>  PAW_PBE Au 04Oct2007                  </c></rc>
    <rc><c>   8</c><c>O </c><c>     16.00000000</c><c>      6.00000000</c><c>  PAW_PBE O 08Apr2002                   </c></rc>
    <rc><c>  24</c><c>Pd</c><c>    106.42000000</c><c>     10.00000000</c><c>  PAW_PBE Pd 04Jan2005                  </c></rc>
   </set>
  </array>
 </atominfo>
 <structure name="initialpos" >
  <crystal>
   <varray name="basis" >
    <v>      11.00258152       0.00000000       0.00000000 </v>
    <v>       5.50129076       9.52851510       0.00000000 </v>
    <v>       0.00000000       0.00000000      26.19178509 </v>
   </varray>
   <i name="volume">   2745.90128299 </i>
   <varray name="rec_basis" >
    <v>       0.09088776      -0.05247407       0.00000000 </v>
    <v>       0.00000000       0.10494815       0.00000000 </v>
    <v>       0.00000000       0.00000000       0.03817991 </v>
   </varray>
  </crystal>
  <varray name="positions" >
   <v>       0.58333333       0.58333333       0.38179910 </v>
   <v>       0.41926608       0.92042874       0.47597982 </v>
   <v>       0.91817599       0.16764809       0.47388264 </v>
   <v>       0.98953573       0.00481222       0.57473753 </v>
   <v>       0.50073071       0.50375258       0.56481352 </v>
   <v>       0.08333333       0.33333333       0.38179910 </v>
   <v>       0.91957220       0.41721117       0.47523487 </v>
   <v>       0.97747078       0.27062067       0.60310293 </v>
   <v>       0.58333333       0.83333333       0.38179910 </v>
   <v>       0.08333333       0.58333333       0.38179910 </v>
   <v>       0.83333333       0.83333333       0.38179910 </v>
   <v>       0.75235853       0.25847195       0.56517896 </v>
   <v>       0.00631131       0.48521223       0.56597424 </v>
   <v>       0.91790545       0.91692853       0.47539625 </v>
   <v>       0.27430286       0.74001039       0.62597463 </v>
   <v>       0.16755011       0.91771951       0.47656566 </v>
   <v>       0.67223909       0.66725327       0.47474375 </v>
   <v>       0.17113061       0.16816186       0.47710137 </v>
   <v>       0.25234781       0.99646687       0.56804648 </v>
   <v>       0.33333333       0.83333333       0.38179910 </v>
   <v>       0.41860282       0.66603738       0.47483145 </v>
   <v>       0.17579938       0.41418862       0.47586150 </v>
   <v>       0.22093742       0.26225154       0.61027027 </v>
   <v>       0.16993541       0.66660026       0.47775992 </v>
   <v>       0.08695741       0.58459038       0.61312390 </v>
   <v>       0.35643179       0.34254879       0.61337188 </v>
   <v>       0.09376731       0.07371056       0.62931714 </v>
   <v>       0.76202090       0.62940383       0.61802458 </v>
   <v>       0.06902975       0.83212221       0.62789159 </v>
   <v>       0.39242692       0.06876227       0.62637398 </v>
   <v>       0.47980045       0.65053019       0.62691776 </v>
   <v>       0.66271033       0.14181562       0.61373645 </v>
   <v>       0.33333333       0.58333333       0.38179910 </v>
   <v>       0.25605864       0.50649676       0.56639774 </v>
   <v>       0.99137435       0.75673343       0.57263698 </v>
   <v>       0.74358594       0.75993781       0.56596156 </v>
   <v>       0.58333333       0.08333333       0.38179910 </v>
   <v>       0.42080215       0.16827000       0.47143508 </v>
   <v>       0.49881432       0.00581554       0.56422060 </v>
   <v>       0.08333333       0.83333333       0.38179910 </v>
   <v>       0.92035280       0.66859242       0.47811156 </v>
   <v>       0.58333333       0.33333333       0.38179910 </v>
   <v>       0.42161065       0.41590065       0.47360239 </v>
   <v>       0.50586524       0.24810703       0.56140082 </v>
   <v>       0.08333333       0.08333333       0.38179910 </v>
   <v>       0.83333333       0.58333333       0.38179910 </v>
   <v>       0.66727150       0.91972997       0.47604792 </v>
   <v>       0.49799700       0.75473554       0.56491365 </v>
   <v>       0.83333333       0.08333333       0.38179910 </v>
   <v>       0.66689888       0.16821181       0.47076372 </v>
   <v>       0.74680995       0.00025072       0.56140619 </v>
   <v>       0.75365492       0.50180421       0.56805029 </v>
   <v>       0.83333333       0.33333333       0.38179910 </v>
   <v>       0.66995554       0.41563457       0.47353634 </v>
   <v>       0.33333333       0.08333333       0.38179910 </v>
   <v>       0.33333333       0.33333333       0.38179910 </v>
  </varray>
  <varray name="selective"  type="logical" >
   <v type="logical" >  F  F  F </v>
   <v type="logical" >  T  T  T </v>
   <v type="logical" >  T  T  T </v>
   <v type="logical" >  T  T  T </v>
   <v type="logical" >  T  T  T </v>
   <v type="logical" >  F  F  F </v>
   <v type="logical" >  T  T  T </v>
   <v type="logical" >  T  T  T </v>
   <v type="logical" >  F  F  F </v>
   <v type="logical" >  F  F  F </v>
   <v type="logical" >  F  F  F </v>
   <v type="logical" >  T  T  T </v>
   <v type="logical" >  T  T  T </v>
   <v type="logical" >  T  T  T </v>
   <v type="logical" >  T  T  T </v>
   <v type="logical" >  T  T  T </v>
   <v type="logical" >  T  T  T </v>
   <v type="logical" >  T  T  T </v>
   <v type="logical" >  T  T  T </v>
   <v type="logical" >  F  F  F </v>
   <v type="logical" >  T  T  T </v>
   <v type="logical" >  T  T  T </v>
   <v type="logical" >  T  T  T </v>
   <v type="logical" >  T  T  T </v>
   <v type="logical" >  T  T  T </v>
   <v type="logical" >  T  T  T </v>
   <v type="logical" >  T  T  T </v>
   <v type="logical" >  T  T  T </v>
   <v type="logical" >  T  T  T </v>
   <v type="logical" >  T  T  T </v>
   <v type="logical" >  T  T  T </v>
   <v type="logical" >  T  T  T </v>
   <v type="logical" >  F  F  F </v>
   <v type="logical" >  T  T  T </v>
   <v type="logical" >  T  T  T </v>
   <v type="logical" >  T  T  T </v>
   <v type="logical" >  F  F  F </v>
   <v type="logical" >  T  T  T </v>
   <v type="logical" >  T  T  T </v>
   <v type="logical" >  F  F  F </v>
   <v type="logical" >  T  T  T </v>
   <v type="logical" >  F  F  F </v>
   <v type="logical" >  T  T  T </v>
   <v type="logical" >  T  T  T </v>
   <v type="logical" >  F  F  F </v>
   <v type="logical" >  F  F  F </v>
   <v type="logical" >  T  T  T </v>
   <v type="logical" >  T  T  T </v>
   <v type="logical" >  F  F  F </v>
   <v type="logical" >  T  T  T </v>
   <v type="logical" >  T  T  T </v>
   <v type="logical" >  T  T  T </v>
   <v type="logical" >  F  F  F </v>
   <v type="logical" >  T  T  T </v>
   <v type="logical" >  F  F  F </v>
   <v type="logical" >  F  F  F </v>
  </varray>
  <nose>
   <v>      -3.00000000       0.00000000       0.00010000       0.00010000 </v>
  </nose>
 </structure>
 <calculation>
  <scstep>
   <time name="dav">    8.19    8.21</time>
   <time name="total">    8.27    8.34</time>
   <dipole>
    <v name="dipole">      0.00000000       0.00000000       0.00009565 </v>
    <i name="Tr[quadrupol]"> -11159.92461575 </i>
    <i name="Echarged">      0.00000000 </i>
    <i name="Edipol_quadrupol">      0.00000000 </i>
    <i name="Eion">      0.00000000 </i>
   </dipole>
   <energy>
    <i name="alphaZ">    862.57736195 </i>
    <i name="ewald"> 236867.83667471 </i>
    <i name="hartreedc">-282489.76782897 </i>
    <i name="XCdc">   -116.14184214 </i>
    <i name="pawpsdc">  43112.45544455 </i>
    <i name="pawaedc"> -41079.41300390 </i>
    <i name="eentropy">     -0.13773880 </i>
    <i name="bandstr">   1347.90969110 </i>
    <i name="atom">  45117.89144060 </i>
    <i name="e_fr_energy">   3623.21019910 </i>
    <i name="e_wo_entrp">   3623.34793790 </i>
    <i name="e_0_energy">   3623.27906850 </i>
   </energy>
  </scstep>
  <scstep>
   <time name="dav">    9.77    9.88</time>
   <time name="total">    9.77    9.89</time>
   <dipole>
    <v name="dipole">      0.00000000       0.00000000       0.00009565 </v>
    <i name="Tr[quadrupol]"> -11159.92461575 </i>
    <i name="Echarged">      0.00000000 </i>
    <i name="Edipol_quadrupol">      0.00000000 </i>
    <i name="Eion">      0.00000000 </i>
   </dipole>
   <energy>
    <i name="e_fr_energy">     53.67418683 </i>
    <i name="e_wo_entrp">     53.83168360 </i>
    <i name="e_0_energy">     53.75293521 </i>
   </energy>
  </scstep>
  <scstep>
   <time name="dav">    9.62    9.69</time>
   <time name="total">    9.62    9.69</time>
   <dipole>
    <v name="dipole">      0.00000000       0.00000000       0.00009565 </v>
    <i name="Tr[quadrupol]"> -11159.92461575 </i>
    <i name="Echarged">      0.00000000 </i>
    <i name="Edipol_quadrupol">      0.00000000 </i>
    <i name="Eion">      0.00000000 </i>
   </dipole>
   <energy>
    <i name="e_fr_energy">   -252.42352433 </i>
    <i name="e_wo_entrp">   -252.15338555 </i>
    <i name="e_0_energy">   -252.28845494 </i>
   </energy>
  </scstep>
  <scstep>
   <time name="dav">    9.39    9.41</time>
   <time name="total">    9.39    9.41</time>
   <dipole>
    <v name="dipole">      0.00000000       0.00000000       0.00009565 </v>
    <i name="Tr[quadrupol]"> -11159.92461575 </i>
    <i name="Echarged">      0.00000000 </i>
    <i name="Edipol_quadrupol">      0.00000000 </i>
    <i name="Eion">      0.00000000 </i>
   </dipole>
   <energy>
    <i name="e_fr_energy">   -263.27948341 </i>
    <i name="e_wo_entrp">   -262.99721416 </i>
    <i name="e_0_energy">   -263.13834879 </i>
   </energy>
  </scstep>
  <scstep>
   <time name="dav">    9.66    9.70</time>
   <time name="total">    9.94    9.97</time>
   <dipole>
    <v name="dipole">      0.00000000       0.00000000       0.00009565 </v>
    <i name="Tr[quadrupol]"> -11159.92461575 </i>
    <i name="Echarged">      0.00000000 </i>
    <i name="Edipol_quadrupol">      0.00000000 </i>
    <i name="Eion">      0.00000000 </i>
   </dipole>
   <energy>
    <i name="e_fr_energy">   -263.58453407 </i>
    <i name="e_wo_entrp">   -263.30089332 </i>
    <i name="e_0_energy">   -263.44271369 </i>
   </energy>
  </scstep>
  <scstep>
   <time name="diag">    1.49    1.49</time>
   <time name="diis">    4.05    4.06</time>
   <time name="orth">    0.35    0.35</time>
   <time name="total">    6.24    6.35</time>
   <dipole>
    <v name="dipole">      0.00000000       0.00000000       0.29451863 </v>
    <i name="Tr[quadrupol]"> -11154.63349523 </i>
    <i name="Echarged">      0.00000000 </i>
    <i name="Edipol_quadrupol">      0.00000000 </i>
    <i name="Eion">      0.00000000 </i>
   </dipole>
   <energy>
    <i name="e_fr_energy">   -250.97512471 </i>
    <i name="e_wo_entrp">   -250.72381233 </i>
    <i name="e_0_energy">   -250.84946852 </i>
   </energy>
  </scstep>
  <scstep>
   <time name="diag">    1.47    1.52</time>
   <time name="diis">    4.05    4.06</time>
   <time name="orth">    0.35    0.35</time>
   <time name="total">    6.21    6.28</time>
   <dipole>
    <v name="dipole">      0.00000000       0.00000000      -0.35002160 </v>
    <i name="Tr[quadrupol]"> -11158.95167604 </i>
    <i name="Echarged">      0.00000000 </i>
    <i name="Edipol_quadrupol">      0.00000000 </i>
    <i name="Eion">      0.00000000 </i>
   </dipole>
   <energy>
    <i name="e_fr_energy">   -240.72040548 </i>
    <i name="e_wo_entrp">   -240.41142832 </i>
    <i name="e_0_energy">   -240.56591690 </i>
   </energy>
  </scstep>
  <scstep>
   <time name="diag">    1.47    1.47</time>
   <time name="diis">    3.99    4.00</time>
   <time name="orth">    0.35    0.35</time>
   <time name="total">    6.14    6.16</time>
   <dipole>
    <v name="dipole">      0.00000000       0.00000000       2.53994539 </v>
    <i name="Tr[quadrupol]"> -11159.93826390 </i>
    <i name="Echarged">      0.00000000 </i>
    <i name="Edipol_quadrupol">      0.00000000 </i>
    <i name="Eion">      0.00000000 </i>
   </dipole>
   <energy>
    <i name="e_fr_energy">   -283.84773062 </i>
    <i name="e_wo_entrp">   -283.67777035 </i>
    <i name="e_0_energy">   -283.76275049 </i>
   </energy>
  </scstep>
  <scstep>
   <time name="diag">    1.47    1.47</time>
   <time name="diis">    4.02    4.03</time>
   <time name="orth">    0.35    0.35</time>
   <time name="total">    6.17    6.19</time>
   <dipole>
    <v name="dipole">      0.00000000       0.00000000      -1.22650092 </v>
    <i name="Tr[quadrupol]"> -11157.01521849 </i>
    <i name="Echarged">      0.00000000 </i>
    <i name="Edipol_quadrupol">      0.00000000 </i>
    <i name="Eion">      0.00000000 </i>
   </dipole>
   <energy>
    <i name="e_fr_energy">   -291.99934937 </i>
    <i name="e_wo_entrp">   -291.84914126 </i>
    <i name="e_0_energy">   -291.92424531 </i>
   </energy>
  </scstep>
  <scstep>
   <time name="diag">    1.47    1.48</time>
   <time name="diis">    3.95    3.96</time>
   <time name="orth">    0.35    0.35</time>
   <time name="total">    6.10    6.12</time>
   <dipole>
    <v name="dipole">      0.00000000       0.00000000       0.42045977 </v>
    <i name="Tr[quadrupol]"> -11158.71473906 </i>
    <i name="Echarged">      0.00000000 </i>
    <i name="Edipol_quadrupol">      0.00000000 </i>
    <i name="Eion">      0.00000000 </i>
   </dipole>
   <energy>
    <i name="e_fr_energy">   -243.87914538 </i>
    <i name="e_wo_entrp">   -243.69587559 </i>
    <i name="e_0_energy">   -243.78751049 </i>
   </energy>
  </scstep>
  <scstep>
   <time name="diag">    1.48    1.49</time>
   <time name="diis">    4.00    4.01</time>
   <time name="orth">    0.34    0.34</time>
   <time name="total">    6.16    6.19</time>
   <dipole>
    <v name="dipole">      0.00000000       0.00000000       0.34213779 </v>
    <i name="Tr[quadrupol]"> -11158.70556697 </i>
    <i name="Echarged">      0.00000000 </i>
    <i name="Edipol_quadrupol">      0.00000000 </i>
    <i name="Eion">      0.00000000 </i>
   </dipole>
   <energy>
    <i name="e_fr_energy">   -232.01494250 </i>
    <i name="e_wo_entrp">   -231.85235518 </i>
    <i name="e_0_energy">   -231.93364884 </i>
   </energy>
  </scstep>
  <scstep>
   <time name="diag">    1.46    1.46</time>
   <time name="diis">    4.08    4.09</time>
   <time name="orth">    0.34    0.34</time>
   <time name="total">    6.20    6.21</time>
   <dipole>
    <v name="dipole">      0.00000000       0.00000000       0.48615080 </v>
    <i name="Tr[quadrupol]"> -11159.52027346 </i>
    <i name="Echarged">      0.00000000 </i>
    <i name="Edipol_quadrupol">      0.00000000 </i>
    <i name="Eion">      0.00000000 </i>
   </dipole>
   <energy>
    <i name="e_fr_energy">   -231.28260589 </i>
    <i name="e_wo_entrp">   -231.10687804 </i>
    <i name="e_0_energy">   -231.19474197 </i>
   </energy>
  </scstep>
  <scstep>
   <time name="diag">    1.47    1.47</time>
   <time name="diis">    3.95    4.04</time>
   <time name="orth">    0.34    0.34</time>
   <time name="total">    6.08    6.18</time>
   <dipole>
    <v name="dipole">      0.00000000       0.00000000       0.51656526 </v>
    <i name="Tr[quadrupol]"> -11159.16194562 </i>
    <i name="Echarged">      0.00000000 </i>
    <i name="Edipol_quadrupol">      0.00000000 </i>
    <i name="Eion">      0.00000000 </i>
   </dipole>
   <energy>
    <i name="e_fr_energy">   -230.39887676 </i>
    <i name="e_wo_entrp">   -230.22189546 </i>
    <i name="e_0_energy">   -230.31038611 </i>
   </energy>
  </scstep>
  <scstep>
   <time name="diag">    1.46    1.46</time>
   <time name="diis">    4.04    4.05</time>
   <time name="orth">    0.33    0.34</time>
   <time name="total">    6.17    6.18</time>
   <dipole>
    <v name="dipole">      0.00000000       0.00000000       0.44090641 </v>
    <i name="Tr[quadrupol]"> -11159.41522403 </i>
    <i name="Echarged">      0.00000000 </i>
    <i name="Edipol_quadrupol">      0.00000000 </i>
    <i name="Eion">      0.00000000 </i>
   </dipole>
   <energy>
    <i name="e_fr_energy">   -230.27767696 </i>
    <i name="e_wo_entrp">   -230.07393158 </i>
    <i name="e_0_energy">   -230.17580427 </i>
   </energy>
  </scstep>
  <scstep>
   <time name="diag">    1.47    1.47</time>
   <time name="diis">    4.07    4.08</time>
   <time name="orth">    0.34    0.34</time>
   <time name="total">    6.21    6.25</time>
   <dipole>
    <v name="dipole">      0.00000000       0.00000000       0.45336338 </v>
    <i name="Tr[quadrupol]"> -11159.61699338 </i>
    <i name="Echarged">      0.00000000 </i>
    <i name="Edipol_quadrupol">      0.00000000 </i>
    <i name="Eion">      0.00000000 </i>
   </dipole>
   <energy>
    <i name="e_fr_energy">   -230.21195103 </i>
    <i name="e_wo_entrp">   -230.02241192 </i>
    <i name="e_0_energy">   -230.11718147 </i>
   </energy>
  </scstep>
  <scstep>
   <time name="diag">    1.46    1.46</time>
   <time name="diis">    4.03    4.05</time>
   <time name="orth">    0.34    0.34</time>
   <time name="total">    6.15    6.18</time>
   <dipole>
    <v name="dipole">      0.00000000       0.00000000       0.45476659 </v>
    <i name="Tr[quadrupol]"> -11159.70690527 </i>
    <i name="Echarged">      0.00000000 </i>
    <i name="Edipol_quadrupol">      0.00000000 </i>
    <i name="Eion">      0.00000000 </i>
   </dipole>
   <energy>
    <i name="e_fr_energy">   -230.00810911 </i>
    <i name="e_wo_entrp">   -229.81024984 </i>
    <i name="e_0_energy">   -229.90917947 </i>
   </energy>
  </scstep>
  <scstep>
   <time name="diag">    1.46    1.46</time>
   <time name="diis">    4.04    4.06</time>
   <time name="orth">    0.34    0.34</time>
   <time name="total">    6.17    6.19</time>
   <dipole>
    <v name="dipole">      0.00000000       0.00000000       0.46496655 </v>
    <i name="Tr[quadrupol]"> -11159.85689942 </i>
    <i name="Echarged">      0.00000000 </i>
    <i name="Edipol_quadrupol">      0.00000000 </i>
    <i name="Eion">      0.00000000 </i>
   </dipole>
   <energy>
    <i name="e_fr_energy">   -229.95017443 </i>
    <i name="e_wo_entrp">   -229.74759043 </i>
    <i name="e_0_energy">   -229.84888243 </i>
   </energy>
  </scstep>
  <scstep>
   <time name="diag">    1.46    1.47</time>
   <time name="diis">    4.07    4.08</time>
   <time name="orth">    0.34    0.34</time>
   <time name="total">    6.19    6.21</time>
   <dipole>
    <v name="dipole">      0.00000000       0.00000000       0.50379828 </v>
    <i name="Tr[quadrupol]"> -11160.03386877 </i>
    <i name="Echarged">      0.00000000 </i>
    <i name="Edipol_quadrupol">      0.00000000 </i>
    <i name="Eion">      0.00000000 </i>
   </dipole>
   <energy>
    <i name="e_fr_energy">   -229.93784519 </i>
    <i name="e_wo_entrp">   -229.73771420 </i>
    <i name="e_0_energy">   -229.83777970 </i>
   </energy>
  </scstep>
  <scstep>
   <time name="diag">    1.47    1.47</time>
   <time name="diis">    4.04    4.07</time>
   <time name="orth">    0.33    0.36</time>
   <time name="total">    6.17    6.27</time>
   <dipole>
    <v name="dipole">      0.00000000       0.00000000       0.51007347 </v>
    <i name="Tr[quadrupol]"> -11160.24118728 </i>
    <i name="Echarged">      0.00000000 </i>
    <i name="Edipol_quadrupol">      0.00000000 </i>
    <i name="Eion">      0.00000000 </i>
   </dipole>
   <energy>
    <i name="e_fr_energy">   -229.91673241 </i>
    <i name="e_wo_entrp">   -229.71064470 </i>
    <i name="e_0_energy">   -229.81368855 </i>
   </energy>
  </scstep>
  <scstep>
   <time name="diag">    1.46    1.47</time>
   <time name="diis">    4.05    4.06</time>
   <time name="orth">    0.33    0.34</time>
   <time name="total">    6.17    6.19</time>
   <dipole>
    <v name="dipole">      0.00000000       0.00000000       0.52667162 </v>
    <i name="Tr[quadrupol]"> -11160.37485261 </i>
    <i name="Echarged">      0.00000000 </i>
    <i name="Edipol_quadrupol">      0.00000000 </i>
    <i name="Eion">      0.00000000 </i>
   </dipole>
   <energy>
    <i name="e_fr_energy">   -229.91677360 </i>
    <i name="e_wo_entrp">   -229.71142168 </i>
    <i name="e_0_energy">   -229.81409764 </i>
   </energy>
  </scstep>
  <scstep>
   <time name="diag">    1.45    1.47</time>
   <time name="diis">    4.09    4.10</time>
   <time name="orth">    0.34    0.34</time>
   <time name="total">    6.20    6.24</time>
   <dipole>
    <v name="dipole">      0.00000000       0.00000000       0.52718992 </v>
    <i name="Tr[quadrupol]"> -11160.45723178 </i>
    <i name="Echarged">      0.00000000 </i>
    <i name="Edipol_quadrupol">      0.00000000 </i>
    <i name="Eion">      0.00000000 </i>
   </dipole>
   <energy>
    <i name="e_fr_energy">   -229.91510996 </i>
    <i name="e_wo_entrp">   -229.70970346 </i>
    <i name="e_0_energy">   -229.81240671 </i>
   </energy>
  </scstep>
  <scstep>
   <time name="diag">    1.46    1.46</time>
   <time name="diis">    4.09    4.10</time>
   <time name="orth">    0.33    0.34</time>
   <time name="total">    6.21    6.23</time>
   <dipole>
    <v name="dipole">      0.00000000       0.00000000       0.53442484 </v>
    <i name="Tr[quadrupol]"> -11160.52493574 </i>
    <i name="Echarged">      0.00000000 </i>
    <i name="Edipol_quadrupol">      0.00000000 </i>
    <i name="Eion">      0.00000000 </i>
   </dipole>
   <energy>
    <i name="e_fr_energy">   -229.91464961 </i>
    <i name="e_wo_entrp">   -229.70832426 </i>
    <i name="e_0_energy">   -229.81148694 </i>
   </energy>
  </scstep>
  <scstep>
   <time name="diag">    1.46    1.46</time>
   <time name="diis">    4.04    4.06</time>
   <time name="orth">    0.34    0.34</time>
   <time name="total">    6.18    6.20</time>
   <dipole>
    <v name="dipole">      0.00000000       0.00000000       0.54248761 </v>
    <i name="Tr[quadrupol]"> -11160.62813593 </i>
    <i name="Echarged">      0.00000000 </i>
    <i name="Edipol_quadrupol">      0.00000000 </i>
    <i name="Eion">      0.00000000 </i>
   </dipole>
   <energy>
    <i name="e_fr_energy">   -229.91456877 </i>
    <i name="e_wo_entrp">   -229.70826903 </i>
    <i name="e_0_energy">   -229.81141890 </i>
   </energy>
  </scstep>
  <scstep>
   <time name="diag">    1.46    1.46</time>
   <time name="diis">    4.02    4.03</time>
   <time name="orth">    0.34    0.34</time>
   <time name="total">    6.14    6.16</time>
   <dipole>
    <v name="dipole">      0.00000000       0.00000000       0.55114148 </v>
    <i name="Tr[quadrupol]"> -11160.71969738 </i>
    <i name="Echarged">      0.00000000 </i>
    <i name="Edipol_quadrupol">      0.00000000 </i>
    <i name="Eion">      0.00000000 </i>
   </dipole>
   <energy>
    <i name="e_fr_energy">   -229.91467410 </i>
    <i name="e_wo_entrp">   -229.70824012 </i>
    <i name="e_0_energy">   -229.81145711 </i>
   </energy>
  </scstep>
  <scstep>
   <time name="diag">    1.46    1.46</time>
   <time name="diis">    4.05    4.06</time>
   <time name="orth">    0.34    0.34</time>
   <time name="total">    6.18    6.19</time>
   <dipole>
    <v name="dipole">      0.00000000       0.00000000       0.55642857 </v>
    <i name="Tr[quadrupol]"> -11160.78187375 </i>
    <i name="Echarged">      0.00000000 </i>
    <i name="Edipol_quadrupol">      0.00000000 </i>
    <i name="Eion">      0.00000000 </i>
   </dipole>
   <energy>
    <i name="e_fr_energy">   -229.91486943 </i>
    <i name="e_wo_entrp">   -229.70833630 </i>
    <i name="e_0_energy">   -229.81160287 </i>
   </energy>
  </scstep>
  <scstep>
   <time name="diag">    1.46    1.46</time>
   <time name="diis">    3.99    4.09</time>
   <time name="orth">    0.34    0.34</time>
   <time name="total">    6.12    6.22</time>
   <dipole>
    <v name="dipole">      0.00000000       0.00000000       0.56130213 </v>
    <i name="Tr[quadrupol]"> -11160.82649613 </i>
    <i name="Echarged">      0.00000000 </i>
    <i name="Edipol_quadrupol">      0.00000000 </i>
    <i name="Eion">      0.00000000 </i>
   </dipole>
   <energy>
    <i name="e_fr_energy">   -229.91505282 </i>
    <i name="e_wo_entrp">   -229.70857576 </i>
    <i name="e_0_energy">   -229.81181429 </i>
   </energy>
  </scstep>
  <scstep>
   <time name="diag">    1.46    1.47</time>
   <time name="diis">    4.03    4.04</time>
   <time name="orth">    0.34    0.34</time>
   <time name="total">    6.16    6.18</time>
   <dipole>
    <v name="dipole">      0.00000000       0.00000000       0.56846637 </v>
    <i name="Tr[quadrupol]"> -11160.90072646 </i>
    <i name="Echarged">      0.00000000 </i>
    <i name="Edipol_quadrupol">      0.00000000 </i>
    <i name="Eion">      0.00000000 </i>
   </dipole>
   <energy>
    <i name="e_fr_energy">   -229.91537136 </i>
    <i name="e_wo_entrp">   -229.70889842 </i>
    <i name="e_0_energy">   -229.81213489 </i>
   </energy>
  </scstep>
  <scstep>
   <time name="diag">    1.46    1.46</time>
   <time name="diis">    4.01    4.03</time>
   <time name="orth">    0.34    0.34</time>
   <time name="total">    6.14    6.16</time>
   <dipole>
    <v name="dipole">      0.00000000       0.00000000       0.57547608 </v>
    <i name="Tr[quadrupol]"> -11160.97043209 </i>
    <i name="Echarged">      0.00000000 </i>
    <i name="Edipol_quadrupol">      0.00000000 </i>
    <i name="Eion">      0.00000000 </i>
   </dipole>
   <energy>
    <i name="e_fr_energy">   -229.91571995 </i>
    <i name="e_wo_entrp">   -229.70918005 </i>
    <i name="e_0_energy">   -229.81245000 </i>
   </energy>
  </scstep>
  <scstep>
   <time name="diag">    1.46    1.46</time>
   <time name="diis">    4.04    4.05</time>
   <time name="orth">    0.34    0.34</time>
   <time name="total">    6.17    6.18</time>
   <dipole>
    <v name="dipole">      0.00000000       0.00000000       0.58521679 </v>
    <i name="Tr[quadrupol]"> -11161.06735708 </i>
    <i name="Echarged">      0.00000000 </i>
    <i name="Edipol_quadrupol">      0.00000000 </i>
    <i name="Eion">      0.00000000 </i>
   </dipole>
   <energy>
    <i name="e_fr_energy">   -229.91620593 </i>
    <i name="e_wo_entrp">   -229.70964405 </i>
    <i name="e_0_energy">   -229.81292499 </i>
   </energy>
  </scstep>
  <scstep>
   <time name="diag">    1.46    1.46</time>
   <time name="diis">    3.70    3.73</time>
   <time name="orth">    0.33    0.34</time>
   <time name="total">    5.81    5.86</time>
   <dipole>
    <v name="dipole">      0.00000000       0.00000000       0.58990811 </v>
    <i name="Tr[quadrupol]"> -11161.10983968 </i>
    <i name="Echarged">      0.00000000 </i>
    <i name="Edipol_quadrupol">      0.00000000 </i>
    <i name="Eion">      0.00000000 </i>
   </dipole>
   <energy>
    <i name="e_fr_energy">   -229.91641318 </i>
    <i name="e_wo_entrp">   -229.70984765 </i>
    <i name="e_0_energy">   -229.81313042 </i>
   </energy>
  </scstep>
  <scstep>
   <time name="diag">    1.46    1.47</time>
   <time name="diis">    3.56    3.57</time>
   <time name="orth">    0.34    0.34</time>
   <time name="total">    5.70    5.72</time>
   <dipole>
    <v name="dipole">      0.00000000       0.00000000       0.59604438 </v>
    <i name="Tr[quadrupol]"> -11161.16080491 </i>
    <i name="Echarged">      0.00000000 </i>
    <i name="Edipol_quadrupol">      0.00000000 </i>
    <i name="Eion">      0.00000000 </i>
   </dipole>
   <energy>
    <i name="e_fr_energy">   -229.91662745 </i>
    <i name="e_wo_entrp">   -229.71002887 </i>
    <i name="e_0_energy">   -229.81332816 </i>
   </energy>
  </scstep>
  <scstep>
   <time name="diag">    1.45    1.46</time>
   <time name="diis">    3.09    3.10</time>
   <time name="orth">    0.34    0.34</time>
   <time name="total">    5.21    5.23</time>
   <dipole>
    <v name="dipole">      0.00000000       0.00000000       0.60002147 </v>
    <i name="Tr[quadrupol]"> -11161.18889798 </i>
    <i name="Echarged">      0.00000000 </i>
    <i name="Edipol_quadrupol">      0.00000000 </i>
    <i name="Eion">      0.00000000 </i>
   </dipole>
   <energy>
    <i name="e_fr_energy">   -229.91673401 </i>
    <i name="e_wo_entrp">   -229.71018614 </i>
    <i name="e_0_energy">   -229.81346007 </i>
   </energy>
  </scstep>
  <scstep>
   <time name="diag">    1.43    1.51</time>
   <time name="diis">    2.83    2.84</time>
   <time name="orth">    0.34    0.34</time>
   <time name="total">    4.95    5.16</time>
   <dipole>
    <v name="dipole">      0.00000000       0.00000000       0.60312730 </v>
    <i name="Tr[quadrupol]"> -11161.20837396 </i>
    <i name="Echarged">      0.00000000 </i>
    <i name="Edipol_quadrupol">      0.00000000 </i>
    <i name="Eion">      0.00000000 </i>
   </dipole>
   <energy>
    <i name="e_fr_energy">   -229.91680536 </i>
    <i name="e_wo_entrp">   -229.71021905 </i>
    <i name="e_0_energy">   -229.81351221 </i>
   </energy>
  </scstep>
  <scstep>
   <time name="diag">    1.46    1.46</time>
   <time name="diis">    2.52    2.53</time>
   <time name="orth">    0.34    0.34</time>
   <time name="total">    4.65    4.66</time>
   <dipole>
    <v name="dipole">      0.00000000       0.00000000       0.60521992 </v>
    <i name="Tr[quadrupol]"> -11161.21908677 </i>
    <i name="Echarged">      0.00000000 </i>
    <i name="Edipol_quadrupol">      0.00000000 </i>
    <i name="Eion">      0.00000000 </i>
   </dipole>
   <energy>
    <i name="e_fr_energy">   -229.91685061 </i>
    <i name="e_wo_entrp">   -229.71027036 </i>
    <i name="e_0_energy">   -229.81356049 </i>
   </energy>
  </scstep>
  <scstep>
   <time name="diag">    1.46    1.46</time>
   <time name="diis">    2.54    2.55</time>
   <time name="orth">    0.34    0.34</time>
   <time name="total">    4.68    4.69</time>
   <dipole>
    <v name="dipole">      0.00000000       0.00000000       0.60811474 </v>
    <i name="Tr[quadrupol]"> -11161.23227169 </i>
    <i name="Echarged">      0.00000000 </i>
    <i name="Edipol_quadrupol">      0.00000000 </i>
    <i name="Eion">      0.00000000 </i>
   </dipole>
   <energy>
    <i name="e_fr_energy">   -229.91690816 </i>
    <i name="e_wo_entrp">   -229.71030700 </i>
    <i name="e_0_energy">   -229.81360758 </i>
   </energy>
  </scstep>
  <scstep>
   <time name="diag">    1.47    1.47</time>
   <time name="diis">    2.50    2.50</time>
   <time name="orth">    0.34    0.34</time>
   <time name="total">    4.63    4.65</time>
   <dipole>
    <v name="dipole">      0.00000000       0.00000000       0.61073791 </v>
    <i name="Tr[quadrupol]"> -11161.24346712 </i>
    <i name="Echarged">      0.00000000 </i>
    <i name="Edipol_quadrupol">      0.00000000 </i>
    <i name="Eion">      0.00000000 </i>
   </dipole>
   <energy>
    <i name="e_fr_energy">   -229.91694813 </i>
    <i name="e_wo_entrp">   -229.71034476 </i>
    <i name="e_0_energy">   -229.81364645 </i>
   </energy>
  </scstep>
  <scstep>
   <time name="diag">    1.45    1.46</time>
   <time name="diis">    2.49    2.49</time>
   <time name="orth">    0.34    0.34</time>
   <time name="total">    4.61    4.62</time>
   <dipole>
    <v name="dipole">      0.00000000       0.00000000       0.61246639 </v>
    <i name="Tr[quadrupol]"> -11161.24996183 </i>
    <i name="Echarged">      0.00000000 </i>
    <i name="Edipol_quadrupol">      0.00000000 </i>
    <i name="Eion">      0.00000000 </i>
   </dipole>
   <energy>
    <i name="e_fr_energy">   -229.91696871 </i>
    <i name="e_wo_entrp">   -229.71036174 </i>
    <i name="e_0_energy">   -229.81366522 </i>
   </energy>
  </scstep>
  <scstep>
   <time name="diag">    1.46    1.46</time>
   <time name="diis">    2.39    2.40</time>
   <time name="orth">    0.34    0.34</time>
   <time name="total">    4.52    4.54</time>
   <dipole>
    <v name="dipole">      0.00000000       0.00000000       0.61371924 </v>
    <i name="Tr[quadrupol]"> -11161.25421595 </i>
    <i name="Echarged">      0.00000000 </i>
    <i name="Edipol_quadrupol">      0.00000000 </i>
    <i name="Eion">      0.00000000 </i>
   </dipole>
   <energy>
    <i name="e_fr_energy">   -229.91698173 </i>
    <i name="e_wo_entrp">   -229.71037410 </i>
    <i name="e_0_energy">   -229.81367792 </i>
   </energy>
  </scstep>
  <scstep>
   <time name="diag">    1.46    1.46</time>
   <time name="diis">    2.22    2.22</time>
   <time name="orth">    0.34    0.34</time>
   <time name="total">    4.35    4.37</time>
   <dipole>
    <v name="dipole">      0.00000000       0.00000000       0.61460715 </v>
    <i name="Tr[quadrupol]"> -11161.25676031 </i>
    <i name="Echarged">      0.00000000 </i>
    <i name="Edipol_quadrupol">      0.00000000 </i>
    <i name="Eion">      0.00000000 </i>
   </dipole>
   <energy>
    <i name="e_fr_energy">   -229.91699172 </i>
    <i name="e_wo_entrp">   -229.71038021 </i>
    <i name="e_0_energy">   -229.81368597 </i>
   </energy>
  </scstep>
  <scstep>
   <time name="diag">    1.45    1.46</time>
   <time name="diis">    2.09    2.09</time>
   <time name="orth">    0.34    0.34</time>
   <time name="total">    4.21    4.22</time>
   <dipole>
    <v name="dipole">      0.00000000       0.00000000       0.61500372 </v>
    <i name="Tr[quadrupol]"> -11161.25798099 </i>
    <i name="Echarged">      0.00000000 </i>
    <i name="Edipol_quadrupol">      0.00000000 </i>
    <i name="Eion">      0.00000000 </i>
   </dipole>
   <energy>
    <i name="e_fr_energy">   -229.91699567 </i>
    <i name="e_wo_entrp">   -229.71038374 </i>
    <i name="e_0_energy">   -229.81368970 </i>
   </energy>
  </scstep>
  <scstep>
   <time name="diag">    1.47    1.47</time>
   <time name="diis">    2.15    2.18</time>
   <time name="orth">    0.33    0.36</time>
   <time name="total">    4.29    4.38</time>
   <dipole>
    <v name="dipole">      0.00000000       0.00000000       0.61552541 </v>
    <i name="Tr[quadrupol]"> -11161.25975468 </i>
    <i name="Echarged">      0.00000000 </i>
    <i name="Edipol_quadrupol">      0.00000000 </i>
    <i name="Eion">      0.00000000 </i>
   </dipole>
   <energy>
    <i name="e_fr_energy">   -229.91700011 </i>
    <i name="e_wo_entrp">   -229.71038576 </i>
    <i name="e_0_energy">   -229.81369293 </i>
   </energy>
  </scstep>
  <scstep>
   <time name="diag">    1.46    1.46</time>
   <time name="diis">    1.73    1.74</time>
   <time name="orth">    0.34    0.34</time>
   <time name="total">    3.86    3.88</time>
   <dipole>
    <v name="dipole">      0.00000000       0.00000000       0.61572298 </v>
    <i name="Tr[quadrupol]"> -11161.26049179 </i>
    <i name="Echarged">      0.00000000 </i>
    <i name="Edipol_quadrupol">      0.00000000 </i>
    <i name="Eion">      0.00000000 </i>
   </dipole>
   <energy>
    <i name="e_fr_energy">   -229.91700172 </i>
    <i name="e_wo_entrp">   -229.71038676 </i>
    <i name="e_0_energy">   -229.81369424 </i>
   </energy>
  </scstep>
  <scstep>
   <time name="diag">    1.47    1.47</time>
   <time name="diis">    1.83    1.85</time>
   <time name="orth">    0.34    0.34</time>
   <time name="total">    3.98    4.01</time>
   <dipole>
    <v name="dipole">      0.00000000       0.00000000       0.61584668 </v>
    <i name="Tr[quadrupol]"> -11161.26107861 </i>
    <i name="Echarged">      0.00000000 </i>
    <i name="Edipol_quadrupol">      0.00000000 </i>
    <i name="Eion">      0.00000000 </i>
   </dipole>
   <energy>
    <i name="e_fr_energy">   -229.91700296 </i>
    <i name="e_wo_entrp">   -229.71038671 </i>
    <i name="e_0_energy">   -229.81369483 </i>
   </energy>
  </scstep>
  <scstep>
   <time name="diag">    1.45    1.45</time>
   <time name="diis">    1.79    1.79</time>
   <time name="orth">    0.34    0.34</time>
   <time name="total">    3.63    3.64</time>
   <dipole>
    <v name="dipole">      0.00000000       0.00000000       0.61592196 </v>
    <i name="Tr[quadrupol]"> -11161.26155585 </i>
    <i name="Echarged">      0.00000000 </i>
    <i name="Edipol_quadrupol">      0.00000000 </i>
    <i name="Eion">      0.00000000 </i>
   </dipole>
   <energy>
    <i name="alphaZ">    868.23447832 </i>
    <i name="ewald"> 236867.83667471 </i>
    <i name="hartreedc">-282092.36204967 </i>
    <i name="XCdc">   -128.33377750 </i>
    <i name="pawpsdc">  52091.14732570 </i>
    <i name="pawaedc"> -50183.44674535 </i>
    <i name="eentropy">     -0.20661635 </i>
    <i name="bandstr">  -2770.67773408 </i>
    <i name="atom">  45117.89144060 </i>
    <i name="e_fr_energy">   -229.91700362 </i>
    <i name="e_wo_entrp">   -229.71038727 </i>
    <i name="e_0_energy">   -229.81369545 </i>
   </energy>
  </scstep>
  <structure>
   <crystal>
    <varray name="basis" >
     <v>      11.00258152       0.00000000       0.00000000 </v>
     <v>       5.50129076       9.52851510       0.00000000 </v>
     <v>       0.00000000       0.00000000      26.19178509 </v>
    </varray>
    <i name="volume">   2745.90128299 </i>
    <varray name="rec_basis" >
     <v>       0.09088776      -0.05247407       0.00000000 </v>
     <v>       0.00000000       0.10494815       0.00000000 </v>
     <v>       0.00000000       0.00000000       0.03817991 </v>
    </varray>
   </crystal>
   <varray name="positions" >
    <v>       0.58333333       0.58333333       0.38179910 </v>
    <v>       0.41926608       0.92042874       0.47597982 </v>
    <v>       0.91817599       0.16764809       0.47388264 </v>
    <v>       0.98953573       0.00481222       0.57473753 </v>
    <v>       0.50073071       0.50375258       0.56481352 </v>
    <v>       0.08333333       0.33333333       0.38179910 </v>
    <v>       0.91957220       0.41721117       0.47523487 </v>
    <v>       0.97747078       0.27062067       0.60310293 </v>
    <v>       0.58333333       0.83333333       0.38179910 </v>
    <v>       0.08333333       0.58333333       0.38179910 </v>
    <v>       0.83333333       0.83333333       0.38179910 </v>
    <v>       0.75235853       0.25847195       0.56517896 </v>
    <v>       0.00631131       0.48521223       0.56597424 </v>
    <v>       0.91790545       0.91692853       0.47539625 </v>
    <v>       0.27430286       0.74001039       0.62597463 </v>
    <v>       0.16755011       0.91771951       0.47656566 </v>
    <v>       0.67223909       0.66725327       0.47474375 </v>
    <v>       0.17113061       0.16816186       0.47710137 </v>
    <v>       0.25234781       0.99646687       0.56804648 </v>
    <v>       0.33333333       0.83333333       0.38179910 </v>
    <v>       0.41860282       0.66603738       0.47483145 </v>
    <v>       0.17579938       0.41418862       0.47586150 </v>
    <v>       0.22093742       0.26225154       0.61027027 </v>
    <v>       0.16993541       0.66660026       0.47775992 </v>
    <v>       0.08695741       0.58459038       0.61312390 </v>
    <v>       0.35643179       0.34254879       0.61337188 </v>
    <v>       0.09376731       0.07371056       0.62931714 </v>
    <v>       0.76202090       0.62940383       0.61802458 </v>
    <v>       0.06902975       0.83212221       0.62789159 </v>
    <v>       0.39242692       0.06876227       0.62637398 </v>
    <v>       0.47980045       0.65053019       0.62691776 </v>
    <v>       0.66271033       0.14181562       0.61373645 </v>
    <v>       0.33333333       0.58333333       0.38179910 </v>
    <v>       0.25605864       0.50649676       0.56639774 </v>
    <v>       0.99137435       0.75673343       0.57263698 </v>
    <v>       0.74358594       0.75993781       0.56596156 </v>
    <v>       0.58333333       0.08333333       0.38179910 </v>
    <v>       0.42080215       0.16827000       0.47143508 </v>
    <v>       0.49881432       0.00581554       0.56422060 </v>
    <v>       0.08333333       0.83333333       0.38179910 </v>
    <v>       0.92035280       0.66859242       0.47811156 </v>
    <v>       0.58333333       0.33333333       0.38179910 </v>
    <v>       0.42161065       0.41590065       0.47360239 </v>
    <v>       0.50586524       0.24810703       0.56140082 </v>
    <v>       0.08333333       0.08333333       0.38179910 </v>
    <v>       0.83333333       0.58333333       0.38179910 </v>
    <v>       0.66727150       0.91972997       0.47604792 </v>
    <v>       0.49799700       0.75473554       0.56491365 </v>
    <v>       0.83333333       0.08333333       0.38179910 </v>
    <v>       0.66689888       0.16821181       0.47076372 </v>
    <v>       0.74680995       0.00025072       0.56140619 </v>
    <v>       0.75365492       0.50180421       0.56805029 </v>
    <v>       0.83333333       0.33333333       0.38179910 </v>
    <v>       0.66995554       0.41563457       0.47353634 </v>
    <v>       0.33333333       0.08333333       0.38179910 </v>
    <v>       0.33333333       0.33333333       0.38179910 </v>
   </varray>
  </structure>
  <varray name="forces" >
   <v>       0.00919705      -0.51932187      -0.37865582 </v>
   <v>      -0.00650985      -0.01853230       0.01377988 </v>
   <v>      -0.02111545       0.02412632      -0.01874743 </v>
   <v>      -0.05039323      -0.02084280      -0.01080476 </v>
   <v>       0.01357703      -0.00601249       0.00982384 </v>
   <v>      -0.06664387      -0.17120699      -0.30610793 </v>
   <v>      -0.02541410      -0.01450413      -0.01268802 </v>
   <v>      -0.02674373       0.02044109       0.05180803 </v>
   <v>       0.19358749       0.31876162      -0.34763395 </v>
   <v>       0.15379237       0.08128637      -0.25116021 </v>
   <v>       0.03533476       0.11807166      -0.13784741 </v>
   <v>      -0.00088140      -0.00120437      -0.01553310 </v>
   <v>       0.00553263      -0.03109677      -0.00371112 </v>
   <v>      -0.01236425      -0.02060390       0.03415738 </v>
   <v>      -0.00540110      -0.00007394      -0.00710639 </v>
   <v>      -0.01628858       0.00966599       0.00321601 </v>
   <v>       0.01283535      -0.01157672       0.01226148 </v>
   <v>      -0.02854011       0.00500191       0.01683834 </v>
   <v>      -0.02657861      -0.00237156      -0.00927558 </v>
   <v>      -0.32395809       0.26352570      -0.45609806 </v>
   <v>      -0.03368668      -0.02309063       0.00011993 </v>
   <v>      -0.00648051       0.01020002       0.02415491 </v>
   <v>      -0.02076541      -0.03885903       0.00219665 </v>
   <v>      -0.00061998       0.00133935       0.00288076 </v>
   <v>      -0.01673052       0.03139682      -0.00040887 </v>
   <v>       0.00906182       0.00549753      -0.01788046 </v>
   <v>       0.00116805       0.00452761       0.04457308 </v>
   <v>       0.02300437       0.03935837      -0.01556436 </v>
   <v>      -0.01937976      -0.03041774      -0.02820608 </v>
   <v>      -0.00626208       0.00125584       0.03673711 </v>
   <v>       0.00583588      -0.05470341       0.00045202 </v>
   <v>       0.01329508       0.00877305       0.01668943 </v>
   <v>      -0.08167785      -0.16558837       0.21771204 </v>
   <v>      -0.00941827      -0.01176430       0.01826489 </v>
   <v>      -0.02406967       0.03011898       0.02891916 </v>
   <v>       0.00745632      -0.03140181      -0.00052841 </v>
   <v>       0.00247492       0.16952165       0.09347496 </v>
   <v>       0.01676813      -0.00334109       0.01009003 </v>
   <v>       0.05824637      -0.00130772      -0.00413265 </v>
   <v>       0.08985979       0.10200613       0.27010074 </v>
   <v>      -0.04655602      -0.00689220      -0.00881370 </v>
   <v>      -0.09160453      -0.03783765       0.20907757 </v>
   <v>       0.01059231      -0.02147395      -0.01078879 </v>
   <v>       0.02182774      -0.01529280      -0.01147088 </v>
   <v>      -0.12785712      -0.01115935       0.16969092 </v>
   <v>      -0.00059246      -0.05835073       0.13682867 </v>
   <v>       0.00196398       0.02286089       0.00720098 </v>
   <v>      -0.01850097       0.02388209      -0.00082756 </v>
   <v>       0.05119216       0.10449642       0.07125214 </v>
   <v>      -0.01887100      -0.00520932       0.00302311 </v>
   <v>       0.00302936      -0.02963332      -0.00384173 </v>
   <v>       0.04818057       0.02259903       0.01006304 </v>
   <v>      -0.06482686      -0.06600835       0.22866026 </v>
   <v>      -0.00334121       0.01479826       0.01149971 </v>
   <v>       0.12121034       0.04632989       0.12564241 </v>
   <v>       0.29304938      -0.05016296       0.17664378 </v>
  </varray>
  <energy>
   <i name="e_fr_energy">   -229.91700362 </i>
   <i name="e_wo_entrp">   -229.81369545 </i>
   <i name="e_0_energy">     -0.20661635 </i>
  </energy>
  <time name="totalsc">  266.93  268.74</time>
 </calculation>
 <calculation>
  <scstep>
   <time name="dav">    8.46    8.48</time>
   <time name="total">    8.80    8.83</time>
   <dipole>
    <v name="dipole">      0.00000000       0.00000000       0.61593566 </v>
    <i name="Tr[quadrupol]"> -11160.94743616 </i>
    <i name="Echarged">      0.00000000 </i>
    <i name="Edipol_quadrupol">      0.00000000 </i>
    <i name="Eion">      0.00000000 </i>
   </dipole>
   <energy>
    <i name="alphaZ">    868.23222977 </i>
    <i name="ewald"> 236861.98219486 </i>
    <i name="hartreedc">-282086.59179280 </i>
    <i name="XCdc">   -128.33989011 </i>
    <i name="pawpsdc">  52091.14739160 </i>
    <i name="pawaedc"> -50183.44682010 </i>
    <i name="eentropy">     -0.20657595 </i>
    <i name="bandstr">  -2770.58600070 </i>
    <i name="atom">  45117.89144060 </i>
    <i name="e_fr_energy">   -229.91782283 </i>
    <i name="e_wo_entrp">   -229.71124688 </i>
    <i name="e_0_energy">   -229.81453485 </i>
   </energy>
  </scstep>
  <scstep>
   <time name="diag">    1.46    1.46</time>
   <time name="diis">    3.99    4.00</time>
   <time name="orth">    0.34    0.34</time>
   <time name="total">    6.12    6.14</time>
   <dipole>
    <v name="dipole">      0.00000000       0.00000000       0.61784138 </v>
    <i name="Tr[quadrupol]"> -11160.94471580 </i>
    <i name="Echarged">      0.00000000 </i>
    <i name="Edipol_quadrupol">      0.00000000 </i>
    <i name="Eion">      0.00000000 </i>
   </dipole>
   <energy>
    <i name="e_fr_energy">   -229.91867799 </i>
    <i name="e_wo_entrp">   -229.71257270 </i>
    <i name="e_0_energy">   -229.81562535 </i>
   </energy>
  </scstep>
  <scstep>
   <time name="diag">    1.46    1.46</time>
   <time name="diis">    4.06    4.07</time>
   <time name="orth">    0.34    0.34</time>
   <time name="total">    6.18    6.20</time>
   <dipole>
    <v name="dipole">      0.00000000       0.00000000       0.61470850 </v>
    <i name="Tr[quadrupol]"> -11160.94429243 </i>
    <i name="Echarged">      0.00000000 </i>
    <i name="Edipol_quadrupol">      0.00000000 </i>
    <i name="Eion">      0.00000000 </i>
   </dipole>
   <energy>
    <i name="e_fr_energy">   -229.91846430 </i>
    <i name="e_wo_entrp">   -229.71158110 </i>
    <i name="e_0_energy">   -229.81502270 </i>
   </energy>
  </scstep>
  <scstep>
   <time name="diag">    1.47    1.47</time>
   <time name="diis">    3.92    4.02</time>
   <time name="orth">    0.34    0.34</time>
   <time name="total">    6.05    6.16</time>
   <dipole>
    <v name="dipole">      0.00000000       0.00000000       0.62301769 </v>
    <i name="Tr[quadrupol]"> -11160.95047234 </i>
    <i name="Echarged">      0.00000000 </i>
    <i name="Edipol_quadrupol">      0.00000000 </i>
    <i name="Eion">      0.00000000 </i>
   </dipole>
   <energy>
    <i name="e_fr_energy">   -229.91910281 </i>
    <i name="e_wo_entrp">   -229.71387991 </i>
    <i name="e_0_energy">   -229.81649136 </i>
   </energy>
  </scstep>
  <scstep>
   <time name="diag">    1.47    1.47</time>
   <time name="diis">    4.06    4.07</time>
   <time name="orth">    0.34    0.34</time>
   <time name="total">    6.19    6.21</time>
   <dipole>
    <v name="dipole">      0.00000000       0.00000000       0.61589825 </v>
    <i name="Tr[quadrupol]"> -11160.94417525 </i>
    <i name="Echarged">      0.00000000 </i>
    <i name="Edipol_quadrupol">      0.00000000 </i>
    <i name="Eion">      0.00000000 </i>
   </dipole>
   <energy>
    <i name="e_fr_energy">   -229.91845001 </i>
    <i name="e_wo_entrp">   -229.71201652 </i>
    <i name="e_0_energy">   -229.81523327 </i>
   </energy>
  </scstep>
  <scstep>
   <time name="diag">    1.45    1.46</time>
   <time name="diis">    4.04    4.05</time>
   <time name="orth">    0.34    0.34</time>
   <time name="total">    6.16    6.20</time>
   <dipole>
    <v name="dipole">      0.00000000       0.00000000       0.61703770 </v>
    <i name="Tr[quadrupol]"> -11160.94401773 </i>
    <i name="Echarged">      0.00000000 </i>
    <i name="Edipol_quadrupol">      0.00000000 </i>
    <i name="Eion">      0.00000000 </i>
   </dipole>
   <energy>
    <i name="e_fr_energy">   -229.91843849 </i>
    <i name="e_wo_entrp">   -229.71196215 </i>
    <i name="e_0_energy">   -229.81520032 </i>
   </energy>
  </scstep>
  <scstep>
   <time name="diag">    1.45    1.46</time>
   <time name="diis">    4.02    4.03</time>
   <time name="orth">    0.34    0.34</time>
   <time name="total">    6.14    6.16</time>
   <dipole>
    <v name="dipole">      0.00000000       0.00000000       0.61667514 </v>
    <i name="Tr[quadrupol]"> -11160.94621033 </i>
    <i name="Echarged">      0.00000000 </i>
    <i name="Edipol_quadrupol">      0.00000000 </i>
    <i name="Eion">      0.00000000 </i>
   </dipole>
   <energy>
    <i name="e_fr_energy">   -229.91841111 </i>
    <i name="e_wo_entrp">   -229.71193470 </i>
    <i name="e_0_energy">   -229.81517290 </i>
   </energy>
  </scstep>
  <scstep>
   <time name="diag">    1.46    1.46</time>
   <time name="diis">    4.01    4.01</time>
   <time name="orth">    0.34    0.34</time>
   <time name="total">    6.14    6.18</time>
   <dipole>
    <v name="dipole">      0.00000000       0.00000000       0.61651151 </v>
    <i name="Tr[quadrupol]"> -11160.94519985 </i>
    <i name="Echarged">      0.00000000 </i>
    <i name="Edipol_quadrupol">      0.00000000 </i>
    <i name="Eion">      0.00000000 </i>
   </dipole>
   <energy>
    <i name="e_fr_energy">   -229.91840025 </i>
    <i name="e_wo_entrp">   -229.71191086 </i>
    <i name="e_0_energy">   -229.81515556 </i>
   </energy>
  </scstep>
  <scstep>
   <time name="diag">    1.46    1.48</time>
   <time name="diis">    2.45    2.48</time>
   <time name="orth">    0.34    0.34</time>
   <time name="total">    4.30    4.35</time>
   <dipole>
    <v name="dipole">      0.00000000       0.00000000       0.61653270 </v>
    <i name="Tr[quadrupol]"> -11160.94528460 </i>
    <i name="Echarged">      0.00000000 </i>
    <i name="Edipol_quadrupol">      0.00000000 </i>
    <i name="Eion">      0.00000000 </i>
   </dipole>
   <energy>
    <i name="alphaZ">    868.23769990 </i>
    <i name="ewald"> 236861.98219486 </i>
    <i name="hartreedc">-282086.46943566 </i>
    <i name="XCdc">   -128.34108623 </i>
    <i name="pawpsdc">  52089.67843896 </i>
    <i name="pawaedc"> -50181.97240813 </i>
    <i name="eentropy">     -0.20650963 </i>
    <i name="bandstr">  -2770.71873434 </i>
    <i name="atom">  45117.89144060 </i>
    <i name="e_fr_energy">   -229.91839966 </i>
    <i name="e_wo_entrp">   -229.71189002 </i>
    <i name="e_0_energy">   -229.81514484 </i>
   </energy>
  </scstep>
  <structure>
   <crystal>
    <varray name="basis" >
     <v>      11.00258152       0.00000000       0.00000000 </v>
     <v>       5.50129076       9.52851510       0.00000000 </v>
     <v>       0.00000000       0.00000000      26.19178509 </v>
    </varray>
    <i name="volume">   2745.90128299 </i>
    <varray name="rec_basis" >
     <v>       0.09088776      -0.05247407       0.00000000 </v>
     <v>       0.00000000       0.10494815       0.00000000 </v>
     <v>       0.00000000       0.00000000       0.03817991 </v>
    </varray>
   </crystal>
   <varray name="positions" >
    <v>       0.58333333       0.58333333       0.38179910 </v>
    <v>       0.41927894       0.92036306       0.47599758 </v>
    <v>       0.91806843       0.16773359       0.47385847 </v>
    <v>       0.98941800       0.00473835       0.57472360 </v>
    <v>       0.50078304       0.50373127       0.56482618 </v>
    <v>       0.08333333       0.33333333       0.38179910 </v>
    <v>       0.91951989       0.41715976       0.47521852 </v>
    <v>       0.97735248       0.27069311       0.60316973 </v>
    <v>       0.58333333       0.83333333       0.38179910 </v>
    <v>       0.08333333       0.58333333       0.38179910 </v>
    <v>       0.83333333       0.83333333       0.38179910 </v>
    <v>       0.75235796       0.25846768       0.56515894 </v>
    <v>       0.00638339       0.48510202       0.56596946 </v>
    <v>       0.91790401       0.91685551       0.47544030 </v>
    <v>       0.27428642       0.74001013       0.62596547 </v>
    <v>       0.16748299       0.91775376       0.47656980 </v>
    <v>       0.67229900       0.66721224       0.47475955 </v>
    <v>       0.17103415       0.16817958       0.47712308 </v>
    <v>       0.25227043       0.99645847       0.56803453 </v>
    <v>       0.33333333       0.83333333       0.38179910 </v>
    <v>       0.41854035       0.66595555       0.47483160 </v>
    <v>       0.17576141       0.41422477       0.47589264 </v>
    <v>       0.22094254       0.26211382       0.61027310 </v>
    <v>       0.16993113       0.66660500       0.47776363 </v>
    <v>       0.08685042       0.58470166       0.61312338 </v>
    <v>       0.35644986       0.34256827       0.61334882 </v>
    <v>       0.09376288       0.07372660       0.62937461 </v>
    <v>       0.76202176       0.62954332       0.61800451 </v>
    <v>       0.06902417       0.83201441       0.62785522 </v>
    <v>       0.39240548       0.06876672       0.62642135 </v>
    <v>       0.47991530       0.65033631       0.62691835 </v>
    <v>       0.66273559       0.14184671       0.61375796 </v>
    <v>       0.33333333       0.58333333       0.38179910 </v>
    <v>       0.25605058       0.50645507       0.56642129 </v>
    <v>       0.99124710       0.75684017       0.57267427 </v>
    <v>       0.74366447       0.75982652       0.56596087 </v>
    <v>       0.58333333       0.08333333       0.38179910 </v>
    <v>       0.42085953       0.16825815       0.47144809 </v>
    <v>       0.49899541       0.00581090       0.56421527 </v>
    <v>       0.08333333       0.83333333       0.38179910 </v>
    <v>       0.92022212       0.66856799       0.47810019 </v>
    <v>       0.58333333       0.33333333       0.38179910 </v>
    <v>       0.42168121       0.41582454       0.47358848 </v>
    <v>       0.50595933       0.24805283       0.56138603 </v>
    <v>       0.08333333       0.08333333       0.38179910 </v>
    <v>       0.83333333       0.58333333       0.38179910 </v>
    <v>       0.66723702       0.91981099       0.47605720 </v>
    <v>       0.49789789       0.75482018       0.56491259 </v>
    <v>       0.83333333       0.08333333       0.38179910 </v>
    <v>       0.66685020       0.16819335       0.47076762 </v>
    <v>       0.74687176       0.00014569       0.56140124 </v>
    <v>       0.75376275       0.50188430       0.56806326 </v>
    <v>       0.83333333       0.33333333       0.38179910 </v>
    <v>       0.66991906       0.41568702       0.47355117 </v>
    <v>       0.33333333       0.08333333       0.38179910 </v>
    <v>       0.33333333       0.33333333       0.38179910 </v>
   </varray>
  </structure>
  <varray name="forces" >
   <v>       0.00956723      -0.51837191      -0.37720165 </v>
   <v>      -0.00692978      -0.01277498       0.01342301 </v>
   <v>      -0.02420104       0.01261167      -0.01709250 </v>
   <v>      -0.02382108      -0.00293094      -0.00167498 </v>
   <v>       0.01148199      -0.00560931       0.00878950 </v>
   <v>      -0.06506486      -0.17143060      -0.30487274 </v>
   <v>      -0.01598066      -0.01123252      -0.01020144 </v>
   <v>      -0.02998805       0.00337223       0.05440430 </v>
   <v>       0.19320410       0.31864256      -0.34530010 </v>
   <v>       0.15378296       0.08073118      -0.24957440 </v>
   <v>       0.03582434       0.11885370      -0.13646835 </v>
   <v>       0.00550345      -0.00047235      -0.01342202 </v>
   <v>       0.01308426      -0.02798277      -0.00548926 </v>
   <v>      -0.00956424      -0.01468598       0.01918801 </v>
   <v>       0.01032104      -0.01354727      -0.00879135 </v>
   <v>      -0.01550009       0.00908260       0.00129934 </v>
   <v>       0.00042904      -0.00477941       0.00928295 </v>
   <v>      -0.01562752       0.00232726       0.01243673 </v>
   <v>      -0.02654772       0.00293705      -0.00182933 </v>
   <v>      -0.32360921       0.26373824      -0.45440341 </v>
   <v>      -0.02458254      -0.01572151       0.00065773 </v>
   <v>      -0.00498032       0.00484771       0.02017564 </v>
   <v>      -0.01050554      -0.03325219       0.00281221 </v>
   <v>      -0.00840644      -0.00330715       0.00436844 </v>
   <v>      -0.01614331       0.02013278       0.00036147 </v>
   <v>       0.00225482      -0.00638080      -0.01743292 </v>
   <v>      -0.00523882       0.00689407       0.02933149 </v>
   <v>       0.01814819       0.02734642       0.00981200 </v>
   <v>      -0.01187043      -0.01814797      -0.01569677 </v>
   <v>       0.00468422      -0.00976217       0.01152107 </v>
   <v>      -0.00477567      -0.04117593      -0.00356440 </v>
   <v>       0.01485927      -0.00087084       0.00322551 </v>
   <v>      -0.08225692      -0.16576939       0.21671817 </v>
   <v>      -0.00754090      -0.00250881       0.01223013 </v>
   <v>      -0.02770855       0.00926156       0.01761927 </v>
   <v>       0.01190070      -0.00957353      -0.01717279 </v>
   <v>       0.00217287       0.16938350       0.09269941 </v>
   <v>      -0.00029246      -0.00335112       0.00788670 </v>
   <v>       0.02882646       0.00358161       0.01918985 </v>
   <v>       0.08926261       0.10266104       0.27170291 </v>
   <v>      -0.02558971      -0.00485884      -0.00746481 </v>
   <v>      -0.09085008      -0.03798274       0.20885919 </v>
   <v>      -0.00025909      -0.01325463      -0.00469399 </v>
   <v>       0.01472139      -0.00906265      -0.00253597 </v>
   <v>      -0.12750079      -0.01133596       0.16983896 </v>
   <v>      -0.00076275      -0.05810178       0.13592609 </v>
   <v>      -0.00340036       0.01306271       0.00364871 </v>
   <v>      -0.01553714       0.01837616       0.00393721 </v>
   <v>       0.05064763       0.10306146       0.07228182 </v>
   <v>      -0.00979961      -0.00555941       0.00133007 </v>
   <v>      -0.00327914      -0.01047450       0.01280922 </v>
   <v>       0.02558256       0.00880878       0.00292230 </v>
   <v>      -0.06556936      -0.06526636       0.22642643 </v>
   <v>      -0.00564453       0.01365502       0.01022624 </v>
   <v>       0.12110821       0.04636850       0.12895247 </v>
   <v>       0.29196139      -0.05020148       0.17858865 </v>
  </varray>
  <energy>
   <i name="e_fr_energy">   -229.91839966 </i>
   <i name="e_wo_entrp">   -229.81514484 </i>
   <i name="e_0_energy">     -0.20650963 </i>
  </energy>
  <time name="totalsc">   58.94   59.45</time>
 </calculation>
 <calculation>
  <scstep>
   <time name="dav">    8.45    8.55</time>
   <time name="total">    8.78    8.88</time>
   <dipole>
    <v name="dipole">      0.00000000       0.00000000       0.61648970 </v>
    <i name="Tr[quadrupol]"> -11160.11299881 </i>
    <i name="Echarged">      0.00000000 </i>
    <i name="Edipol_quadrupol">      0.00000000 </i>
    <i name="Eion">      0.00000000 </i>
   </dipole>
   <energy>
    <i name="alphaZ">    868.23097615 </i>
    <i name="ewald"> 236846.45076224 </i>
    <i name="hartreedc">-282071.14713161 </i>
    <i name="XCdc">   -128.35648584 </i>
    <i name="pawpsdc">  52089.67968269 </i>
    <i name="pawaedc"> -50181.97365384 </i>
    <i name="eentropy">     -0.20642260 </i>
    <i name="bandstr">  -2770.48416062 </i>
    <i name="atom">  45117.89144060 </i>
    <i name="e_fr_energy">   -229.91499283 </i>
    <i name="e_wo_entrp">   -229.70857023 </i>
    <i name="e_0_energy">   -229.81178153 </i>
   </energy>
  </scstep>
  <scstep>
   <time name="diag">    1.45    1.46</time>
   <time name="diis">    4.02    4.03</time>
   <time name="orth">    0.34    0.34</time>
   <time name="total">    6.13    6.15</time>
   <dipole>
    <v name="dipole">      0.00000000       0.00000000       0.62141778 </v>
    <i name="Tr[quadrupol]"> -11160.10521755 </i>
    <i name="Echarged">      0.00000000 </i>
    <i name="Edipol_quadrupol">      0.00000000 </i>
    <i name="Eion">      0.00000000 </i>
   </dipole>
   <energy>
    <i name="e_fr_energy">   -229.92106292 </i>
    <i name="e_wo_entrp">   -229.71584358 </i>
    <i name="e_0_energy">   -229.81845325 </i>
   </energy>
  </scstep>
  <scstep>
   <time name="diag">    1.46    1.46</time>
   <time name="diis">    4.02    4.04</time>
   <time name="orth">    0.35    0.35</time>
   <time name="total">    6.15    6.17</time>
   <dipole>
    <v name="dipole">      0.00000000       0.00000000       0.61325756 </v>
    <i name="Tr[quadrupol]"> -11160.10409898 </i>
    <i name="Echarged">      0.00000000 </i>
    <i name="Edipol_quadrupol">      0.00000000 </i>
    <i name="Eion">      0.00000000 </i>
   </dipole>
   <energy>
    <i name="e_fr_energy">   -229.91957691 </i>
    <i name="e_wo_entrp">   -229.71234140 </i>
    <i name="e_0_energy">   -229.81595915 </i>
   </energy>
  </scstep>
  <scstep>
   <time name="diag">    1.46    1.47</time>
   <time name="diis">    4.05    4.06</time>
   <time name="orth">    0.34    0.34</time>
   <time name="total">    6.18    6.20</time>
   <dipole>
    <v name="dipole">      0.00000000       0.00000000       0.63539681 </v>
    <i name="Tr[quadrupol]"> -11160.12027951 </i>
    <i name="Echarged">      0.00000000 </i>
[...]
       <r>   -19.2659    11.9153    15.6378 </r>
       <r>   -19.1725     3.6110    15.9749 </r>
       <r>   -19.0792     0.2650    15.9996 </r>
       <r>   -18.9859     0.0040    16.0000 </r>
       <r>   -18.8925     0.0000    16.0000 </r>
       <r>   -18.7992     0.0000    16.0000 </r>
       <r>   -18.7058     0.0000    16.0000 </r>
       <r>   -18.6125     0.0000    16.0000 </r>
       <r>   -18.5191     0.0000    16.0000 </r>
       <r>   -18.4258     0.0000    16.0000 </r>
       <r>   -18.3324     0.0000    16.0000 </r>
       <r>   -18.2391     0.0000    16.0000 </r>
       <r>   -18.1457     0.0000    16.0000 </r>
       <r>   -18.0524     0.0000    16.0000 </r>
       <r>   -17.9590     0.0000    16.0000 </r>
       <r>   -17.8657     0.0000    16.0000 </r>
       <r>   -17.7723     0.0000    16.0000 </r>
       <r>   -17.6790     0.0000    16.0000 </r>
       <r>   -17.5857     0.0000    16.0000 </r>
       <r>   -17.4923     0.0000    16.0000 </r>
       <r>   -17.3990     0.0000    16.0000 </r>
       <r>   -17.3056     0.0000    16.0000 </r>
       <r>   -17.2123     0.0000    16.0000 </r>
       <r>   -17.1189     0.0000    16.0000 </r>
       <r>   -17.0256     0.0000    16.0000 </r>
       <r>   -16.9322     0.0000    16.0000 </r>
       <r>   -16.8389     0.0000    16.0000 </r>
       <r>   -16.7455     0.0000    16.0000 </r>
       <r>   -16.6522     0.0000    16.0000 </r>
       <r>   -16.5588     0.0000    16.0000 </r>
       <r>   -16.4655     0.0000    16.0000 </r>
       <r>   -16.3721     0.0000    16.0000 </r>
       <r>   -16.2788     0.0000    16.0000 </r>
       <r>   -16.1855     0.0000    16.0000 </r>
       <r>   -16.0921     0.0000    16.0000 </r>
       <r>   -15.9988     0.0000    16.0000 </r>
       <r>   -15.9054     0.0000    16.0000 </r>
       <r>   -15.8121     0.0000    16.0000 </r>
       <r>   -15.7187     0.0000    16.0000 </r>
       <r>   -15.6254     0.0000    16.0000 </r>
       <r>   -15.5320     0.0000    16.0000 </r>
       <r>   -15.4387     0.0000    16.0000 </r>
       <r>   -15.3453     0.0000    16.0000 </r>
       <r>   -15.2520     0.0000    16.0000 </r>
       <r>   -15.1586     0.0000    16.0000 </r>
       <r>   -15.0653     0.0000    16.0000 </r>
       <r>   -14.9719     0.0000    16.0000 </r>
       <r>   -14.8786     0.0000    16.0000 </r>
       <r>   -14.7853     0.0000    16.0000 </r>
       <r>   -14.6919     0.0000    16.0000 </r>
       <r>   -14.5986     0.0000    16.0000 </r>
       <r>   -14.5052     0.0000    16.0000 </r>
       <r>   -14.4119     0.0000    16.0000 </r>
       <r>   -14.3185     0.0000    16.0000 </r>
       <r>   -14.2252     0.0000    16.0000 </r>
       <r>   -14.1318     0.0000    16.0000 </r>
       <r>   -14.0385     0.0000    16.0000 </r>
       <r>   -13.9451     0.0000    16.0000 </r>
       <r>   -13.8518     0.0000    16.0000 </r>
       <r>   -13.7584     0.0000    16.0000 </r>
       <r>   -13.6651     0.0000    16.0000 </r>
       <r>   -13.5717     0.0000    16.0000 </r>
       <r>   -13.4784     0.0000    16.0000 </r>
       <r>   -13.3850     0.0000    16.0000 </r>
       <r>   -13.2917     0.0000    16.0000 </r>
       <r>   -13.1984     0.0000    16.0000 </r>
       <r>   -13.1050     0.0000    16.0000 </r>
       <r>   -13.0117     0.0000    16.0000 </r>
       <r>   -12.9183     0.0000    16.0000 </r>
       <r>   -12.8250     0.0000    16.0000 </r>
       <r>   -12.7316     0.0000    16.0000 </r>
       <r>   -12.6383     0.0000    16.0000 </r>
       <r>   -12.5449     0.0000    16.0000 </r>
       <r>   -12.4516     0.0000    16.0000 </r>
       <r>   -12.3582     0.0000    16.0000 </r>
       <r>   -12.2649     0.0000    16.0000 </r>
       <r>   -12.1715     0.0000    16.0000 </r>
       <r>   -12.0782     0.0000    16.0000 </r>
       <r>   -11.9848     0.0000    16.0000 </r>
       <r>   -11.8915     0.0000    16.0000 </r>
       <r>   -11.7982     0.0000    16.0000 </r>
       <r>   -11.7048     0.0000    16.0000 </r>
       <r>   -11.6115     0.0000    16.0000 </r>
       <r>   -11.5181     0.0000    16.0000 </r>
       <r>   -11.4248     0.0000    16.0000 </r>
       <r>   -11.3314     0.0000    16.0000 </r>
       <r>   -11.2381     0.0000    16.0000 </r>
       <r>   -11.1447     0.0000    16.0000 </r>
       <r>   -11.0514     0.0000    16.0000 </r>
       <r>   -10.9580     0.0000    16.0000 </r>
       <r>   -10.8647     0.0000    16.0000 </r>
       <r>   -10.7713     0.0000    16.0000 </r>
       <r>   -10.6780     0.0000    16.0000 </r>
       <r>   -10.5846     0.0000    16.0000 </r>
       <r>   -10.4913     0.0000    16.0000 </r>
       <r>   -10.3980     0.0000    16.0000 </r>
       <r>   -10.3046     0.0000    16.0000 </r>
       <r>   -10.2113     0.0000    16.0000 </r>
       <r>   -10.1179     0.0000    16.0000 </r>
       <r>   -10.0246     0.0000    16.0000 </r>
       <r>    -9.9312     0.0000    16.0000 </r>
       <r>    -9.8379     0.0000    16.0000 </r>
       <r>    -9.7445     0.0000    16.0000 </r>
       <r>    -9.6512     0.0000    16.0000 </r>
       <r>    -9.5578     0.0001    16.0000 </r>
       <r>    -9.4645     0.0200    16.0019 </r>
       <r>    -9.3711     0.5880    16.0568 </r>
       <r>    -9.2778     3.6407    16.3966 </r>
       <r>    -9.1844     5.4940    16.9095 </r>
       <r>    -9.0911     4.9348    17.3701 </r>
       <r>    -8.9978     4.9370    17.8310 </r>
       <r>    -8.9044     1.8149    18.0004 </r>
       <r>    -8.8111     1.4337    18.1342 </r>
       <r>    -8.7177     3.8788    18.4963 </r>
       <r>    -8.6244     5.9938    19.0558 </r>
       <r>    -8.5310     8.9502    19.8913 </r>
       <r>    -8.4377    13.1497    21.1187 </r>
       <r>    -8.3443    12.2767    22.2647 </r>
       <r>    -8.2510    12.0027    23.3851 </r>
       <r>    -8.1576    13.6135    24.6559 </r>
       <r>    -8.0643    15.1371    26.0689 </r>
       <r>    -7.9709    22.4495    28.1645 </r>
       <r>    -7.8776    25.2817    30.5245 </r>
       <r>    -7.7842    25.4815    32.9031 </r>
       <r>    -7.6909    34.9397    36.1646 </r>
       <r>    -7.5976    41.2346    40.0137 </r>
       <r>    -7.5042    39.2983    43.6821 </r>
       <r>    -7.4109    41.5326    47.5590 </r>
       <r>    -7.3175    50.2826    52.2527 </r>
       <r>    -7.2242    51.8676    57.0944 </r>
       <r>    -7.1308    51.5982    61.9109 </r>
       <r>    -7.0375    62.7476    67.7682 </r>
       <r>    -6.9441    69.4157    74.2479 </r>
       <r>    -6.8508    69.1766    80.7054 </r>
       <r>    -6.7574    73.6420    87.5796 </r>
       <r>    -6.6641    77.4703    94.8112 </r>
       <r>    -6.5707    82.8374   102.5438 </r>
       <r>    -6.4774    84.4722   110.4290 </r>
       <r>    -6.3840    81.1328   118.0025 </r>
       <r>    -6.2907    78.0784   125.2909 </r>
       <r>    -6.1973    76.6005   132.4413 </r>
       <r>    -6.1040    79.9805   139.9072 </r>
       <r>    -6.0107    79.4381   147.3225 </r>
       <r>    -5.9173    75.4750   154.3678 </r>
       <r>    -5.8240    74.3686   161.3099 </r>
       <r>    -5.7306    74.8534   168.2972 </r>
       <r>    -5.6373    78.7685   175.6500 </r>
       <r>    -5.5439    81.6547   183.2722 </r>
       <r>    -5.4506    84.2552   191.1372 </r>
       <r>    -5.3572    86.0963   199.1740 </r>
       <r>    -5.2639    85.9782   207.1998 </r>
       <r>    -5.1705    90.5041   215.6480 </r>
       <r>    -5.0772    91.9981   224.2357 </r>
       <r>    -4.9838    87.6809   232.4205 </r>
       <r>    -4.8905    86.1558   240.4628 </r>
       <r>    -4.7971    88.7865   248.7508 </r>
       <r>    -4.7038    90.2789   257.1780 </r>
       <r>    -4.6105    91.2761   265.6983 </r>
       <r>    -4.5171    91.6864   274.2570 </r>
       <r>    -4.4238    93.2176   282.9585 </r>
       <r>    -4.3304    93.1018   291.6493 </r>
       <r>    -4.2371    90.9368   300.1379 </r>
       <r>    -4.1437    96.1130   309.1098 </r>
       <r>    -4.0504   100.5196   318.4929 </r>
       <r>    -3.9570   103.2529   328.1313 </r>
       <r>    -3.8637   103.7063   337.8119 </r>
       <r>    -3.7703    99.9857   347.1453 </r>
       <r>    -3.6770    96.2318   356.1282 </r>
       <r>    -3.5836    95.1104   365.0064 </r>
       <r>    -3.4903    94.5593   373.8332 </r>
       <r>    -3.3969    92.9837   382.5130 </r>
       <r>    -3.3036    94.4174   391.3265 </r>
       <r>    -3.2103    94.3028   400.1294 </r>
       <r>    -3.1169    95.7797   409.0701 </r>
       <r>    -3.0236    97.8839   418.2073 </r>
       <r>    -2.9302    97.7359   427.3306 </r>
       <r>    -2.8369    95.9189   436.2843 </r>
       <r>    -2.7435    91.3439   444.8110 </r>
       <r>    -2.6502    87.4622   452.9753 </r>
       <r>    -2.5568    86.7654   461.0745 </r>
       <r>    -2.4635    89.0625   469.3882 </r>
       <r>    -2.3701    92.9194   478.0620 </r>
       <r>    -2.2768    96.9790   487.1146 </r>
       <r>    -2.1834    96.2930   496.1033 </r>
       <r>    -2.0901    92.6029   504.7475 </r>
       <r>    -1.9967    87.6099   512.9256 </r>
       <r>    -1.9034    86.0259   520.9558 </r>
       <r>    -1.8101    83.1156   528.7144 </r>
       <r>    -1.7167    77.2528   535.9257 </r>
       <r>    -1.6234    68.7683   542.3450 </r>
       <r>    -1.5300    56.7067   547.6383 </r>
       <r>    -1.4367    45.3909   551.8754 </r>
       <r>    -1.3433    37.1493   555.3432 </r>
       <r>    -1.2500    33.1032   558.4333 </r>
       <r>    -1.1566    29.5126   561.1882 </r>
       <r>    -1.0633    26.3880   563.6514 </r>
       <r>    -0.9699    24.4682   565.9355 </r>
       <r>    -0.8766    24.8860   568.2585 </r>
       <r>    -0.7832    27.5422   570.8295 </r>
       <r>    -0.6899    25.2905   573.1902 </r>
       <r>    -0.5965    23.4877   575.3827 </r>
       <r>    -0.5032    23.5481   577.5809 </r>
       <r>    -0.4098    20.3743   579.4828 </r>
       <r>    -0.3165    16.3181   581.0060 </r>
       <r>    -0.2232    14.2325   582.3346 </r>
       <r>    -0.1298    14.3227   583.6715 </r>
       <r>    -0.0365    14.8938   585.0618 </r>
       <r>     0.0569    12.2892   586.2090 </r>
       <r>     0.1502    10.3464   587.1748 </r>
       <r>     0.2436     9.8627   588.0954 </r>
       <r>     0.3369    12.3784   589.2509 </r>
       <r>     0.4303    16.2255   590.7655 </r>
       <r>     0.5236    17.6332   592.4115 </r>
       <r>     0.6170    16.6078   593.9618 </r>
       <r>     0.7103    16.8141   595.5314 </r>
       <r>     0.8037    19.0924   597.3136 </r>
       <r>     0.8970    18.7181   599.0608 </r>
       <r>     0.9904    11.7894   600.1613 </r>
       <r>     1.0837    10.8789   601.1769 </r>
       <r>     1.1770    10.7628   602.1815 </r>
       <r>     1.2704    11.4728   603.2525 </r>
       <r>     1.3637    11.8900   604.3624 </r>
       <r>     1.4571    12.0488   605.4871 </r>
       <r>     1.5504    13.6237   606.7588 </r>
       <r>     1.6438    15.9445   608.2472 </r>
       <r>     1.7371    19.2470   610.0438 </r>
       <r>     1.8305    19.9882   611.9096 </r>
       <r>     1.9238    18.7991   613.6645 </r>
       <r>     2.0172    16.9022   615.2422 </r>
       <r>     2.1105    16.4429   616.7771 </r>
       <r>     2.2039    18.4898   618.5031 </r>
       <r>     2.2972    15.6473   619.9637 </r>
       <r>     2.3906    11.6679   621.0529 </r>
       <r>     2.4839    10.2075   622.0057 </r>
       <r>     2.5772     9.2175   622.8661 </r>
       <r>     2.6706    11.3016   623.9211 </r>
       <r>     2.7639    13.0262   625.1371 </r>
       <r>     2.8573    11.1389   626.1768 </r>
       <r>     2.9506     9.9211   627.1029 </r>
       <r>     3.0440    10.0114   628.0375 </r>
       <r>     3.1373    12.4603   629.2006 </r>
       <r>     3.2307    17.1800   630.8043 </r>
       <r>     3.3240    21.7739   632.8368 </r>
       <r>     3.4174    22.5785   634.9445 </r>
       <r>     3.5107    18.2305   636.6462 </r>
       <r>     3.6041    18.0075   638.3272 </r>
       <r>     3.6974    19.5484   640.1519 </r>
       <r>     3.7908    18.9922   641.9248 </r>
       <r>     3.8841    15.6332   643.3841 </r>
       <r>     3.9774    15.0224   644.7864 </r>
       <r>     4.0708    19.2678   646.5850 </r>
       <r>     4.1641    19.4787   648.4033 </r>
       <r>     4.2575    19.5522   650.2284 </r>
       <r>     4.3508    18.9652   651.9987 </r>
       <r>     4.4442    16.8841   653.5748 </r>
       <r>     4.5375    20.0799   655.4492 </r>
       <r>     4.6309    27.3461   658.0019 </r>
       <r>     4.7242    29.8550   660.7887 </r>
       <r>     4.8176    28.9383   663.4900 </r>
       <r>     4.9109    28.9813   666.1954 </r>
       <r>     5.0043    26.3718   668.6571 </r>
       <r>     5.0976    20.9629   670.6139 </r>
       <r>     5.1910    11.8853   671.7234 </r>
       <r>     5.2843     2.7826   671.9831 </r>
       <r>     5.3776     0.1785   671.9998 </r>
       <r>     5.4710     0.0025   672.0000 </r>
       <r>     5.5643     0.0000   672.0000 </r>
       <r>     5.6577     0.0000   672.0000 </r>
       <r>     5.7510     0.0000   672.0000 </r>
       <r>     5.8444     0.0000   672.0000 </r>
       <r>     5.9377     0.0000   672.0000 </r>
       <r>     6.0311     0.0000   672.0000 </r>
       <r>     6.1244     0.0000   672.0000 </r>
       <r>     6.2178     0.0000   672.0000 </r>
       <r>     6.3111     0.0000   672.0000 </r>
       <r>     6.4045     0.0000   672.0000 </r>
      </set>
     </set>
    </array>
   </total>
  </dos>
 </calculation>
 <structure name="finalpos" >
  <crystal>
   <varray name="basis" >
    <v>      11.00258152       0.00000000       0.00000000 </v>
    <v>       5.50129076       9.52851510       0.00000000 </v>
    <v>       0.00000000       0.00000000      26.19178509 </v>
   </varray>
   <i name="volume">   2745.90128299 </i>
   <varray name="rec_basis" >
    <v>       0.09088776      -0.05247407       0.00000000 </v>
    <v>       0.00000000       0.10494815       0.00000000 </v>
    <v>       0.00000000       0.00000000       0.03817991 </v>
   </varray>
  </crystal>
  <varray name="positions" >
   <v>       0.58333333       0.58333333       0.38179910 </v>
   <v>       0.41820993       0.91958606       0.48168050 </v>
   <v>       0.92169509       0.16234365       0.47004324 </v>
   <v>       0.93834118       0.02197853       0.61540976 </v>
   <v>       0.50512535       0.49055046       0.56443585 </v>
   <v>       0.08333333       0.33333333       0.38179910 </v>
   <v>       0.91916845       0.41212819       0.47388019 </v>
   <v>       0.97526207       0.25878930       0.60685909 </v>
   <v>       0.58333333       0.83333333       0.38179910 </v>
   <v>       0.08333333       0.58333333       0.38179910 </v>
   <v>       0.83333333       0.83333333       0.38179910 </v>
   <v>       0.76303415       0.23926454       0.55926692 </v>
   <v>       0.00557931       0.47408907       0.56434710 </v>
   <v>       0.91935415       0.91351997       0.47720904 </v>
   <v>       0.25979739       0.73190024       0.62828836 </v>
   <v>       0.16882294       0.91541500       0.47829386 </v>
   <v>       0.67004822       0.66352407       0.47400575 </v>
   <v>       0.17027814       0.16646595       0.49105881 </v>
   <v>       0.23530467       0.97316785       0.57485701 </v>
   <v>       0.33333333       0.83333333       0.38179910 </v>
   <v>       0.41730033       0.66257231       0.47511594 </v>
   <v>       0.17616163       0.40936939       0.47488126 </v>
   <v>       0.21521299       0.25433551       0.60955016 </v>
   <v>       0.16983855       0.66308456       0.47826782 </v>
   <v>       0.08337975       0.57462730       0.61120467 </v>
   <v>       0.35499412       0.33278221       0.61196185 </v>
   <v>       0.08071925       0.07497698       0.64511874 </v>
   <v>       0.75262530       0.62468052       0.61641046 </v>
   <v>       0.05471971       0.81540753       0.63678820 </v>
   <v>       0.35718287       0.05266022       0.62971264 </v>
   <v>       0.46587031       0.63802397       0.62601885 </v>
   <v>       0.59951539       0.07400090       0.60914176 </v>
   <v>       0.33333333       0.58333333       0.38179910 </v>
   <v>       0.25559574       0.50003717       0.56717294 </v>
   <v>       0.99251898       0.75134515       0.57084939 </v>
   <v>       0.74602296       0.74686686       0.56302221 </v>
   <v>       0.58333333       0.08333333       0.38179910 </v>
   <v>       0.42070561       0.16260904       0.47097655 </v>
   <v>       0.50227144      -0.01699490       0.57668658 </v>
   <v>       0.08333333       0.83333333       0.38179910 </v>
   <v>       0.92014978       0.66477063       0.47713289 </v>
   <v>       0.58333333       0.33333333       0.38179910 </v>
   <v>       0.42210571       0.41002525       0.47393342 </v>
   <v>       0.50742228       0.24094432       0.56122337 </v>
   <v>       0.08333333       0.08333333       0.38179910 </v>
   <v>       0.83333333       0.58333333       0.38179910 </v>
   <v>       0.66573636       0.91592215       0.47526532 </v>
   <v>       0.49511495       0.74370319       0.56608009 </v>
   <v>       0.83333333       0.08333333       0.38179910 </v>
   <v>       0.66782788       0.16239747       0.47092493 </v>
   <v>       0.75714589      -0.01044445       0.56053512 </v>
   <v>       0.75442757       0.48909640       0.56761035 </v>
   <v>       0.83333333       0.33333333       0.38179910 </v>
   <v>       0.66832325       0.41137130       0.47302984 </v>
   <v>       0.33333333       0.08333333       0.38179910 </v>
   <v>       0.33333333       0.33333333       0.38179910 </v>
  </varray>
  <varray name="selective"  type="logical" >
   <v type="logical" >  F  F  F </v>
   <v type="logical" >  T  T  T </v>
   <v type="logical" >  T  T  T </v>
   <v type="logical" >  T  T  T </v>
   <v type="logical" >  T  T  T </v>
   <v type="logical" >  F  F  F </v>
   <v type="logical" >  T  T  T </v>
   <v type="logical" >  T  T  T </v>
   <v type="logical" >  F  F  F </v>
   <v type="logical" >  F  F  F </v>
   <v type="logical" >  F  F  F </v>
   <v type="logical" >  T  T  T </v>
   <v type="logical" >  T  T  T </v>
   <v type="logical" >  T  T  T </v>
   <v type="logical" >  T  T  T </v>
   <v type="logical" >  T  T  T </v>
   <v type="logical" >  T  T  T </v>
   <v type="logical" >  T  T  T </v>
   <v type="logical" >  T  T  T </v>
   <v type="logical" >  F  F  F </v>
   <v type="logical" >  T  T  T </v>
   <v type="logical" >  T  T  T </v>
   <v type="logical" >  T  T  T </v>
   <v type="logical" >  T  T  T </v>
   <v type="logical" >  T  T  T </v>
   <v type="logical" >  T  T  T </v>
   <v type="logical" >  T  T  T </v>
   <v type="logical" >  T  T  T </v>
   <v type="logical" >  T  T  T </v>
   <v type="logical" >  T  T  T </v>
   <v type="logical" >  T  T  T </v>
   <v type="logical" >  T  T  T </v>
   <v type="logical" >  F  F  F </v>
   <v type="logical" >  T  T  T </v>
   <v type="logical" >  T  T  T </v>
   <v type="logical" >  T  T  T </v>
   <v type="logical" >  F  F  F </v>
   <v type="logical" >  T  T  T </v>
   <v type="logical" >  T  T  T </v>
   <v type="logical" >  F  F  F </v>
   <v type="logical" >  T  T  T </v>
   <v type="logical" >  F  F  F </v>
   <v type="logical" >  T  T  T </v>
   <v type="logical" >  T  T  T </v>
   <v type="logical" >  F  F  F </v>
   <v type="logical" >  F  F  F </v>
   <v type="logical" >  T  T  T </v>
   <v type="logical" >  T  T  T </v>
   <v type="logical" >  F  F  F </v>
   <v type="logical" >  T  T  T </v>
   <v type="logical" >  T  T  T </v>
   <v type="logical" >  T  T  T </v>
   <v type="logical" >  F  F  F </v>
   <v type="logical" >  T  T  T </v>
   <v type="logical" >  F  F  F </v>
   <v type="logical" >  F  F  F </v>
  </varray>
  <nose>
   <v>      -3.00000000       0.00000000       0.00010000       0.00010000 </v>
  </nose>
 </structure>
</modeling>
