unknown system                          
           1
    11.002582    0.000000    0.000000
     5.501291    9.528515    0.000000
     0.000000    0.000000   24.491785
   Au   Pd
  24  24
Direct configuration=     1
   0.25000000  0.00000000  0.59169983
   0.91666667  0.16666667  0.50000000
   0.83333333  0.83333333  0.40830017
   0.75000000  0.50000000  0.59169983
   0.91666667  0.41666667  0.50000000
   0.00000000  0.25000000  0.59169983
   0.66666667  0.66666667  0.50000000
   0.83333333  0.58333333  0.40830017
   0.00000000  0.50000000  0.59169983
   0.75000000  0.25000000  0.59169983
   0.50000000  0.25000000  0.59169983
   0.41666667  0.41666667  0.50000000
   0.66666667  0.16666667  0.50000000
   0.83333333  0.08333333  0.40830017
   0.25000000  0.25000000  0.59169983
   0.50000000  0.75000000  0.59169983
   0.41666667  0.91666667  0.50000000
   0.25000000  0.50000000  0.59169983
   0.58333333  0.83333333  0.40830017
   0.16666667  0.91666667  0.50000000
   0.50000000  0.50000000  0.59169983
   0.41666667  0.16666667  0.50000000
   0.58333333  0.33333333  0.40830017
   0.33333333  0.33333333  0.40830017
   0.91666667  0.91666667  0.50000000
   0.50000000  0.00000000  0.59169983
   0.00000000  0.75000000  0.59169983
   0.16666667  0.16666667  0.50000000
   0.66666667  0.91666667  0.50000000
   0.33333333  0.58333333  0.40830017
   0.16666667  0.66666667  0.50000000
   0.33333333  0.83333333  0.40830017
   0.08333333  0.83333333  0.40830017
   0.16666667  0.41666667  0.50000000
   0.91666667  0.66666667  0.50000000
   0.25000000  0.75000000  0.59169983
   0.08333333  0.33333333  0.40830017
   0.00000000  0.00000000  0.59169983
   0.58333333  0.08333333  0.40830017
   0.08333333  0.08333333  0.40830017
   0.58333333  0.58333333  0.40830017
   0.41666667  0.66666667  0.50000000
   0.66666667  0.41666667  0.50000000
   0.83333333  0.33333333  0.40830017
   0.75000000  0.00000000  0.59169983
   0.33333333  0.08333333  0.40830017
   0.08333333  0.58333333  0.40830017
   0.75000000  0.75000000  0.59169983
Direct configuration=     2
   0.24972121 -0.00029844  0.59391238
   0.91764303  0.16599036  0.49956371
   0.83333333  0.83333333  0.40830017
   0.74972296  0.50057502  0.59396646
   0.91799502  0.41599523  0.49908190
   0.00058819  0.24890561  0.59397986
   0.66659195  0.66673345  0.49997065
   0.83333333  0.58333333  0.40830017
  -0.00048571  0.50193665  0.59357132
   0.75056285  0.24887101  0.59396534
   0.50085472  0.24836121  0.59426134
   0.41520935  0.41954600  0.49949572
   0.66776148  0.16432556  0.50001386
   0.83333333  0.08333333  0.40830017
   0.25022335  0.24948665  0.59364233
   0.49972899  0.75052454  0.59390394
   0.41631224  0.91735873  0.49955153
   0.24850883  0.50199367  0.59355589
   0.58333333  0.83333333  0.40830017
   0.16634390  0.91527978  0.49958823
   0.49943802  0.50114898  0.59365235
   0.41649632  0.16503287  0.49959928
   0.58333333  0.33333333  0.40830017
   0.33333333  0.33333333  0.40830017
   0.91716955  0.91506930  0.50045560
   0.50116119 -0.00059295  0.59292385
  -0.00044885  0.75080041  0.59230463
   0.16673851  0.16715064  0.49925792
   0.66776319  0.91646141  0.50053117
   0.33333333  0.58333333  0.40830017
   0.16579175  0.66714477  0.49974816
   0.33333333  0.83333333  0.40830017
   0.08333333  0.83333333  0.40830017
   0.16548528  0.41771675  0.49944150
   0.91769143  0.66762074  0.50022459
   0.24920225  0.75007036  0.59262861
   0.08333333  0.33333333  0.40830017
  -0.00016776 -0.00102780  0.59285997
   0.58333333  0.08333333  0.40830017
   0.08333333  0.08333333  0.40830017
   0.58333333  0.58333333  0.40830017
   0.41604368  0.66633055  0.49948869
   0.66624489  0.41756335  0.49944646
   0.83333333  0.33333333  0.40830017
   0.75079198 -0.00132998  0.59259816
   0.33333333  0.08333333  0.40830017
   0.08333333  0.58333333  0.40830017
   0.75032706  0.75108751  0.59261993
Direct configuration=     3
   0.24909837 -0.00096519  0.59885540
   0.91982431  0.16447942  0.49858899
   0.83333333  0.83333333  0.40830017
   0.74910402  0.50185967  0.59903030
   0.92096267  0.41449517  0.49703078
   0.00190227  0.24646066  0.59907365
   0.66642501  0.66688265  0.49990507
   0.83333333  0.58333333  0.40830017
  -0.00157082  0.50626330  0.59775238
   0.75182030  0.24634873  0.59902667
   0.50276424  0.24470000  0.59998397
   0.41195357  0.42597869  0.49836910
   0.67020739  0.15909534  0.50004483
   0.83333333  0.08333333  0.40830017
   0.25072234  0.24833979  0.59798205
   0.49912354  0.75169640  0.59882810
   0.41552041  0.91890485  0.49854960
   0.24517741  0.50644770  0.59770250
   0.58333333  0.83333333  0.40830017
   0.16562280  0.91218136  0.49866829
   0.49818251  0.50371590  0.59801445
   0.41611575  0.16138282  0.49870404
   0.58333333  0.33333333  0.40830017
   0.33333333  0.33333333  0.40830017
   0.91829305  0.91150065  0.50147344
   0.50375538 -0.00191764  0.59565843
  -0.00145161  0.75258859  0.59365581
   0.16689901  0.16823187  0.49760006
   0.67021291  0.91600285  0.50171784
   0.33333333  0.58333333  0.40830017
   0.16383711  0.66821288  0.49918553
   0.33333333  0.83333333  0.40830017
   0.08333333  0.83333333  0.40830017
   0.16284595  0.42006271  0.49819376
   0.91998083  0.66975222  0.50072635
   0.24742000  0.75022755  0.59470358
   0.08333333  0.33333333  0.40830017
  -0.00054254 -0.00332400  0.59545184
   0.58333333  0.08333333  0.40830017
   0.08333333  0.08333333  0.40830017
   0.58333333  0.58333333  0.40830017
   0.41465188  0.66557964  0.49834637
   0.66530260  0.41956661  0.49820980
   0.83333333  0.33333333  0.40830017
   0.75256134 -0.00430127  0.59460510
   0.33333333  0.08333333  0.40830017
   0.08333333  0.58333333  0.40830017
   0.75105773  0.75351711  0.59467551
Direct configuration=     4
   0.24923677 -0.00201823  0.60151465
   0.91994289  0.16453668  0.50046351
   0.83333333  0.83333333  0.40830017
   0.75014839  0.50160034  0.60174822
   0.92089151  0.41468540  0.49905298
   0.00153480  0.24670183  0.60182718
   0.66648879  0.66667443  0.50197142
   0.83333333  0.58333333  0.40830017
  -0.00247734  0.50658671  0.60017356
   0.75200970  0.24583570  0.60170629
   0.50264157  0.24478768  0.60290803
   0.41176322  0.42489770  0.50061087
   0.66912880  0.16032115  0.50204374
   0.83333333  0.08333333  0.40830017
   0.25091946  0.24877601  0.60029791
   0.49862312  0.75303874  0.60156950
   0.41457319  0.91731715  0.50035982
   0.24546701  0.50628660  0.60006996
   0.58333333  0.83333333  0.40830017
   0.16620636  0.91196117  0.49996494
   0.49793116  0.50324684  0.60049787
   0.41606212  0.16343650  0.50054330
   0.58333333  0.33333333  0.40830017
   0.33333333  0.33333333  0.40830017
   0.91905580  0.91088163  0.50242590
   0.50415547 -0.00271419  0.59730866
  -0.00182792  0.75382336  0.59515796
   0.16682976  0.16788298  0.49884543
   0.67084484  0.91437884  0.50284583
   0.33333333  0.58333333  0.40830017
   0.16327783  0.66771662  0.49981283
   0.33333333  0.83333333  0.40830017
   0.08333333  0.83333333  0.40830017
   0.16310159  0.42057436  0.49952563
   0.92042869  0.66912270  0.50177418
   0.24670454  0.75115644  0.59592691
   0.08333333  0.33333333  0.40830017
  -0.00046372 -0.00398267  0.59697002
   0.58333333  0.08333333  0.40830017
   0.08333333  0.08333333  0.40830017
   0.58333333  0.58333333  0.40830017
   0.41473756  0.66701351  0.49941718
   0.66600894  0.41891090  0.49977925
   0.83333333  0.33333333  0.40830017
   0.75342395 -0.00497185  0.59644221
   0.33333333  0.08333333  0.40830017
   0.08333333  0.58333333  0.40830017
   0.75088028  0.75380580  0.59616799
Direct configuration=     5
   0.24965198 -0.00517734  0.60949239
   0.92029863  0.16470845  0.50608707
   0.83333333  0.83333333  0.40830017
   0.75328151  0.50082235  0.60990197
   0.92067804  0.41525608  0.50511958
   0.00043238  0.24742535  0.61008778
   0.66668012  0.66604976  0.50817045
   0.83333333  0.58333333  0.40830017
  -0.00519690  0.50755693  0.60743708
   0.75257790  0.24429660  0.60974512
   0.50227358  0.24505071  0.61168022
   0.41119218  0.42165475  0.50733619
   0.66589304  0.16399859  0.50804045
   0.83333333  0.08333333  0.40830017
   0.25151082  0.25008467  0.60724550
   0.49712186  0.75706576  0.60979369
   0.41173154  0.91255407  0.50579048
   0.24633581  0.50580329  0.60717232
   0.58333333  0.83333333  0.40830017
   0.16795706  0.91130060  0.50385490
   0.49717711  0.50183963  0.60794811
   0.41590123  0.16959754  0.50606108
   0.58333333  0.33333333  0.40830017
   0.33333333  0.33333333  0.40830017
   0.92134407  0.90902457  0.50528330
   0.50535576 -0.00510382  0.60225937
  -0.00295684  0.75752767  0.59966441
   0.16662202  0.16683632  0.50258154
   0.67274061  0.90950680  0.50622982
   0.33333333  0.58333333  0.40830017
   0.16160000  0.66622782  0.50169473
   0.33333333  0.83333333  0.40830017
   0.08333333  0.83333333  0.40830017
   0.16386850  0.42210930  0.50352122
   0.92177226  0.66723414  0.50491767
   0.24455817  0.75394312  0.59959690
   0.08333333  0.33333333  0.40830017
  -0.00022728 -0.00595866  0.60152459
   0.58333333  0.08333333  0.40830017
   0.08333333  0.08333333  0.40830017
   0.58333333  0.58333333  0.40830017
   0.41499459  0.67131509  0.50262959
   0.66812793  0.41694379  0.50448759
   0.83333333  0.33333333  0.40830017
   0.75601176 -0.00698356  0.60195356
   0.33333333  0.08333333  0.40830017
   0.08333333  0.58333333  0.40830017
   0.75034793  0.75467188  0.60064541
Direct configuration=     6
   0.24709598 -0.00041667  0.61189717
   0.91869563  0.16474511  0.50805518
   0.83333333  0.83333333  0.40830017
   0.74967763  0.50136685  0.61234901
   0.92003587  0.41567415  0.50732891
   0.00226633  0.24635619  0.61244275
   0.66762335  0.66369758  0.50995364
   0.83333333  0.58333333  0.40830017
  -0.00211465  0.50628877  0.60948938
   0.75176481  0.24561633  0.61209563
   0.50283701  0.24482697  0.61444667
   0.41373244  0.42327324  0.50944210
   0.66779018  0.16392823  0.50995088
   0.83333333  0.08333333  0.40830017
   0.25014921  0.24949227  0.60898499
   0.49971031  0.75159657  0.61247667
   0.41410912  0.91803472  0.50765974
   0.24509739  0.50597836  0.60925541
   0.58333333  0.83333333  0.40830017
   0.16455390  0.91437213  0.50514453
   0.49898497  0.50271155  0.60984316
   0.41545187  0.16584978  0.50801750
   0.58333333  0.33333333  0.40830017
   0.33333333  0.33333333  0.40830017
   0.91810966  0.91356267  0.50578855
   0.50302522 -0.00161102  0.60350339
  -0.00095078  0.75300319  0.60156728
   0.16835020  0.16656404  0.50504920
   0.66931478  0.91276165  0.50692181
   0.33333333  0.58333333  0.40830017
   0.16558352  0.66458504  0.50328454
   0.33333333  0.83333333  0.40830017
   0.08333333  0.83333333  0.40830017
   0.16407587  0.41971716  0.50596512
   0.92008184  0.66489902  0.50638211
   0.24735363  0.75071240  0.60085869
   0.08333333  0.33333333  0.40830017
  -0.00030885 -0.00228705  0.60321586
   0.58333333  0.08333333  0.40830017
   0.08333333  0.08333333  0.40830017
   0.58333333  0.58333333  0.40830017
   0.41749925  0.66396391  0.50478783
   0.66707233  0.41670332  0.50691854
   0.83333333  0.33333333  0.40830017
   0.75306539 -0.00398991  0.60386897
   0.33333333  0.08333333  0.40830017
   0.08333333  0.58333333  0.40830017
   0.75075939  0.75268802  0.60292866
Direct configuration=     7
   0.24736519 -0.00091808  0.61164389
   0.91886446  0.16474125  0.50784789
   0.83333333  0.83333333  0.40830017
   0.75005720  0.50130950  0.61209128
   0.92010350  0.41563012  0.50709621
   0.00207317  0.24646879  0.61219471
   0.66752401  0.66394531  0.50976583
   0.83333333  0.58333333  0.40830017
  -0.00243929  0.50642234  0.60927323
   0.75185045  0.24547733  0.61184807
   0.50277767  0.24485053  0.61415530
   0.41346489  0.42310277  0.50922029
   0.66759037  0.16393564  0.50974966
   0.83333333  0.08333333  0.40830017
   0.25029262  0.24955467  0.60880178
   0.49943769  0.75217260  0.61219409
   0.41385870  0.91745748  0.50746286
   0.24522783  0.50595992  0.60903601
   0.58333333  0.83333333  0.40830017
   0.16491233  0.91404863  0.50500870
   0.49879456  0.50261971  0.60964357
   0.41549919  0.16624451  0.50781144
   0.58333333  0.33333333  0.40830017
   0.33333333  0.33333333  0.40830017
   0.91845032  0.91308470  0.50573533
   0.50327068 -0.00197890  0.60337236
  -0.00116206  0.75347972  0.60136686
   0.16816818  0.16659272  0.50478930
   0.66967560  0.91241884  0.50684893
   0.33333333  0.58333333  0.40830017
   0.16516396  0.66475806  0.50311710
   0.33333333  0.83333333  0.40830017
   0.08333333  0.83333333  0.40830017
   0.16405403  0.41996911  0.50570772
   0.92025988  0.66514497  0.50622787
   0.24705921  0.75105267  0.60072579
   0.08333333  0.33333333  0.40830017
  -0.00030026 -0.00267375  0.60303773
   0.58333333  0.08333333  0.40830017
   0.08333333  0.08333333  0.40830017
   0.58333333  0.58333333  0.40830017
   0.41723546  0.66473816  0.50456051
   0.66718351  0.41672864  0.50666251
   0.83333333  0.33333333  0.40830017
   0.75337571 -0.00430521  0.60366723
   0.33333333  0.08333333  0.40830017
   0.08333333  0.58333333  0.40830017
   0.75071605  0.75289697  0.60268818
Direct configuration=     8
   0.24888213 -0.00136612  0.61190323
   0.91788171  0.16660328  0.50789889
   0.83333333  0.83333333  0.40830017
   0.75030008  0.50029132  0.61268647
   0.92003866  0.41408890  0.50736183
   0.00085080  0.24827928  0.61259678
   0.66638202  0.66441182  0.50968935
   0.83333333  0.58333333  0.40830017
  -0.00182142  0.50478302  0.60964033
   0.75143887  0.24690622  0.61237556
   0.50193348  0.24608771  0.61471465
   0.41504214  0.42084755  0.50935521
   0.66722226  0.16399000  0.50978554
   0.83333333  0.08333333  0.40830017
   0.25005776  0.24974942  0.60908963
   0.49890975  0.75206743  0.61257121
   0.41528995  0.91664667  0.50767895
   0.24655661  0.50469835  0.60941752
   0.58333333  0.83333333  0.40830017
   0.16642689  0.91392326  0.50518482
   0.49908287  0.50202956  0.61005490
   0.41608250  0.16615305  0.50776691
   0.58333333  0.33333333  0.40830017
   0.33333333  0.33333333  0.40830017
   0.91663373  0.91347304  0.50603017
   0.50203587 -0.00139549  0.60389061
  -0.00103269  0.75272454  0.60152283
   0.16724632  0.16731625  0.50575253
   0.66883583  0.91409796  0.50694143
   0.33333333  0.58333333  0.40830017
   0.16556685  0.66523236  0.50389169
   0.33333333  0.83333333  0.40830017
   0.08333333  0.83333333  0.40830017
   0.16532811  0.41822244  0.50657993
   0.91937299  0.66585779  0.50670468
   0.24856675  0.75046889  0.60100484
   0.08333333  0.33333333  0.40830017
  -0.00027811 -0.00205796  0.60356901
   0.58333333  0.08333333  0.40830017
   0.08333333  0.08333333  0.40830017
   0.58333333  0.58333333  0.40830017
   0.41743908  0.66506635  0.50533970
   0.66753042  0.41600815  0.50736591
   0.83333333  0.33333333  0.40830017
   0.75247708 -0.00373648  0.60407666
   0.33333333  0.08333333  0.40830017
   0.08333333  0.58333333  0.40830017
   0.75057938  0.75244694  0.60347543
Direct configuration=     9
   0.24898923 -0.00139775  0.61192154
   0.91781233  0.16673474  0.50790249
   0.83333333  0.83333333  0.40830017
   0.75031723  0.50021943  0.61272849
   0.92003408  0.41398009  0.50738059
   0.00076450  0.24840710  0.61262516
   0.66630140  0.66444475  0.50968395
   0.83333333  0.58333333  0.40830017
  -0.00177779  0.50466728  0.60966625
   0.75140981  0.24700710  0.61241280
   0.50187389  0.24617505  0.61475414
   0.41515350  0.42068834  0.50936474
   0.66719627  0.16399384  0.50978807
   0.83333333  0.08333333  0.40830017
   0.25004118  0.24976317  0.60910995
   0.49887248  0.75206001  0.61259783
   0.41539100  0.91658943  0.50769421
   0.24665042  0.50460928  0.60944446
   0.58333333  0.83333333  0.40830017
   0.16653382  0.91391441  0.50519726
   0.49910323  0.50198790  0.61008394
   0.41612369  0.16614659  0.50776377
   0.58333333  0.33333333  0.40830017
   0.33333333  0.33333333  0.40830017
   0.91650548  0.91350045  0.50605099
   0.50194869 -0.00135430  0.60392720
  -0.00102356  0.75267122  0.60153384
   0.16718123  0.16736733  0.50582053
   0.66877654  0.91421651  0.50694796
   0.33333333  0.58333333  0.40830017
   0.16559529  0.66526584  0.50394637
   0.33333333  0.83333333  0.40830017
   0.08333333  0.83333333  0.40830017
   0.16541806  0.41809912  0.50664151
   0.91931038  0.66590812  0.50673835
   0.24867318  0.75042768  0.60102454
   0.08333333  0.33333333  0.40830017
  -0.00027654 -0.00201449  0.60360652
   0.58333333  0.08333333  0.40830017
   0.08333333  0.08333333  0.40830017
   0.58333333  0.58333333  0.40830017
   0.41745345  0.66508952  0.50539471
   0.66755491  0.41595728  0.50741557
   0.83333333  0.33333333  0.40830017
   0.75241364 -0.00369633  0.60410556
   0.33333333  0.08333333  0.40830017
   0.08333333  0.58333333  0.40830017
   0.75056973  0.75241517  0.60353101
Direct configuration=    10
   0.24913365 -0.00144862  0.61188760
   0.91804803  0.16585823  0.50776475
   0.83333333  0.83333333  0.40830017
   0.75029860  0.50073254  0.61300440
   0.91968353  0.41478846  0.50721683
   0.00075111  0.24837831  0.61281792
   0.66657226  0.66450380  0.50955139
   0.83333333  0.58333333  0.40830017
  -0.00198759  0.50450930  0.60971532
   0.75131100  0.24689257  0.61264983
   0.50160915  0.24646868  0.61497772
   0.41526186  0.42013385  0.50912250
   0.66733001  0.16396539  0.50970099
   0.83333333  0.08333333  0.40830017
   0.25026540  0.24959893  0.60924532
   0.49908357  0.75212146  0.61267918
   0.41555181  0.91619027  0.50758587
   0.24723104  0.50428976  0.60954994
   0.58333333  0.83333333  0.40830017
   0.16655174  0.91429274  0.50522840
   0.49901561  0.50173429  0.61029005
   0.41612360  0.16610292  0.50750209
   0.58333333  0.33333333  0.40830017
   0.33333333  0.33333333  0.40830017
   0.91673762  0.91349789  0.50633456
   0.50190337 -0.00143735  0.60426282
  -0.00097413  0.75270461  0.60147444
   0.16729273  0.16689542  0.50628734
   0.66873277  0.91431076  0.50712278
   0.33333333  0.58333333  0.40830017
   0.16544972  0.66519019  0.50435695
   0.33333333  0.83333333  0.40830017
   0.08333333  0.83333333  0.40830017
   0.16557827  0.41813359  0.50698381
   0.91913490  0.66584998  0.50698442
   0.24872639  0.75057243  0.60122903
   0.08333333  0.33333333  0.40830017
  -0.00015138 -0.00209643  0.60364179
   0.58333333  0.08333333  0.40830017
   0.08333333  0.08333333  0.40830017
   0.58333333  0.58333333  0.40830017
   0.41737181  0.66527651  0.50567900
   0.66733668  0.41609780  0.50765192
   0.83333333  0.33333333  0.40830017
   0.75210283 -0.00344391  0.60427286
   0.33333333  0.08333333  0.40830017
   0.08333333  0.58333333  0.40830017
   0.75018885  0.75223374  0.60380891
Direct configuration=    11
   0.24919747 -0.00147110  0.61187260
   0.91815218  0.16547094  0.50770389
   0.83333333  0.83333333  0.40830017
   0.75029037  0.50095926  0.61312631
   0.91952863  0.41514564  0.50714447
   0.00074520  0.24836559  0.61290310
   0.66669194  0.66452988  0.50949282
   0.83333333  0.58333333  0.40830017
  -0.00208029  0.50443950  0.60973700
   0.75126735  0.24684197  0.61275456
   0.50149217  0.24659843  0.61507651
   0.41530975  0.41988884  0.50901546
   0.66738911  0.16395283  0.50966251
   0.83333333  0.08333333  0.40830017
   0.25036447  0.24952636  0.60930514
   0.49917685  0.75214861  0.61271513
   0.41562286  0.91601389  0.50753801
   0.24748760  0.50414857  0.60959655
   0.58333333  0.83333333  0.40830017
   0.16655966  0.91445991  0.50524216
   0.49897689  0.50162223  0.61038112
   0.41612356  0.16608362  0.50738646
   0.58333333  0.33333333  0.40830017
   0.33333333  0.33333333  0.40830017
   0.91684020  0.91349675  0.50645986
   0.50188335 -0.00147404  0.60441111
  -0.00095229  0.75271937  0.60144819
   0.16734200  0.16668691  0.50649361
   0.66871343  0.91435240  0.50720002
   0.33333333  0.58333333  0.40830017
   0.16538540  0.66515677  0.50453837
   0.33333333  0.83333333  0.40830017
   0.08333333  0.83333333  0.40830017
   0.16564906  0.41814882  0.50713505
   0.91905737  0.66582429  0.50709315
   0.24874990  0.75063639  0.60131939
   0.08333333  0.33333333  0.40830017
  -0.00009608 -0.00213264  0.60365738
   0.58333333  0.08333333  0.40830017
   0.08333333  0.08333333  0.40830017
   0.58333333  0.58333333  0.40830017
   0.41733574  0.66535914  0.50580461
   0.66724026  0.41615989  0.50775636
   0.83333333  0.33333333  0.40830017
   0.75196550 -0.00333237  0.60434678
   0.33333333  0.08333333  0.40830017
   0.08333333  0.58333333  0.40830017
   0.75002055  0.75215357  0.60393171
Direct configuration=    12
   0.24906263 -0.00144027  0.61181893
   0.91813422  0.16562170  0.50761359
   0.83333333  0.83333333  0.40830017
   0.75006642  0.50108635  0.61336282
   0.91968000  0.41483231  0.50695548
   0.00070807  0.24809448  0.61301424
   0.66682640  0.66461645  0.50941945
   0.83333333  0.58333333  0.40830017
  -0.00192430  0.50461990  0.60975710
   0.75142213  0.24663076  0.61292922
   0.50156669  0.24629340  0.61525406
   0.41511687  0.42023901  0.50876794
   0.66752679  0.16379788  0.50965252
   0.83333333  0.08333333  0.40830017
   0.25058207  0.24936841  0.60943107
   0.49924912  0.75204327  0.61276135
   0.41575973  0.91600454  0.50745171
   0.24726702  0.50429455  0.60966510
   0.58333333  0.83333333  0.40830017
   0.16663036  0.91409213  0.50522991
   0.49917886  0.50170894  0.61053252
   0.41607945  0.16558986  0.50726931
   0.58333333  0.33333333  0.40830017
   0.33333333  0.33333333  0.40830017
   0.91724209  0.91315730  0.50663924
   0.50203028 -0.00140675  0.60464307
  -0.00100200  0.75265853  0.60150794
   0.16715527  0.16677068  0.50682289
   0.66886454  0.91417336  0.50744924
   0.33333333  0.58333333  0.40830017
   0.16541753  0.66507205  0.50479361
   0.33333333  0.83333333  0.40830017
   0.08333333  0.83333333  0.40830017
   0.16538913  0.41828609  0.50731690
   0.91912558  0.66603297  0.50722668
   0.24863241  0.75081608  0.60155996
   0.08333333  0.33333333  0.40830017
  -0.00007739 -0.00219035  0.60367618
   0.58333333  0.08333333  0.40830017
   0.08333333  0.08333333  0.40830017
   0.58333333  0.58333333  0.40830017
   0.41721740  0.66504512  0.50600116
   0.66727785  0.41625510  0.50793291
   0.83333333  0.33333333  0.40830017
   0.75175755 -0.00326192  0.60447024
   0.33333333  0.08333333  0.40830017
   0.08333333  0.58333333  0.40830017
   0.74986285  0.75232781  0.60412310
Direct configuration=    13
   0.24904669 -0.00143663  0.61181258
   0.91813210  0.16563952  0.50760292
   0.83333333  0.83333333  0.40830017
   0.75003994  0.50110138  0.61339079
   0.91969790  0.41479527  0.50693314
   0.00070368  0.24806242  0.61302738
   0.66684229  0.66462668  0.50941077
   0.83333333  0.58333333  0.40830017
  -0.00190585  0.50464123  0.60975948
   0.75144043  0.24660579  0.61294987
   0.50157550  0.24625733  0.61527505
   0.41509407  0.42028041  0.50873867
   0.66754307  0.16377956  0.50965133
   0.83333333  0.08333333  0.40830017
   0.25060779  0.24934974  0.60944596
   0.49925766  0.75203081  0.61276681
   0.41577592  0.91600344  0.50744151
   0.24724094  0.50431181  0.60967321
   0.58333333  0.83333333  0.40830017
   0.16663872  0.91404865  0.50522846
   0.49920274  0.50171919  0.61055042
   0.41607423  0.16553149  0.50725546
   0.58333333  0.33333333  0.40830017
   0.33333333  0.33333333  0.40830017
   0.91728961  0.91311716  0.50666045
   0.50204766 -0.00139879  0.60467050
  -0.00100788  0.75265133  0.60151501
   0.16713319  0.16678058  0.50686182
   0.66888241  0.91415219  0.50747871
   0.33333333  0.58333333  0.40830017
   0.16542133  0.66506204  0.50482379
   0.33333333  0.83333333  0.40830017
   0.08333333  0.83333333  0.40830017
   0.16535840  0.41830232  0.50733840
   0.91913365  0.66605764  0.50724247
   0.24861851  0.75083732  0.60158840
   0.08333333  0.33333333  0.40830017
  -0.00007518 -0.00219717  0.60367841
   0.58333333  0.08333333  0.40830017
   0.08333333  0.08333333  0.40830017
   0.58333333  0.58333333  0.40830017
   0.41720341  0.66500800  0.50602440
   0.66728229  0.41626636  0.50795378
   0.83333333  0.33333333  0.40830017
   0.75173297 -0.00325359  0.60448484
   0.33333333  0.08333333  0.40830017
   0.08333333  0.58333333  0.40830017
   0.74984420  0.75234842  0.60414572
Direct configuration=    14
   0.24909545 -0.00151661  0.61176000
   0.91806562  0.16583888  0.50760475
   0.83333333  0.83333333  0.40830017
   0.75027650  0.50088015  0.61349648
   0.91975013  0.41459701  0.50690573
   0.00056194  0.24821401  0.61305376
   0.66685002  0.66452662  0.50946590
   0.83333333  0.58333333  0.40830017
  -0.00198036  0.50459387  0.60976152
   0.75146574  0.24653967  0.61302263
   0.50166617  0.24625784  0.61530273
   0.41504768  0.42022551  0.50871177
   0.66741517  0.16377648  0.50971798
   0.83333333  0.08333333  0.40830017
   0.25057346  0.24935167  0.60953787
   0.49908745  0.75219237  0.61276018
   0.41568339  0.91590352  0.50746005
   0.24731636  0.50436867  0.60969562
   0.58333333  0.83333333  0.40830017
   0.16677606  0.91371159  0.50520794
   0.49913721  0.50165081  0.61060087
   0.41610295  0.16549359  0.50730284
   0.58333333  0.33333333  0.40830017
   0.33333333  0.33333333  0.40830017
   0.91732522  0.91310427  0.50666443
   0.50198885 -0.00139551  0.60476153
  -0.00115669  0.75276333  0.60168666
   0.16705564  0.16680263  0.50696167
   0.66910122  0.91403449  0.50761558
   0.33333333  0.58333333  0.40830017
   0.16550568  0.66497685  0.50486712
   0.33333333  0.83333333  0.40830017
   0.08333333  0.83333333  0.40830017
   0.16530673  0.41823526  0.50735334
   0.91921059  0.66606886  0.50723060
   0.24854977  0.75082593  0.60176708
   0.08333333  0.33333333  0.40830017
  -0.00018721 -0.00224118  0.60367888
   0.58333333  0.08333333  0.40830017
   0.08333333  0.08333333  0.40830017
   0.58333333  0.58333333  0.40830017
   0.41730535  0.66492201  0.50609762
   0.66737600  0.41625053  0.50803817
   0.83333333  0.33333333  0.40830017
   0.75182247 -0.00333381  0.60455560
   0.33333333  0.08333333  0.40830017
   0.08333333  0.58333333  0.40830017
   0.74996963  0.75239409  0.60423097
Direct configuration=    15
   0.24910920 -0.00153918  0.61174516
   0.91804687  0.16589514  0.50760527
   0.83333333  0.83333333  0.40830017
   0.75034325  0.50081772  0.61352631
   0.91976487  0.41454107  0.50689800
   0.00052194  0.24825679  0.61306120
   0.66685220  0.66449838  0.50948146
   0.83333333  0.58333333  0.40830017
  -0.00200138  0.50458051  0.60976209
   0.75147288  0.24652101  0.61304316
   0.50169176  0.24625799  0.61531054
   0.41503459  0.42021002  0.50870418
   0.66737908  0.16377561  0.50973679
   0.83333333  0.08333333  0.40830017
   0.25056377  0.24935222  0.60956381
   0.49903942  0.75223795  0.61275831
   0.41565728  0.91587533  0.50746528
   0.24733765  0.50438472  0.60970195
   0.58333333  0.83333333  0.40830017
   0.16681481  0.91361648  0.50520215
   0.49911873  0.50163152  0.61061510
   0.41611106  0.16548289  0.50731621
   0.58333333  0.33333333  0.40830017
   0.33333333  0.33333333  0.40830017
   0.91733527  0.91310064  0.50666555
   0.50197226 -0.00139458  0.60478722
  -0.00119868  0.75279493  0.60173510
   0.16703376  0.16680885  0.50698984
   0.66916296  0.91400128  0.50765420
   0.33333333  0.58333333  0.40830017
   0.16552948  0.66495281  0.50487935
   0.33333333  0.83333333  0.40830017
   0.08333333  0.83333333  0.40830017
   0.16529215  0.41821634  0.50735755
   0.91923230  0.66607203  0.50722724
   0.24853038  0.75082272  0.60181750
   0.08333333  0.33333333  0.40830017
  -0.00021883 -0.00225360  0.60367901
   0.58333333  0.08333333  0.40830017
   0.08333333  0.08333333  0.40830017
   0.58333333  0.58333333  0.40830017
   0.41733411  0.66489775  0.50611828
   0.66740245  0.41624607  0.50806198
   0.83333333  0.33333333  0.40830017
   0.75184773 -0.00335645  0.60457556
   0.33333333  0.08333333  0.40830017
   0.08333333  0.58333333  0.40830017
   0.75000502  0.75240698  0.60425503
Direct configuration=    16
   0.24893313 -0.00145100  0.61168287
   0.91806798  0.16570798  0.50763658
   0.83333333  0.83333333  0.40830017
   0.75030416  0.50081837  0.61363944
   0.91973154  0.41464499  0.50689539
   0.00057787  0.24820672  0.61308682
   0.66696039  0.66437682  0.50959181
   0.83333333  0.58333333  0.40830017
  -0.00195265  0.50455630  0.60975423
   0.75144236  0.24647199  0.61312606
   0.50172637  0.24626240  0.61532122
   0.41507492  0.42006814  0.50872190
   0.66733963  0.16378404  0.50983308
   0.83333333  0.08333333  0.40830017
   0.25050017  0.24943530  0.60967096
   0.49911786  0.75212425  0.61274735
   0.41565826  0.91585716  0.50749755
   0.24730290  0.50436222  0.60971395
   0.58333333  0.83333333  0.40830017
   0.16676262  0.91351222  0.50521063
   0.49915391  0.50159807  0.61066767
   0.41610446  0.16539576  0.50742185
   0.58333333  0.33333333  0.40830017
   0.33333333  0.33333333  0.40830017
   0.91732096  0.91319899  0.50665435
   0.50191007 -0.00136830  0.60486635
  -0.00127363  0.75283563  0.60193440
   0.16716426  0.16663328  0.50702327
   0.66927337  0.91386665  0.50778429
   0.33333333  0.58333333  0.40830017
   0.16559739  0.66483072  0.50491706
   0.33333333  0.83333333  0.40830017
   0.08333333  0.83333333  0.40830017
   0.16531450  0.41806586  0.50734689
   0.91932911  0.66591572  0.50721822
   0.24836469  0.75085181  0.60199992
   0.08333333  0.33333333  0.40830017
  -0.00028617 -0.00224340  0.60365923
   0.58333333  0.08333333  0.40830017
   0.08333333  0.08333333  0.40830017
   0.58333333  0.58333333  0.40830017
   0.41749502  0.66473509  0.50620179
   0.66738946  0.41618961  0.50814094
   0.83333333  0.33333333  0.40830017
   0.75193111 -0.00340397  0.60468669
   0.33333333  0.08333333  0.40830017
   0.08333333  0.58333333  0.40830017
   0.75006675  0.75232385  0.60434595
