unknown system                          
           1
    11.002582    0.000000    0.000000
     5.501291    9.528515    0.000000
     0.000000    0.000000   26.191785
   Au   O    Pd
  24   8  24
Direct configuration=     1
   0.49807436  0.24371917  0.56392943
   0.16966003  0.66736230  0.47461342
   0.50281242  0.49977548  0.56486624
   0.66205895  0.91589465  0.47761816
   0.00159375  0.98677597  0.56121820
   0.58333333  0.33333333  0.38179910
   0.58333333  0.58333333  0.38179910
   0.51292448  0.02011785  0.60835919
   0.67503448  0.66779844  0.50484467
   0.83333333  0.58333333  0.38179910
   0.58333333  0.08333333  0.38179910
   0.00536864  0.51536567  0.56284726
   0.91699621  0.66826854  0.47386681
   0.91738694  0.91716432  0.47159594
   0.75096225  0.23747850  0.56319821
   0.23596088  0.73241258  0.56521562
   0.33333333  0.08333333  0.38179910
   0.67391948  0.42505698  0.47555452
   0.58333333  0.83333333  0.38179910
   0.41517903  0.42170776  0.47348835
   0.41495228  0.92161111  0.49285749
   0.66886001  0.16826042  0.47366786
   0.24460065  0.25901862  0.56330109
   0.08333333  0.83333333  0.38179910
   0.85966758  0.55283824  0.62787659
   0.29421744  0.11122895  0.62419484
   0.57681437  0.82371966  0.64043780
   0.86914355  0.29338363  0.61326366
   0.09352613  0.57221298  0.64259346
   0.87452528  0.96869600  0.62300877
   0.31038579  0.82646198  0.62035468
   0.44322708  0.44474693  0.63498305
   0.16856905  0.16837901  0.47267599
   0.23311042  0.00406673  0.57935461
   0.08333333  0.33333333  0.38179910
   0.33333333  0.33333333  0.38179910
   0.16965262  0.41759422  0.47546688
   0.92064613  0.41914195  0.47233124
   0.33333333  0.58333333  0.38179910
   0.26884753  0.47979426  0.60893508
   0.33333333  0.83333333  0.38179910
   0.17195550  0.92023145  0.47528731
   0.92212105  0.16769970  0.46935392
   0.76165425  0.74916895  0.60817397
   0.41554531  0.16802758  0.47291990
   0.00457809  0.24575436  0.55612678
   0.08333333  0.08333333  0.38179910
   0.83333333  0.83333333  0.38179910
   0.74751938  0.49128085  0.59031942
   0.42315926  0.67302304  0.47654709
   0.83333333  0.33333333  0.38179910
   0.75127445  0.97960508  0.56442256
   0.83333333  0.08333333  0.38179910
   0.50120238  0.74362250  0.58899540
   0.99149539  0.76703252  0.62788978
   0.08333333  0.58333333  0.38179910
Direct configuration=     2
   0.49802859  0.24377064  0.56396342
   0.16961250  0.66746053  0.47467758
   0.50257697  0.49994494  0.56492725
   0.66206177  0.91593536  0.47761030
   0.00158617  0.98674900  0.56126074
   0.58333333  0.33333333  0.38179910
   0.58333333  0.58333333  0.38179910
   0.51308148  0.01997892  0.60821050
   0.67498146  0.66775808  0.50485921
   0.83333333  0.58333333  0.38179910
   0.58333333  0.08333333  0.38179910
   0.00531684  0.51534713  0.56279676
   0.91686308  0.66836092  0.47377676
   0.91746226  0.91720835  0.47155781
   0.75081493  0.23741779  0.56332184
   0.23584714  0.73230655  0.56517412
   0.33333333  0.08333333  0.38179910
   0.67378630  0.42493431  0.47560567
   0.58333333  0.83333333  0.38179910
   0.41533435  0.42166153  0.47346637
   0.41506405  0.92146643  0.49280851
   0.66904151  0.16812021  0.47365509
   0.24452908  0.25876883  0.56331859
   0.08333333  0.83333333  0.38179910
   0.86009433  0.55267494  0.62802478
   0.29420212  0.11131899  0.62424532
   0.57708643  0.82373907  0.64045886
   0.86930977  0.29321287  0.61343015
   0.09376380  0.57215030  0.64267624
   0.87477874  0.96816154  0.62308896
   0.31022933  0.82670053  0.62039208
   0.44356061  0.44445069  0.63482467
   0.16866062  0.16819944  0.47266277
   0.23316924  0.00385037  0.57931189
   0.08333333  0.33333333  0.38179910
   0.33333333  0.33333333  0.38179910
   0.16944634  0.41771601  0.47541888
   0.92076085  0.41924968  0.47229043
   0.33333333  0.58333333  0.38179910
   0.26873537  0.47999085  0.60912966
   0.33333333  0.83333333  0.38179910
   0.17184909  0.92028184  0.47535635
   0.92212812  0.16757202  0.46930676
   0.76105239  0.74991461  0.60816123
   0.41562060  0.16797416  0.47289138
   0.00483423  0.24555261  0.55602461
   0.08333333  0.08333333  0.38179910
   0.83333333  0.83333333  0.38179910
   0.74683807  0.49161853  0.59028015
   0.42310706  0.67296110  0.47653691
   0.83333333  0.33333333  0.38179910
   0.75119204  0.97945711  0.56444819
   0.83333333  0.08333333  0.38179910
   0.50135669  0.74344531  0.58898989
   0.99139040  0.76747298  0.62786682
   0.08333333  0.58333333  0.38179910
Direct configuration=     3
   0.49799980  0.24380302  0.56398479
   0.16958261  0.66752232  0.47471793
   0.50242887  0.50005153  0.56496563
   0.66206354  0.91596097  0.47760535
   0.00158140  0.98673204  0.56128751
   0.58333333  0.33333333  0.38179910
   0.58333333  0.58333333  0.38179910
   0.51318022  0.01989153  0.60811698
   0.67494811  0.66773269  0.50486836
   0.83333333  0.58333333  0.38179910
   0.58333333  0.08333333  0.38179910
   0.00528427  0.51533546  0.56276499
   0.91677935  0.66841902  0.47372012
   0.91750963  0.91723605  0.47153382
   0.75072227  0.23737960  0.56339961
   0.23577560  0.73223985  0.56514801
   0.33333333  0.08333333  0.38179910
   0.67370254  0.42485715  0.47563784
   0.58333333  0.83333333  0.38179910
   0.41543205  0.42163245  0.47345254
   0.41513435  0.92137543  0.49277770
   0.66915568  0.16803202  0.47364705
   0.24448406  0.25861171  0.56332959
   0.08333333  0.83333333  0.38179910
   0.86036276  0.55257222  0.62811798
   0.29419248  0.11137562  0.62427707
   0.57725756  0.82375127  0.64047211
   0.86941431  0.29310546  0.61353487
   0.09391329  0.57211088  0.64272830
   0.87493816  0.96782536  0.62313941
   0.31013092  0.82685057  0.62041560
   0.44377039  0.44426435  0.63472505
   0.16871822  0.16808650  0.47265445
   0.23320624  0.00371428  0.57928502
   0.08333333  0.33333333  0.38179910
   0.33333333  0.33333333  0.38179910
   0.16931659  0.41779262  0.47538869
   0.92083300  0.41931744  0.47226477
   0.33333333  0.58333333  0.38179910
   0.26866483  0.48011451  0.60925204
   0.33333333  0.83333333  0.38179910
   0.17178216  0.92031354  0.47539977
   0.92213257  0.16749171  0.46927709
   0.76067383  0.75038363  0.60815321
   0.41566796  0.16794056  0.47287343
   0.00499534  0.24542571  0.55596034
   0.08333333  0.08333333  0.38179910
   0.83333333  0.83333333  0.38179910
   0.74640953  0.49183093  0.59025545
   0.42307422  0.67292214  0.47653051
   0.83333333  0.33333333  0.38179910
   0.75114021  0.97936404  0.56446430
   0.83333333  0.08333333  0.38179910
   0.50145375  0.74333386  0.58898643
   0.99132436  0.76775002  0.62785237
   0.08333333  0.58333333  0.38179910
Direct configuration=     4
   0.49782891  0.24392932  0.56401269
   0.16951948  0.66755714  0.47477618
   0.50206790  0.50032803  0.56498991
   0.66209070  0.91599451  0.47759119
   0.00147422  0.98675631  0.56135189
   0.58333333  0.33333333  0.38179910
   0.58333333  0.58333333  0.38179910
   0.51315807  0.01974513  0.60791978
   0.67491327  0.66763629  0.50487077
   0.83333333  0.58333333  0.38179910
   0.58333333  0.08333333  0.38179910
   0.00502704  0.51537128  0.56273921
   0.91657250  0.66859859  0.47359213
   0.91761526  0.91725420  0.47149506
   0.75067202  0.23728719  0.56363095
   0.23560913  0.73215905  0.56514331
   0.33333333  0.08333333  0.38179910
   0.67364249  0.42465896  0.47573056
   0.58333333  0.83333333  0.38179910
   0.41553359  0.42155975  0.47342457
   0.41527954  0.92115781  0.49269269
   0.66938689  0.16784488  0.47365580
   0.24443984  0.25834842  0.56334105
   0.08333333  0.83333333  0.38179910
   0.86036850  0.55286759  0.62809109
   0.29423479  0.11138113  0.62430709
   0.57731143  0.82387554  0.64054286
   0.86957207  0.29313278  0.61359534
   0.09377741  0.57265059  0.64287676
   0.87488777  0.96766405  0.62323714
   0.30999130  0.82709792  0.62043468
   0.44439341  0.44367969  0.63453871
   0.16888386  0.16782832  0.47261256
   0.23339035  0.00346187  0.57925776
   0.08333333  0.33333333  0.38179910
   0.33333333  0.33333333  0.38179910
   0.16914691  0.41789698  0.47533140
   0.92088729  0.41940796  0.47220030
   0.33333333  0.58333333  0.38179910
   0.26866474  0.48024106  0.60950331
   0.33333333  0.83333333  0.38179910
   0.17168152  0.92036729  0.47550516
   0.92212879  0.16740153  0.46922317
   0.76060114  0.75050951  0.60817955
   0.41573268  0.16794091  0.47284748
   0.00491797  0.24527871  0.55591816
   0.08333333  0.08333333  0.38179910
   0.83333333  0.83333333  0.38179910
   0.74621903  0.49194794  0.59039830
   0.42299268  0.67282518  0.47651775
   0.83333333  0.33333333  0.38179910
   0.75118139  0.97923237  0.56445667
   0.83333333  0.08333333  0.38179910
   0.50149893  0.74326411  0.58903897
   0.99177774  0.76719855  0.62788854
   0.08333333  0.58333333  0.38179910
Direct configuration=     5
   0.49756951  0.24412105  0.56405504
   0.16942365  0.66760999  0.47486461
   0.50151996  0.50074775  0.56502678
   0.66213194  0.91604543  0.47756969
   0.00131153  0.98679316  0.56144962
   0.58333333  0.33333333  0.38179910
   0.58333333  0.58333333  0.38179910
   0.51312445  0.01952290  0.60762045
   0.67486038  0.66748995  0.50487443
   0.83333333  0.58333333  0.38179910
   0.58333333  0.08333333  0.38179910
   0.00463657  0.51542565  0.56270008
   0.91625850  0.66887119  0.47339784
   0.91777560  0.91728175  0.47143622
   0.75059572  0.23714691  0.56398213
   0.23535643  0.73203639  0.56513617
   0.33333333  0.08333333  0.38179910
   0.67355134  0.42435811  0.47587130
   0.58333333  0.83333333  0.38179910
   0.41568774  0.42144939  0.47338210
   0.41549995  0.92082745  0.49256364
   0.66973786  0.16756080  0.47366907
   0.24437271  0.25794874  0.56335844
   0.08333333  0.83333333  0.38179910
   0.86037723  0.55331595  0.62805027
   0.29429901  0.11138949  0.62435265
   0.57739322  0.82406417  0.64065025
   0.86981155  0.29317424  0.61368713
   0.09357115  0.57346987  0.64310213
   0.87481127  0.96741918  0.62338549
   0.30977936  0.82747338  0.62046364
   0.44533913  0.44279218  0.63425585
   0.16913529  0.16743640  0.47254896
   0.23366983  0.00307873  0.57921637
   0.08333333  0.33333333  0.38179910
   0.33333333  0.33333333  0.38179910
   0.16888935  0.41805540  0.47524444
   0.92096969  0.41954537  0.47210244
   0.33333333  0.58333333  0.38179910
   0.26866460  0.48043316  0.60988473
   0.33333333  0.83333333  0.38179910
   0.17152874  0.92044888  0.47566514
   0.92212305  0.16726465  0.46914132
   0.76049081  0.75070059  0.60821953
   0.41583091  0.16794143  0.47280807
   0.00480052  0.24505556  0.55585413
   0.08333333  0.08333333  0.38179910
   0.83333333  0.83333333  0.38179910
   0.74592984  0.49212556  0.59061514
   0.42286890  0.67267799  0.47649837
   0.83333333  0.33333333  0.38179910
   0.75124390  0.97903250  0.56444508
   0.83333333  0.08333333  0.38179910
   0.50156751  0.74315822  0.58911873
   0.99246596  0.76636143  0.62794345
   0.08333333  0.58333333  0.38179910
Direct configuration=     6
   0.49742968  0.24423090  0.56405764
   0.16938014  0.66757151  0.47488352
   0.50135374  0.50093511  0.56499616
   0.66214731  0.91605691  0.47756159
   0.00120304  0.98680932  0.56151280
   0.58333333  0.33333333  0.38179910
   0.58333333  0.58333333  0.38179910
   0.51303631  0.01943168  0.60748836
   0.67485052  0.66738958  0.50487569
   0.83333333  0.58333333  0.38179910
   0.58333333  0.08333333  0.38179910
   0.00445699  0.51541518  0.56265420
   0.91613837  0.66896906  0.47332453
   0.91785534  0.91726571  0.47142186
   0.75053532  0.23711015  0.56415011
   0.23522833  0.73203555  0.56516541
   0.33333333  0.08333333  0.38179910
   0.67358395  0.42421336  0.47594383
   0.58333333  0.83333333  0.38179910
   0.41569766  0.42139373  0.47336271
   0.41560398  0.92066833  0.49249485
   0.66985947  0.16747069  0.47370274
   0.24429707  0.25788260  0.56334778
   0.08333333  0.83333333  0.38179910
   0.86032240  0.55353436  0.62800275
   0.29434255  0.11132316  0.62436016
   0.57734486  0.82418073  0.64070368
   0.86991493  0.29325856  0.61370137
   0.09366589  0.57348786  0.64326778
   0.87482524  0.96719116  0.62343200
   0.30972866  0.82756081  0.62047432
   0.44588984  0.44225982  0.63416557
   0.16923256  0.16730013  0.47252102
   0.23377641  0.00300545  0.57919029
   0.08333333  0.33333333  0.38179910
   0.33333333  0.33333333  0.38179910
   0.16883627  0.41807571  0.47522226
   0.92094519  0.41955018  0.47206437
   0.33333333  0.58333333  0.38179910
   0.26861409  0.48047471  0.61006687
   0.33333333  0.83333333  0.38179910
   0.17149432  0.92045752  0.47574202
   0.92211249  0.16726360  0.46911780
   0.76057232  0.75068008  0.60823612
   0.41586397  0.16796193  0.47280233
   0.00466329  0.24498490  0.55583385
   0.08333333  0.08333333  0.38179910
   0.83333333  0.83333333  0.38179910
   0.74590779  0.49212830  0.59075568
   0.42281497  0.67260220  0.47648930
   0.83333333  0.33333333  0.38179910
   0.75134219  0.97895254  0.56443763
   0.83333333  0.08333333  0.38179910
   0.50156213  0.74316882  0.58917942
   0.99247692  0.76650263  0.62795215
   0.08333333  0.58333333  0.38179910
Direct configuration=     7
   0.49710572  0.24448539  0.56406367
   0.16927934  0.66748237  0.47492735
   0.50096866  0.50136918  0.56492522
   0.66218291  0.91608348  0.47754282
   0.00095172  0.98684677  0.56165916
   0.58333333  0.33333333  0.38179910
   0.58333333  0.58333333  0.38179910
   0.51283210  0.01922035  0.60718235
   0.67482767  0.66715704  0.50487861
   0.83333333  0.58333333  0.38179910
   0.58333333  0.08333333  0.38179910
   0.00404094  0.51539092  0.56254791
   0.91586005  0.66919581  0.47315467
   0.91804007  0.91722855  0.47138858
   0.75039536  0.23702500  0.56453929
   0.23493157  0.73203359  0.56523314
   0.33333333  0.08333333  0.38179910
   0.67365951  0.42387799  0.47611186
   0.58333333  0.83333333  0.38179910
   0.41572065  0.42126478  0.47331779
   0.41584499  0.92029970  0.49233548
   0.67014120  0.16726193  0.47378074
   0.24412183  0.25772936  0.56332308
   0.08333333  0.83333333  0.38179910
   0.86019540  0.55404035  0.62789265
   0.29444344  0.11116950  0.62437756
   0.57723283  0.82445078  0.64082748
   0.87015441  0.29345389  0.61373436
   0.09388538  0.57352952  0.64365156
   0.87485758  0.96666291  0.62353976
   0.30961123  0.82776337  0.62049907
   0.44716568  0.44102650  0.63395642
   0.16945789  0.16698444  0.47245631
   0.23402332  0.00283569  0.57912987
   0.08333333  0.33333333  0.38179910
   0.33333333  0.33333333  0.38179910
   0.16871328  0.41812277  0.47517085
   0.92088843  0.41956132  0.47197617
   0.33333333  0.58333333  0.38179910
   0.26849706  0.48057096  0.61048885
   0.33333333  0.83333333  0.38179910
   0.17141458  0.92047754  0.47592014
   0.92208802  0.16726118  0.46906331
   0.76076117  0.75063257  0.60827456
   0.41594058  0.16800941  0.47278905
   0.00434536  0.24482121  0.55578688
   0.08333333  0.08333333  0.38179910
   0.83333333  0.83333333  0.38179910
   0.74585672  0.49213465  0.59108127
   0.42269005  0.67242660  0.47646827
   0.83333333  0.33333333  0.38179910
   0.75156989  0.97876728  0.56442037
   0.83333333  0.08333333  0.38179910
   0.50154968  0.74319336  0.58932003
   0.99250230  0.76682976  0.62797231
   0.08333333  0.58333333  0.38179910
Direct configuration=     8
   0.49645779  0.24499436  0.56407573
   0.16907774  0.66730408  0.47501500
   0.50019850  0.50223731  0.56478335
   0.66225412  0.91613664  0.47750527
   0.00044906  0.98692166  0.56195188
   0.58333333  0.33333333  0.38179910
   0.58333333  0.58333333  0.38179910
   0.51242369  0.01879769  0.60657033
   0.67478196  0.66669198  0.50488446
   0.83333333  0.58333333  0.38179910
   0.58333333  0.08333333  0.38179910
   0.00320884  0.51534239  0.56233533
   0.91530341  0.66964931  0.47281496
   0.91840954  0.91715422  0.47132202
   0.75011546  0.23685470  0.56531765
   0.23433803  0.73202967  0.56536859
   0.33333333  0.08333333  0.38179910
   0.67381061  0.42320726  0.47644792
   0.58333333  0.83333333  0.38179910
   0.41576662  0.42100688  0.47322795
   0.41632702  0.91956242  0.49201676
   0.67070467  0.16684443  0.47393673
   0.24377135  0.25742287  0.56327367
   0.08333333  0.83333333  0.38179910
   0.85994139  0.55505234  0.62767247
   0.29464520  0.11086218  0.62441236
   0.57700877  0.82499088  0.64107508
   0.87063339  0.29384454  0.61380034
   0.09432436  0.57361285  0.64441911
   0.87492227  0.96560641  0.62375529
   0.30937635  0.82816849  0.62054856
   0.44971735  0.43855986  0.63353812
   0.16990857  0.16635305  0.47232688
   0.23451715  0.00249617  0.57900903
   0.08333333  0.33333333  0.38179910
   0.33333333  0.33333333  0.38179910
   0.16846731  0.41821688  0.47506805
   0.92077491  0.41958362  0.47179977
   0.33333333  0.58333333  0.38179910
   0.26826301  0.48076347  0.61133280
   0.33333333  0.83333333  0.38179910
   0.17125509  0.92051757  0.47627636
   0.92203909  0.16725634  0.46895432
   0.76113887  0.75053756  0.60835143
   0.41609379  0.16810437  0.47276247
   0.00370950  0.24449381  0.55569294
   0.08333333  0.08333333  0.38179910
   0.83333333  0.83333333  0.38179910
   0.74575458  0.49214734  0.59173243
   0.42244019  0.67207540  0.47642622
   0.83333333  0.33333333  0.38179910
   0.75202530  0.97839675  0.56438586
   0.83333333  0.08333333  0.38179910
   0.50152477  0.74324244  0.58960125
   0.99255306  0.76748402  0.62801264
   0.08333333  0.58333333  0.38179910
Direct configuration=     9
   0.49683044  0.24470163  0.56406879
   0.16919369  0.66740662  0.47496459
   0.50064145  0.50173801  0.56486495
   0.66221317  0.91610607  0.47752687
   0.00073816  0.98687859  0.56178352
   0.58333333  0.33333333  0.38179910
   0.58333333  0.58333333  0.38179910
   0.51265858  0.01904078  0.60692233
   0.67480825  0.66695946  0.50488110
   0.83333333  0.58333333  0.38179910
   0.58333333  0.08333333  0.38179910
   0.00368742  0.51537030  0.56245759
   0.91562355  0.66938848  0.47301035
   0.91819704  0.91719697  0.47136030
   0.75027645  0.23695265  0.56486998
   0.23467940  0.73203193  0.56529069
   0.33333333  0.08333333  0.38179910
   0.67372370  0.42359303  0.47625464
   0.58333333  0.83333333  0.38179910
   0.41574018  0.42115521  0.47327962
   0.41604979  0.91998646  0.49220007
   0.67038059  0.16708455  0.47384701
   0.24397293  0.25759915  0.56330209
   0.08333333  0.83333333  0.38179910
   0.86008748  0.55447030  0.62779911
   0.29452916  0.11103893  0.62439234
   0.57713764  0.82468025  0.64093267
   0.87035791  0.29361986  0.61376239
   0.09407189  0.57356492  0.64397765
   0.87488507  0.96621405  0.62363133
   0.30951144  0.82793549  0.62052010
   0.44824977  0.43997854  0.63377871
   0.16964936  0.16671619  0.47240132
   0.23423313  0.00269145  0.57907853
   0.08333333  0.33333333  0.38179910
   0.33333333  0.33333333  0.38179910
   0.16860878  0.41816275  0.47512718
   0.92084020  0.41957080  0.47190123
   0.33333333  0.58333333  0.38179910
   0.26839762  0.48065275  0.61084740
   0.33333333  0.83333333  0.38179910
   0.17134682  0.92049454  0.47607148
   0.92206723  0.16725913  0.46901700
   0.76092164  0.75059221  0.60830722
   0.41600567  0.16804975  0.47277776
   0.00407521  0.24468211  0.55574697
   0.08333333  0.08333333  0.38179910
   0.83333333  0.83333333  0.38179910
   0.74581332  0.49214004  0.59135792
   0.42258390  0.67227739  0.47645041
   0.83333333  0.33333333  0.38179910
   0.75176337  0.97860986  0.56440571
   0.83333333  0.08333333  0.38179910
   0.50153909  0.74321421  0.58943951
   0.99252386  0.76710772  0.62798944
   0.08333333  0.58333333  0.38179910
Direct configuration=    10
   0.49658837  0.24493643  0.56404675
   0.16914914  0.66722596  0.47495978
   0.50061969  0.50199272  0.56472834
   0.66221618  0.91609553  0.47752761
   0.00063559  0.98693572  0.56188962
   0.58333333  0.33333333  0.38179910
   0.58333333  0.58333333  0.38179910
   0.51249592  0.01888128  0.60670629
   0.67480556  0.66671999  0.50491140
   0.83333333  0.58333333  0.38179910
   0.58333333  0.08333333  0.38179910
   0.00348595  0.51525476  0.56229705
   0.91551930  0.66938969  0.47294965
   0.91834295  0.91713352  0.47137563
   0.74997903  0.23698015  0.56513129
   0.23443852  0.73211078  0.56540172
   0.33333333  0.08333333  0.38179910
   0.67389647  0.42337506  0.47636864
   0.58333333  0.83333333  0.38179910
   0.41565105  0.42105304  0.47324307
   0.41622193  0.91972589  0.49206059
   0.67043688  0.16707794  0.47397786
   0.24367677  0.25784400  0.56325089
   0.08333333  0.83333333  0.38179910
   0.86032306  0.55444231  0.62778537
   0.29455685  0.11083214  0.62437348
   0.57709256  0.82487469  0.64098773
   0.87058894  0.29372288  0.61383008
   0.09415099  0.57361266  0.64434645
   0.87462256  0.96626988  0.62368608
   0.30950585  0.82789007  0.62055005
   0.44914687  0.43879547  0.63365283
   0.16971463  0.16663870  0.47237943
   0.23425563  0.00282221  0.57898725
   0.08333333  0.33333333  0.38179910
   0.33333333  0.33333333  0.38179910
   0.16860650  0.41807349  0.47513724
   0.92072642  0.41944230  0.47185816
   0.33333333  0.58333333  0.38179910
   0.26859195  0.48047311  0.61118794
   0.33333333  0.83333333  0.38179910
   0.17138463  0.92040511  0.47620016
   0.92204758  0.16733879  0.46903132
   0.76077353  0.75090868  0.60830425
   0.41604690  0.16805665  0.47280878
   0.00389689  0.24459625  0.55566589
   0.08333333  0.08333333  0.38179910
   0.83333333  0.83333333  0.38179910
   0.74555739  0.49224033  0.59158776
   0.42252626  0.67212226  0.47643071
   0.83333333  0.33333333  0.38179910
   0.75186687  0.97855493  0.56436798
   0.83333333  0.08333333  0.38179910
   0.50157994  0.74329227  0.58957640
   0.99269010  0.76694328  0.62808779
   0.08333333  0.58333333  0.38179910
Direct configuration=    11
   0.49586216  0.24564082  0.56398063
   0.16901548  0.66668397  0.47494534
   0.50055439  0.50275684  0.56431852
   0.66222523  0.91606392  0.47752984
   0.00032790  0.98710713  0.56220790
   0.58333333  0.33333333  0.38179910
   0.58333333  0.58333333  0.38179910
   0.51200794  0.01840277  0.60605817
   0.67479750  0.66600160  0.50500232
   0.83333333  0.58333333  0.38179910
   0.58333333  0.08333333  0.38179910
   0.00288155  0.51490815  0.56181543
   0.91520654  0.66939331  0.47276758
   0.91878068  0.91694317  0.47142161
   0.74908679  0.23706267  0.56591524
   0.23371587  0.73234735  0.56573483
   0.33333333  0.08333333  0.38179910
   0.67441477  0.42272113  0.47671066
   0.58333333  0.83333333  0.38179910
   0.41538366  0.42074653  0.47313344
   0.41673837  0.91894416  0.49164215
   0.67060572  0.16705811  0.47437039
   0.24278830  0.25857855  0.56309729
   0.08333333  0.83333333  0.38179910
   0.86102981  0.55435832  0.62774417
   0.29463991  0.11021177  0.62431688
   0.57695734  0.82545802  0.64115289
   0.87128203  0.29403197  0.61403314
   0.09438829  0.57375586  0.64545285
   0.87383502  0.96643736  0.62385034
   0.30948907  0.82775381  0.62063992
   0.45183820  0.43524627  0.63327522
   0.16991041  0.16640625  0.47231376
   0.23432314  0.00321451  0.57871342
   0.08333333  0.33333333  0.38179910
   0.33333333  0.33333333  0.38179910
   0.16859967  0.41780570  0.47516744
   0.92038507  0.41905680  0.47172897
   0.33333333  0.58333333  0.38179910
   0.26917492  0.47993422  0.61220953
   0.33333333  0.83333333  0.38179910
   0.17149804  0.92013683  0.47658621
   0.92198861  0.16757776  0.46907428
   0.76032921  0.75185808  0.60829535
   0.41617059  0.16807735  0.47290185
   0.00336191  0.24433869  0.55542264
   0.08333333  0.08333333  0.38179910
   0.83333333  0.83333333  0.38179910
   0.74478959  0.49254119  0.59227728
   0.42235334  0.67165687  0.47637162
   0.83333333  0.33333333  0.38179910
   0.75217739  0.97839016  0.56425480
   0.83333333  0.08333333  0.38179910
   0.50170247  0.74352645  0.58998707
   0.99318881  0.76644995  0.62838284
   0.08333333  0.58333333  0.38179910
Direct configuration=    12
   0.49554019  0.24595312  0.56395132
   0.16895622  0.66644368  0.47493894
   0.50052544  0.50309562  0.56413683
   0.66222924  0.91604990  0.47753083
   0.00019148  0.98718313  0.56234901
   0.58333333  0.33333333  0.38179910
   0.58333333  0.58333333  0.38179910
   0.51179159  0.01819063  0.60577083
   0.67479393  0.66568310  0.50504263
   0.83333333  0.58333333  0.38179910
   0.58333333  0.08333333  0.38179910
   0.00261359  0.51475448  0.56160191
   0.91506787  0.66939492  0.47268686
   0.91897475  0.91685878  0.47144199
   0.74869122  0.23709926  0.56626279
   0.23339548  0.73245223  0.56588252
   0.33333333  0.08333333  0.38179910
   0.67464456  0.42243121  0.47686229
   0.58333333  0.83333333  0.38179910
   0.41526511  0.42061063  0.47308484
   0.41696733  0.91859758  0.49145664
   0.67068058  0.16704932  0.47454442
   0.24239441  0.25890421  0.56302920
   0.08333333  0.83333333  0.38179910
   0.86134314  0.55432109  0.62772591
   0.29467673  0.10993674  0.62429178
   0.57689739  0.82571664  0.64122612
   0.87158931  0.29416900  0.61412316
   0.09449350  0.57381935  0.64594336
   0.87348588  0.96651161  0.62392316
   0.30948164  0.82769340  0.62067977
   0.45303138  0.43367275  0.63310780
   0.16999722  0.16630319  0.47228465
   0.23435308  0.00338844  0.57859202
   0.08333333  0.33333333  0.38179910
   0.33333333  0.33333333  0.38179910
   0.16859665  0.41768697  0.47518083
   0.92023374  0.41888589  0.47167169
   0.33333333  0.58333333  0.38179910
   0.26943338  0.47969530  0.61266245
   0.33333333  0.83333333  0.38179910
   0.17154833  0.92001788  0.47675736
   0.92196246  0.16768371  0.46909332
   0.76013222  0.75227899  0.60829140
   0.41622542  0.16808652  0.47294311
   0.00312473  0.24422450  0.55531480
   0.08333333  0.08333333  0.38179910
   0.83333333  0.83333333  0.38179910
   0.74444918  0.49267458  0.59258297
   0.42227668  0.67145054  0.47634542
   0.83333333  0.33333333  0.38179910
   0.75231505  0.97831710  0.56420463
   0.83333333  0.08333333  0.38179910
   0.50175679  0.74363027  0.59016914
   0.99340992  0.76623123  0.62851364
   0.08333333  0.58333333  0.38179910
Direct configuration=    13
   0.49514378  0.24625938  0.56396545
   0.16897285  0.66628435  0.47498382
   0.50049075  0.50342395  0.56402223
   0.66230747  0.91590958  0.47754407
   0.00007319  0.98739599  0.56248857
   0.58333333  0.33333333  0.38179910
   0.58333333  0.58333333  0.38179910
   0.51151466  0.01828781  0.60544690
   0.67477869  0.66541680  0.50516046
   0.83333333  0.58333333  0.38179910
   0.58333333  0.08333333  0.38179910
   0.00214510  0.51475115  0.56144361
   0.91500269  0.66920094  0.47268500
   0.91909200  0.91681589  0.47151365
   0.74834220  0.23728182  0.56662192
   0.23321763  0.73223755  0.56603927
   0.33333333  0.08333333  0.38179910
   0.67476630  0.42220958  0.47690340
   0.58333333  0.83333333  0.38179910
   0.41519523  0.42047849  0.47301455
   0.41708469  0.91833963  0.49124253
   0.67064930  0.16711209  0.47471767
   0.24206979  0.25940299  0.56308145
   0.08333333  0.83333333  0.38179910
   0.86180218  0.55440747  0.62764533
   0.29456171  0.10984341  0.62416583
   0.57692274  0.82597091  0.64131002
   0.87189536  0.29416708  0.61419656
   0.09508258  0.57370039  0.64641468
   0.87323819  0.96645287  0.62393793
   0.30942674  0.82775156  0.62067033
   0.45427000  0.43165794  0.63281969
   0.16998655  0.16629025  0.47228791
   0.23432569  0.00333095  0.57843642
   0.08333333  0.33333333  0.38179910
   0.33333333  0.33333333  0.38179910
   0.16850205  0.41747708  0.47516658
   0.92025010  0.41866334  0.47159402
   0.33333333  0.58333333  0.38179910
   0.26937074  0.47954982  0.61332551
   0.33333333  0.83333333  0.38179910
   0.17162343  0.91983532  0.47690284
   0.92199191  0.16752191  0.46914992
   0.76019780  0.75214186  0.60829620
   0.41631515  0.16789710  0.47303311
   0.00284550  0.24432212  0.55524294
   0.08333333  0.08333333  0.38179910
   0.83333333  0.83333333  0.38179910
   0.74403129  0.49296941  0.59292326
   0.42224371  0.67122780  0.47628751
   0.83333333  0.33333333  0.38179910
   0.75219214  0.97841154  0.56414641
   0.83333333  0.08333333  0.38179910
   0.50180856  0.74372340  0.59034034
   0.99336472  0.76607762  0.62878563
   0.08333333  0.58333333  0.38179910
Direct configuration=    14
   0.49420271  0.24698645  0.56399900
   0.16901233  0.66590610  0.47509037
   0.50040840  0.50420343  0.56375016
   0.66249317  0.91557646  0.47757549
  -0.00020762  0.98790132  0.56281988
   0.58333333  0.33333333  0.38179910
   0.58333333  0.58333333  0.38179910
   0.51085722  0.01851852  0.60467789
   0.67474252  0.66478462  0.50544021
   0.83333333  0.58333333  0.38179910
   0.58333333  0.08333333  0.38179910
   0.00103289  0.51474324  0.56106783
   0.91484794  0.66874043  0.47268059
   0.91937037  0.91671408  0.47168375
   0.74751363  0.23771524  0.56747450
   0.23279542  0.73172788  0.56641140
   0.33333333  0.08333333  0.38179910
   0.67505531  0.42168344  0.47700101
   0.58333333  0.83333333  0.38179910
   0.41502932  0.42016478  0.47284767
   0.41736329  0.91772724  0.49073422
   0.67057504  0.16726111  0.47512896
   0.24129916  0.26058711  0.56320549
   0.08333333  0.83333333  0.38179910
   0.86289195  0.55461254  0.62745403
   0.29428864  0.10962184  0.62386682
   0.57698292  0.82657456  0.64150921
   0.87262194  0.29416253  0.61437081
   0.09648105  0.57341797  0.64753360
   0.87265020  0.96631343  0.62397298
   0.30929641  0.82788962  0.62064792
   0.45721048  0.42687479  0.63213571
   0.16996124  0.16625952  0.47229564
   0.23426068  0.00319446  0.57806703
   0.08333333  0.33333333  0.38179910
   0.33333333  0.33333333  0.38179910
   0.16827747  0.41697879  0.47513275
   0.92028893  0.41813500  0.47140963
   0.33333333  0.58333333  0.38179910
   0.26922204  0.47920445  0.61489962
   0.33333333  0.83333333  0.38179910
   0.17180172  0.91940191  0.47724819
   0.92206183  0.16713781  0.46928429
   0.76035350  0.75181630  0.60830759
   0.41652816  0.16744742  0.47324678