unknown system                          
           1
    11.002582    0.000000    0.000000
     5.501291    9.528515    0.000000
     0.000000    0.000000   24.491785
   Au   Pd
  24  24
Direct configuration=     1
   0.08333333  0.08333333  0.40830017
   0.25000000  0.00000000  0.59169983
   0.00000000  0.75000000  0.59169983
   0.91666667  0.91666667  0.50000000
   0.33333333  0.33333333  0.40830017
   0.16666667  0.16666667  0.50000000
   0.25000000  0.75000000  0.59169983
   0.33333333  0.58333333  0.40830017
   0.50000000  0.75000000  0.59169983
   0.66666667  0.66666667  0.50000000
   0.83333333  0.58333333  0.40830017
   0.83333333  0.33333333  0.40830017
   0.33333333  0.08333333  0.40830017
   0.66666667  0.16666667  0.50000000
   0.83333333  0.08333333  0.40830017
   0.41666667  0.91666667  0.50000000
   0.25000000  0.50000000  0.59169983
   0.41666667  0.66666667  0.50000000
   0.50000000  0.25000000  0.59169983
   0.41666667  0.41666667  0.50000000
   0.58333333  0.33333333  0.40830017
   0.50000000  0.00000000  0.59169983
   0.41666667  0.16666667  0.50000000
   0.75000000  0.00000000  0.59169983
   0.58333333  0.83333333  0.40830017
   0.25000000  0.25000000  0.59169983
   0.08333333  0.83333333  0.40830017
   0.58333333  0.58333333  0.40830017
   0.16666667  0.66666667  0.50000000
   0.66666667  0.91666667  0.50000000
   0.16666667  0.91666667  0.50000000
   0.33333333  0.83333333  0.40830017
   0.00000000  0.50000000  0.59169983
   0.58333333  0.08333333  0.40830017
   0.50000000  0.50000000  0.59169983
   0.91666667  0.16666667  0.50000000
   0.00000000  0.25000000  0.59169983
   0.83333333  0.83333333  0.40830017
   0.75000000  0.50000000  0.59169983
   0.00000000  0.00000000  0.59169983
   0.75000000  0.25000000  0.59169983
   0.16666667  0.41666667  0.50000000
   0.66666667  0.41666667  0.50000000
   0.08333333  0.33333333  0.40830017
   0.91666667  0.41666667  0.50000000
   0.91666667  0.66666667  0.50000000
   0.08333333  0.58333333  0.40830017
   0.75000000  0.75000000  0.59169983
Direct configuration=     2
   0.08333333  0.08333333  0.40830017
   0.24811976  0.00128029  0.59390278
  -0.00043736  0.74940506  0.59354881
   0.91825929  0.91539181  0.49960408
   0.33333333  0.33333333  0.40830017
   0.16392746  0.16912156  0.50044779
   0.24940806  0.75031379  0.59362350
   0.33333333  0.58333333  0.40830017
   0.50155205  0.74845309  0.59427256
   0.66853491  0.66576410  0.49998609
   0.83333333  0.58333333  0.40830017
   0.83333333  0.33333333  0.40830017
   0.33333333  0.08333333  0.40830017
   0.66774565  0.16660089  0.50001686
   0.83333333  0.08333333  0.40830017
   0.41721359  0.91587785  0.49918075
   0.24929355  0.49958584  0.59356457
   0.41653991  0.66623900  0.49957261
   0.50001842  0.25078129  0.59424430
   0.41618552  0.41797140  0.50039545
   0.58333333  0.33333333  0.40830017
   0.50058510 -0.00032672  0.59397175
   0.41656972  0.16665493  0.49991196
   0.75057207 -0.00037514  0.59388637
   0.58333333  0.83333333  0.40830017
   0.24878380  0.25090346  0.59290719
   0.08333333  0.83333333  0.40830017
   0.58333333  0.58333333  0.40830017
   0.16542483  0.66700407  0.49955265
   0.66757983  0.91547431  0.49947750
   0.16568025  0.91643560  0.49976163
   0.33333333  0.83333333  0.40830017
  -0.00043095  0.49969441  0.59236524
   0.58333333  0.08333333  0.40830017
   0.50125094  0.49934840  0.59291742
   0.91679302  0.16747087  0.50074128
  -0.00076763  0.25049782  0.59249378
   0.83333333  0.83333333  0.40830017
   0.75085796  0.49911502  0.59247834
  -0.00024667  0.00110118  0.59270253
   0.75064196  0.25091157  0.59261105
   0.16443469  0.41814520  0.50006267
   0.66790612  0.41645671  0.50053215
   0.08333333  0.33333333  0.40830017
   0.91703289  0.41646273  0.50054040
   0.91731495  0.66578397  0.49993401
   0.08333333  0.58333333  0.40830017
   0.75083850  0.74900272  0.59269518
Direct configuration=     3
   0.08333333  0.08333333  0.40830017
   0.24296403  0.00479091  0.59994340
  -0.00163663  0.74777369  0.59861882
   0.92262636  0.91189607  0.49851846
   0.33333333  0.33333333  0.40830017
   0.15641638  0.17585303  0.50167564
   0.24778491  0.75117422  0.59889833
   0.33333333  0.58333333  0.40830017
   0.50580785  0.74421138  0.60132715
   0.67365776  0.66328922  0.49994793
   0.83333333  0.58333333  0.40830017
   0.83333333  0.33333333  0.40830017
   0.33333333  0.08333333  0.40830017
   0.67070431  0.16642053  0.50006310
   0.83333333  0.08333333  0.40830017
   0.41871329  0.91371486  0.49693433
   0.24735641  0.49845020  0.59867780
   0.41619235  0.66506632  0.49840069
   0.50006894  0.25292363  0.60122140
   0.41486620  0.42154906  0.50147979
   0.58333333  0.33333333  0.40830017
   0.50218950 -0.00122261  0.60020149
   0.41630390  0.16662276  0.49967053
   0.75214074 -0.00140381  0.59988201
   0.58333333  0.83333333  0.40830017
   0.24544890  0.25338079  0.59621784
   0.08333333  0.83333333  0.40830017
   0.58333333  0.58333333  0.40830017
   0.16201964  0.66792926  0.49832600
   0.67008378  0.91220479  0.49804476
   0.16297543  0.91580198  0.49910802
   0.33333333  0.83333333  0.40830017
  -0.00161265  0.49885645  0.59418983
   0.58333333  0.08333333  0.40830017
   0.50468110  0.49756167  0.59625613
   0.91713949  0.16967603  0.50277390
  -0.00287251  0.25186287  0.59467083
   0.83333333  0.83333333  0.40830017
   0.75321055  0.49668836  0.59461307
  -0.00092306  0.00412067  0.59545200
   0.75240227  0.25341115  0.59510966
   0.15831447  0.42219942  0.50023451
   0.67130480  0.41588100  0.50199132
   0.08333333  0.33333333  0.40830017
   0.91803708  0.41590353  0.50202221
   0.91909260  0.66336354  0.49975306
   0.08333333  0.58333333  0.40830017
   0.75313772  0.74626812  0.59542449
Direct configuration=     4
   0.08333333  0.08333333  0.40830017
   0.24371916  0.00472751  0.60236322
  -0.00182154  0.74774029  0.60098604
   0.92141717  0.91198045  0.50026095
   0.33333333  0.33333333  0.40830017
   0.15828425  0.17436777  0.50314552
   0.24806441  0.75094838  0.60106440
   0.33333333  0.58333333  0.40830017
   0.50595835  0.74402373  0.60423780
   0.67295639  0.66330918  0.50150488
   0.83333333  0.58333333  0.40830017
   0.83333333  0.33333333  0.40830017
   0.33333333  0.08333333  0.40830017
   0.67075646  0.16555556  0.50219007
   0.83333333  0.08333333  0.40830017
   0.41800746  0.91346458  0.49921117
   0.24708556  0.49861281  0.60106539
   0.41646941  0.66637298  0.50038982
   0.50057994  0.25274513  0.60426074
   0.41436015  0.42069831  0.50376263
   0.58333333  0.33333333  0.40830017
   0.50166761 -0.00150280  0.60265140
   0.41654790  0.16683604  0.50193713
   0.75258853 -0.00106329  0.60233419
   0.58333333  0.83333333  0.40830017
   0.24551876  0.25313624  0.59773093
   0.08333333  0.83333333  0.40830017
   0.58333333  0.58333333  0.40830017
   0.16198179  0.66710758  0.49972646
   0.67100854  0.91242395  0.49926902
   0.16416779  0.91579921  0.50053240
   0.33333333  0.83333333  0.40830017
  -0.00217713  0.49862479  0.59556485
   0.58333333  0.08333333  0.40830017
   0.50474333  0.49786639  0.59787622
   0.91681515  0.16936162  0.50380602
  -0.00350462  0.25269277  0.59673050
   0.83333333  0.83333333  0.40830017
   0.75390322  0.49657457  0.59618253
  -0.00195183  0.00433324  0.59682267
   0.75236496  0.25334953  0.59681423
   0.15855526  0.42318921  0.50121599
   0.67160400  0.41623830  0.50297506
   0.08333333  0.33333333  0.40830017
   0.91671271  0.41711434  0.50274594
   0.91958041  0.66367468  0.50069023
   0.08333333  0.58333333  0.40830017
   0.75338756  0.74566475  0.59675370
Direct configuration=     5
   0.08333333  0.08333333  0.40830017
   0.24554510  0.00457420  0.60821442
  -0.00226866  0.74765952  0.60671005
   0.91849331  0.91218448  0.50447437
   0.33333333  0.33333333  0.40830017
   0.16280082  0.17077634  0.50669975
   0.24874025  0.75040229  0.60630203
   0.33333333  0.58333333  0.40830017
   0.50632226  0.74357001  0.61127585
   0.67126046  0.66335743  0.50526962
   0.83333333  0.58333333  0.40830017
   0.83333333  0.33333333  0.40830017
   0.33333333  0.08333333  0.40830017
   0.67088257  0.16346404  0.50733316
   0.83333333  0.08333333  0.40830017
   0.41630075  0.91285938  0.50471663
   0.24643061  0.49900600  0.60683865
   0.41713936  0.66953250  0.50519961
   0.50181555  0.25231350  0.61160995
   0.41313650  0.41864116  0.50928260
   0.58333333  0.33333333  0.40830017
   0.50040569 -0.00218029  0.60857536
   0.41713790  0.16735175  0.50741785
   0.75367129 -0.00023991  0.60826363
   0.58333333  0.83333333  0.40830017
   0.24568766  0.25254491  0.60138964
   0.08333333  0.83333333  0.40830017
   0.58333333  0.58333333  0.40830017
   0.16189028  0.66512075  0.50311282
   0.67324463  0.91295389  0.50222932
   0.16705096  0.91579250  0.50397659
   0.33333333  0.83333333  0.40830017
  -0.00354207  0.49806463  0.59888970
   0.58333333  0.08333333  0.40830017
   0.50489381  0.49860320  0.60179364
   0.91603087  0.16860137  0.50630172
  -0.00503310  0.25469949  0.60171087
   0.83333333  0.83333333  0.40830017
   0.75557813  0.49629941  0.59997752
  -0.00443941  0.00484724  0.60013698
   0.75227475  0.25320053  0.60093595
   0.15913750  0.42558254  0.50358923
   0.67232748  0.41710228  0.50535378
   0.08333333  0.33333333  0.40830017
   0.91351032  0.42004212  0.50449595
   0.92075996  0.66442703  0.50295636
   0.08333333  0.58333333  0.40830017
   0.75399168  0.74420578  0.59996778
Direct configuration=     6
   0.08333333  0.08333333  0.40830017
   0.24601213  0.00453498  0.60971104
  -0.00238303  0.74763886  0.60817415
   0.91774545  0.91223666  0.50555208
   0.33333333  0.33333333  0.40830017
   0.16395608  0.16985772  0.50760885
   0.24891312  0.75026261  0.60764171
   0.33333333  0.58333333  0.40830017
   0.50641534  0.74345396  0.61307605
   0.67082667  0.66336977  0.50623258
   0.83333333  0.58333333  0.40830017
   0.83333333  0.33333333  0.40830017
   0.33333333  0.08333333  0.40830017
   0.67091483  0.16292907  0.50864866
   0.83333333  0.08333333  0.40830017
   0.41586420  0.91270458  0.50612483
   0.24626309  0.49910658  0.60831534
   0.41731072  0.67034065  0.50642986
   0.50213160  0.25220310  0.61348974
   0.41282351  0.41811498  0.51069450
   0.58333333  0.33333333  0.40830017
   0.50008291 -0.00235358  0.61009059
   0.41728881  0.16748366  0.50881972
   0.75394825 -0.00002930  0.60978026
   0.58333333  0.83333333  0.40830017
   0.24573087  0.25239366  0.60232547
   0.08333333  0.83333333  0.40830017
   0.58333333  0.58333333  0.40830017
   0.16186687  0.66461256  0.50397899
   0.67381657  0.91308944  0.50298651
   0.16778842  0.91579078  0.50485756
   0.33333333  0.83333333  0.40830017
  -0.00389119  0.49792135  0.59974013
   0.58333333  0.08333333  0.40830017
   0.50493230  0.49879167  0.60279564
   0.91583026  0.16840692  0.50694007
  -0.00542405  0.25521277  0.60298475
   0.83333333  0.83333333  0.40830017
   0.75600653  0.49622903  0.60094821
  -0.00507569  0.00497872  0.60098471
   0.75225168  0.25316242  0.60199021
   0.15928643  0.42619471  0.50419626
   0.67251253  0.41732327  0.50596221
   0.08333333  0.33333333  0.40830017
   0.91269121  0.42079099  0.50494357
   0.92106167  0.66461946  0.50353599
   0.08333333  0.58333333  0.40830017
   0.75414620  0.74383260  0.60078988
Direct configuration=     7
   0.08333333  0.08333333  0.40830017
   0.24575434  0.00317330  0.61118232
  -0.00159193  0.74780696  0.60959950
   0.92048579  0.91272400  0.50690310
   0.33333333  0.33333333  0.40830017
   0.16319875  0.17059646  0.50867117
   0.24865035  0.75083820  0.60879782
   0.33333333  0.58333333  0.40830017
   0.50544033  0.74458322  0.61500066
   0.66835012  0.66780664  0.50712993
   0.83333333  0.58333333  0.40830017
   0.83333333  0.33333333  0.40830017
   0.33333333  0.08333333  0.40830017
   0.66818442  0.16570253  0.50992666
   0.83333333  0.08333333  0.40830017
   0.41832995  0.91634556  0.50797477
   0.24669975  0.49920770  0.61003611
   0.41650658  0.66572374  0.50789170
   0.50182840  0.25127718  0.61561262
   0.41527469  0.41820222  0.51182926
   0.58333333  0.33333333  0.40830017
   0.50161151 -0.00237883  0.61148898
   0.41846315  0.16536555  0.51015292
   0.75134958 -0.00032093  0.61154993
   0.58333333  0.83333333  0.40830017
   0.24683297  0.25239683  0.60375015
   0.08333333  0.83333333  0.40830017
   0.58333333  0.58333333  0.40830017
   0.16473796  0.66677380  0.50588635
   0.66964429  0.91380850  0.50479854
   0.16545359  0.91590580  0.50652428
   0.33333333  0.83333333  0.40830017
  -0.00169825  0.49783856  0.60088552
   0.58333333  0.08333333  0.40830017
   0.50393089  0.49930574  0.60411369
   0.91752437  0.16763638  0.50745988
  -0.00311934  0.25280206  0.60414787
   0.83333333  0.83333333  0.40830017
   0.75345476  0.49752795  0.60272600
  -0.00213393  0.00325159  0.60208167
   0.75094765  0.25334222  0.60365786
   0.16139539  0.42181344  0.50553196
   0.66873248  0.41616706  0.50662624
   0.08333333  0.33333333  0.40830017
   0.91708125  0.41714396  0.50544119
   0.91870464  0.66554754  0.50481536
   0.08333333  0.58333333  0.40830017
   0.75227793  0.74672530  0.60192432
Direct configuration=     8
   0.08333333  0.08333333  0.40830017
   0.24575773  0.00319119  0.61116300
  -0.00160232  0.74780475  0.60958078
   0.92044980  0.91271760  0.50688535
   0.33333333  0.33333333  0.40830017
   0.16320870  0.17058676  0.50865722
   0.24865380  0.75083064  0.60878263
   0.33333333  0.58333333  0.40830017
   0.50545314  0.74456839  0.61497538
   0.66838265  0.66774835  0.50711815
   0.83333333  0.58333333  0.40830017
   0.83333333  0.33333333  0.40830017
   0.33333333  0.08333333  0.40830017
   0.66822029  0.16566610  0.50990987
   0.83333333  0.08333333  0.40830017
   0.41829756  0.91629773  0.50795046
   0.24669401  0.49920637  0.61001350
   0.41651714  0.66578439  0.50787250
   0.50183238  0.25128934  0.61558474
   0.41524249  0.41820108  0.51181435
   0.58333333  0.33333333  0.40830017
   0.50159143 -0.00237850  0.61147062
   0.41844773  0.16539338  0.51013541
   0.75138372 -0.00031710  0.61152668
   0.58333333  0.83333333  0.40830017
   0.24681849  0.25239679  0.60373143
   0.08333333  0.83333333  0.40830017
   0.58333333  0.58333333  0.40830017
   0.16470025  0.66674540  0.50586129
   0.66969910  0.91379906  0.50477474
   0.16548426  0.91590429  0.50650238
   0.33333333  0.83333333  0.40830017
  -0.00172706  0.49783964  0.60087047
   0.58333333  0.08333333  0.40830017
   0.50394404  0.49929899  0.60409638
   0.91750212  0.16764650  0.50745305
  -0.00314962  0.25283373  0.60413260
   0.83333333  0.83333333  0.40830017
   0.75348828  0.49751089  0.60270264
  -0.00217257  0.00327428  0.60206726
   0.75096478  0.25333986  0.60363596
   0.16136769  0.42187099  0.50551441
   0.66878213  0.41618225  0.50661751
   0.08333333  0.33333333  0.40830017
   0.91702358  0.41719187  0.50543466
   0.91873560  0.66553535  0.50479855
   0.08333333  0.58333333  0.40830017
   0.75230248  0.74668730  0.60190942
Direct configuration=     9
   0.08333333  0.08333333  0.40830017
   0.24631389  0.00244596  0.61141205
  -0.00167538  0.74835053  0.60975048
   0.91959884  0.91363215  0.50704877
   0.33333333  0.33333333  0.40830017
   0.16318749  0.16990841  0.50883906
   0.24879625  0.75078015  0.60910810
   0.33333333  0.58333333  0.40830017
   0.50440346  0.74568217  0.61537806
   0.66789956  0.66670497  0.50719725
   0.83333333  0.58333333  0.40830017
   0.83333333  0.33333333  0.40830017
   0.33333333  0.08333333  0.40830017
   0.66830022  0.16566386  0.50993276
   0.83333333  0.08333333  0.40830017
   0.41742745  0.91633985  0.50826045
   0.24767632  0.49895831  0.61042695
   0.41613119  0.66657920  0.50787867
   0.50086179  0.25147046  0.61625522
   0.41526314  0.41722859  0.51168645
   0.58333333  0.33333333  0.40830017
   0.50159504 -0.00205303  0.61197209
   0.41843536  0.16609902  0.51006730
   0.75113226 -0.00070001  0.61190005
   0.58333333  0.83333333  0.40830017
   0.24794556  0.25182842  0.60453536
   0.08333333  0.83333333  0.40830017
   0.58333333  0.58333333  0.40830017
   0.16566070  0.66671345  0.50670967
   0.66900654  0.91530468  0.50551561
   0.16647016  0.91585999  0.50698064
   0.33333333  0.83333333  0.40830017
  -0.00111958  0.49823428  0.60122601
   0.58333333  0.08333333  0.40830017
   0.50320349  0.49943099  0.60504328
   0.91730755  0.16809001  0.50762868
  -0.00229855  0.25169195  0.60428949
   0.83333333  0.83333333  0.40830017
   0.75243423  0.49804452  0.60297912
  -0.00141690  0.00257307  0.60271972
   0.75090368  0.25295707  0.60425309
   0.16339615  0.42034861  0.50608879
   0.66869456  0.41598817  0.50687009
   0.08333333  0.33333333  0.40830017
   0.91695156  0.41660084  0.50584513
   0.91857737  0.66563636  0.50539658
   0.08333333  0.58333333  0.40830017
   0.75178113  0.74781548  0.60250510
Direct configuration=    10
   0.08333333  0.08333333  0.40830017
   0.24655396  0.00212427  0.61151956
  -0.00170692  0.74858613  0.60982374
   0.91923152  0.91402694  0.50711931
   0.33333333  0.33333333  0.40830017
   0.16317834  0.16961558  0.50891756
   0.24885775  0.75075836  0.60924859
   0.33333333  0.58333333  0.40830017
   0.50395034  0.74616295  0.61555189
   0.66769103  0.66625457  0.50723139
   0.83333333  0.58333333  0.40830017
   0.83333333  0.33333333  0.40830017
   0.33333333  0.08333333  0.40830017
   0.66833472  0.16566289  0.50994263
   0.83333333  0.08333333  0.40830017
   0.41705185  0.91635803  0.50839426
   0.24810035  0.49885123  0.61060542
   0.41596459  0.66692229  0.50788133
   0.50044283  0.25154865  0.61654465
   0.41527205  0.41680880  0.51163124
   0.58333333  0.33333333  0.40830017
   0.50159661 -0.00191254  0.61218855
   0.41843002  0.16640362  0.51003791
   0.75102371 -0.00086529  0.61206122
   0.58333333  0.83333333  0.40830017
   0.24843208  0.25158307  0.60488239
   0.08333333  0.83333333  0.40830017
   0.58333333  0.58333333  0.40830017
   0.16607529  0.66669966  0.50707589
   0.66870758  0.91595461  0.50583542
   0.16689574  0.91584086  0.50718709
   0.33333333  0.83333333  0.40830017
  -0.00085735  0.49840463  0.60137949
   0.58333333  0.08333333  0.40830017
   0.50288381  0.49948797  0.60545203
   0.91722356  0.16828146  0.50770450
  -0.00193117  0.25119908  0.60435721
   0.83333333  0.83333333  0.40830017
   0.75197923  0.49827487  0.60309846
  -0.00109070  0.00227038  0.60300136
   0.75087731  0.25279183  0.60451949
   0.16427177  0.41969145  0.50633673
   0.66865676  0.41590439  0.50697911
   0.08333333  0.33333333  0.40830017
   0.91692046  0.41634572  0.50602231
   0.91850906  0.66567996  0.50565473
   0.08333333  0.58333333  0.40830017
   0.75155608  0.74830248  0.60276224
Direct configuration=    11
   0.08333333  0.08333333  0.40830017
   0.24709548  0.00214157  0.61168627
  -0.00154938  0.74863718  0.60979138
   0.91936180  0.91395022  0.50704678
   0.33333333  0.33333333  0.40830017
   0.16356286  0.16950773  0.50902767
   0.24909360  0.75032383  0.60954063
   0.33333333  0.58333333  0.40830017
   0.50372212  0.74643834  0.61568115
   0.66814236  0.66581615  0.50728413
   0.83333333  0.58333333  0.40830017
   0.83333333  0.33333333  0.40830017
   0.33333333  0.08333333  0.40830017
   0.66896300  0.16573889  0.50995035
   0.83333333  0.08333333  0.40830017
   0.41711028  0.91609596  0.50833980
   0.24829226  0.49904148  0.61085214
   0.41631592  0.66677761  0.50778766
   0.50055384  0.25154071  0.61700661
   0.41567498  0.41719976  0.51155285
   0.58333333  0.33333333  0.40830017
   0.50109451 -0.00155026  0.61258082
   0.41797491  0.16619718  0.50988348
   0.75125278 -0.00030575  0.61223396
   0.58333333  0.83333333  0.40830017
   0.24861242  0.25108755  0.60539474
   0.08333333  0.83333333  0.40830017
   0.58333333  0.58333333  0.40830017
   0.16554752  0.66655836  0.50748588
   0.66863185  0.91584289  0.50620028
   0.16670639  0.91606978  0.50730697
   0.33333333  0.83333333  0.40830017
  -0.00093615  0.49848086  0.60154941
   0.58333333  0.08333333  0.40830017
   0.50260468  0.49938877  0.60598698
   0.91680325  0.16829081  0.50794403
  -0.00183949  0.25125256  0.60439030
   0.83333333  0.83333333  0.40830017
   0.75194435  0.49844228  0.60314230
  -0.00154275  0.00232589  0.60341051
   0.75090897  0.25235370  0.60482416
   0.16405325  0.41999813  0.50666597
   0.66855778  0.41591051  0.50730529
   0.08333333  0.33333333  0.40830017
   0.91655954  0.41682889  0.50643381
   0.91901625  0.66523110  0.50597983
   0.08333333  0.58333333  0.40830017
   0.75145517  0.74789055  0.60309172
Direct configuration=    12
   0.08333333  0.08333333  0.40830017
   0.24730262  0.00214819  0.61175004
  -0.00148912  0.74865671  0.60977901
   0.91941164  0.91392088  0.50701903
   0.33333333  0.33333333  0.40830017
   0.16370995  0.16946647  0.50906980
   0.24918382  0.75015761  0.60965234
   0.33333333  0.58333333  0.40830017
   0.50363481  0.74654368  0.61573059
   0.66831500  0.66564844  0.50730430
   0.83333333  0.58333333  0.40830017
   0.83333333  0.33333333  0.40830017
   0.33333333  0.08333333  0.40830017
   0.66920334  0.16576796  0.50995331
   0.83333333  0.08333333  0.40830017
   0.41713264  0.91599571  0.50831897
   0.24836567  0.49911425  0.61094652
   0.41645031  0.66672227  0.50775182
   0.50059631  0.25153767  0.61718332
   0.41582912  0.41734931  0.51152287
   0.58333333  0.33333333  0.40830017
   0.50090245 -0.00141168  0.61273087
   0.41780082  0.16611821  0.50982441
   0.75134041 -0.00009170  0.61230004
   0.58333333  0.83333333  0.40830017
   0.24868141  0.25089800  0.60559073
   0.08333333  0.83333333  0.40830017
   0.58333333  0.58333333  0.40830017
   0.16534564  0.66650431  0.50764271
   0.66860287  0.91580016  0.50633985
   0.16663395  0.91615734  0.50735283
   0.33333333  0.83333333  0.40830017
  -0.00096630  0.49851002  0.60161441
   0.58333333  0.08333333  0.40830017
   0.50249791  0.49935082  0.60619162
   0.91664247  0.16829439  0.50803565
  -0.00180442  0.25127301  0.60440296
   0.83333333  0.83333333  0.40830017
   0.75193101  0.49850632  0.60315907
  -0.00171567  0.00234712  0.60356701
   0.75092108  0.25218610  0.60494070
   0.16396966  0.42011544  0.50679192
   0.66851992  0.41591285  0.50743006
   0.08333333  0.33333333  0.40830017
   0.91642148  0.41701371  0.50659122
   0.91921027  0.66505941  0.50610419
   0.08333333  0.58333333  0.40830017
   0.75141657  0.74773298  0.60321776
Direct configuration=    13
   0.08333333  0.08333333  0.40830017
   0.24704468  0.00210802  0.61188084
  -0.00169957  0.74869782  0.60974542
   0.91967842  0.91350725  0.50691040
   0.33333333  0.33333333  0.40830017
   0.16331315  0.16996038  0.50915997
   0.24930237  0.75036606  0.60988850
   0.33333333  0.58333333  0.40830017
   0.50376046  0.74625469  0.61576798
   0.66868668  0.66601732  0.50732092
   0.83333333  0.58333333  0.40830017
   0.83333333  0.33333333  0.40830017
   0.33333333  0.08333333  0.40830017
   0.66882368  0.16573061  0.51001440
   0.83333333  0.08333333  0.40830017
   0.41773980  0.91536321  0.50817426
   0.24834846  0.49876243  0.61113726
   0.41646201  0.66658235  0.50776666
   0.50080217  0.25148881  0.61750664
   0.41605878  0.41747326  0.51162637
   0.58333333  0.33333333  0.40830017
   0.50116365 -0.00124564  0.61311939
   0.41796683  0.16626091  0.50982969
   0.75123115  0.00005186  0.61239438
   0.58333333  0.83333333  0.40830017
   0.24845598  0.25113169  0.60592319
   0.08333333  0.83333333  0.40830017
   0.58333333  0.58333333  0.40830017
   0.16506807  0.66643354  0.50778555
   0.66889794  0.91523623  0.50657503
   0.16625367  0.91613596  0.50745149
   0.33333333  0.83333333  0.40830017
  -0.00094051  0.49829243  0.60189039
   0.58333333  0.08333333  0.40830017
   0.50274568  0.49914583  0.60651443
   0.91687368  0.16830888  0.50827387
  -0.00193342  0.25147140  0.60443548
   0.83333333  0.83333333  0.40830017
   0.75198994  0.49832291  0.60327246
  -0.00165842  0.00251477  0.60384486
   0.75087736  0.25234911  0.60518571
   0.16367423  0.42038226  0.50700912
   0.66857916  0.41602644  0.50774559
   0.08333333  0.33333333  0.40830017
   0.91653914  0.41701457  0.50681683
   0.91927796  0.66493339  0.50624173
   0.08333333  0.58333333  0.40830017
   0.75137592  0.74756947  0.60348419
Direct configuration=    14
   0.08333333  0.08333333  0.40830017
   0.24699749  0.00210067  0.61190477
  -0.00173807  0.74870534  0.60973927
   0.91972723  0.91343159  0.50689053
   0.33333333  0.33333333  0.40830017
   0.16324056  0.17005073  0.50917647
   0.24932406  0.75040419  0.60993170
   0.33333333  0.58333333  0.40830017
   0.50378345  0.74620183  0.61577482
   0.66875467  0.66608480  0.50732396
   0.83333333  0.58333333  0.40830017
   0.83333333  0.33333333  0.40830017
   0.33333333  0.08333333  0.40830017
   0.66875423  0.16572377  0.51002557
   0.83333333  0.08333333  0.40830017
   0.41785087  0.91524751  0.50814778
   0.24834531  0.49869807  0.61117215
   0.41646415  0.66655675  0.50776938
   0.50083983  0.25147988  0.61756579
   0.41610079  0.41749594  0.51164530
   0.58333333  0.33333333  0.40830017
   0.50121143 -0.00121527  0.61319046
   0.41799720  0.16628702  0.50983065
   0.75121116  0.00007812  0.61241164
   0.58333333  0.83333333  0.40830017
   0.24841474  0.25117444  0.60598401
   0.08333333  0.83333333  0.40830017
   0.58333333  0.58333333  0.40830017
   0.16501729  0.66642059  0.50781168
   0.66895191  0.91513306  0.50661806
   0.16618410  0.91613204  0.50746954
   0.33333333  0.83333333  0.40830017
  -0.00093579  0.49825262  0.60194088
   0.58333333  0.08333333  0.40830017
   0.50279101  0.49910833  0.60657348
   0.91691598  0.16831153  0.50831745
  -0.00195702  0.25150769  0.60444143
   0.83333333  0.83333333  0.40830017
   0.75200072  0.49828936  0.60329320
  -0.00164794  0.00254544  0.60389569
   0.75086936  0.25237894  0.60523053
   0.16362018  0.42043107  0.50704885
   0.66858999  0.41604722  0.50780331
   0.08333333  0.33333333  0.40830017
   0.91656066  0.41701473  0.50685810
   0.91929034  0.66491033  0.50626689
   0.08333333  0.58333333  0.40830017
   0.75136848  0.74753955  0.60353293
Direct configuration=    15
   0.08333333  0.08333333  0.40830017
   0.24689275  0.00220437  0.61193211
  -0.00184932  0.74870940  0.60973080
   0.91949336  0.91356453  0.50687521
   0.33333333  0.33333333  0.40830017
   0.16353873  0.16992841  0.50925529
   0.24922531  0.75044089  0.61005116
   0.33333333  0.58333333  0.40830017
   0.50394982  0.74606451  0.61574753
   0.66893103  0.66601999  0.50734702
   0.83333333  0.58333333  0.40830017
   0.83333333  0.33333333  0.40830017
   0.33333333  0.08333333  0.40830017
   0.66875551  0.16544087  0.51010764
   0.83333333  0.08333333  0.40830017
   0.41769193  0.91550024  0.50810301
   0.24831841  0.49856835  0.61129572
   0.41631540  0.66657943  0.50787888
   0.50081675  0.25156732  0.61775174
   0.41589702  0.41752116  0.51186562
   0.58333333  0.33333333  0.40830017
   0.50131386 -0.00130630  0.61346878
   0.41797823  0.16628096  0.51000722
   0.75126023 -0.00012225  0.61243521
   0.58333333  0.83333333  0.40830017
   0.24839548  0.25123248  0.60609100
   0.08333333  0.83333333  0.40830017
   0.58333333  0.58333333  0.40830017
   0.16538134  0.66619303  0.50780892
   0.66926565  0.91504437  0.50671148
   0.16627417  0.91603512  0.50754536
   0.33333333  0.83333333  0.40830017
  -0.00098104  0.49814478  0.60222479
   0.58333333  0.08333333  0.40830017
   0.50286207  0.49906418  0.60668961
   0.91694361  0.16820753  0.50844251
  -0.00201904  0.25157089  0.60457201
   0.83333333  0.83333333  0.40830017
   0.75200816  0.49820094  0.60344254
  -0.00160028  0.00265996  0.60402299
   0.75085990  0.25256789  0.60537376
   0.16378651  0.42038892  0.50711867
   0.66885231  0.41607811  0.50794967
   0.08333333  0.33333333  0.40830017
   0.91654479  0.41699747  0.50683846
   0.91914790  0.66491252  0.50626285
   0.08333333  0.58333333  0.40830017
   0.75137488  0.74758085  0.60374067
Direct configuration=    16
   0.08333333  0.08333333  0.40830017
   0.24685567  0.00224107  0.61194180
  -0.00188871  0.74871084  0.60972780
   0.91941058  0.91361159  0.50686979
   0.33333333  0.33333333  0.40830017
   0.16364427  0.16988511  0.50928319
   0.24919036  0.75045388  0.61009344
   0.33333333  0.58333333  0.40830017
   0.50400871  0.74601591  0.61573787
   0.66899345  0.66599705  0.50735519
   0.83333333  0.58333333  0.40830017
   0.83333333  0.33333333  0.40830017
   0.33333333  0.08333333  0.40830017
   0.66875596  0.16534073  0.51013669
   0.83333333  0.08333333  0.40830017
   0.41763567  0.91558970  0.50808716
   0.24830889  0.49852243  0.61133946
   0.41626274  0.66658745  0.50791764
   0.50080858  0.25159827  0.61781756
   0.41582489  0.41753009  0.51194361
   0.58333333  0.33333333  0.40830017
   0.50135012 -0.00133852  0.61356730
   0.41797151  0.16627881  0.51006972
   0.75127760 -0.00019318  0.61244355
   0.58333333  0.83333333  0.40830017
   0.24838866  0.25125303  0.60612887
   0.08333333  0.83333333  0.40830017
   0.58333333  0.58333333  0.40830017
   0.16551020  0.66611248  0.50780794
   0.66937670  0.91501297  0.50674455
   0.16630605  0.91600081  0.50757220
   0.33333333  0.83333333  0.40830017
  -0.00099706  0.49810661  0.60232529
   0.58333333  0.08333333  0.40830017
   0.50288722  0.49904855  0.60673072
   0.91695339  0.16817072  0.50848677
  -0.00204100  0.25159326  0.60461823
   0.83333333  0.83333333  0.40830017
   0.75201079  0.49816965  0.60349540
  -0.00158341  0.00270050  0.60406805
   0.75085655  0.25263477  0.60542445
   0.16384539  0.42037399  0.50714338
   0.66894516  0.41608904  0.50800148
   0.08333333  0.33333333  0.40830017
   0.91653918  0.41699136  0.50683151
   0.91909748  0.66491329  0.50626143
   0.08333333  0.58333333  0.40830017
   0.75137715  0.74759546  0.60381421
Direct configuration=    17
   0.08333333  0.08333333  0.40830017
   0.24702734  0.00225427  0.61195250
  -0.00175088  0.74857448  0.60970060
   0.91959800  0.91356184  0.50692538