  48  48   0   0
  0.5349325E+02  0.1100258E-08  0.1100258E-08  0.2449179E-08  0.3500000E-15
  1.000000000000000E-004
  CAR 
 unknown system                          
      6.37381211     -9.70125037  301     -1.10204139      1.00000000
     -9.701  0.0000E+00  0.0000E+00
     -9.648  0.0000E+00  0.0000E+00
     -9.594  0.0000E+00  0.0000E+00
     -9.540  0.0000E+00  0.0000E+00
     -9.487  0.0000E+00  0.0000E+00
     -9.433  0.0000E+00  0.0000E+00
     -9.380  0.0000E+00  0.0000E+00
     -9.326  0.0000E+00  0.0000E+00
     -9.273  0.8978E-17  0.4811E-18
     -9.219  0.3259E-14  0.1751E-15
     -9.165  0.7171E-12  0.3860E-13
     -9.112  0.8983E-10  0.4852E-11
     -9.058  0.6418E-08  0.3488E-09
     -9.005  0.2621E-06  0.1439E-07
     -8.951  0.6128E-05  0.3428E-06
     -8.897  0.8227E-04  0.4751E-05
     -8.844  0.6356E-03  0.3881E-04
     -8.790  0.2834E-02  0.1907E-03
     -8.737  0.7333E-02  0.5836E-03
     -8.683  0.1126E-01  0.1187E-02
     -8.630  0.1140E-01  0.1797E-02
     -8.576  0.1068E-01  0.2370E-02
     -8.522  0.1163E-01  0.2993E-02
     -8.469  0.1045E-01  0.3553E-02
     -8.415  0.5930E-02  0.3871E-02
     -8.362  0.1983E-02  0.3977E-02
     -8.308  0.3855E-03  0.3998E-02
     -8.254  0.4946E-04  0.4000E-02
     -8.201  0.8149E-04  0.4005E-02
     -8.147  0.5856E-03  0.4036E-02
     -8.094  0.2559E-02  0.4173E-02
     -8.040  0.6671E-02  0.4531E-02
     -7.987  0.1084E-01  0.5111E-02
     -7.933  0.1303E-01  0.5809E-02
     -7.879  0.1707E-01  0.6724E-02
     -7.826  0.2555E-01  0.8093E-02
     -7.772  0.3032E-01  0.9718E-02
     -7.719  0.2477E-01  0.1105E-01
     -7.665  0.1585E-01  0.1189E-01
     -7.611  0.1338E-01  0.1261E-01
     -7.558  0.1750E-01  0.1355E-01
     -7.504  0.2034E-01  0.1464E-01
     -7.451  0.1754E-01  0.1558E-01
     -7.397  0.1394E-01  0.1633E-01
     -7.344  0.1396E-01  0.1707E-01
     -7.290  0.1636E-01  0.1795E-01
     -7.236  0.2175E-01  0.1912E-01
     -7.183  0.2941E-01  0.2069E-01
     -7.129  0.3338E-01  0.2248E-01
     -7.076  0.3416E-01  0.2431E-01
     -7.022  0.3781E-01  0.2634E-01
     -6.968  0.4442E-01  0.2872E-01
     -6.915  0.5165E-01  0.3149E-01
     -6.861  0.6093E-01  0.3475E-01
     -6.808  0.7194E-01  0.3860E-01
     -6.754  0.8098E-01  0.4294E-01
     -6.701  0.8762E-01  0.4764E-01
     -6.647  0.9225E-01  0.5258E-01
     -6.593  0.9399E-01  0.5762E-01
     -6.540  0.9404E-01  0.6266E-01
     -6.486  0.9564E-01  0.6778E-01
     -6.433  0.1039E+00  0.7335E-01
     -6.379  0.1193E+00  0.7974E-01
     -6.325  0.1337E+00  0.8690E-01
     -6.272  0.1399E+00  0.9440E-01
     -6.218  0.1405E+00  0.1019E+00
     -6.165  0.1415E+00  0.1095E+00
     -6.111  0.1440E+00  0.1172E+00
     -6.058  0.1470E+00  0.1251E+00
     -6.004  0.1491E+00  0.1331E+00
     -5.950  0.1495E+00  0.1411E+00
     -5.897  0.1509E+00  0.1492E+00
     -5.843  0.1546E+00  0.1575E+00
     -5.790  0.1578E+00  0.1659E+00
     -5.736  0.1567E+00  0.1743E+00
     -5.682  0.1526E+00  0.1825E+00
     -5.629  0.1494E+00  0.1905E+00
     -5.575  0.1457E+00  0.1983E+00
     -5.522  0.1409E+00  0.2059E+00
     -5.468  0.1410E+00  0.2134E+00
     -5.415  0.1479E+00  0.2213E+00
     -5.361  0.1541E+00  0.2296E+00
     -5.307  0.1561E+00  0.2380E+00
     -5.254  0.1587E+00  0.2465E+00
     -5.200  0.1633E+00  0.2552E+00
     -5.147  0.1651E+00  0.2641E+00
     -5.093  0.1638E+00  0.2728E+00
     -5.039  0.1645E+00  0.2816E+00
     -4.986  0.1691E+00  0.2907E+00
     -4.932  0.1731E+00  0.3000E+00
     -4.879  0.1734E+00  0.3093E+00
     -4.825  0.1724E+00  0.3185E+00
     -4.772  0.1731E+00  0.3278E+00
     -4.718  0.1753E+00  0.3372E+00
     -4.664  0.1779E+00  0.3467E+00
     -4.611  0.1795E+00  0.3563E+00
     -4.557  0.1784E+00  0.3659E+00
     -4.504  0.1764E+00  0.3754E+00
     -4.450  0.1766E+00  0.3848E+00
     -4.396  0.1768E+00  0.3943E+00
     -4.343  0.1755E+00  0.4037E+00
     -4.289  0.1747E+00  0.4131E+00
     -4.236  0.1764E+00  0.4225E+00
     -4.182  0.1828E+00  0.4323E+00
     -4.129  0.1926E+00  0.4426E+00
     -4.075  0.1982E+00  0.4532E+00
     -4.021  0.1951E+00  0.4637E+00
     -3.968  0.1867E+00  0.4737E+00
     -3.914  0.1792E+00  0.4833E+00
     -3.861  0.1786E+00  0.4929E+00
     -3.807  0.1847E+00  0.5028E+00
     -3.753  0.1909E+00  0.5130E+00
     -3.700  0.1943E+00  0.5234E+00
     -3.646  0.1967E+00  0.5339E+00
     -3.593  0.1991E+00  0.5446E+00
     -3.539  0.2017E+00  0.5554E+00
     -3.486  0.2052E+00  0.5664E+00
     -3.432  0.2088E+00  0.5776E+00
     -3.378  0.2084E+00  0.5888E+00
     -3.325  0.2039E+00  0.5997E+00
     -3.271  0.2004E+00  0.6104E+00
     -3.218  0.1992E+00  0.6211E+00
     -3.164  0.1965E+00  0.6316E+00
     -3.110  0.1910E+00  0.6419E+00
     -3.057  0.1855E+00  0.6518E+00
     -3.003  0.1836E+00  0.6616E+00
     -2.950  0.1857E+00  0.6716E+00
     -2.896  0.1870E+00  0.6816E+00
     -2.843  0.1847E+00  0.6915E+00
     -2.789  0.1839E+00  0.7014E+00
     -2.735  0.1865E+00  0.7114E+00
     -2.682  0.1870E+00  0.7214E+00
     -2.628  0.1842E+00  0.7313E+00
     -2.575  0.1807E+00  0.7409E+00
     -2.521  0.1801E+00  0.7506E+00
     -2.467  0.1857E+00  0.7605E+00
     -2.414  0.1940E+00  0.7709E+00
     -2.360  0.1992E+00  0.7816E+00
     -2.307  0.1993E+00  0.7923E+00
     -2.253  0.1955E+00  0.8028E+00
     -2.200  0.1896E+00  0.8129E+00
     -2.146  0.1836E+00  0.8228E+00
     -2.092  0.1791E+00  0.8324E+00
     -2.039  0.1775E+00  0.8419E+00
     -1.985  0.1780E+00  0.8514E+00
     -1.932  0.1792E+00  0.8610E+00
     -1.878  0.1799E+00  0.8706E+00
     -1.824  0.1784E+00  0.8802E+00
     -1.771  0.1756E+00  0.8896E+00
     -1.717  0.1738E+00  0.8989E+00
     -1.664  0.1736E+00  0.9082E+00
     -1.610  0.1775E+00  0.9177E+00
     -1.557  0.1858E+00  0.9277E+00
     -1.503  0.1931E+00  0.9380E+00
     -1.449  0.1975E+00  0.9486E+00
     -1.396  0.2011E+00  0.9594E+00
     -1.342  0.1999E+00  0.9701E+00
     -1.289  0.1918E+00  0.9804E+00
     -1.235  0.1778E+00  0.9899E+00
     -1.181  0.1561E+00  0.9983E+00
     -1.128  0.1288E+00  0.1005E+01
     -1.074  0.1025E+00  0.1011E+01
     -1.021  0.7771E-01  0.1015E+01
     -0.967  0.5291E-01  0.1018E+01
     -0.914  0.3264E-01  0.1019E+01
     -0.860  0.2090E-01  0.1021E+01
     -0.806  0.1573E-01  0.1021E+01
     -0.753  0.1435E-01  0.1022E+01
     -0.699  0.1638E-01  0.1023E+01
     -0.646  0.2084E-01  0.1024E+01
     -0.592  0.2741E-01  0.1026E+01
     -0.538  0.3606E-01  0.1028E+01
     -0.485  0.4186E-01  0.1030E+01
     -0.431  0.4064E-01  0.1032E+01
     -0.378  0.3626E-01  0.1034E+01
     -0.324  0.3380E-01  0.1036E+01
     -0.271  0.3636E-01  0.1038E+01
     -0.217  0.4248E-01  0.1040E+01
     -0.163  0.4356E-01  0.1042E+01
     -0.110  0.3630E-01  0.1044E+01
     -0.056  0.2766E-01  0.1046E+01
     -0.003  0.2505E-01  0.1047E+01
      0.051  0.2887E-01  0.1049E+01
      0.105  0.3401E-01  0.1050E+01
      0.158  0.3558E-01  0.1052E+01
      0.212  0.3223E-01  0.1054E+01
      0.265  0.2956E-01  0.1056E+01
      0.319  0.3259E-01  0.1057E+01
      0.372  0.3712E-01  0.1059E+01
      0.426  0.3829E-01  0.1061E+01
      0.480  0.3763E-01  0.1063E+01
      0.533  0.3768E-01  0.1065E+01
      0.587  0.3903E-01  0.1068E+01
      0.640  0.4187E-01  0.1070E+01
      0.694  0.4466E-01  0.1072E+01
      0.748  0.4384E-01  0.1075E+01
      0.801  0.3572E-01  0.1076E+01
      0.855  0.2304E-01  0.1078E+01
      0.908  0.1603E-01  0.1079E+01
      0.962  0.1805E-01  0.1080E+01
      1.015  0.2285E-01  0.1081E+01
      1.069  0.2643E-01  0.1082E+01
      1.123  0.2806E-01  0.1084E+01
      1.176  0.2585E-01  0.1085E+01
      1.230  0.2048E-01  0.1086E+01
      1.283  0.1516E-01  0.1087E+01
      1.337  0.1096E-01  0.1088E+01
      1.391  0.8633E-02  0.1088E+01
      1.444  0.1145E-01  0.1089E+01
      1.498  0.2130E-01  0.1090E+01
      1.551  0.3258E-01  0.1092E+01
      1.605  0.3659E-01  0.1093E+01
      1.658  0.3384E-01  0.1095E+01
      1.712  0.3252E-01  0.1097E+01
      1.766  0.3520E-01  0.1099E+01
      1.819  0.3688E-01  0.1101E+01
      1.873  0.3292E-01  0.1103E+01
      1.926  0.2538E-01  0.1104E+01
      1.980  0.2098E-01  0.1105E+01
      2.034  0.2134E-01  0.1106E+01
      2.087  0.2362E-01  0.1108E+01
      2.141  0.2668E-01  0.1109E+01
      2.194  0.3150E-01  0.1111E+01
      2.248  0.3846E-01  0.1113E+01
      2.301  0.4409E-01  0.1115E+01
      2.355  0.4429E-01  0.1117E+01
      2.409  0.3954E-01  0.1120E+01
      2.462  0.3424E-01  0.1121E+01
      2.516  0.3329E-01  0.1123E+01
      2.569  0.3858E-01  0.1125E+01
      2.623  0.4674E-01  0.1128E+01
      2.677  0.5135E-01  0.1131E+01
      2.730  0.4887E-01  0.1133E+01
      2.784  0.3949E-01  0.1135E+01
      2.837  0.2668E-01  0.1137E+01
      2.891  0.1713E-01  0.1138E+01
      2.944  0.1430E-01  0.1138E+01
      2.998  0.1428E-01  0.1139E+01
      3.052  0.1346E-01  0.1140E+01
      3.105  0.1579E-01  0.1141E+01
      3.159  0.2412E-01  0.1142E+01
      3.212  0.3050E-01  0.1144E+01
      3.266  0.2736E-01  0.1145E+01
      3.320  0.1948E-01  0.1146E+01
      3.373  0.1480E-01  0.1147E+01
      3.427  0.1493E-01  0.1148E+01
      3.480  0.1857E-01  0.1149E+01
      3.534  0.2516E-01  0.1150E+01
      3.587  0.3335E-01  0.1152E+01
      3.641  0.3721E-01  0.1154E+01
      3.695  0.3369E-01  0.1156E+01
      3.748  0.3093E-01  0.1157E+01
      3.802  0.3250E-01  0.1159E+01
      3.855  0.3102E-01  0.1161E+01
      3.909  0.2627E-01  0.1162E+01
      3.963  0.2528E-01  0.1163E+01
      4.016  0.2682E-01  0.1165E+01
      4.070  0.2631E-01  0.1166E+01
      4.123  0.2548E-01  0.1168E+01
      4.177  0.2537E-01  0.1169E+01
      4.230  0.2346E-01  0.1170E+01
      4.284  0.1881E-01  0.1171E+01
      4.338  0.1511E-01  0.1172E+01
      4.391  0.1799E-01  0.1173E+01
      4.445  0.2633E-01  0.1174E+01
      4.498  0.3365E-01  0.1176E+01
      4.552  0.3977E-01  0.1178E+01
      4.606  0.4843E-01  0.1181E+01
      4.659  0.5531E-01  0.1184E+01
      4.713  0.5468E-01  0.1187E+01
      4.766  0.4967E-01  0.1190E+01
      4.820  0.4706E-01  0.1192E+01
      4.873  0.5067E-01  0.1195E+01
      4.927  0.5755E-01  0.1198E+01
      4.981  0.6345E-01  0.1201E+01
      5.034  0.6864E-01  0.1205E+01
      5.088  0.7186E-01  0.1209E+01
      5.141  0.6999E-01  0.1213E+01
      5.195  0.6385E-01  0.1216E+01
      5.249  0.5444E-01  0.1219E+01
      5.302  0.4189E-01  0.1221E+01
      5.356  0.2821E-01  0.1223E+01
      5.409  0.1573E-01  0.1224E+01
      5.463  0.6611E-02  0.1224E+01
      5.516  0.1917E-02  0.1224E+01
      5.570  0.3593E-03  0.1224E+01
      5.624  0.4175E-04  0.1224E+01
      5.677  0.2926E-05  0.1224E+01
      5.731  0.1215E-06  0.1224E+01
      5.784  0.2946E-08  0.1224E+01
      5.838  0.4139E-10  0.1224E+01
      5.892  0.3345E-12  0.1224E+01
      5.945  0.1547E-14  0.1224E+01
      5.999  0.4144E-17  0.1224E+01
      6.052  0.0000E+00  0.1224E+01
      6.106  0.0000E+00  0.1224E+01
      6.159  0.0000E+00  0.1224E+01
      6.213  0.0000E+00  0.1224E+01
      6.267  0.0000E+00  0.1224E+01
      6.320  0.0000E+00  0.1224E+01
      6.374  0.0000E+00  0.1224E+01
