<?xml version="1.0" encoding="ISO-8859-1"?>
<modeling>
 <generator>
  <i name="program" type="string">vasp </i>
  <i name="version" type="string">5.4.1  </i>
  <i name="subversion" type="string">24Jun15 (build Mar 14 2019 10:18:33) complex                          parallel </i>
  <i name="platform" type="string">INTEL-19.0.2+OPENMPI-3.1.3 </i>
  <i name="date" type="string">2022 07 11 </i>
  <i name="time" type="string">19:57:16 </i>
 </generator>
 <incar>
  <i type="int" name="ISTART">     0</i>
  <i type="string" name="PREC">normal</i>
  <i type="string" name="ALGO"> Fast</i>
  <i type="int" name="NELM">   500</i>
  <i type="int" name="IBRION">     2</i>
  <i type="int" name="NFREE">     2</i>
  <i name="EDIFF">      0.00000100</i>
  <i name="EDIFFG">     -0.02000000</i>
  <i type="int" name="NSW">   500</i>
  <i type="int" name="ISIF">     0</i>
  <i type="int" name="ISYM">     2</i>
  <i name="ENCUT">    400.00000000</i>
  <i name="POTIM">      0.35000000</i>
  <i type="string" name="LREAL"> Auto</i>
  <i type="logical" name="LPLANE"> T  </i>
  <i type="int" name="ISMEAR">     0</i>
  <i name="SIGMA">      0.10000000</i>
  <i type="int" name="NWRITE">     1</i>
  <i type="logical" name="LWAVE"> F  </i>
  <i type="logical" name="LCHARG"> F  </i>
  <i type="logical" name="LVTOT"> F  </i>
  <i type="logical" name="LORBIT"> F  </i>
  <i type="logical" name="LAECHG"> F  </i>
  <v type="int" name="KPOINT_BSE">    -1     0     0     0</v>
  <i type="int" name="NELM">   500</i>
  <i type="string" name="GGA"> PE          ! optPBE-vdW XC-functional</i>
  <i type="int" name="VOSKOWN">     1</i>
  <i type="logical" name="LDIPOL"> T  </i>
  <i type="logical" name="LMONO"> F  </i>
  <i type="int" name="IDIPOL">     3</i>
  <v name="DIPOL">      0.00000000      0.00000000      0.50000000</v>
 </incar>
 <kpoints>
  <generation param="Monkhorst-Pack">
   <v type="int" name="divisions">       2        2        1 </v>
   <v name="usershift">      0.00000000       0.00000000       0.00000000 </v>
   <v name="genvec1">      0.50000000      -0.00000000       0.00000000 </v>
   <v name="genvec2">      0.00000000       0.50000000       0.00000000 </v>
   <v name="genvec3">      0.00000000       0.00000000       1.00000000 </v>
   <v name="shift">      0.50000000       0.50000000       0.00000000 </v>
  </generation>
  <varray name="kpointlist" >
   <v>       0.25000000       0.25000000       0.00000000 </v>
   <v>       0.00000000       0.25000000       0.00000000 </v>
   <v>      -0.25000000       0.00000000       0.00000000 </v>
   <v>      -0.25000000       0.25000000       0.00000000 </v>
   <v>       0.50000000      -0.25000000       0.00000000 </v>
   <v>      -0.25000000       0.50000000       0.00000000 </v>
  </varray>
  <varray name="weights" >
   <v>       0.16666667 </v>
   <v>       0.16666667 </v>
   <v>       0.16666667 </v>
   <v>       0.16666667 </v>
   <v>       0.16666667 </v>
   <v>       0.16666667 </v>
  </varray>
 </kpoints>
 <parameters>
  <separator name="general" >
   <i type="string" name="SYSTEM">unknown system</i>
   <i type="logical" name="LCOMPAT"> F  </i>
  </separator>
  <separator name="electronic" >
   <i type="string" name="PREC">normal</i>
   <i name="ENMAX">    400.00000000</i>
   <i name="ENAUG">    416.23000000</i>
   <i name="EDIFF">      0.00000100</i>
   <i type="int" name="IALGO">    68</i>
   <i type="int" name="IWAVPR">    11</i>
   <i type="int" name="NBANDS">   306</i>
   <i name="NELECT">    504.00000000</i>
   <i type="int" name="TURBO">     0</i>
   <i type="int" name="IRESTART">     0</i>
   <i type="int" name="NREBOOT">     0</i>
   <i type="int" name="NMIN">     0</i>
   <i name="EREF">      0.00000000</i>
   <separator name="electronic smearing" >
    <i type="int" name="ISMEAR">     0</i>
    <i name="SIGMA">      0.10000000</i>
    <i name="KSPACING">      0.50000000</i>
    <i type="logical" name="KGAMMA"> T  </i>
   </separator>
   <separator name="electronic projectors" >
    <i type="logical" name="LREAL"> T  </i>
    <v name="ROPT">     -0.00050000     -0.00050000</v>
    <i type="int" name="LMAXPAW">  -100</i>
    <i type="int" name="LMAXMIX">     2</i>
    <i type="logical" name="NLSPLINE"> F  </i>
   </separator>
   <separator name="electronic startup" >
    <i type="int" name="ISTART">     0</i>
    <i type="int" name="ICHARG">     2</i>
    <i type="int" name="INIWAV">     1</i>
   </separator>
   <separator name="electronic spin" >
    <i type="int" name="ISPIN">     1</i>
    <i type="logical" name="LNONCOLLINEAR"> F  </i>
    <v name="MAGMOM">      1.00000000      1.00000000      1.00000000      1.00000000      1.00000000      1.00000000      1.00000000      1.00000000      1.00000000      1.00000000      1.00000000      1.00000000      1.00000000      1.00000000      1.00000000      1.00000000      1.00000000      1.00000000      1.00000000      1.00000000
      1.00000000      1.00000000      1.00000000      1.00000000      1.00000000      1.00000000      1.00000000      1.00000000      1.00000000      1.00000000      1.00000000      1.00000000      1.00000000      1.00000000      1.00000000      1.00000000      1.00000000      1.00000000      1.00000000      1.00000000
      1.00000000      1.00000000      1.00000000      1.00000000      1.00000000      1.00000000      1.00000000      1.00000000</v>
    <i name="NUPDOWN">     -1.00000000</i>
    <i type="logical" name="LSORBIT"> F  </i>
    <v name="SAXIS">      0.00000000      0.00000000      1.00000000</v>
    <i type="logical" name="LSPIRAL"> F  </i>
    <v name="QSPIRAL">      0.00000000      0.00000000      0.00000000</v>
    <i type="logical" name="LZEROZ"> F  </i>
   </separator>
   <separator name="electronic exchange-correlation" >
    <i type="logical" name="LASPH"> F  </i>
    <i type="logical" name="LMETAGGA"> F  </i>
   </separator>
   <separator name="electronic convergence" >
    <i type="int" name="NELM">   500</i>
    <i type="int" name="NELMDL">    -5</i>
    <i type="int" name="NELMIN">     2</i>
    <i name="ENINI">    400.00000000</i>
    <separator name="electronic convergence detail" >
     <i type="logical" name="LDIAG"> T  </i>
     <i type="logical" name="LSUBROT"> F  </i>
     <i name="WEIMIN">      0.00100000</i>
     <i name="EBREAK">      0.00000000</i>
     <i name="DEPER">      0.30000000</i>
     <i type="int" name="NRMM">     4</i>
     <i name="TIME">      0.40000000</i>
    </separator>
   </separator>
   <separator name="electronic mixer" >
    <i name="AMIX">      0.40000000</i>
    <i name="BMIX">      1.00000000</i>
    <i name="AMIN">      0.10000000</i>
    <i name="AMIX_MAG">      1.60000000</i>
    <i name="BMIX_MAG">      1.00000000</i>
    <separator name="electronic mixer details" >
     <i type="int" name="IMIX">     4</i>
     <i type="logical" name="MIXFIRST"> F  </i>
     <i type="int" name="MAXMIX">   -45</i>
     <i name="WC">    100.00000000</i>
     <i type="int" name="INIMIX">     1</i>
     <i type="int" name="MIXPRE">     1</i>
     <i type="int" name="MREMOVE">     5</i>
    </separator>
   </separator>
   <separator name="electronic dipolcorrection" >
    <i type="logical" name="LDIPOL"> T  </i>
    <i type="logical" name="LMONO"> F  </i>
    <i type="int" name="IDIPOL">     3</i>
    <i name="EPSILON">      1.00000000</i>
    <v name="DIPOL">      0.00000000      0.00000000      0.50000000</v>
    <i name="EFIELD">      0.00000000</i>
   </separator>
  </separator>
  <separator name="grids" >
   <i type="int" name="NGX">    54</i>
   <i type="int" name="NGY">    54</i>
   <i type="int" name="NGZ">   120</i>
   <i type="int" name="NGXF">   108</i>
   <i type="int" name="NGYF">   108</i>
   <i type="int" name="NGZF">   240</i>
   <i type="logical" name="ADDGRID"> F  </i>
  </separator>
  <separator name="ionic" >
   <i type="int" name="NSW">   500</i>
   <i type="int" name="IBRION">     2</i>
   <i type="int" name="ISIF">     0</i>
   <i name="PSTRESS">      0.00000000</i>
   <i name="EDIFFG">     -0.02000000</i>
   <i type="int" name="NFREE">     2</i>
   <i name="POTIM">      0.35000000</i>
   <i name="SMASS">     -3.00000000</i>
   <i name="SCALEE">      1.00000000</i>
  </separator>
  <separator name="ionic md" >
   <i name="TEBEG">      0.00010000</i>
   <i name="TEEND">      0.00010000</i>
   <i type="int" name="NBLOCK">     1</i>
   <i type="int" name="KBLOCK">   500</i>
   <i type="int" name="NPACO">   256</i>
   <i name="APACO">     16.00000000</i>
  </separator>
  <separator name="symmetry" >
   <i type="int" name="ISYM">     2</i>
   <i name="SYMPREC">      0.00001000</i>
  </separator>
  <separator name="dos" >
   <i type="logical" name="LORBIT"> F  </i>
   <v name="RWIGS">     -1.00000000     -1.00000000</v>
   <i type="int" name="NEDOS">   301</i>
   <i name="EMIN">     10.00000000</i>
   <i name="EMAX">    -10.00000000</i>
   <i name="EFERMI">      0.00000000</i>
  </separator>
  <separator name="writing" >
   <i type="int" name="NWRITE">     1</i>
   <i type="logical" name="LWAVE"> F  </i>
   <i type="logical" name="LCHARG"> F  </i>
   <i type="logical" name="LPARD"> F  </i>
   <i type="logical" name="LVTOT"> F  </i>
   <i type="logical" name="LVHAR"> F  </i>
   <i type="logical" name="LELF"> F  </i>
   <i type="logical" name="LOPTICS"> F  </i>
   <v name="STM">      0.00000000      0.00000000      0.00000000      0.00000000      0.00000000      0.00000000      0.00000000</v>
  </separator>
  <separator name="performance" >
   <i type="int" name="NPAR">     6</i>
   <i type="int" name="NSIM">     4</i>
   <i type="int" name="NBLK">    -1</i>
   <i type="logical" name="LPLANE"> T  </i>
   <i type="logical" name="LSCALAPACK"> T  </i>
   <i type="logical" name="LSCAAWARE"> F  </i>
   <i type="logical" name="LSCALU"> F  </i>
   <i type="logical" name="LASYNC"> F  </i>
   <i type="logical" name="LORBITALREAL"> F  </i>
  </separator>
  <separator name="miscellaneous" >
   <i type="int" name="IDIOT">     3</i>
   <i type="logical" name="LMUSIC"> F  </i>
   <v name="POMASS">    196.96600000    106.42000000</v>
   <v name="DARWINR">      0.00000000      0.00000000</v>
   <v name="DARWINV">      1.00000000      1.00000000</v>
   <i type="logical" name="LCORR"> T  </i>
  </separator>
  <i type="logical" name="GGA_COMPAT"> T  </i>
  <i type="logical" name="LBERRY"> F  </i>
  <i type="int" name="ICORELEVEL">     0</i>
  <i type="logical" name="LDAU"> F  </i>
  <i type="int" name="I_CONSTRAINED_M">     0</i>
  <separator name="electronic exchange-correlation" >
   <i type="string" name="GGA">PE</i>
   <i type="int" name="VOSKOWN">     1</i>
   <i type="logical" name="LHFCALC"> F  </i>
   <i type="string" name="PRECFOCK"></i>
   <i type="logical" name="LSYMGRAD"> F  </i>
   <i type="logical" name="LHFONE"> F  </i>
   <i type="logical" name="LRHFCALC"> F  </i>
   <i type="logical" name="LTHOMAS"> F  </i>
   <i type="logical" name="LMODELHF"> F  </i>
   <i name="ENCUT4O">     -1.00000000</i>
   <i type="int" name="EXXOEP">     0</i>
   <i type="int" name="FOURORBIT">     0</i>
   <i name="AEXX">      0.00000000</i>
   <i name="HFALPHA">      0.00000000</i>
   <i name="MCALPHA">      0.00000000</i>
   <i name="ALDAX">      1.00000000</i>
   <i name="AGGAX">      1.00000000</i>
   <i name="ALDAC">      1.00000000</i>
   <i name="AGGAC">      1.00000000</i>
   <i type="int" name="NKREDX">     1</i>
   <i type="int" name="NKREDY">     1</i>
   <i type="int" name="NKREDZ">     1</i>
   <i type="logical" name="SHIFTRED"> F  </i>
   <i type="logical" name="ODDONLY"> F  </i>
   <i type="logical" name="EVENONLY"> F  </i>
   <i type="int" name="LMAXFOCK">     0</i>
   <i type="int" name="NMAXFOCKAE">     0</i>
   <i type="logical" name="LFOCKAEDFT"> F  </i>
   <i name="HFSCREEN">      0.00000000</i>
   <i name="HFSCREENC">      0.00000000</i>
   <i type="int" name="NBANDSGWLOW">     0</i>
  </separator>
  <separator name="vdW DFT" >
   <i type="logical" name="LUSE_VDW"> F  </i>
   <i name="Zab_VDW">     -0.84910000</i>
   <i name="PARAM1">      0.12340000</i>
   <i name="PARAM2">      1.00000000</i>
   <i name="PARAM3">      0.00000000</i>
  </separator>
  <separator name="model GW" >
   <i type="int" name="MODEL_GW">     0</i>
   <i name="MODEL_EPS0">     32.09595293</i>
   <i name="MODEL_ALPHA">      1.00000000</i>
  </separator>
  <separator name="linear response parameters" >
   <i type="logical" name="LEPSILON"> F  </i>
   <i type="logical" name="LRPA"> F  </i>
   <i type="logical" name="LNABLA"> F  </i>
   <i type="logical" name="LVEL"> F  </i>
   <i type="int" name="KINTER">     0</i>
   <i name="CSHIFT">      0.10000000</i>
   <i name="OMEGAMAX">     -1.00000000</i>
   <i name="DEG_THRESHOLD">      0.00200000</i>
  </separator>
  <separator name="orbital magnetization" >
   <i type="logical" name="NUCIND"> F  </i>
   <v name="MAGPOS">      0.00000000      0.00000000      0.00000000</v>
   <i type="logical" name="LNICSALL"> T  </i>
   <i type="logical" name="ORBITALMAG"> F  </i>
   <i type="logical" name="LMAGBLOCH"> F  </i>
   <i type="logical" name="LCHIMAG"> F  </i>
   <i type="logical" name="LGAUGE"> T  </i>
   <i type="int" name="MAGATOM">     0</i>
   <v name="MAGDIPOL">      0.00000000      0.00000000      0.00000000</v>
   <v name="AVECCONST">      0.00000000      0.00000000      0.00000000</v>
  </separator>
  <separator name="response functions" >
   <i type="logical" name="LADDER"> F  </i>
   <i type="logical" name="LFXC"> F  </i>
   <i type="logical" name="LHARTREE"> T  </i>
   <i type="int" name="IBSE">     0</i>
   <v type="int" name="KPOINT">    -1     0     0     0</v>
   <i type="logical" name="LTCTE"> F  </i>
   <i type="logical" name="LTETE"> F  </i>
   <i type="logical" name="LTRIPLET"> F  </i>
   <i type="logical" name="LFXCEPS"> F  </i>
   <i type="logical" name="LFXHEG"> F  </i>
   <i type="int" name="NATURALO">     0</i>
   <i type="logical" name="L2ORDER"> F  </i>
   <i type="logical" name="LUSEW"> F  </i>
   <i name="ENCUTGW">     -2.00000000</i>
   <i name="ENCUTGWSOFT">     -2.00000000</i>
   <i name="ENCUTLF">     -1.00000000</i>
   <i type="int" name="LMAXMP2">    -1</i>
   <i name="SCISSOR">      0.00000000</i>
   <i type="int" name="NOMEGA">     0</i>
   <i type="int" name="NOMEGAR">     0</i>
   <i type="int" name="NBANDSGW">    -1</i>
   <i type="int" name="NBANDSO">    -1</i>
   <i type="int" name="NBANDSV">    -1</i>
   <i type="int" name="NELM">   500</i>
   <i type="int" name="NELMHF">     1</i>
   <i type="int" name="DIM">     3</i>
   <i type="int" name="ANTIRES">     0</i>
   <i name="OMEGAMAX">    -30.00000000</i>
   <i name="OMEGAMIN">    -30.00000000</i>
   <i name="OMEGATL">   -200.00000000</i>
   <i type="int" name="OMEGAGRID">     0</i>
   <i name="CSHIFT">     -0.10000000</i>
   <i type="logical" name="SELFENERGY"> F  </i>
   <i type="logical" name="LSPECTRAL"> F  </i>
   <i type="logical" name="LSPECTRALGW"> F  </i>
   <i type="logical" name="LSINGLES"> F  </i>
   <i type="logical" name="LFERMIGW"> F  </i>
   <i type="logical" name="ODDONLYGW"> F  </i>
   <i type="logical" name="EVENONLYGW"> F  </i>
   <i type="int" name="NKREDLFX">     1</i>
   <i type="int" name="NKREDLFY">     1</i>
   <i type="int" name="NKREDLFZ">     1</i>
   <i type="int" name="MAXMEM">  1800</i>
   <i type="int" name="TELESCOPE">     0</i>
   <i type="int" name="TAUPAR">     1</i>
   <i type="int" name="OMEGAPAR">    -1</i>
   <i name="LAMBDA">      1.00000000</i>
  </separator>
  <separator name="External order field" >
   <i name="OFIELD_KAPPA">      0.00000000</i>
   <v name="OFIELD_K">      0.00000000      0.00000000      0.00000000</v>
   <i name="OFIELD_Q6_NEAR">      0.00000000</i>
   <i name="OFIELD_Q6_FAR">      0.00000000</i>
   <i name="OFIELD_A">      0.00000000</i>
  </separator>
 </parameters>
 <atominfo>
  <atoms>      48 </atoms>
  <types>       2 </types>
  <array name="atoms" >
   <dimension dim="1">ion</dimension>
   <field type="string">element</field>
   <field type="int">atomtype</field>
   <set>
    <rc><c>Au</c><c>   1</c></rc>
    <rc><c>Au</c><c>   1</c></rc>
    <rc><c>Au</c><c>   1</c></rc>
    <rc><c>Au</c><c>   1</c></rc>
    <rc><c>Au</c><c>   1</c></rc>
    <rc><c>Au</c><c>   1</c></rc>
    <rc><c>Au</c><c>   1</c></rc>
    <rc><c>Au</c><c>   1</c></rc>
    <rc><c>Au</c><c>   1</c></rc>
    <rc><c>Au</c><c>   1</c></rc>
    <rc><c>Au</c><c>   1</c></rc>
    <rc><c>Au</c><c>   1</c></rc>
    <rc><c>Au</c><c>   1</c></rc>
    <rc><c>Au</c><c>   1</c></rc>
    <rc><c>Au</c><c>   1</c></rc>
    <rc><c>Au</c><c>   1</c></rc>
    <rc><c>Au</c><c>   1</c></rc>
    <rc><c>Au</c><c>   1</c></rc>
    <rc><c>Au</c><c>   1</c></rc>
    <rc><c>Au</c><c>   1</c></rc>
    <rc><c>Au</c><c>   1</c></rc>
    <rc><c>Au</c><c>   1</c></rc>
    <rc><c>Au</c><c>   1</c></rc>
    <rc><c>Au</c><c>   1</c></rc>
    <rc><c>Pd</c><c>   2</c></rc>
    <rc><c>Pd</c><c>   2</c></rc>
    <rc><c>Pd</c><c>   2</c></rc>
    <rc><c>Pd</c><c>   2</c></rc>
    <rc><c>Pd</c><c>   2</c></rc>
    <rc><c>Pd</c><c>   2</c></rc>
    <rc><c>Pd</c><c>   2</c></rc>
    <rc><c>Pd</c><c>   2</c></rc>
    <rc><c>Pd</c><c>   2</c></rc>
    <rc><c>Pd</c><c>   2</c></rc>
    <rc><c>Pd</c><c>   2</c></rc>
    <rc><c>Pd</c><c>   2</c></rc>
    <rc><c>Pd</c><c>   2</c></rc>
    <rc><c>Pd</c><c>   2</c></rc>
    <rc><c>Pd</c><c>   2</c></rc>
    <rc><c>Pd</c><c>   2</c></rc>
    <rc><c>Pd</c><c>   2</c></rc>
    <rc><c>Pd</c><c>   2</c></rc>
    <rc><c>Pd</c><c>   2</c></rc>
    <rc><c>Pd</c><c>   2</c></rc>
    <rc><c>Pd</c><c>   2</c></rc>
    <rc><c>Pd</c><c>   2</c></rc>
    <rc><c>Pd</c><c>   2</c></rc>
    <rc><c>Pd</c><c>   2</c></rc>
   </set>
  </array>
  <array name="atomtypes" >
   <dimension dim="1">type</dimension>
   <field type="int">atomspertype</field>
   <field type="string">element</field>
   <field>mass</field>
   <field>valence</field>
   <field type="string">pseudopotential</field>
   <set>
    <rc><c>  24</c><c>Au</c><c>    196.96600000</c><c>     11.00000000</c><c>  PAW_PBE Au 04Oct2007                  </c></rc>
    <rc><c>  24</c><c>Pd</c><c>    106.42000000</c><c>     10.00000000</c><c>  PAW_PBE Pd 04Jan2005                  </c></rc>
   </set>
  </array>
 </atominfo>
 <structure name="initialpos" >
  <crystal>
   <varray name="basis" >
    <v>      11.00258152       0.00000000       0.00000000 </v>
    <v>       5.50129076       9.52851510       0.00000000 </v>
    <v>       0.00000000       0.00000000      24.49178509 </v>
   </varray>
   <i name="volume">   2567.67623402 </i>
   <varray name="rec_basis" >
    <v>       0.09088776      -0.05247407       0.00000000 </v>
    <v>       0.00000000       0.10494815       0.00000000 </v>
    <v>       0.00000000       0.00000000       0.04083002 </v>
   </varray>
  </crystal>
  <varray name="positions" >
   <v>       0.08333333       0.08333333       0.40830017 </v>
   <v>       0.41666667       0.66666667       0.50000000 </v>
   <v>       0.50000000       0.50000000       0.59169983 </v>
   <v>       0.58333333       0.83333333       0.40830017 </v>
   <v>       0.41666667       0.91666667       0.50000000 </v>
   <v>       0.83333333       0.08333333       0.40830017 </v>
   <v>       0.33333333       0.83333333       0.40830017 </v>
   <v>       0.66666667       0.16666667       0.50000000 </v>
   <v>       0.75000000       0.00000000       0.59169983 </v>
   <v>       0.83333333       0.33333333       0.40830017 </v>
   <v>       0.25000000       0.25000000       0.59169983 </v>
   <v>       0.66666667       0.41666667       0.50000000 </v>
   <v>       0.25000000       0.00000000       0.59169983 </v>
   <v>       0.50000000       0.25000000       0.59169983 </v>
   <v>       0.91666667       0.16666667       0.50000000 </v>
   <v>       0.00000000       0.00000000       0.59169983 </v>
   <v>       0.00000000       0.75000000       0.59169983 </v>
   <v>       0.91666667       0.91666667       0.50000000 </v>
   <v>       0.08333333       0.83333333       0.40830017 </v>
   <v>       0.00000000       0.50000000       0.59169983 </v>
   <v>       0.91666667       0.66666667       0.50000000 </v>
   <v>       0.08333333       0.33333333       0.40830017 </v>
   <v>       0.00000000       0.25000000       0.59169983 </v>
   <v>       0.83333333       0.83333333       0.40830017 </v>
   <v>       0.83333333       0.58333333       0.40830017 </v>
   <v>       0.66666667       0.66666667       0.50000000 </v>
   <v>       0.75000000       0.25000000       0.59169983 </v>
   <v>       0.58333333       0.58333333       0.40830017 </v>
   <v>       0.50000000       0.75000000       0.59169983 </v>
   <v>       0.75000000       0.50000000       0.59169983 </v>
   <v>       0.25000000       0.75000000       0.59169983 </v>
   <v>       0.58333333       0.33333333       0.40830017 </v>
   <v>       0.91666667       0.41666667       0.50000000 </v>
   <v>       0.08333333       0.58333333       0.40830017 </v>
   <v>       0.33333333       0.08333333       0.40830017 </v>
   <v>       0.16666667       0.16666667       0.50000000 </v>
   <v>       0.33333333       0.33333333       0.40830017 </v>
   <v>       0.16666667       0.41666667       0.50000000 </v>
   <v>       0.41666667       0.41666667       0.50000000 </v>
   <v>       0.33333333       0.58333333       0.40830017 </v>
   <v>       0.25000000       0.50000000       0.59169983 </v>
   <v>       0.16666667       0.91666667       0.50000000 </v>
   <v>       0.66666667       0.91666667       0.50000000 </v>
   <v>       0.58333333       0.08333333       0.40830017 </v>
   <v>       0.41666667       0.16666667       0.50000000 </v>
   <v>       0.50000000       0.00000000       0.59169983 </v>
   <v>       0.16666667       0.66666667       0.50000000 </v>
   <v>       0.75000000       0.75000000       0.59169983 </v>
  </varray>
 </structure>
 <calculation>
  <scstep>
   <time name="dav">   10.16   10.21</time>
   <time name="total">   10.23   10.28</time>
   <dipole>
    <v name="dipole">      0.00000000       0.00000000      -0.00000074 </v>
    <i name="Tr[quadrupol]"> -10171.39742150 </i>
    <i name="Echarged">      0.00000000 </i>
    <i name="Edipol_quadrupol">      0.00000000 </i>
    <i name="Eion">      0.00000000 </i>
   </dipole>
   <energy>
    <i name="alphaZ">    805.86936440 </i>
    <i name="ewald"> 199934.00853516 </i>
    <i name="hartreedc">-242347.60982691 </i>
    <i name="XCdc">   -327.69067687 </i>
    <i name="pawpsdc">  40340.05962942 </i>
    <i name="pawaedc"> -38292.62782345 </i>
    <i name="eentropy">     -0.13271094 </i>
    <i name="bandstr">   1429.47379949 </i>
    <i name="atom">  41659.78587232 </i>
    <i name="e_fr_energy">   3201.13616262 </i>
    <i name="e_wo_entrp">   3201.26887356 </i>
    <i name="e_0_energy">   3201.20251809 </i>
   </energy>
  </scstep>
  <scstep>
   <time name="dav">   10.98   11.07</time>
   <time name="total">   10.99   11.07</time>
   <dipole>
    <v name="dipole">      0.00000000       0.00000000      -0.00000074 </v>
    <i name="Tr[quadrupol]"> -10171.39742150 </i>
    <i name="Echarged">      0.00000000 </i>
    <i name="Edipol_quadrupol">      0.00000000 </i>
    <i name="Eion">      0.00000000 </i>
   </dipole>
   <energy>
    <i name="e_fr_energy">     13.60167369 </i>
    <i name="e_wo_entrp">     13.72616462 </i>
    <i name="e_0_energy">     13.66391916 </i>
   </energy>
  </scstep>
  <scstep>
   <time name="dav">   10.66   10.67</time>
   <time name="total">   10.66   10.68</time>
   <dipole>
    <v name="dipole">      0.00000000       0.00000000      -0.00000074 </v>
    <i name="Tr[quadrupol]"> -10171.39742150 </i>
    <i name="Echarged">      0.00000000 </i>
    <i name="Edipol_quadrupol">      0.00000000 </i>
    <i name="Eion">      0.00000000 </i>
   </dipole>
   <energy>
    <i name="e_fr_energy">   -201.41850058 </i>
    <i name="e_wo_entrp">   -201.23866158 </i>
    <i name="e_0_energy">   -201.32858108 </i>
   </energy>
  </scstep>
  <scstep>
   <time name="dav">   10.92   10.92</time>
   <time name="total">   10.92   10.93</time>
   <dipole>
    <v name="dipole">      0.00000000       0.00000000      -0.00000074 </v>
    <i name="Tr[quadrupol]"> -10171.39742150 </i>
    <i name="Echarged">      0.00000000 </i>
    <i name="Edipol_quadrupol">      0.00000000 </i>
    <i name="Eion">      0.00000000 </i>
   </dipole>
   <energy>
    <i name="e_fr_energy">   -207.16801750 </i>
    <i name="e_wo_entrp">   -206.97178841 </i>
    <i name="e_0_energy">   -207.06990295 </i>
   </energy>
  </scstep>
  <scstep>
   <time name="dav">   11.26   11.27</time>
   <time name="total">   11.58   11.59</time>
   <dipole>
    <v name="dipole">      0.00000000       0.00000000      -0.00000074 </v>
    <i name="Tr[quadrupol]"> -10171.39742150 </i>
    <i name="Echarged">      0.00000000 </i>
    <i name="Edipol_quadrupol">      0.00000000 </i>
    <i name="Eion">      0.00000000 </i>
   </dipole>
   <energy>
    <i name="e_fr_energy">   -207.35339491 </i>
    <i name="e_wo_entrp">   -207.15711497 </i>
    <i name="e_0_energy">   -207.25525494 </i>
   </energy>
  </scstep>
  <scstep>
   <time name="diag">    1.65    1.66</time>
   <time name="diis">    4.25    4.33</time>
   <time name="orth">    0.41    0.41</time>
   <time name="total">    6.68    6.76</time>
   <dipole>
    <v name="dipole">      0.00000000       0.00000000      -0.33055410 </v>
    <i name="Tr[quadrupol]"> -10173.46302428 </i>
    <i name="Echarged">      0.00000000 </i>
    <i name="Edipol_quadrupol">      0.00000000 </i>
    <i name="Eion">      0.00000000 </i>
   </dipole>
   <energy>
    <i name="e_fr_energy">   -202.10071193 </i>
    <i name="e_wo_entrp">   -201.82012488 </i>
    <i name="e_0_energy">   -201.96041840 </i>
   </energy>
  </scstep>
  <scstep>
   <time name="diag">    1.86    1.86</time>
   <time name="diis">    4.80    4.82</time>
   <time name="orth">    0.41    0.41</time>
   <time name="total">    7.43    7.47</time>
   <dipole>
    <v name="dipole">      0.00000000       0.00000000       0.88246645 </v>
    <i name="Tr[quadrupol]"> -10171.48559392 </i>
    <i name="Echarged">      0.00000000 </i>
    <i name="Edipol_quadrupol">      0.00000000 </i>
    <i name="Eion">      0.00000000 </i>
   </dipole>
   <energy>
    <i name="e_fr_energy">   -207.00827220 </i>
    <i name="e_wo_entrp">   -206.76752572 </i>
    <i name="e_0_energy">   -206.88789896 </i>
   </energy>
  </scstep>
  <scstep>
   <time name="diag">    1.64    1.64</time>
   <time name="diis">    4.41    4.41</time>
   <time name="orth">    0.41    0.41</time>
   <time name="total">    6.83    6.84</time>
   <dipole>
    <v name="dipole">      0.00000000       0.00000000      -2.02482405 </v>
    <i name="Tr[quadrupol]"> -10173.02383397 </i>
    <i name="Echarged">      0.00000000 </i>
    <i name="Edipol_quadrupol">      0.00000000 </i>
    <i name="Eion">      0.00000000 </i>
   </dipole>
   <energy>
    <i name="e_fr_energy">   -227.97303074 </i>
    <i name="e_wo_entrp">   -227.69145468 </i>
    <i name="e_0_energy">   -227.83224271 </i>
   </energy>
  </scstep>
  <scstep>
   <time name="diag">    1.67    1.68</time>
   <time name="diis">    4.41    4.41</time>
   <time name="orth">    0.41    0.41</time>
   <time name="total">    6.86    6.86</time>
   <dipole>
    <v name="dipole">      0.00000000       0.00000000       0.71389039 </v>
    <i name="Tr[quadrupol]"> -10174.32719110 </i>
    <i name="Echarged">      0.00000000 </i>
    <i name="Edipol_quadrupol">      0.00000000 </i>
    <i name="Eion">      0.00000000 </i>
   </dipole>
   <energy>
    <i name="e_fr_energy">   -211.29001608 </i>
    <i name="e_wo_entrp">   -211.07077676 </i>
    <i name="e_0_energy">   -211.18039642 </i>
   </energy>
  </scstep>
  <scstep>
   <time name="diag">    1.66    1.66</time>
   <time name="diis">    4.43    4.43</time>
   <time name="orth">    0.40    0.41</time>
   <time name="total">    6.86    6.87</time>
   <dipole>
    <v name="dipole">      0.00000000       0.00000000      -0.21218218 </v>
    <i name="Tr[quadrupol]"> -10172.77594360 </i>
    <i name="Echarged">      0.00000000 </i>
    <i name="Edipol_quadrupol">      0.00000000 </i>
    <i name="Eion">      0.00000000 </i>
   </dipole>
   <energy>
    <i name="e_fr_energy">   -195.34932230 </i>
    <i name="e_wo_entrp">   -195.19026292 </i>
    <i name="e_0_energy">   -195.26979261 </i>
   </energy>
  </scstep>
  <scstep>
   <time name="diag">    1.67    1.67</time>
   <time name="diis">    4.43    4.43</time>
   <time name="orth">    0.40    0.40</time>
   <time name="total">    6.86    6.87</time>
   <dipole>
    <v name="dipole">      0.00000000       0.00000000       0.02652117 </v>
    <i name="Tr[quadrupol]"> -10173.93801722 </i>
    <i name="Echarged">      0.00000000 </i>
    <i name="Edipol_quadrupol">      0.00000000 </i>
    <i name="Eion">      0.00000000 </i>
   </dipole>
   <energy>
    <i name="e_fr_energy">   -191.55482252 </i>
    <i name="e_wo_entrp">   -191.31858558 </i>
    <i name="e_0_energy">   -191.43670405 </i>
   </energy>
  </scstep>
  <scstep>
   <time name="diag">    1.63    1.63</time>
   <time name="diis">    4.23    4.31</time>
   <time name="orth">    0.40    0.40</time>
   <time name="total">    6.63    6.71</time>
   <dipole>
    <v name="dipole">      0.00000000       0.00000000       0.05547136 </v>
    <i name="Tr[quadrupol]"> -10174.16154144 </i>
    <i name="Echarged">      0.00000000 </i>
    <i name="Edipol_quadrupol">      0.00000000 </i>
    <i name="Eion">      0.00000000 </i>
   </dipole>
   <energy>
    <i name="e_fr_energy">   -189.79036396 </i>
    <i name="e_wo_entrp">   -189.55264308 </i>
    <i name="e_0_energy">   -189.67150352 </i>
   </energy>
  </scstep>
  <scstep>
   <time name="diag">    1.66    1.66</time>
   <time name="diis">    4.36    4.36</time>
   <time name="orth">    0.40    0.40</time>
   <time name="total">    6.78    6.79</time>
   <dipole>
    <v name="dipole">      0.00000000       0.00000000       0.00679259 </v>
    <i name="Tr[quadrupol]"> -10174.61434452 </i>
    <i name="Echarged">      0.00000000 </i>
    <i name="Edipol_quadrupol">      0.00000000 </i>
    <i name="Eion">      0.00000000 </i>
   </dipole>
   <energy>
    <i name="e_fr_energy">   -189.23434124 </i>
    <i name="e_wo_entrp">   -188.98967254 </i>
    <i name="e_0_energy">   -189.11200689 </i>
   </energy>
  </scstep>
  <scstep>
   <time name="diag">    1.65    1.65</time>
   <time name="diis">    4.41    4.42</time>
   <time name="orth">    0.40    0.40</time>
   <time name="total">    6.83    6.84</time>
   <dipole>
    <v name="dipole">      0.00000000       0.00000000      -0.02006113 </v>
    <i name="Tr[quadrupol]"> -10174.64920930 </i>
    <i name="Echarged">      0.00000000 </i>
    <i name="Edipol_quadrupol">      0.00000000 </i>
    <i name="Eion">      0.00000000 </i>
   </dipole>
   <energy>
    <i name="e_fr_energy">   -189.17864774 </i>
    <i name="e_wo_entrp">   -188.92951200 </i>
    <i name="e_0_energy">   -189.05407987 </i>
   </energy>
  </scstep>
  <scstep>
   <time name="diag">    1.67    1.67</time>
   <time name="diis">    4.39    4.41</time>
   <time name="orth">    0.47    0.48</time>
   <time name="total">    7.04    7.07</time>
   <dipole>
    <v name="dipole">      0.00000000       0.00000000      -0.02286677 </v>
    <i name="Tr[quadrupol]"> -10174.80269005 </i>
    <i name="Echarged">      0.00000000 </i>
    <i name="Edipol_quadrupol">      0.00000000 </i>
    <i name="Eion">      0.00000000 </i>
   </dipole>
   <energy>
    <i name="e_fr_energy">   -189.01420469 </i>
    <i name="e_wo_entrp">   -188.75884603 </i>
    <i name="e_0_energy">   -188.88652536 </i>
   </energy>
  </scstep>
  <scstep>
   <time name="diag">    1.97    1.99</time>
   <time name="diis">    4.34    4.35</time>
   <time name="orth">    0.40    0.40</time>
   <time name="total">    7.09    7.12</time>
   <dipole>
    <v name="dipole">      0.00000000       0.00000000      -0.03897128 </v>
    <i name="Tr[quadrupol]"> -10175.23850856 </i>
    <i name="Echarged">      0.00000000 </i>
    <i name="Edipol_quadrupol">      0.00000000 </i>
    <i name="Eion">      0.00000000 </i>
   </dipole>
   <energy>
    <i name="e_fr_energy">   -188.94652878 </i>
    <i name="e_wo_entrp">   -188.68168501 </i>
    <i name="e_0_energy">   -188.81410689 </i>
   </energy>
  </scstep>
  <scstep>
   <time name="diag">    1.67    1.67</time>
   <time name="diis">    4.45    4.45</time>
   <time name="orth">    0.40    0.40</time>
   <time name="total">    6.87    6.88</time>
   <dipole>
    <v name="dipole">      0.00000000       0.00000000      -0.04818041 </v>
    <i name="Tr[quadrupol]"> -10175.55559754 </i>
    <i name="Echarged">      0.00000000 </i>
    <i name="Edipol_quadrupol">      0.00000000 </i>
    <i name="Eion">      0.00000000 </i>
   </dipole>
   <energy>
    <i name="e_fr_energy">   -188.87209104 </i>
    <i name="e_wo_entrp">   -188.62569803 </i>
    <i name="e_0_energy">   -188.74889454 </i>
   </energy>
  </scstep>
  <scstep>
   <time name="diag">    1.61    1.68</time>
   <time name="diis">    4.41    4.42</time>
   <time name="orth">    0.40    0.40</time>
   <time name="total">    6.79    6.86</time>
   <dipole>
    <v name="dipole">      0.00000000       0.00000000      -0.02521475 </v>
    <i name="Tr[quadrupol]"> -10175.76888476 </i>
    <i name="Echarged">      0.00000000 </i>
    <i name="Edipol_quadrupol">      0.00000000 </i>
    <i name="Eion">      0.00000000 </i>
   </dipole>
   <energy>
    <i name="e_fr_energy">   -188.81321923 </i>
    <i name="e_wo_entrp">   -188.54647790 </i>
    <i name="e_0_energy">   -188.67984857 </i>
   </energy>
  </scstep>
  <scstep>
   <time name="diag">    1.66    1.66</time>
   <time name="diis">    4.39    4.40</time>
   <time name="orth">    0.40    0.40</time>
   <time name="total">    6.82    6.83</time>
   <dipole>
    <v name="dipole">      0.00000000       0.00000000      -0.01163038 </v>
    <i name="Tr[quadrupol]"> -10175.86776913 </i>
    <i name="Echarged">      0.00000000 </i>
    <i name="Edipol_quadrupol">      0.00000000 </i>
    <i name="Eion">      0.00000000 </i>
   </dipole>
   <energy>
    <i name="e_fr_energy">   -188.80262169 </i>
    <i name="e_wo_entrp">   -188.54005973 </i>
    <i name="e_0_energy">   -188.67134071 </i>
   </energy>
  </scstep>
  <scstep>
   <time name="diag">    1.63    1.63</time>
   <time name="diis">    4.43    4.43</time>
   <time name="orth">    0.40    0.41</time>
   <time name="total">    6.82    6.84</time>
   <dipole>
    <v name="dipole">      0.00000000       0.00000000      -0.00315659 </v>
    <i name="Tr[quadrupol]"> -10175.92645969 </i>
    <i name="Echarged">      0.00000000 </i>
    <i name="Edipol_quadrupol">      0.00000000 </i>
    <i name="Eion">      0.00000000 </i>
   </dipole>
   <energy>
    <i name="e_fr_energy">   -188.79696501 </i>
    <i name="e_wo_entrp">   -188.53352860 </i>
    <i name="e_0_energy">   -188.66524681 </i>
   </energy>
  </scstep>
  <scstep>
   <time name="diag">    1.67    1.68</time>
   <time name="diis">    4.25    4.36</time>
   <time name="orth">    0.40    0.40</time>
   <time name="total">    6.68    6.79</time>
   <dipole>
    <v name="dipole">      0.00000000       0.00000000      -0.00395170 </v>
    <i name="Tr[quadrupol]"> -10175.99669563 </i>
    <i name="Echarged">      0.00000000 </i>
    <i name="Edipol_quadrupol">      0.00000000 </i>
    <i name="Eion">      0.00000000 </i>
   </dipole>
   <energy>
    <i name="e_fr_energy">   -188.79615760 </i>
    <i name="e_wo_entrp">   -188.53257973 </i>
    <i name="e_0_energy">   -188.66436867 </i>
   </energy>
  </scstep>
  <scstep>
   <time name="diag">    1.64    1.64</time>
   <time name="diis">    4.42    4.42</time>
   <time name="orth">    0.40    0.40</time>
   <time name="total">    6.83    6.83</time>
   <dipole>
    <v name="dipole">      0.00000000       0.00000000      -0.00667956 </v>
    <i name="Tr[quadrupol]"> -10176.11021354 </i>
    <i name="Echarged">      0.00000000 </i>
    <i name="Edipol_quadrupol">      0.00000000 </i>
    <i name="Eion">      0.00000000 </i>
   </dipole>
   <energy>
    <i name="e_fr_energy">   -188.79484061 </i>
    <i name="e_wo_entrp">   -188.53162995 </i>
    <i name="e_0_energy">   -188.66323528 </i>
   </energy>
  </scstep>
  <scstep>
   <time name="diag">    1.66    1.66</time>
   <time name="diis">    4.41    4.42</time>
   <time name="orth">    0.40    0.40</time>
   <time name="total">    6.84    6.87</time>
   <dipole>
    <v name="dipole">      0.00000000       0.00000000      -0.00582986 </v>
    <i name="Tr[quadrupol]"> -10176.20658660 </i>
    <i name="Echarged">      0.00000000 </i>
    <i name="Edipol_quadrupol">      0.00000000 </i>
    <i name="Eion">      0.00000000 </i>
   </dipole>
   <energy>
    <i name="e_fr_energy">   -188.79420083 </i>
    <i name="e_wo_entrp">   -188.52989835 </i>
    <i name="e_0_energy">   -188.66204959 </i>
   </energy>
  </scstep>
  <scstep>
   <time name="diag">    1.60    1.65</time>
   <time name="diis">    4.62    4.63</time>
   <time name="orth">    0.48    0.48</time>
   <time name="total">    7.19    7.26</time>
   <dipole>
    <v name="dipole">      0.00000000       0.00000000      -0.00361869 </v>
    <i name="Tr[quadrupol]"> -10176.31195065 </i>
    <i name="Echarged">      0.00000000 </i>
    <i name="Edipol_quadrupol">      0.00000000 </i>
    <i name="Eion">      0.00000000 </i>
   </dipole>
   <energy>
    <i name="e_fr_energy">   -188.79406077 </i>
    <i name="e_wo_entrp">   -188.52965530 </i>
    <i name="e_0_energy">   -188.66185804 </i>
   </energy>
  </scstep>
  <scstep>
   <time name="diag">    1.88    1.89</time>
   <time name="diis">    4.39    4.39</time>
   <time name="orth">    0.40    0.40</time>
   <time name="total">    7.05    7.07</time>
   <dipole>
    <v name="dipole">      0.00000000       0.00000000      -0.00256913 </v>
    <i name="Tr[quadrupol]"> -10176.36197488 </i>
    <i name="Echarged">      0.00000000 </i>
    <i name="Edipol_quadrupol">      0.00000000 </i>
    <i name="Eion">      0.00000000 </i>
   </dipole>
   <energy>
    <i name="e_fr_energy">   -188.79415765 </i>
    <i name="e_wo_entrp">   -188.52934465 </i>
    <i name="e_0_energy">   -188.66175115 </i>
   </energy>
  </scstep>
  <scstep>
   <time name="diag">    1.64    1.64</time>
   <time name="diis">    4.40    4.40</time>
   <time name="orth">    0.40    0.40</time>
   <time name="total">    6.80    6.81</time>
   <dipole>
    <v name="dipole">      0.00000000       0.00000000      -0.00131641 </v>
    <i name="Tr[quadrupol]"> -10176.49248582 </i>
    <i name="Echarged">      0.00000000 </i>
    <i name="Edipol_quadrupol">      0.00000000 </i>
    <i name="Eion">      0.00000000 </i>
   </dipole>
   <energy>
    <i name="e_fr_energy">   -188.79471072 </i>
    <i name="e_wo_entrp">   -188.52962594 </i>
    <i name="e_0_energy">   -188.66216833 </i>
   </energy>
  </scstep>
  <scstep>
   <time name="diag">    1.66    1.66</time>
   <time name="diis">    4.43    4.43</time>
   <time name="orth">    0.39    0.39</time>
   <time name="total">    6.86    6.87</time>
   <dipole>
    <v name="dipole">      0.00000000       0.00000000      -0.00120777 </v>
    <i name="Tr[quadrupol]"> -10176.53869542 </i>
    <i name="Echarged">      0.00000000 </i>
    <i name="Edipol_quadrupol">      0.00000000 </i>
    <i name="Eion">      0.00000000 </i>
   </dipole>
   <energy>
    <i name="e_fr_energy">   -188.79505029 </i>
    <i name="e_wo_entrp">   -188.52988671 </i>
    <i name="e_0_energy">   -188.66246850 </i>
   </energy>
  </scstep>
  <scstep>
   <time name="diag">    1.63    1.63</time>
   <time name="diis">    4.33    4.35</time>
   <time name="orth">    0.40    0.40</time>
   <time name="total">    6.72    6.75</time>
   <dipole>
    <v name="dipole">      0.00000000       0.00000000      -0.00125239 </v>
    <i name="Tr[quadrupol]"> -10176.60262981 </i>
    <i name="Echarged">      0.00000000 </i>
    <i name="Edipol_quadrupol">      0.00000000 </i>
    <i name="Eion">      0.00000000 </i>
   </dipole>
   <energy>
    <i name="e_fr_energy">   -188.79560858 </i>
    <i name="e_wo_entrp">   -188.53060978 </i>
    <i name="e_0_energy">   -188.66310918 </i>
   </energy>
  </scstep>
  <scstep>
   <time name="diag">    1.67    1.71</time>
   <time name="diis">    4.08    4.59</time>
   <time name="orth">    0.39    0.39</time>
   <time name="total">    6.51    7.07</time>
   <dipole>
    <v name="dipole">      0.00000000       0.00000000      -0.00061194 </v>
    <i name="Tr[quadrupol]"> -10176.65252112 </i>
    <i name="Echarged">      0.00000000 </i>
    <i name="Edipol_quadrupol">      0.00000000 </i>
    <i name="Eion">      0.00000000 </i>
   </dipole>
   <energy>
    <i name="e_fr_energy">   -188.79612634 </i>
    <i name="e_wo_entrp">   -188.53106494 </i>
    <i name="e_0_energy">   -188.66359564 </i>
   </energy>
  </scstep>
  <scstep>
   <time name="diag">    1.64    1.64</time>
   <time name="diis">    4.38    4.38</time>
   <time name="orth">    0.39    0.39</time>
   <time name="total">    6.78    6.79</time>
   <dipole>
    <v name="dipole">      0.00000000       0.00000000       0.00014929 </v>
    <i name="Tr[quadrupol]"> -10176.72059924 </i>
    <i name="Echarged">      0.00000000 </i>
    <i name="Edipol_quadrupol">      0.00000000 </i>
    <i name="Eion">      0.00000000 </i>
   </dipole>
   <energy>
    <i name="e_fr_energy">   -188.79687218 </i>
    <i name="e_wo_entrp">   -188.53174778 </i>
    <i name="e_0_energy">   -188.66430998 </i>
   </energy>
  </scstep>
  <scstep>
   <time name="diag">    1.66    1.66</time>
   <time name="diis">    3.97    3.97</time>
   <time name="orth">    0.39    0.39</time>
   <time name="total">    6.40    6.40</time>
   <dipole>
    <v name="dipole">      0.00000000       0.00000000       0.00067667 </v>
    <i name="Tr[quadrupol]"> -10176.75819651 </i>
    <i name="Echarged">      0.00000000 </i>
    <i name="Edipol_quadrupol">      0.00000000 </i>
    <i name="Eion">      0.00000000 </i>
   </dipole>
   <energy>
    <i name="e_fr_energy">   -188.79725087 </i>
    <i name="e_wo_entrp">   -188.53215985 </i>
    <i name="e_0_energy">   -188.66470536 </i>
   </energy>
  </scstep>
  <scstep>
   <time name="diag">    1.62    1.62</time>
   <time name="diis">    3.44    3.44</time>
   <time name="orth">    0.40    0.40</time>
   <time name="total">    5.83    5.84</time>
   <dipole>
    <v name="dipole">      0.00000000       0.00000000       0.00087767 </v>
    <i name="Tr[quadrupol]"> -10176.77596271 </i>
    <i name="Echarged">      0.00000000 </i>
    <i name="Edipol_quadrupol">      0.00000000 </i>
    <i name="Eion">      0.00000000 </i>
   </dipole>
   <energy>
    <i name="e_fr_energy">   -188.79741814 </i>
    <i name="e_wo_entrp">   -188.53234979 </i>
    <i name="e_0_energy">   -188.66488396 </i>
   </energy>
  </scstep>
  <scstep>
   <time name="diag">    1.66    1.66</time>
   <time name="diis">    3.17    3.18</time>
   <time name="orth">    0.47    0.47</time>
   <time name="total">    5.79    5.81</time>
   <dipole>
    <v name="dipole">      0.00000000       0.00000000       0.00103527 </v>
    <i name="Tr[quadrupol]"> -10176.78530224 </i>
    <i name="Echarged">      0.00000000 </i>
    <i name="Edipol_quadrupol">      0.00000000 </i>
    <i name="Eion">      0.00000000 </i>
   </dipole>
   <energy>
    <i name="e_fr_energy">   -188.79750507 </i>
    <i name="e_wo_entrp">   -188.53243996 </i>
    <i name="e_0_energy">   -188.66497251 </i>
   </energy>
  </scstep>
  <scstep>
   <time name="diag">    1.99    1.99</time>
   <time name="diis">    2.81    2.81</time>
   <time name="orth">    0.39    0.39</time>
   <time name="total">    5.58    5.58</time>
   <dipole>
    <v name="dipole">      0.00000000       0.00000000       0.00121470 </v>
    <i name="Tr[quadrupol]"> -10176.79360445 </i>
    <i name="Echarged">      0.00000000 </i>
    <i name="Edipol_quadrupol">      0.00000000 </i>
    <i name="Eion">      0.00000000 </i>
   </dipole>
   <energy>
    <i name="e_fr_energy">   -188.79758325 </i>
    <i name="e_wo_entrp">   -188.53250276 </i>
    <i name="e_0_energy">   -188.66504301 </i>
   </energy>
  </scstep>
  <scstep>
   <time name="diag">    1.65    1.65</time>
   <time name="diis">    2.74    2.74</time>
   <time name="orth">    0.39    0.39</time>
   <time name="total">    5.16    5.17</time>
   <dipole>
    <v name="dipole">      0.00000000       0.00000000       0.00141721 </v>
    <i name="Tr[quadrupol]"> -10176.80154466 </i>
    <i name="Echarged">      0.00000000 </i>
    <i name="Edipol_quadrupol">      0.00000000 </i>
    <i name="Eion">      0.00000000 </i>
   </dipole>
   <energy>
    <i name="e_fr_energy">   -188.79765466 </i>
    <i name="e_wo_entrp">   -188.53257712 </i>
    <i name="e_0_energy">   -188.66511589 </i>
   </energy>
  </scstep>
  <scstep>
   <time name="diag">    1.62    1.62</time>
   <time name="diis">    2.62    2.66</time>
   <time name="orth">    0.39    0.41</time>
   <time name="total">    4.99    5.06</time>
   <dipole>
    <v name="dipole">      0.00000000       0.00000000       0.00149477 </v>
    <i name="Tr[quadrupol]"> -10176.80505652 </i>
    <i name="Echarged">      0.00000000 </i>
    <i name="Edipol_quadrupol">      0.00000000 </i>
    <i name="Eion">      0.00000000 </i>
   </dipole>
   <energy>
    <i name="e_fr_energy">   -188.79767964 </i>
    <i name="e_wo_entrp">   -188.53260560 </i>
    <i name="e_0_energy">   -188.66514262 </i>
   </energy>
  </scstep>
  <scstep>
   <time name="diag">    1.65    1.66</time>
   <time name="diis">    2.65    2.66</time>
   <time name="orth">    0.38    0.39</time>
   <time name="total">    5.06    5.07</time>
   <dipole>
    <v name="dipole">      0.00000000       0.00000000       0.00159640 </v>
    <i name="Tr[quadrupol]"> -10176.80939562 </i>
    <i name="Echarged">      0.00000000 </i>
    <i name="Edipol_quadrupol">      0.00000000 </i>
    <i name="Eion">      0.00000000 </i>
   </dipole>
   <energy>
    <i name="e_fr_energy">   -188.79770305 </i>
    <i name="e_wo_entrp">   -188.53262393 </i>
    <i name="e_0_energy">   -188.66516349 </i>
   </energy>
  </scstep>
  <scstep>
   <time name="diag">    1.63    1.63</time>
   <time name="diis">    2.39    2.39</time>
   <time name="orth">    0.39    0.39</time>
   <time name="total">    4.78    4.78</time>
   <dipole>
    <v name="dipole">      0.00000000       0.00000000       0.00165385 </v>
    <i name="Tr[quadrupol]"> -10176.81219648 </i>
    <i name="Echarged">      0.00000000 </i>
    <i name="Edipol_quadrupol">      0.00000000 </i>
    <i name="Eion">      0.00000000 </i>
   </dipole>
   <energy>
    <i name="e_fr_energy">   -188.79771267 </i>
    <i name="e_wo_entrp">   -188.53264008 </i>
    <i name="e_0_energy">   -188.66517638 </i>
   </energy>
  </scstep>
  <scstep>
   <time name="diag">    1.64    1.64</time>
   <time name="diis">    2.33    2.33</time>
   <time name="orth">    0.38    0.38</time>
   <time name="total">    4.72    4.73</time>
   <dipole>
    <v name="dipole">      0.00000000       0.00000000       0.00171998 </v>
    <i name="Tr[quadrupol]"> -10176.81534238 </i>
    <i name="Echarged">      0.00000000 </i>
    <i name="Edipol_quadrupol">      0.00000000 </i>
    <i name="Eion">      0.00000000 </i>
   </dipole>
   <energy>
    <i name="e_fr_energy">   -188.79771786 </i>
    <i name="e_wo_entrp">   -188.53264356 </i>
    <i name="e_0_energy">   -188.66518071 </i>
   </energy>
  </scstep>
  <scstep>
   <time name="diag">    1.62    1.62</time>
   <time name="diis">    2.05    2.05</time>
   <time name="orth">    0.38    0.39</time>
   <time name="total">    4.11    4.11</time>
   <dipole>
    <v name="dipole">      0.00000000       0.00000000       0.00174368 </v>
    <i name="Tr[quadrupol]"> -10176.81677551 </i>
    <i name="Echarged">      0.00000000 </i>
    <i name="Edipol_quadrupol">      0.00000000 </i>
    <i name="Eion">      0.00000000 </i>
   </dipole>
   <energy>
    <i name="alphaZ">    805.86908819 </i>
    <i name="ewald"> 199934.00853516 </i>
    <i name="hartreedc">-242124.41128773 </i>
    <i name="XCdc">   -343.54815957 </i>
    <i name="pawpsdc">  49337.15720162 </i>
    <i name="pawaedc"> -47415.47810063 </i>
    <i name="eentropy">     -0.26507428 </i>
    <i name="bandstr">  -2041.91579381 </i>
    <i name="atom">  41659.78587232 </i>
    <i name="e_fr_energy">   -188.79771873 </i>
    <i name="e_wo_entrp">   -188.53264445 </i>
    <i name="e_0_energy">   -188.66518159 </i>
   </energy>
  </scstep>
  <structure>
   <crystal>
    <varray name="basis" >
     <v>      11.00258152       0.00000000       0.00000000 </v>
     <v>       5.50129076       9.52851510       0.00000000 </v>
     <v>       0.00000000       0.00000000      24.49178509 </v>
    </varray>
    <i name="volume">   2567.67623402 </i>
    <varray name="rec_basis" >
     <v>       0.09088776      -0.05247407       0.00000000 </v>
     <v>       0.00000000       0.10494815       0.00000000 </v>
     <v>       0.00000000       0.00000000       0.04083002 </v>
    </varray>
   </crystal>
   <varray name="positions" >
    <v>       0.08333333       0.08333333       0.40830017 </v>
    <v>       0.41666667       0.66666667       0.50000000 </v>
    <v>       0.50000000       0.50000000       0.59169983 </v>
    <v>       0.58333333       0.83333333       0.40830017 </v>
    <v>       0.41666667       0.91666667       0.50000000 </v>
    <v>       0.83333333       0.08333333       0.40830017 </v>
    <v>       0.33333333       0.83333333       0.40830017 </v>
    <v>       0.66666667       0.16666667       0.50000000 </v>
    <v>       0.75000000       0.00000000       0.59169983 </v>
    <v>       0.83333333       0.33333333       0.40830017 </v>
    <v>       0.25000000       0.25000000       0.59169983 </v>
    <v>       0.66666667       0.41666667       0.50000000 </v>
    <v>       0.25000000       0.00000000       0.59169983 </v>
    <v>       0.50000000       0.25000000       0.59169983 </v>
    <v>       0.91666667       0.16666667       0.50000000 </v>
    <v>       0.00000000       0.00000000       0.59169983 </v>
    <v>       0.00000000       0.75000000       0.59169983 </v>
    <v>       0.91666667       0.91666667       0.50000000 </v>
    <v>       0.08333333       0.83333333       0.40830017 </v>
    <v>       0.00000000       0.50000000       0.59169983 </v>
    <v>       0.91666667       0.66666667       0.50000000 </v>
    <v>       0.08333333       0.33333333       0.40830017 </v>
    <v>       0.00000000       0.25000000       0.59169983 </v>
    <v>       0.83333333       0.83333333       0.40830017 </v>
    <v>       0.83333333       0.58333333       0.40830017 </v>
    <v>       0.66666667       0.66666667       0.50000000 </v>
    <v>       0.75000000       0.25000000       0.59169983 </v>
    <v>       0.58333333       0.58333333       0.40830017 </v>
    <v>       0.50000000       0.75000000       0.59169983 </v>
    <v>       0.75000000       0.50000000       0.59169983 </v>
    <v>       0.25000000       0.75000000       0.59169983 </v>
    <v>       0.58333333       0.33333333       0.40830017 </v>
    <v>       0.91666667       0.41666667       0.50000000 </v>
    <v>       0.08333333       0.58333333       0.40830017 </v>
    <v>       0.33333333       0.08333333       0.40830017 </v>
    <v>       0.16666667       0.16666667       0.50000000 </v>
    <v>       0.33333333       0.33333333       0.40830017 </v>
    <v>       0.16666667       0.41666667       0.50000000 </v>
    <v>       0.41666667       0.41666667       0.50000000 </v>
    <v>       0.33333333       0.58333333       0.40830017 </v>
    <v>       0.25000000       0.50000000       0.59169983 </v>
    <v>       0.16666667       0.91666667       0.50000000 </v>
    <v>       0.66666667       0.91666667       0.50000000 </v>
    <v>       0.58333333       0.08333333       0.40830017 </v>
    <v>       0.41666667       0.16666667       0.50000000 </v>
    <v>       0.50000000       0.00000000       0.59169983 </v>
    <v>       0.16666667       0.66666667       0.50000000 </v>
    <v>       0.75000000       0.75000000       0.59169983 </v>
   </varray>
  </structure>
  <varray name="forces" >
   <v>       0.39182802      -0.04595374      -1.39681134 </v>
   <v>      -0.29263341      -0.05882268       0.05701804 </v>
   <v>      -0.01393656       0.15466329       1.53629612 </v>
   <v>       0.13681632      -0.05175734      -1.35576861 </v>
   <v>       0.35925380       0.34346455       0.30593511 </v>
   <v>      -0.41232035       0.22403494      -1.89185672 </v>
   <v>      -0.00745176      -0.14146577      -1.56076812 </v>
   <v>      -0.68871645       0.22325316      -0.29151662 </v>
   <v>      -0.41226349      -0.08140117       1.59241984 </v>
   <v>      -0.08747896       0.49658995      -1.62283031 </v>
   <v>       0.26666826       0.03739309       1.11768069 </v>
   <v>       0.14345594       0.33922876      -0.02647177 </v>
   <v>       0.12441103      -0.34801754       1.34257010 </v>
   <v>      -0.16571370       0.07335500       1.37867546 </v>
   <v>       0.37491243       0.15880873       0.31779436 </v>
   <v>       0.17597488      -0.11728803       1.61795302 </v>
   <v>       0.26824741      -0.30762962       1.58100109 </v>
   <v>       0.12136947      -0.30930120       0.02442031 </v>
   <v>       0.13441366      -0.51780926      -1.39879406 </v>
   <v>      -0.13120441       0.05786336       1.30239970 </v>
   <v>      -0.34405221      -0.37053432      -0.22650594 </v>
   <v>       0.36354516       0.19566461      -1.07611072 </v>
   <v>      -0.18245535       0.29802687       1.36825819 </v>
   <v>      -0.27931141      -0.14275081      -1.58972051 </v>
   <v>      -0.08798898      -0.03092722      -0.67718652 </v>
   <v>       0.21770613      -0.12089481       0.23487308 </v>
   <v>       0.07760203       0.15189148       1.04057907 </v>
   <v>       0.01492304      -0.12102417      -0.84971884 </v>
   <v>       0.27383937      -0.01453443       0.80271920 </v>
   <v>       0.01587237       0.15643326       0.69769060 </v>
   <v>      -0.03966793      -0.10756481       0.71859545 </v>
   <v>      -0.31281194       0.14755686      -0.83353376 </v>
   <v>       0.08105825       0.28335720      -0.01315502 </v>
   <v>       0.17418471      -0.17892956      -0.64841913 </v>
   <v>       0.24765121       0.25165818      -0.66529772 </v>
   <v>       0.30228366       0.12652068      -0.21729316 </v>
   <v>       0.12694956      -0.07123682      -0.41969269 </v>
   <v>       0.39342945      -0.08586478      -0.30227385 </v>
   <v>      -0.58368295       0.07003069      -0.41517552 </v>
   <v>      -0.10484653      -0.29634451      -0.65364458 </v>
   <v>       0.11308639       0.11731787       0.57526336 </v>
   <v>       0.04368732      -0.20920071       0.14997837 </v>
   <v>      -0.37349884       0.07039002       0.15658066 </v>
   <v>      -0.20436032       0.26124661      -0.70940254 </v>
   <v>      -0.06515482       0.07669916      -0.39003834 </v>
   <v>       0.06859740      -0.21949995       0.69478142 </v>
   <v>       0.22998092      -0.40194649      -0.05050154 </v>
   <v>      -0.45219781       0.03525144       0.66900470 </v>
  </varray>
  <energy>
   <i name="e_fr_energy">   -188.79771873 </i>
   <i name="e_wo_entrp">   -188.66518159 </i>
   <i name="e_0_energy">     -0.26507428 </i>
  </energy>
  <time name="totalsc">  281.29  282.85</time>
 </calculation>
 <calculation>
  <scstep>
   <time name="dav">    9.32    9.34</time>
   <time name="total">    9.69    9.71</time>
   <dipole>
    <v name="dipole">      0.00000000       0.00000000       0.00176607 </v>
    <i name="Tr[quadrupol]"> -10196.04681998 </i>
    <i name="Echarged">      0.00000000 </i>
    <i name="Edipol_quadrupol">      0.00000000 </i>
    <i name="Eion">      0.00000000 </i>
   </dipole>
   <energy>
    <i name="alphaZ">    805.86908000 </i>
    <i name="ewald"> 197257.51378456 </i>
    <i name="hartreedc">-239463.81162237 </i>
    <i name="XCdc">   -345.74111996 </i>
    <i name="pawpsdc">  49337.15338938 </i>
    <i name="pawaedc"> -47415.47426445 </i>
    <i name="eentropy">     -0.26450511 </i>
    <i name="bandstr">  -2024.92082352 </i>
    <i name="atom">  41659.78587232 </i>
    <i name="e_fr_energy">   -189.89020915 </i>
    <i name="e_wo_entrp">   -189.62570404 </i>
    <i name="e_0_energy">   -189.75795659 </i>
   </energy>
  </scstep>
  <scstep>
   <time name="diag">    1.65    1.65</time>
   <time name="diis">    4.41    4.41</time>
   <time name="orth">    0.39    0.39</time>
   <time name="total">    6.81    6.81</time>
   <dipole>
    <v name="dipole">      0.00000000       0.00000000       0.00238633 </v>
    <i name="Tr[quadrupol]"> -10195.78883063 </i>
    <i name="Echarged">      0.00000000 </i>
    <i name="Edipol_quadrupol">      0.00000000 </i>
    <i name="Eion">      0.00000000 </i>
   </dipole>
   <energy>
    <i name="e_fr_energy">   -190.27878615 </i>
    <i name="e_wo_entrp">   -190.01768123 </i>
    <i name="e_0_energy">   -190.14823369 </i>
   </energy>
  </scstep>
  <scstep>
   <time name="diag">    1.58    1.66</time>
   <time name="diis">    4.86    4.88</time>
   <time name="orth">    0.49    0.49</time>
   <time name="total">    7.42    7.52</time>
   <dipole>
    <v name="dipole">      0.00000000       0.00000000      -0.00355932 </v>
    <i name="Tr[quadrupol]"> -10196.26986304 </i>
    <i name="Echarged">      0.00000000 </i>
    <i name="Edipol_quadrupol">      0.00000000 </i>
    <i name="Eion">      0.00000000 </i>
   </dipole>
   <energy>
    <i name="e_fr_energy">   -190.43870543 </i>
    <i name="e_wo_entrp">   -190.17744096 </i>
    <i name="e_0_energy">   -190.30807320 </i>
   </energy>
  </scstep>
  <scstep>
   <time name="diag">    1.74    1.75</time>
   <time name="diis">    4.39    4.39</time>
   <time name="orth">    0.39    0.39</time>
   <time name="total">    6.89    6.91</time>
   <dipole>
    <v name="dipole">      0.00000000       0.00000000       0.00071839 </v>
    <i name="Tr[quadrupol]"> -10196.16563357 </i>
    <i name="Echarged">      0.00000000 </i>
    <i name="Edipol_quadrupol">      0.00000000 </i>
    <i name="Eion">      0.00000000 </i>
   </dipole>
   <energy>
    <i name="e_fr_energy">   -190.26626207 </i>
    <i name="e_wo_entrp">   -190.00296255 </i>
    <i name="e_0_energy">   -190.13461231 </i>
   </energy>
  </scstep>
  <scstep>
   <time name="diag">    1.65    1.65</time>
   <time name="diis">    4.34    4.34</time>
   <time name="orth">    0.39    0.39</time>
   <time name="total">    6.75    6.76</time>
   <dipole>
    <v name="dipole">      0.00000000       0.00000000      -0.01368251 </v>
    <i name="Tr[quadrupol]"> -10196.11206366 </i>
    <i name="Echarged">      0.00000000 </i>
    <i name="Edipol_quadrupol">      0.00000000 </i>
    <i name="Eion">      0.00000000 </i>
   </dipole>
   <energy>
    <i name="e_fr_energy">   -190.29759950 </i>
    <i name="e_wo_entrp">   -190.03473196 </i>
    <i name="e_0_energy">   -190.16616573 </i>
   </energy>
  </scstep>
  <scstep>
   <time name="diag">    1.65    1.65</time>
   <time name="diis">    4.42    4.43</time>
   <time name="orth">    0.39    0.39</time>
   <time name="total">    6.82    6.83</time>
   <dipole>
    <v name="dipole">      0.00000000       0.00000000       0.04064585 </v>
    <i name="Tr[quadrupol]"> -10196.12188263 </i>
    <i name="Echarged">      0.00000000 </i>
    <i name="Edipol_quadrupol">      0.00000000 </i>
    <i name="Eion">      0.00000000 </i>
   </dipole>
   <energy>
    <i name="e_fr_energy">   -190.26982907 </i>
    <i name="e_wo_entrp">   -190.00198045 </i>
    <i name="e_0_energy">   -190.13590476 </i>
   </energy>
  </scstep>
  <scstep>
   <time name="diag">    1.63    1.63</time>
   <time name="diis">    4.31    4.32</time>
   <time name="orth">    0.39    0.39</time>
   <time name="total">    6.69    6.70</time>
   <dipole>
    <v name="dipole">      0.00000000       0.00000000      -0.01526019 </v>
    <i name="Tr[quadrupol]"> -10196.10905548 </i>
    <i name="Echarged">      0.00000000 </i>
    <i name="Edipol_quadrupol">      0.00000000 </i>
    <i name="Eion">      0.00000000 </i>
   </dipole>
   <energy>
    <i name="e_fr_energy">   -190.24639410 </i>
    <i name="e_wo_entrp">   -189.98503900 </i>
    <i name="e_0_energy">   -190.11571655 </i>
   </energy>
  </scstep>
  <scstep>
   <time name="diag">    1.65    1.65</time>
   <time name="diis">    4.37    4.39</time>
   <time name="orth">    0.37    0.40</time>
   <time name="total">    6.75    6.83</time>
   <dipole>
    <v name="dipole">      0.00000000       0.00000000       0.00596483 </v>
    <i name="Tr[quadrupol]"> -10196.09202766 </i>
    <i name="Echarged">      0.00000000 </i>
    <i name="Edipol_quadrupol">      0.00000000 </i>
    <i name="Eion">      0.00000000 </i>
   </dipole>
   <energy>
    <i name="e_fr_energy">   -190.24275151 </i>
    <i name="e_wo_entrp">   -189.97558213 </i>
    <i name="e_0_energy">   -190.10916682 </i>
   </energy>
  </scstep>
  <scstep>
   <time name="diag">    1.65    1.65</time>
   <time name="diis">    4.41    4.41</time>
   <time name="orth">    0.39    0.39</time>
   <time name="total">    6.80    6.81</time>
   <dipole>
    <v name="dipole">      0.00000000       0.00000000       0.00126997 </v>
    <i name="Tr[quadrupol]"> -10196.07515352 </i>
    <i name="Echarged">      0.00000000 </i>
    <i name="Edipol_quadrupol">      0.00000000 </i>
    <i name="Eion">      0.00000000 </i>
   </dipole>
   <energy>
    <i name="e_fr_energy">   -190.24105793 </i>
    <i name="e_wo_entrp">   -189.97654028 </i>
    <i name="e_0_energy">   -190.10879911 </i>
   </energy>
  </scstep>
  <scstep>
   <time name="diag">    1.65    1.65</time>
   <time name="diis">    4.39    4.39</time>
   <time name="orth">    0.39    0.39</time>
   <time name="total">    6.79    6.79</time>
   <dipole>
    <v name="dipole">      0.00000000       0.00000000       0.00099585 </v>
    <i name="Tr[quadrupol]"> -10196.06881572 </i>
    <i name="Echarged">      0.00000000 </i>
    <i name="Edipol_quadrupol">      0.00000000 </i>
    <i name="Eion">      0.00000000 </i>
   </dipole>
   <energy>
    <i name="e_fr_energy">   -190.24090301 </i>
    <i name="e_wo_entrp">   -189.97522695 </i>
    <i name="e_0_energy">   -190.10806498 </i>
   </energy>
  </scstep>
  <scstep>
   <time name="diag">    1.63    1.63</time>
   <time name="diis">    4.33    4.34</time>
   <time name="orth">    0.39    0.39</time>
   <time name="total">    6.72    6.72</time>
   <dipole>
    <v name="dipole">      0.00000000       0.00000000       0.00144029 </v>
    <i name="Tr[quadrupol]"> -10196.06647918 </i>
    <i name="Echarged">      0.00000000 </i>
    <i name="Edipol_quadrupol">      0.00000000 </i>
    <i name="Eion">      0.00000000 </i>
   </dipole>
   <energy>
    <i name="e_fr_energy">   -190.24072128 </i>
    <i name="e_wo_entrp">   -189.97557993 </i>
    <i name="e_0_energy">   -190.10815061 </i>
   </energy>
  </scstep>
  <scstep>
   <time name="diag">    1.64    1.64</time>
   <time name="diis">    4.92    4.96</time>
   <time name="orth">    0.39    0.39</time>
   <time name="total">    7.31    7.35</time>
   <dipole>
    <v name="dipole">      0.00000000       0.00000000       0.00141255 </v>
    <i name="Tr[quadrupol]"> -10196.06830474 </i>
    <i name="Echarged">      0.00000000 </i>
    <i name="Edipol_quadrupol">      0.00000000 </i>
    <i name="Eion">      0.00000000 </i>
   </dipole>
   <energy>
    <i name="e_fr_energy">   -190.24071018 </i>
    <i name="e_wo_entrp">   -189.97536071 </i>
    <i name="e_0_energy">   -190.10803544 </i>
   </energy>
  </scstep>
  <scstep>
   <time name="diag">    1.65    1.65</time>
   <time name="diis">    4.43    4.43</time>
   <time name="orth">    0.39    0.39</time>
   <time name="total">    6.83    6.84</time>
   <dipole>
    <v name="dipole">      0.00000000       0.00000000       0.00150329 </v>
    <i name="Tr[quadrupol]"> -10196.07149930 </i>
    <i name="Echarged">      0.00000000 </i>
    <i name="Edipol_quadrupol">      0.00000000 </i>
    <i name="Eion">      0.00000000 </i>
   </dipole>
   <energy>
    <i name="e_fr_energy">   -190.24069113 </i>
    <i name="e_wo_entrp">   -189.97541636 </i>
    <i name="e_0_energy">   -190.10805375 </i>
   </energy>
  </scstep>
  <scstep>
   <time name="diag">    1.65    1.65</time>
   <time name="diis">    4.21    4.30</time>
   <time name="orth">    0.39    0.39</time>
   <time name="total">    6.62    6.70</time>
   <dipole>
    <v name="dipole">      0.00000000       0.00000000       0.00158664 </v>
    <i name="Tr[quadrupol]"> -10196.07489159 </i>
    <i name="Echarged">      0.00000000 </i>
    <i name="Edipol_quadrupol">      0.00000000 </i>
    <i name="Eion">      0.00000000 </i>
   </dipole>
   <energy>
    <i name="e_fr_energy">   -190.24068957 </i>
    <i name="e_wo_entrp">   -189.97534436 </i>
    <i name="e_0_energy">   -190.10801697 </i>
   </energy>
  </scstep>
  <scstep>
   <time name="diag">    1.64    1.64</time>
   <time name="diis">    3.74    3.74</time>
   <time name="orth">    0.39    0.39</time>
   <time name="total">    6.13    6.14</time>
   <dipole>
    <v name="dipole">      0.00000000       0.00000000       0.00155253 </v>
    <i name="Tr[quadrupol]"> -10196.07692002 </i>
    <i name="Echarged">      0.00000000 </i>
    <i name="Edipol_quadrupol">      0.00000000 </i>
    <i name="Eion">      0.00000000 </i>
   </dipole>
   <energy>
    <i name="e_fr_energy">   -190.24068631 </i>
    <i name="e_wo_entrp">   -189.97539360 </i>
    <i name="e_0_energy">   -190.10803996 </i>
   </energy>
  </scstep>
  <scstep>
   <time name="diag">    1.64    1.64</time>
   <time name="diis">    2.59    2.59</time>
   <time name="orth">    0.39    0.39</time>
   <time name="total">    4.67    4.68</time>
   <dipole>
    <v name="dipole">      0.00000000       0.00000000       0.00148362 </v>
    <i name="Tr[quadrupol]"> -10196.07898176 </i>
    <i name="Echarged">      0.00000000 </i>
    <i name="Edipol_quadrupol">      0.00000000 </i>
    <i name="Eion">      0.00000000 </i>
   </dipole>
   <energy>
    <i name="alphaZ">    805.86912548 </i>
    <i name="ewald"> 197257.51378456 </i>
    <i name="hartreedc">-239465.42517010 </i>
    <i name="XCdc">   -345.69022387 </i>
    <i name="pawpsdc">  48891.36686833 </i>
    <i name="pawaedc"> -46966.62193110 </i>
    <i name="eentropy">     -0.26527731 </i>
    <i name="bandstr">  -2026.77373545 </i>
    <i name="atom">  41659.78587232 </i>
    <i name="e_fr_energy">   -190.24068714 </i>
    <i name="e_wo_entrp">   -189.97540983 </i>
    <i name="e_0_energy">   -190.10804848 </i>
   </energy>
  </scstep>
  <structure>
   <crystal>
    <varray name="basis" >
     <v>      11.00258152       0.00000000       0.00000000 </v>
     <v>       5.50129076       9.52851510       0.00000000 </v>
     <v>       0.00000000       0.00000000      24.49178509 </v>
    </varray>
    <i name="volume">   2567.67623402 </i>
    <varray name="rec_basis" >
     <v>       0.09088776      -0.05247407       0.00000000 </v>
     <v>       0.00000000       0.10494815       0.00000000 </v>
     <v>       0.00000000       0.00000000       0.04083002 </v>
    </varray>
   </crystal>
   <varray name="positions" >
    <v>       0.08461739       0.08317047       0.40637421 </v>
    <v>       0.41587273       0.66645819       0.50007862 </v>
    <v>       0.49968316       0.50054814       0.59381811 </v>
    <v>       0.58384498       0.83314990       0.40643080 </v>
    <v>       0.41716068       0.91788393       0.50042183 </v>
    <v>       0.83167081       0.08412733       0.40569163 </v>
    <v>       0.33356115       0.83283197       0.40614814 </v>
    <v>       0.66415720       0.16745789       0.49959805 </v>
    <v>       0.74887890      -0.00028849       0.59389550 </v>
    <v>       0.83218486       0.33509329       0.40606257 </v>
    <v>       0.25075221       0.25013252       0.59324092 </v>
    <v>       0.66650584       0.41786892       0.49996350 </v>
    <v>       0.25099855      -0.00123340       0.59355100 </v>
    <v>       0.49936139       0.25025998       0.59360078 </v>
    <v>       0.91753596       0.16722950       0.50043818 </v>
    <v>       0.00074795      -0.00041568       0.59393070 </v>
    <v>       0.00136846       0.74890973       0.59387975 </v>
    <v>       0.91758728       0.91557048       0.50003367 </v>
    <v>       0.08466346       0.83149817       0.40637148 </v>
    <v>      -0.00050524       0.50020507       0.59349561 </v>
    <v>       0.91626728       0.66535346       0.49968769 </v>
    <v>       0.08410242       0.33402679       0.40681640 </v>
    <v>      -0.00108812       0.25105623       0.59358642 </v>
    <v>       0.83272901       0.83282741       0.40610822 </v>
    <v>       0.83311808       0.58322372       0.40736645 </v>
    <v>       0.66754910       0.66623821       0.50032385 </v>
    <v>       0.74996902       0.25053832       0.59313461 </v>
    <v>       0.58359360       0.58290441       0.40712856 </v>
    <v>       0.50086624       0.74994849       0.59280664 </v>
    <v>       0.74977151       0.50055441       0.59266182 </v>
    <v>       0.25006886       0.74961878       0.59269065 </v>
    <v>       0.58211175       0.33385629       0.40715087 </v>
    <v>       0.91641334       0.41767091       0.49998186 </v>
    <v>       0.08418502       0.58269919       0.40740611 </v>
    <v>       0.33364749       0.08422523       0.40738284 </v>
    <v>       0.16737026       0.16711507       0.49970039 </v>
    <v>       0.33384921       0.33308086       0.40772149 </v>
    <v>       0.16802636       0.41636235       0.49958322 </v>
    <v>       0.41475109       0.41691486       0.49942755 </v>
    <v>       0.33353667       0.58228306       0.40739891 </v>
    <v>       0.25013920       0.50041578       0.59249302 </v>
    <v>       0.16717147       0.91592524       0.50020679 </v>
    <v>       0.66539557       0.91691613       0.50021590 </v>
    <v>       0.58224316       0.08425921       0.40732203 </v>
    <v>       0.41633078       0.16693849       0.49946221 </v>
    <v>       0.50059951      -0.00077793       0.59265781 </v>
    <v>       0.16808481       0.66524213       0.49993037 </v>
    <v>       0.74854962       0.75012493       0.59262227 </v>
   </varray>
  </structure>
  <varray name="forces" >
   <v>       0.12470692      -0.00217266      -0.96471227 </v>
   <v>      -0.07916022       0.02118962       0.01834955 </v>
   <v>      -0.00205211       0.06655068       1.09149127 </v>
   <v>       0.00396546      -0.03177289      -0.97993115 </v>
   <v>       0.10528399       0.10249967       0.04990645 </v>
   <v>      -0.15102247       0.12032614      -1.25531072 </v>
   <v>       0.09844845      -0.10243739      -1.06498820 </v>
   <v>      -0.23084639       0.07168133      -0.07086318 </v>
   <v>      -0.16402906      -0.05678416       1.09211824 </v>
   <v>      -0.03882738       0.19108186      -1.15055897 </v>
   <v>       0.10502280       0.00044978       0.81204264 </v>
   <v>       0.00430281       0.12844287       0.00457317 </v>
   <v>       0.07999070      -0.15550463       0.99984576 </v>
   <v>      -0.05103373       0.06895215       0.99691206 </v>
   <v>       0.12675266       0.03499019       0.02498870 </v>
   <v>       0.02671972      -0.05767624       1.16650561 </v>
   <v>       0.07487383      -0.17565997       1.10346115 </v>
   <v>       0.00609193      -0.12312418      -0.01000203 </v>
   <v>       0.01890448      -0.24819530      -1.00773825 </v>
   <v>      -0.03651999       0.05502252       0.95102901 </v>
   <v>      -0.07457457      -0.10607248      -0.05787850 </v>
   <v>       0.18259894       0.14043569      -0.84113583 </v>
   <v>      -0.02487844       0.15358933       1.01800256 </v>
   <v>      -0.11017895      -0.05325002      -1.11034576 </v>
   <v>      -0.05284324      -0.02511125      -0.58837452 </v>
   <v>       0.03783578       0.01728314       0.07625217 </v>
   <v>      -0.03309154       0.06463823       0.69446564 </v>
   <v>      -0.03116609      -0.02214719      -0.63897873 </v>
   <v>       0.14011476      -0.03341910       0.61899444 </v>
   <v>      -0.02446153       0.10187086       0.58002116 </v>
   <v>       0.01501994      -0.08140776       0.59179351 </v>
   <v>      -0.17014974       0.13101582      -0.66019746 </v>
   <v>       0.10323543       0.05353973      -0.02780932 </v>
   <v>       0.09516140      -0.09517849      -0.53827704 </v>
   <v>       0.17611628       0.09737475      -0.55605106 </v>
   <v>       0.14489509       0.11053800      -0.03055872 </v>
   <v>       0.09845754      -0.05933829      -0.47097701 </v>
   <v>       0.15514348      -0.07725957      -0.07553538 </v>
   <v>      -0.27015547       0.01906705      -0.09964145 </v>
   <v>      -0.02292784      -0.21285887      -0.57791730 </v>
   <v>       0.06819100       0.05317510       0.45845576 </v>
   <v>       0.04937801      -0.07630814       0.01491229 </v>
   <v>      -0.08089864       0.01418114       0.02468423 </v>
   <v>      -0.14303624       0.13231456      -0.61888606 </v>
   <v>      -0.05826493       0.09726627      -0.11304125 </v>
   <v>       0.02489451      -0.09105189       0.60123438 </v>
   <v>       0.00397659      -0.16598442      -0.01842404 </v>
   <v>      -0.21996397       0.00523842       0.53809444 </v>
  </varray>
  <energy>
   <i name="e_fr_energy">   -190.24068714 </i>
   <i name="e_wo_entrp">   -190.10804848 </i>
   <i name="e_0_energy">     -0.26527731 </i>
  </energy>
  <time name="totalsc">  112.75  113.17</time>
 </calculation>
 <calculation>
  <scstep>
   <time name="dav">    9.36    9.37</time>
   <time name="total">    9.73    9.74</time>
   <dipole>
    <v name="dipole">      0.00000000       0.00000000       0.00150109 </v>
    <i name="Tr[quadrupol]"> -10254.18605110 </i>
    <i name="Echarged">      0.00000000 </i>
    <i name="Edipol_quadrupol">      0.00000000 </i>
    <i name="Eion">      0.00000000 </i>
   </dipole>
   <energy>
    <i name="alphaZ">    805.86911096 </i>
    <i name="ewald"> 189447.30992105 </i>
    <i name="hartreedc">-231695.99677130 </i>
    <i name="XCdc">   -351.11802570 </i>
    <i name="pawpsdc">  48891.31218096 </i>
    <i name="pawaedc"> -46966.56726986 </i>
    <i name="eentropy">     -0.25479662 </i>
    <i name="bandstr">  -1979.22322733 </i>
    <i name="atom">  41659.78587232 </i>
    <i name="e_fr_energy">   -188.88300554 </i>
    <i name="e_wo_entrp">   -188.62820892 </i>
    <i name="e_0_energy">   -188.75560723 </i>
   </energy>
  </scstep>
  <scstep>
   <time name="diag">    1.65    1.65</time>
   <time name="diis">    4.42    4.43</time>
   <time name="orth">    0.38    0.39</time>
   <time name="total">    6.82    6.83</time>
   <dipole>
    <v name="dipole">      0.00000000       0.00000000      -0.00791151 </v>
    <i name="Tr[quadrupol]"> -10253.33781837 </i>
    <i name="Echarged">      0.00000000 </i>
    <i name="Edipol_quadrupol">      0.00000000 </i>
    <i name="Eion">      0.00000000 </i>
   </dipole>
   <energy>
    <i name="e_fr_energy">   -192.25001410 </i>
    <i name="e_wo_entrp">   -192.01777654 </i>
    <i name="e_0_energy">   -192.13389532 </i>
   </energy>
  </scstep>
  <scstep>
   <time name="diag">    1.64    1.64</time>
   <time name="diis">    4.45    4.45</time>
   <time name="orth">    0.39    0.39</time>
   <time name="total">    6.84    6.85</time>
   <dipole>
    <v name="dipole">      0.00000000       0.00000000       0.05258201 </v>
    <i name="Tr[quadrupol]"> -10254.54814677 </i>
    <i name="Echarged">      0.00000000 </i>
    <i name="Edipol_quadrupol">      0.00000000 </i>
    <i name="Eion">      0.00000000 </i>
   </dipole>
   <energy>
    <i name="e_fr_energy">   -193.07843391 </i>
    <i name="e_wo_entrp">   -192.85181770 </i>
    <i name="e_0_energy">   -192.96512580 </i>
   </energy>
  </scstep>
  <scstep>
   <time name="diag">    1.59    1.66</time>
   <time name="diis">    4.63    4.65</time>
   <time name="orth">    0.47    0.47</time>
   <time name="total">    7.18    7.28</time>
   <dipole>
    <v name="dipole">      0.00000000       0.00000000      -0.01764825 </v>
    <i name="Tr[quadrupol]"> -10254.27653574 </i>
    <i name="Echarged">      0.00000000 </i>
    <i name="Edipol_quadrupol">      0.00000000 </i>
    <i name="Eion">      0.00000000 </i>
   </dipole>
   <energy>
    <i name="e_fr_energy">   -192.01127385 </i>
    <i name="e_wo_entrp">   -191.75969879 </i>
    <i name="e_0_energy">   -191.88548632 </i>
   </energy>
  </scstep>
  <scstep>
   <time name="diag">    1.89    1.90</time>
   <time name="diis">    4.41    4.41</time>
   <time name="orth">    0.39    0.39</time>
   <time name="total">    7.06    7.08</time>
   <dipole>
    <v name="dipole">      0.00000000       0.00000000       0.01054856 </v>
    <i name="Tr[quadrupol]"> -10254.27493087 </i>
    <i name="Echarged">      0.00000000 </i>
    <i name="Edipol_quadrupol">      0.00000000 </i>
    <i name="Eion">      0.00000000 </i>
   </dipole>
   <energy>
    <i name="e_fr_energy">   -192.16133206 </i>
    <i name="e_wo_entrp">   -191.89536025 </i>
    <i name="e_0_energy">   -192.02834616 </i>
   </energy>
  </scstep>
  <scstep>
   <time name="diag">    1.65    1.65</time>
   <time name="diis">    4.39    4.39</time>
   <time name="orth">    0.38    0.38</time>
   <time name="total">    6.79    6.80</time>
   <dipole>
    <v name="dipole">      0.00000000       0.00000000       0.04652846 </v>
    <i name="Tr[quadrupol]"> -10254.34139582 </i>
    <i name="Echarged">      0.00000000 </i>
    <i name="Edipol_quadrupol">      0.00000000 </i>
    <i name="Eion">      0.00000000 </i>
   </dipole>
   <energy>
    <i name="e_fr_energy">   -191.98632199 </i>
    <i name="e_wo_entrp">   -191.72707837 </i>
    <i name="e_0_energy">   -191.85670018 </i>
   </energy>
  </scstep>
  <scstep>
   <time name="diag">    1.64    1.64</time>
   <time name="diis">    4.42    4.43</time>
   <time name="orth">    0.38    0.38</time>
   <time name="total">    6.81    6.82</time>
   <dipole>
    <v name="dipole">      0.00000000       0.00000000      -0.06506399 </v>
    <i name="Tr[quadrupol]"> -10254.29515162 </i>
    <i name="Echarged">      0.00000000 </i>
    <i name="Edipol_quadrupol">      0.00000000 </i>
    <i name="Eion">      0.00000000 </i>
   </dipole>
   <energy>
    <i name="e_fr_energy">   -191.97771868 </i>
    <i name="e_wo_entrp">   -191.73251974 </i>
    <i name="e_0_energy">   -191.85511921 </i>
   </energy>
  </scstep>
  <scstep>
   <time name="diag">    1.63    1.63</time>
   <time name="diis">    4.26    4.27</time>
   <time name="orth">    0.38    0.38</time>
   <time name="total">    6.64    6.65</time>
   <dipole>
    <v name="dipole">      0.00000000       0.00000000       0.02722897 </v>
    <i name="Tr[quadrupol]"> -10254.21552118 </i>
    <i name="Echarged">      0.00000000 </i>
    <i name="Edipol_quadrupol">      0.00000000 </i>
    <i name="Eion">      0.00000000 </i>
   </dipole>
   <energy>
    <i name="e_fr_energy">   -191.92149959 </i>
    <i name="e_wo_entrp">   -191.65939396 </i>
    <i name="e_0_energy">   -191.79044678 </i>
   </energy>
  </scstep>
  <scstep>
   <time name="diag">    1.64    1.64</time>
   <time name="diis">    4.29    4.31</time>
   <time name="orth">    0.37    0.40</time>
   <time name="total">    6.67    6.75</time>
   <dipole>
    <v name="dipole">      0.00000000       0.00000000      -0.00484026 </v>
    <i name="Tr[quadrupol]"> -10254.17285288 </i>
    <i name="Echarged">      0.00000000 </i>
    <i name="Edipol_quadrupol">      0.00000000 </i>
    <i name="Eion">      0.00000000 </i>
[...]
       <r>    2.2866    0.0000 </r>
       <r>    2.3786    0.0000 </r>
       <r>    2.5291    0.0000 </r>
       <r>    2.6035    0.0000 </r>
       <r>    2.7282    0.0000 </r>
       <r>    3.0009    0.0000 </r>
       <r>    3.1518    0.0000 </r>
       <r>    3.1899    0.0000 </r>
       <r>    3.4766    0.0000 </r>
       <r>    3.6291    0.0000 </r>
       <r>    3.7771    0.0000 </r>
       <r>    3.9695    0.0000 </r>
       <r>    4.1080    0.0000 </r>
       <r>    4.1798    0.0000 </r>
       <r>    4.4671    0.0000 </r>
       <r>    4.5071    0.0000 </r>
       <r>    4.5867    0.0000 </r>
       <r>    4.6333    0.0000 </r>
       <r>    4.7130    0.0000 </r>
       <r>    4.7652    0.0000 </r>
       <r>    4.8790    0.0000 </r>
       <r>    4.9383    0.0000 </r>
       <r>    4.9792    0.0000 </r>
       <r>    5.0175    0.0000 </r>
       <r>    5.0650    0.0000 </r>
       <r>    5.0975    0.0000 </r>
       <r>    5.1817    0.0000 </r>
       <r>    5.1951    0.0000 </r>
      </set>
     </set>
    </set>
   </array>
  </eigenvalues>
  <separator name="orbital magnetization" >
   <v name="MAGDIPOLOUT">      0.00000000      0.00000000      0.00000000</v>
  </separator>
  <dos>
   <i name="efermi">     -1.10204139 </i>
   <total>
    <array>
     <dimension dim="1">gridpoints</dimension>
     <dimension dim="2">spin</dimension>
     <field>energy</field>
     <field>total</field>
     <field>integrated</field>
     <set>
      <set comment="spin 1">
       <r>    -9.7013     0.0000     0.0000 </r>
       <r>    -9.6477     0.0000     0.0000 </r>
       <r>    -9.5941     0.0000     0.0000 </r>
       <r>    -9.5405     0.0000     0.0000 </r>
       <r>    -9.4869     0.0000     0.0000 </r>
       <r>    -9.4333     0.0000     0.0000 </r>
       <r>    -9.3797     0.0000     0.0000 </r>
       <r>    -9.3262     0.0000     0.0000 </r>
       <r>    -9.2726     0.0000     0.0000 </r>
       <r>    -9.2190     0.0000     0.0000 </r>
       <r>    -9.1654     0.0000     0.0000 </r>
       <r>    -9.1118     0.0000     0.0000 </r>
       <r>    -9.0582     0.0000     0.0000 </r>
       <r>    -9.0047     0.0001     0.0000 </r>
       <r>    -8.9511     0.0031     0.0002 </r>
       <r>    -8.8975     0.0411     0.0024 </r>
       <r>    -8.8439     0.3178     0.0194 </r>
       <r>    -8.7903     1.4170     0.0953 </r>
       <r>    -8.7367     3.6667     0.2918 </r>
       <r>    -8.6832     5.6275     0.5933 </r>
       <r>    -8.6296     5.6985     0.8987 </r>
       <r>    -8.5760     5.3393     1.1848 </r>
       <r>    -8.5224     5.8156     1.4964 </r>
       <r>    -8.4688     5.2257     1.7764 </r>
       <r>    -8.4152     2.9652     1.9353 </r>
       <r>    -8.3617     0.9915     1.9884 </r>
       <r>    -8.3081     0.1928     1.9988 </r>
       <r>    -8.2545     0.0247     2.0001 </r>
       <r>    -8.2009     0.0407     2.0023 </r>
       <r>    -8.1473     0.2928     2.0180 </r>
       <r>    -8.0937     1.2796     2.0865 </r>
       <r>    -8.0402     3.3354     2.2653 </r>
       <r>    -7.9866     5.4190     2.5556 </r>
       <r>    -7.9330     6.5137     2.9047 </r>
       <r>    -7.8794     8.5364     3.3621 </r>
       <r>    -7.8258    12.7726     4.0465 </r>
       <r>    -7.7722    15.1598     4.8588 </r>
       <r>    -7.7187    12.3870     5.5225 </r>
       <r>    -7.6651     7.9262     5.9472 </r>
       <r>    -7.6115     6.6880     6.3056 </r>
       <r>    -7.5579     8.7508     6.7745 </r>
       <r>    -7.5043    10.1720     7.3196 </r>
       <r>    -7.4507     8.7676     7.7894 </r>
       <r>    -7.3972     6.9698     8.1628 </r>
       <r>    -7.3436     6.9822     8.5370 </r>
       <r>    -7.2900     8.1820     8.9754 </r>
       <r>    -7.2364    10.8762     9.5582 </r>
       <r>    -7.1828    14.7069    10.3462 </r>
       <r>    -7.1292    16.6888    11.2405 </r>
       <r>    -7.0757    17.0779    12.1555 </r>
       <r>    -7.0221    18.9071    13.1687 </r>
       <r>    -6.9685    22.2110    14.3588 </r>
       <r>    -6.9149    25.8247    15.7426 </r>
       <r>    -6.8613    30.4655    17.3750 </r>
       <r>    -6.8077    35.9699    19.3024 </r>
       <r>    -6.7542    40.4897    21.4720 </r>
       <r>    -6.7006    43.8114    23.8196 </r>
       <r>    -6.6470    46.1260    26.2912 </r>
       <r>    -6.5934    46.9927    28.8092 </r>
       <r>    -6.5398    47.0199    31.3287 </r>
       <r>    -6.4862    47.8215    33.8911 </r>
       <r>    -6.4327    51.9455    36.6746 </r>
       <r>    -6.3791    59.6577    39.8712 </r>
       <r>    -6.3255    66.8323    43.4523 </r>
       <r>    -6.2719    69.9290    47.1994 </r>
       <r>    -6.2183    70.2321    50.9627 </r>
       <r>    -6.1647    70.7664    54.7546 </r>
       <r>    -6.1112    72.0097    58.6131 </r>
       <r>    -6.0576    73.4799    62.5504 </r>
       <r>    -6.0040    74.5497    66.5451 </r>
       <r>    -5.9504    74.7275    70.5492 </r>
       <r>    -5.8968    75.4311    74.5911 </r>
       <r>    -5.8432    77.3093    78.7336 </r>
       <r>    -5.7897    78.8754    82.9600 </r>
       <r>    -5.7361    78.3629    87.1590 </r>
       <r>    -5.6825    76.3194    91.2485 </r>
       <r>    -5.6289    74.6893    95.2506 </r>
       <r>    -5.5753    72.8594    99.1546 </r>
       <r>    -5.5217    70.4572   102.9300 </r>
       <r>    -5.4682    70.4889   106.7070 </r>
       <r>    -5.4146    73.9453   110.6693 </r>
       <r>    -5.3610    77.0628   114.7986 </r>
       <r>    -5.3074    78.0352   118.9800 </r>
       <r>    -5.2538    79.3563   123.2322 </r>
       <r>    -5.2002    81.6319   127.6063 </r>
       <r>    -5.1466    82.5613   132.0302 </r>
       <r>    -5.0931    81.8910   136.4182 </r>
       <r>    -5.0395    82.2288   140.8243 </r>
       <r>    -4.9859    84.5657   145.3557 </r>
       <r>    -4.9323    86.5727   149.9945 </r>
       <r>    -4.8787    86.7081   154.6407 </r>
       <r>    -4.8251    86.2010   159.2596 </r>
       <r>    -4.7716    86.5372   163.8966 </r>
       <r>    -4.7180    87.6497   168.5932 </r>
       <r>    -4.6644    88.9390   173.3589 </r>
       <r>    -4.6108    89.7658   178.1688 </r>
       <r>    -4.5572    89.2077   182.9489 </r>
       <r>    -4.5036    88.2167   187.6758 </r>
       <r>    -4.4501    88.3123   192.4079 </r>
       <r>    -4.3965    88.4111   197.1453 </r>
       <r>    -4.3429    87.7303   201.8462 </r>
       <r>    -4.2893    87.3290   206.5256 </r>
       <r>    -4.2357    88.2019   211.2518 </r>
       <r>    -4.1821    91.3911   216.1488 </r>
       <r>    -4.1286    96.2899   221.3084 </r>
       <r>    -4.0750    99.0935   226.6182 </r>
       <r>    -4.0214    97.5344   231.8444 </r>
       <r>    -3.9678    93.3417   236.8460 </r>
       <r>    -3.9142    89.6046   241.6473 </r>
       <r>    -3.8606    89.3234   246.4336 </r>
       <r>    -3.8071    92.3517   251.3821 </r>
       <r>    -3.7535    95.4535   256.4969 </r>
       <r>    -3.6999    97.1746   261.7038 </r>
       <r>    -3.6463    98.3570   266.9741 </r>
       <r>    -3.5927    99.5580   272.3088 </r>
       <r>    -3.5391   100.8281   277.7115 </r>
       <r>    -3.4856   102.6109   283.2098 </r>
       <r>    -3.4320   104.3953   288.8037 </r>
       <r>    -3.3784   104.1750   294.3857 </r>
       <r>    -3.3248   101.9439   299.8482 </r>
       <r>    -3.2712   100.2057   305.2176 </r>
       <r>    -3.2176    99.5835   310.5537 </r>
       <r>    -3.1641    98.2639   315.8190 </r>
       <r>    -3.1105    95.4963   320.9360 </r>
       <r>    -3.0569    92.7281   325.9047 </r>
       <r>    -3.0033    91.8010   330.8237 </r>
       <r>    -2.9497    92.8730   335.8002 </r>
       <r>    -2.8961    93.5247   340.8116 </r>
       <r>    -2.8426    92.3312   345.7590 </r>
       <r>    -2.7890    91.9747   350.6874 </r>
       <r>    -2.7354    93.2506   355.6841 </r>
       <r>    -2.6818    93.4825   360.6932 </r>
       <r>    -2.6282    92.1155   365.6290 </r>
       <r>    -2.5746    90.3395   370.4698 </r>
       <r>    -2.5211    90.0490   375.2949 </r>
       <r>    -2.4675    92.8404   380.2696 </r>
       <r>    -2.4139    97.0248   385.4686 </r>
       <r>    -2.3603    99.5886   390.8049 </r>
       <r>    -2.3067    99.6649   396.1453 </r>
       <r>    -2.2531    97.7481   401.3830 </r>
       <r>    -2.1996    94.7895   406.4621 </r>
       <r>    -2.1460    91.8065   411.3814 </r>
       <r>    -2.0924    89.5617   416.1805 </r>
       <r>    -2.0388    88.7282   420.9348 </r>
       <r>    -1.9852    88.9846   425.7029 </r>
       <r>    -1.9316    89.6167   430.5049 </r>
       <r>    -1.8781    89.9299   435.3237 </r>
       <r>    -1.8245    89.1771   440.1021 </r>
       <r>    -1.7709    87.8141   444.8075 </r>
       <r>    -1.7173    86.8799   449.4628 </r>
       <r>    -1.6637    86.7900   454.1133 </r>
       <r>    -1.6101    88.7437   458.8685 </r>
       <r>    -1.5566    92.9204   463.8476 </r>
       <r>    -1.5030    96.5406   469.0205 </r>
       <r>    -1.4494    98.7749   474.3133 </r>
       <r>    -1.3958   100.5341   479.7002 </r>
       <r>    -1.3422    99.9744   485.0572 </r>
       <r>    -1.2886    95.8776   490.1947 </r>
       <r>    -1.2351    88.8774   494.9570 </r>
       <r>    -1.1815    78.0651   499.1400 </r>
       <r>    -1.1279    64.4180   502.5918 </r>
       <r>    -1.0743    51.2640   505.3387 </r>
       <r>    -1.0207    38.8546   507.4207 </r>
       <r>    -0.9671    26.4537   508.8381 </r>
       <r>    -0.9135    16.3216   509.7127 </r>
       <r>    -0.8600    10.4514   510.2727 </r>
       <r>    -0.8064     7.8644   510.6941 </r>
       <r>    -0.7528     7.1732   511.0785 </r>
       <r>    -0.6992     8.1885   511.5173 </r>
       <r>    -0.6456    10.4199   512.0756 </r>
       <r>    -0.5920    13.7053   512.8100 </r>
       <r>    -0.5385    18.0287   513.7760 </r>
       <r>    -0.4849    20.9308   514.8976 </r>
       <r>    -0.4313    20.3200   515.9864 </r>
       <r>    -0.3777    18.1288   516.9578 </r>
       <r>    -0.3241    16.9017   517.8634 </r>
       <r>    -0.2705    18.1820   518.8377 </r>
       <r>    -0.2170    21.2413   519.9759 </r>
       <r>    -0.1634    21.7792   521.1429 </r>
       <r>    -0.1098    18.1525   522.1156 </r>
       <r>    -0.0562    13.8279   522.8565 </r>
       <r>    -0.0026    12.5259   523.5277 </r>
       <r>     0.0510    14.4334   524.3011 </r>
       <r>     0.1045    17.0060   525.2123 </r>
       <r>     0.1581    17.7919   526.1657 </r>
       <r>     0.2117    16.1131   527.0291 </r>
       <r>     0.2653    14.7808   527.8211 </r>
       <r>     0.3189    16.2942   528.6942 </r>
       <r>     0.3725    18.5600   529.6887 </r>
       <r>     0.4260    19.1464   530.7146 </r>
       <r>     0.4796    18.8133   531.7227 </r>
       <r>     0.5332    18.8376   532.7321 </r>
       <r>     0.5868    19.5170   533.7779 </r>
       <r>     0.6404    20.9348   534.8997 </r>
       <r>     0.6940    22.3280   536.0961 </r>
       <r>     0.7475    21.9220   537.2707 </r>
       <r>     0.8011    17.8601   538.2277 </r>
       <r>     0.8547    11.5185   538.8449 </r>
       <r>     0.9083     8.0155   539.2744 </r>
       <r>     0.9619     9.0257   539.7581 </r>
       <r>     1.0155    11.4239   540.3702 </r>
       <r>     1.0690    13.2134   541.0782 </r>
       <r>     1.1226    14.0324   541.8301 </r>
       <r>     1.1762    12.9266   542.5228 </r>
       <r>     1.2298    10.2390   543.0714 </r>
       <r>     1.2834     7.5788   543.4775 </r>
       <r>     1.3370     5.4810   543.7712 </r>
       <r>     1.3905     4.3164   544.0025 </r>
       <r>     1.4441     5.7258   544.3093 </r>
       <r>     1.4977    10.6519   544.8801 </r>
       <r>     1.5513    16.2918   545.7530 </r>
       <r>     1.6049    18.2961   546.7334 </r>
       <r>     1.6585    16.9225   547.6402 </r>
       <r>     1.7120    16.2577   548.5113 </r>
       <r>     1.7656    17.6018   549.4545 </r>
       <r>     1.8192    18.4383   550.4425 </r>
       <r>     1.8728    16.4592   551.3244 </r>
       <r>     1.9264    12.6903   552.0044 </r>
       <r>     1.9800    10.4882   552.5664 </r>
       <r>     2.0335    10.6687   553.1381 </r>
       <r>     2.0871    11.8088   553.7708 </r>
       <r>     2.1407    13.3413   554.4857 </r>
       <r>     2.1943    15.7488   555.3296 </r>
       <r>     2.2479    19.2294   556.3600 </r>
       <r>     2.3015    22.0462   557.5413 </r>
       <r>     2.3550    22.1435   558.7278 </r>
       <r>     2.4086    19.7705   559.7872 </r>
       <r>     2.4622    17.1197   560.7045 </r>
       <r>     2.5158    16.6463   561.5965 </r>
       <r>     2.5694    19.2922   562.6302 </r>
       <r>     2.6230    23.3704   563.8825 </r>
       <r>     2.6765    25.6768   565.2583 </r>
       <r>     2.7301    24.4356   566.5677 </r>
       <r>     2.7837    19.7454   567.6257 </r>
       <r>     2.8373    13.3383   568.3404 </r>
       <r>     2.8909     8.5673   568.7995 </r>
       <r>     2.9445     7.1477   569.1825 </r>
       <r>     2.9980     7.1402   569.5651 </r>
       <r>     3.0516     6.7301   569.9257 </r>
       <r>     3.1052     7.8944   570.3487 </r>
       <r>     3.1588    12.0589   570.9949 </r>
       <r>     3.2124    15.2484   571.8119 </r>
       <r>     3.2660    13.6801   572.5450 </r>
       <r>     3.3196     9.7393   573.0668 </r>
       <r>     3.3731     7.3987   573.4633 </r>
       <r>     3.4267     7.4636   573.8632 </r>
       <r>     3.4803     9.2868   574.3608 </r>
       <r>     3.5339    12.5793   575.0349 </r>
       <r>     3.5875    16.6738   575.9283 </r>
       <r>     3.6411    18.6075   576.9254 </r>
       <r>     3.6946    16.8436   577.8279 </r>
       <r>     3.7482    15.4628   578.6565 </r>
       <r>     3.8018    16.2500   579.5272 </r>
       <r>     3.8554    15.5097   580.3583 </r>
       <r>     3.9090    13.1370   581.0622 </r>
       <r>     3.9626    12.6421   581.7396 </r>
       <r>     4.0161    13.4089   582.4581 </r>
       <r>     4.0697    13.1525   583.1629 </r>
       <r>     4.1233    12.7413   583.8456 </r>
       <r>     4.1769    12.6872   584.5254 </r>
       <r>     4.2305    11.7283   585.1538 </r>
       <r>     4.2841     9.4057   585.6578 </r>
       <r>     4.3376     7.5558   586.0627 </r>
       <r>     4.3912     8.9927   586.5446 </r>
       <r>     4.4448    13.1642   587.2499 </r>
       <r>     4.4984    16.8247   588.1515 </r>
       <r>     4.5520    19.8873   589.2171 </r>
       <r>     4.6056    24.2139   590.5146 </r>
       <r>     4.6591    27.6568   591.9965 </r>
       <r>     4.7127    27.3401   593.4615 </r>
       <r>     4.7663    24.8343   594.7922 </r>
       <r>     4.8199    23.5312   596.0531 </r>
       <r>     4.8735    25.3355   597.4107 </r>
       <r>     4.9271    28.7734   598.9524 </r>
       <r>     4.9806    31.7274   600.6525 </r>
       <r>     5.0342    34.3217   602.4916 </r>
       <r>     5.0878    35.9285   604.4168 </r>
       <r>     5.1414    34.9929   606.2918 </r>
       <r>     5.1950    31.9260   608.0025 </r>
       <r>     5.2486    27.2221   609.4612 </r>
       <r>     5.3021    20.9444   610.5835 </r>
       <r>     5.3557    14.1074   611.3394 </r>
       <r>     5.4093     7.8632   611.7607 </r>
       <r>     5.4629     3.3054   611.9378 </r>
       <r>     5.5165     0.9583   611.9892 </r>
       <r>     5.5701     0.1796   611.9988 </r>
       <r>     5.6236     0.0209   611.9999 </r>
       <r>     5.6772     0.0015   612.0000 </r>
       <r>     5.7308     0.0001   612.0000 </r>
       <r>     5.7844     0.0000   612.0000 </r>
       <r>     5.8380     0.0000   612.0000 </r>
       <r>     5.8916     0.0000   612.0000 </r>
       <r>     5.9451     0.0000   612.0000 </r>
       <r>     5.9987     0.0000   612.0000 </r>
       <r>     6.0523     0.0000   612.0000 </r>
       <r>     6.1059     0.0000   612.0000 </r>
       <r>     6.1595     0.0000   612.0000 </r>
       <r>     6.2131     0.0000   612.0000 </r>
       <r>     6.2666     0.0000   612.0000 </r>
       <r>     6.3202     0.0000   612.0000 </r>
       <r>     6.3738     0.0000   612.0000 </r>
      </set>
     </set>
    </array>
   </total>
  </dos>
 </calculation>
 <structure name="finalpos" >
  <crystal>
   <varray name="basis" >
    <v>      11.00258152       0.00000000       0.00000000 </v>
    <v>       5.50129076       9.52851510       0.00000000 </v>
    <v>       0.00000000       0.00000000      24.49178509 </v>
   </varray>
   <i name="volume">   2567.67623402 </i>
   <varray name="rec_basis" >
    <v>       0.09088776      -0.05247407       0.00000000 </v>
    <v>       0.00000000       0.10494815       0.00000000 </v>
    <v>       0.00000000       0.00000000       0.04083002 </v>
   </varray>
  </crystal>
  <varray name="positions" >
   <v>       0.08510895       0.08309161       0.39789077 </v>
   <v>       0.41513521       0.66692593       0.50009204 </v>
   <v>       0.49982364       0.50188387       0.60528907 </v>
   <v>       0.58392830       0.83288474       0.39597392 </v>
   <v>       0.41699269       0.91899533       0.50009716 </v>
   <v>       0.82925382       0.08548039       0.39023552 </v>
   <v>       0.33534711       0.83085678       0.39596617 </v>
   <v>       0.66417767       0.16692439       0.49958424 </v>
   <v>       0.74830451      -0.00148096       0.60373647 </v>
   <v>       0.83118389       0.33595635       0.39323925 </v>
   <v>       0.25091897       0.25009917       0.60272919 </v>
   <v>       0.66656036       0.41872513       0.49874530 </v>
   <v>       0.25213332      -0.00317116       0.60190832 </v>
   <v>       0.49972525       0.25069821       0.60503588 </v>
   <v>       0.91889499       0.16684722       0.49895892 </v>
   <v>       0.00038160      -0.00108156       0.60444274 </v>
   <v>       0.00147935       0.74793435       0.60441977 </v>
   <v>       0.91791499       0.91578065       0.49924388 </v>
   <v>       0.08542760       0.82943113       0.39706475 </v>
   <v>      -0.00228202       0.50138858       0.60181096 </v>
   <v>       0.91605460       0.66606337       0.49912034 </v>
   <v>       0.08550899       0.33472405       0.40084404 </v>
   <v>      -0.00271788       0.25171608       0.60154432 </v>
   <v>       0.83273428       0.83238479       0.39408044 </v>
   <v>       0.83316349       0.58268274       0.40198249 </v>
   <v>       0.66666435       0.66802585       0.49813079 </v>
   <v>       0.74924978       0.25052296       0.59660702 </v>
   <v>       0.58337911       0.58207029       0.40128280 </v>
   <v>       0.50181315       0.74954387       0.59655630 </v>
   <v>       0.74842562       0.50142185       0.59497802 </v>
   <v>       0.25023195       0.74915230       0.59643641 </v>
   <v>       0.58096341       0.33442975       0.40302663 </v>
   <v>       0.91767376       0.41730314       0.49898582 </v>
   <v>       0.08549013       0.58163177       0.40418410 </v>
   <v>       0.33513597       0.08454722       0.40483850 </v>
   <v>       0.16712683       0.16858794       0.50098812 </v>
   <v>       0.33592671       0.33193598       0.40687080 </v>
   <v>       0.16853386       0.41525797       0.50164735 </v>
   <v>       0.41408810       0.41723902       0.50269876 </v>
   <v>       0.33508611       0.57931872       0.40436124 </v>
   <v>       0.25014098       0.50118745       0.59783452 </v>
   <v>       0.16715196       0.91652896       0.49928639 </v>
   <v>       0.66601864       0.91743588       0.49855652 </v>
   <v>       0.58132812       0.08503380       0.40343460 </v>
   <v>       0.41603580       0.16866327       0.50267165 </v>
   <v>       0.50122182      -0.00168809       0.59754696 </v>
   <v>       0.16635509       0.66581216       0.50015196 </v>
   <v>       0.74680503       0.75029671       0.59488878 </v>
  </varray>
 </structure>
</modeling>
