unknown system                          
           1
    11.002582    0.000000    0.000000
     5.501291    9.528515    0.000000
     0.000000    0.000000   24.491785
   Au   Pd
  24  24
Direct configuration=     1
   0.08333333  0.08333333  0.40830017
   0.41666667  0.66666667  0.50000000
   0.50000000  0.50000000  0.59169983
   0.58333333  0.83333333  0.40830017
   0.41666667  0.91666667  0.50000000
   0.83333333  0.08333333  0.40830017
   0.33333333  0.83333333  0.40830017
   0.66666667  0.16666667  0.50000000
   0.75000000  0.00000000  0.59169983
   0.83333333  0.33333333  0.40830017
   0.25000000  0.25000000  0.59169983
   0.66666667  0.41666667  0.50000000
   0.25000000  0.00000000  0.59169983
   0.50000000  0.25000000  0.59169983
   0.91666667  0.16666667  0.50000000
   0.00000000  0.00000000  0.59169983
   0.00000000  0.75000000  0.59169983
   0.91666667  0.91666667  0.50000000
   0.08333333  0.83333333  0.40830017
   0.00000000  0.50000000  0.59169983
   0.91666667  0.66666667  0.50000000
   0.08333333  0.33333333  0.40830017
   0.00000000  0.25000000  0.59169983
   0.83333333  0.83333333  0.40830017
   0.83333333  0.58333333  0.40830017
   0.66666667  0.66666667  0.50000000
   0.75000000  0.25000000  0.59169983
   0.58333333  0.58333333  0.40830017
   0.50000000  0.75000000  0.59169983
   0.75000000  0.50000000  0.59169983
   0.25000000  0.75000000  0.59169983
   0.58333333  0.33333333  0.40830017
   0.91666667  0.41666667  0.50000000
   0.08333333  0.58333333  0.40830017
   0.33333333  0.08333333  0.40830017
   0.16666667  0.16666667  0.50000000
   0.33333333  0.33333333  0.40830017
   0.16666667  0.41666667  0.50000000
   0.41666667  0.41666667  0.50000000
   0.33333333  0.58333333  0.40830017
   0.25000000  0.50000000  0.59169983
   0.16666667  0.91666667  0.50000000
   0.66666667  0.91666667  0.50000000
   0.58333333  0.08333333  0.40830017
   0.41666667  0.16666667  0.50000000
   0.50000000  0.00000000  0.59169983
   0.16666667  0.66666667  0.50000000
   0.75000000  0.75000000  0.59169983
Direct configuration=     2
   0.08461739  0.08317047  0.40637421
   0.41587273  0.66645819  0.50007862
   0.49968316  0.50054814  0.59381811
   0.58384498  0.83314990  0.40643080
   0.41716068  0.91788393  0.50042183
   0.83167081  0.08412733  0.40569163
   0.33356115  0.83283197  0.40614814
   0.66415720  0.16745789  0.49959805
   0.74887890 -0.00028849  0.59389550
   0.83218486  0.33509329  0.40606257
   0.25075221  0.25013252  0.59324092
   0.66650584  0.41786892  0.49996350
   0.25099855 -0.00123340  0.59355100
   0.49936139  0.25025998  0.59360078
   0.91753596  0.16722950  0.50043818
   0.00074795 -0.00041568  0.59393070
   0.00136846  0.74890973  0.59387975
   0.91758728  0.91557048  0.50003367
   0.08466346  0.83149817  0.40637148
  -0.00050524  0.50020507  0.59349561
   0.91626728  0.66535346  0.49968769
   0.08410242  0.33402679  0.40681640
  -0.00108812  0.25105623  0.59358642
   0.83272901  0.83282741  0.40610822
   0.83311808  0.58322372  0.40736645
   0.66754910  0.66623821  0.50032385
   0.74996902  0.25053832  0.59313461
   0.58359360  0.58290441  0.40712856
   0.50086624  0.74994849  0.59280664
   0.74977151  0.50055441  0.59266182
   0.25006886  0.74961878  0.59269065
   0.58211175  0.33385629  0.40715087
   0.91641334  0.41767091  0.49998186
   0.08418502  0.58269919  0.40740611
   0.33364749  0.08422523  0.40738284
   0.16737026  0.16711507  0.49970039
   0.33384921  0.33308086  0.40772149
   0.16802636  0.41636235  0.49958322
   0.41475109  0.41691486  0.49942755
   0.33353667  0.58228306  0.40739891
   0.25013920  0.50041578  0.59249302
   0.16717147  0.91592524  0.50020679
   0.66539557  0.91691613  0.50021590
   0.58224316  0.08425921  0.40732203
   0.41633078  0.16693849  0.49946221
   0.50059951 -0.00077793  0.59265781
   0.16808481  0.66524213  0.49993037
   0.74854962  0.75012493  0.59262227
Direct configuration=     3
   0.08842500  0.08268753  0.40066318
   0.41351848  0.66584001  0.50031174
   0.49874362  0.50217354  0.60009945
   0.58536215  0.83260597  0.40088758
   0.41862557  0.92149349  0.50167268
   0.82674095  0.08648177  0.39795655
   0.33423667  0.83134527  0.39976676
   0.65671588  0.16980412  0.49840615
   0.74555451 -0.00114396  0.60040630
   0.82877929  0.34031208  0.39942743
   0.25298275  0.25052550  0.59781069
   0.66602896  0.42143396  0.49985527
   0.25395956 -0.00489081  0.59904026
   0.49746773  0.25103088  0.59923766
   0.92011366  0.16889846  0.50173752
   0.00296586 -0.00164829  0.60054590
   0.00542633  0.74567678  0.60034387
   0.92031716  0.91231995  0.50013352
   0.08860770  0.82605638  0.40065234
  -0.00200342  0.50081317  0.59882063
   0.91508298  0.66145942  0.49876159
   0.08638301  0.33608308  0.40241659
  -0.00431472  0.25418827  0.59918071
   0.83093702  0.83132721  0.39960846
   0.83247977  0.58289870  0.40459769
   0.67016576  0.66496769  0.50128416
   0.74987717  0.25213458  0.59738914
   0.58436535  0.58163254  0.40365438
   0.50343490  0.74979574  0.59608865
   0.74909397  0.50219841  0.59551442
   0.25027304  0.74848835  0.59562871
   0.57848941  0.33540700  0.40374287
   0.91566213  0.42064878  0.49992808
   0.08671054  0.58081877  0.40475497
   0.33457907  0.08686997  0.40466269
   0.16945661  0.16844471  0.49881196
   0.33537894  0.33233222  0.40600552
   0.17205826  0.41545998  0.49834733
   0.40907084  0.41765083  0.49773005
   0.33413961  0.57916870  0.40472640
   0.25055197  0.50164871  0.59484505
   0.16866835  0.91372670  0.50082000
   0.66162637  0.91765588  0.50085610
   0.57901046  0.08700472  0.40442155
   0.41533476  0.16774455  0.49786749
   0.50237722 -0.00308471  0.59549851
   0.17229001  0.66101797  0.49972389
   0.74424880  0.75049540  0.59535758
Direct configuration=     4
   0.08630688  0.08331381  0.39974159
   0.41512817  0.66674299  0.50025335
   0.49930690  0.50176818  0.60144998
   0.58366364  0.83284270  0.39975689
   0.41721675  0.91939032  0.50106634
   0.82831974  0.08614154  0.39667514
   0.33597907  0.83089742  0.39865284
   0.66035314  0.16908254  0.49896906
   0.74744481 -0.00140292  0.60153446
   0.83034650  0.33770670  0.39803606
   0.25179907  0.25006639  0.59868591
   0.66557887  0.41956347  0.49991535
   0.25343587 -0.00371225  0.60030501
   0.49863457  0.25130021  0.60039830
   0.91930769  0.16792261  0.50122321
   0.00150200 -0.00125768  0.60196047
   0.00344241  0.74650332  0.60154432
   0.91889200  0.91310675  0.50006010
   0.08662882  0.82772890  0.39949918
  -0.00155684  0.50131451  0.60000927
   0.91647115  0.66411566  0.49910568
   0.08524081  0.33615707  0.40118262
  -0.00247537  0.25325045  0.60047331
   0.83207366  0.83197870  0.39835870
   0.83271167  0.58288692  0.40353068
   0.66708318  0.66696165  0.50085361
   0.74891330  0.25151711  0.59780194
   0.58281489  0.58290977  0.40296256
   0.50274819  0.74918706  0.59684998
   0.74843687  0.50213322  0.59643563
   0.25115899  0.74835519  0.59649229
   0.57907286  0.33596497  0.40281086
   0.91786792  0.41773484  0.49984331
   0.08601518  0.58142530  0.40390055
   0.33529832  0.08545616  0.40370803
   0.16830408  0.16897810  0.49925161
   0.33552604  0.33220493  0.40449099
   0.17006288  0.41523169  0.49902053
   0.41161220  0.41699237  0.49862403
   0.33509528  0.57904122  0.40359652
   0.25084814  0.50097573  0.59547238
   0.16845295  0.91488054  0.50045929
   0.66482517  0.91706550  0.50044714
   0.57956139  0.08598720  0.40324479
   0.41439218  0.16842537  0.49872094
   0.50133987 -0.00198681  0.59666392
   0.16872025  0.66306737  0.49978246
   0.74609793  0.75008320  0.59617882
Direct configuration=     5
   0.08517867  0.08364740  0.39925071
   0.41598556  0.66722396  0.50022224
   0.49960693  0.50155226  0.60216934
   0.58275893  0.83296879  0.39915463
   0.41646635  0.91827008  0.50074337
   0.82916068  0.08596031  0.39599261
   0.33690714  0.83065887  0.39805952
   0.66229051  0.16869820  0.49926889
   0.74845168 -0.00154085  0.60213537
   0.83118127  0.33631895  0.39729496
   0.25116858  0.24982185  0.59915210
   0.66533913  0.41856716  0.49994736
   0.25315694 -0.00308450  0.60097868
   0.49925609  0.25144366  0.60101651
   0.91887839  0.16740283  0.50094926
   0.00072228 -0.00104962  0.60271393
   0.00238569  0.74694358  0.60218373
   0.91813290  0.91352583  0.50002099
   0.08557478  0.82861976  0.39888495
  -0.00131898  0.50158155  0.60064240
   0.91721055  0.66553050  0.49928896
   0.08463242  0.33619649  0.40052536
  -0.00149565  0.25275092  0.60116180
   0.83267909  0.83232572  0.39769303
   0.83283519  0.58288065  0.40296234
   0.66544125  0.66802373  0.50062428
   0.74839990  0.25118822  0.59802181
   0.58198904  0.58359008  0.40259406
   0.50238241  0.74886285  0.59725549
   0.74808686  0.50209849  0.59692631
   0.25163089  0.74828426  0.59695227
   0.57938363  0.33626218  0.40231444
   0.91904282  0.41618274  0.49979816
   0.08564480  0.58174837  0.40344545
   0.33568142  0.08470309  0.40319954
   0.16769019  0.16926221  0.49948579
   0.33560439  0.33213713  0.40368428
   0.16900004  0.41511009  0.49937910
   0.41296584  0.41664164  0.49910020
   0.33560432  0.57897332  0.40299469
   0.25100589  0.50061727  0.59580652
   0.16833822  0.91549513  0.50026717
   0.66652900  0.91675103  0.50022931
   0.57985483  0.08544522  0.40261799
   0.41389012  0.16878801  0.49917553
   0.50078732 -0.00140201  0.59728467
   0.16681884  0.66415896  0.49981365
   0.74708285  0.74986364  0.59661624
Direct configuration=     6
   0.08507781  0.08316510  0.39899067
   0.41512846  0.66680540  0.50020182
   0.49971694  0.50146753  0.60277466
   0.58368866  0.83296948  0.39866880
   0.41634248  0.91896367  0.50055132
   0.82953255  0.08576989  0.39537100
   0.33528362  0.83139675  0.39753439
   0.66375195  0.16734025  0.49934687
   0.74866286 -0.00147742  0.60261981
   0.83106418  0.33609015  0.39677005
   0.25122450  0.24988256  0.59960881
   0.66604016  0.41823988  0.49988053
   0.25249863 -0.00284912  0.60147918
   0.49949187  0.25091887  0.60151905
   0.91883525  0.16638592  0.50075242
   0.00061840 -0.00091951  0.60318021
   0.00209987  0.74752427  0.60281274
   0.91789135  0.91537833  0.50000095
   0.08569155  0.82956927  0.39846265
  -0.00146236  0.50156915  0.60109540
   0.91648137  0.66519031  0.49943921
   0.08474616  0.33561707  0.40005529
  -0.00170687  0.25217789  0.60161917
   0.83226532  0.83271198  0.39709575
   0.83252370  0.58320582  0.40285807
   0.66658125  0.66767312  0.50029019
   0.74903076  0.25076410  0.59803109
   0.58275013  0.58277005  0.40237013
   0.50199462  0.74919889  0.59761552
   0.74856499  0.50150732  0.59697284
   0.25127168  0.74865249  0.59707231
   0.58025361  0.33572269  0.40205737
   0.91835356  0.41668562  0.49979804
   0.08553299  0.58179511  0.40318437
   0.33503057  0.08451940  0.40301124
   0.16723053  0.16860497  0.49963396
   0.33554007  0.33214224  0.40326275
   0.16837423  0.41523301  0.49958915
   0.41328625  0.41712197  0.49955617
   0.33518449  0.57964266  0.40281178
   0.25095459  0.50052584  0.59597050
   0.16732339  0.91617317  0.50003275
   0.66622174  0.91720864  0.49995213
   0.58071590  0.08509368  0.40244832
   0.41495444  0.16818229  0.49968197
   0.50094158 -0.00121473  0.59747523
   0.16694806  0.66499339  0.49976165
   0.74747213  0.74991059  0.59673174
Direct configuration=     7
   0.08504091  0.08298862  0.39889551
   0.41481483  0.66665223  0.50019435
   0.49975720  0.50143652  0.60299616
   0.58402887  0.83296973  0.39849102
   0.41629715  0.91921747  0.50048104
   0.82966863  0.08570021  0.39514354
   0.33468953  0.83166676  0.39734223
   0.66428673  0.16684333  0.49937540
   0.74874014 -0.00145421  0.60279708
   0.83102133  0.33600643  0.39657797
   0.25124496  0.24990478  0.59977594
   0.66629669  0.41812013  0.49985607
   0.25225774 -0.00276299  0.60166233
   0.49957815  0.25072683  0.60170294
   0.91881947  0.16601380  0.50068039
   0.00058039 -0.00087190  0.60335084
   0.00199528  0.74773676  0.60304291
   0.91780297  0.91605622  0.49999362
   0.08573427  0.82991672  0.39830812
  -0.00151483  0.50156462  0.60126117
   0.91621454  0.66506583  0.49949418
   0.08478778  0.33540505  0.39988328
  -0.00178416  0.25196820  0.60178653
   0.83211391  0.83285332  0.39687719
   0.83240972  0.58332480  0.40281992
   0.66699841  0.66754482  0.50016793
   0.74926161  0.25060891  0.59803448
   0.58302863  0.58246998  0.40228818
   0.50185271  0.74932186  0.59774727
   0.74873995  0.50129100  0.59698987
   0.25114023  0.74878724  0.59711623
   0.58057197  0.33552527  0.40196330
   0.91810134  0.41686963  0.49979800
   0.08549207  0.58181222  0.40308883
   0.33479240  0.08445218  0.40294234
   0.16706232  0.16836447  0.49968818
   0.33551654  0.33214411  0.40310850
   0.16814523  0.41527800  0.49966601
   0.41340350  0.41729773  0.49972303
   0.33503086  0.57988759  0.40274485
   0.25093582  0.50049238  0.59603051
   0.16695203  0.91642128  0.49994697
   0.66610931  0.91737609  0.49985070
   0.58103099  0.08496505  0.40238623
   0.41534390  0.16796063  0.49986729
   0.50099803 -0.00114620  0.59754496
   0.16699535  0.66529874  0.49974262
   0.74761458  0.74992777  0.59677400
Direct configuration=     8
   0.08495175  0.08325624  0.39870909
   0.41459721  0.66677849  0.50019139
   0.49985582  0.50144193  0.60334779
   0.58395414  0.83296369  0.39819027
   0.41658237  0.91920182  0.50045346
   0.82961062  0.08552853  0.39455336
   0.33478874  0.83157462  0.39707556
   0.66371735  0.16697299  0.49931144
   0.74852427 -0.00145938  0.60314537
   0.83098050  0.33630689  0.39625019
   0.25125526  0.25001592  0.60005553
   0.66663085  0.41829866  0.49978945
   0.25220992 -0.00290666  0.60188166
   0.49968786  0.25049602  0.60200945
   0.91889694  0.16659459  0.50058887
   0.00084647 -0.00104632  0.60366861
   0.00228858  0.74778530  0.60339710
   0.91813714  0.91544995  0.49996388
   0.08550788  0.82982517  0.39804444
  -0.00155817  0.50132215  0.60151336
   0.91606131  0.66536469  0.49953343
   0.08494008  0.33510450  0.39975646
  -0.00212397  0.25188323  0.60195706
   0.83245510  0.83270041  0.39654918
   0.83254338  0.58319786  0.40283735
   0.66710922  0.66744457  0.50002647
   0.74955575  0.25057035  0.59796292
   0.58324123  0.58235463  0.40225285
   0.50182213  0.74965161  0.59773250
   0.74901466  0.50108625  0.59681808
   0.25073838  0.74903528  0.59704312
   0.58073351  0.33506737  0.40202973
   0.91762314  0.41691475  0.49979374
   0.08540797  0.58196301  0.40315374
   0.33460472  0.08454466  0.40305211
   0.16687037  0.16824006  0.49976525
   0.33561520  0.33207258  0.40324603
   0.16842296  0.41513505  0.49962783
   0.41343585  0.41700482  0.49986779
   0.33478452  0.57999398  0.40282372
   0.25071093  0.50072391  0.59607061
   0.16701836  0.91635739  0.49989624
   0.66572361  0.91742829  0.49969650
   0.58109488  0.08530794  0.40249016
   0.41586232  0.16816250  0.50004855
   0.50125686 -0.00150638  0.59750422
   0.16667329  0.66570372  0.49965108
   0.74733875  0.75009239  0.59667302
Direct configuration=     9
   0.08488887  0.08344498  0.39857762
   0.41444374  0.66686752  0.50018930
   0.49992537  0.50144574  0.60359577
   0.58390144  0.83295943  0.39797818
   0.41678352  0.91919079  0.50043401
   0.82956970  0.08540746  0.39413716
   0.33485871  0.83150964  0.39688751
   0.66331582  0.16706443  0.49926634
   0.74837204 -0.00146303  0.60339099
   0.83095170  0.33651878  0.39601903
   0.25126252  0.25009430  0.60025269
   0.66686650  0.41842456  0.49974246
   0.25217620 -0.00300798  0.60203633
   0.49976522  0.25033325  0.60222561
   0.91895157  0.16700417  0.50052433
   0.00103410 -0.00116933  0.60389271
   0.00249542  0.74781953  0.60364687
   0.91837281  0.91502240  0.49994290
   0.08534823  0.82976060  0.39785850
  -0.00158873  0.50115117  0.60169121
   0.91595325  0.66557545  0.49956111
   0.08504749  0.33489256  0.39966703
  -0.00236361  0.25182332  0.60207731
   0.83269571  0.83259258  0.39631787
   0.83263765  0.58310835  0.40284964
   0.66718736  0.66737388  0.49992672
   0.74976317  0.25054317  0.59791245
   0.58339115  0.58227328  0.40222794
   0.50180056  0.74988416  0.59772208
   0.74920839  0.50094186  0.59669693
   0.25045499  0.74921019  0.59699156
   0.58084743  0.33474445  0.40207657
   0.91728591  0.41694656  0.49979074
   0.08534866  0.58206934  0.40319951
   0.33447236  0.08460988  0.40312952
   0.16673500  0.16815233  0.49981961
   0.33568477  0.33202214  0.40334302
   0.16861882  0.41503425  0.49960090
   0.41345867  0.41679825  0.49996988
   0.33461081  0.58006900  0.40287934
   0.25055233  0.50088718  0.59609890
   0.16706514  0.91631234  0.49986046
   0.66545161  0.91746510  0.49958775
   0.58113993  0.08554974  0.40256345
   0.41622791  0.16830485  0.50017637
   0.50143939 -0.00176038  0.59747549
   0.16644617  0.66598931  0.49958653
   0.74714424  0.75020848  0.59660181
Direct configuration=    10
   0.08471109  0.08353417  0.39836989
   0.41466318  0.66682957  0.50021230
   0.49994408  0.50162080  0.60392324
   0.58377665  0.83304072  0.39763102
   0.41681282  0.91913552  0.50040637
   0.82961458  0.08542087  0.39341395
   0.33522880  0.83122248  0.39665026
   0.66368051  0.16712038  0.49928575
   0.74847821 -0.00152284  0.60373036
   0.83091380  0.33662883  0.39556841
   0.25118211  0.25000832  0.60051504
   0.66638069  0.41868919  0.49965155
   0.25236776 -0.00300507  0.60219799
   0.49983065  0.25041732  0.60262825
   0.91881096  0.16699357  0.50038463
   0.00093434 -0.00121812  0.60424179
   0.00239000  0.74771171  0.60402013
   0.91811363  0.91507261  0.49994910
   0.08526412  0.82971747  0.39754348
  -0.00164847  0.50116650  0.60186453
   0.91609610  0.66555678  0.49965202
   0.08515015  0.33501736  0.39964521
  -0.00226617  0.25168878  0.60225130
   0.83276117  0.83233941  0.39593892
   0.83299072  0.58298393  0.40289118
   0.66678976  0.66761454  0.49977665
   0.74972932  0.25041098  0.59773766
   0.58322014  0.58235912  0.40221466
   0.50185092  0.74985380  0.59756300
   0.74907372  0.50117254  0.59646153
   0.25048134  0.74913627  0.59683905
   0.58082863  0.33468253  0.40223826
   0.91754229  0.41714344  0.49973862
   0.08531959  0.58188193  0.40336986
   0.33464478  0.08468378  0.40341125
   0.16703650  0.16823603  0.49997320
   0.33568772  0.33201631  0.40366932
   0.16871728  0.41490033  0.49957128
   0.41338269  0.41693607  0.50013984
   0.33465552  0.57986736  0.40307931
   0.25043837  0.50106591  0.59610047
   0.16725352  0.91635502  0.49978161
   0.66552078  0.91728990  0.49938849
   0.58099619  0.08557890  0.40269158
   0.41582448  0.16858523  0.50037851
   0.50138389 -0.00193840  0.59739444
   0.16631799  0.66584239  0.49950303
   0.74712309  0.75015575  0.59641171
Direct configuration=    11
   0.08451761  0.08363124  0.39814383
   0.41490199  0.66678828  0.50023734
   0.49996444  0.50181131  0.60427962
   0.58364085  0.83312919  0.39725321
   0.41684471  0.91907537  0.50037629
   0.82966341  0.08543546  0.39262692
   0.33563155  0.83090996  0.39639208
   0.66407738  0.16718127  0.49930688
   0.74859376 -0.00158793  0.60409968
   0.83087255  0.33674859  0.39507803
   0.25109460  0.24991476  0.60080055
   0.66585201  0.41897718  0.49955262
   0.25257623 -0.00300192  0.60237392
   0.49990185  0.25050882  0.60306642
   0.91865795  0.16698203  0.50023259
   0.00082577 -0.00127121  0.60462168
   0.00227528  0.74759437  0.60442633
   0.91783157  0.91512725  0.49995585
   0.08517259  0.82967052  0.39720066
  -0.00171349  0.50118319  0.60205315
   0.91625154  0.66553647  0.49975096
   0.08526187  0.33515318  0.39962146
  -0.00216012  0.25154238  0.60244064
   0.83283241  0.83206389  0.39552653
   0.83337496  0.58284854  0.40293638
   0.66635707  0.66787644  0.49961333
   0.74969249  0.25026713  0.59754744
   0.58303404  0.58245253  0.40220021
   0.50190572  0.74982076  0.59738989
   0.74892717  0.50142359  0.59620536
   0.25051001  0.74905582  0.59667308
   0.58080818  0.33461515  0.40241422
   0.91782130  0.41735768  0.49968189
   0.08528795  0.58167797  0.40355525
   0.33483243  0.08476421  0.40371784
   0.16736461  0.16832712  0.50014036
   0.33569092  0.33200998  0.40402441
   0.16882444  0.41475459  0.49953905
   0.41330002  0.41708604  0.50032479
   0.33470419  0.57964793  0.40329692
   0.25031436  0.50126041  0.59610218
   0.16745854  0.91640147  0.49969579
   0.66559606  0.91709925  0.49917164
   0.58083975  0.08561063  0.40283102
   0.41538544  0.16889035  0.50059850
   0.50132349 -0.00213212  0.59730623
   0.16617849  0.66568249  0.49941215
   0.74710008  0.75009837  0.59620484
Direct configuration=    12
   0.08481696  0.08335912  0.39806715
   0.41456572  0.66698004  0.50025482
   0.49992439  0.50186633  0.60456359
   0.58389697  0.83305409  0.39692218
   0.41656839  0.91919270  0.50029686
   0.82948577  0.08549702  0.39199985
   0.33521816  0.83107990  0.39624028
   0.66427210  0.16685230  0.49941403
   0.74852889 -0.00165851  0.60427412
   0.83082739  0.33665547  0.39466883
   0.25117470  0.25003910  0.60102037
   0.66602317  0.41877774  0.49946897
   0.25250829 -0.00314938  0.60243503
   0.49973569  0.25067014  0.60339415
   0.91894371  0.16674202  0.50004491
   0.00083708 -0.00133496  0.60487670
   0.00194523  0.74759879  0.60468597
   0.91775752  0.91554135  0.49995525
   0.08539773  0.82969317  0.39702638
  -0.00168798  0.50116895  0.60209305
   0.91624759  0.66553081  0.49987111
   0.08525625  0.33495937  0.39968383
  -0.00216506  0.25156523  0.60245946
   0.83253404  0.83219776  0.39515752
   0.83322553  0.58295027  0.40296676
   0.66639562  0.66801620  0.49935253
   0.74952915  0.25029727  0.59733648
   0.58308442  0.58238135  0.40213226
   0.50187026  0.74954776  0.59723477
   0.74885797  0.50134713  0.59595671
   0.25054293  0.74906783  0.59647593
   0.58086851  0.33472999  0.40254769
   0.91803698  0.41717479  0.49964155
   0.08530509  0.58171246  0.40364685
   0.33479913  0.08466321  0.40399784
   0.16715523  0.16849713  0.50031470
   0.33584836  0.33196327  0.40437394
   0.16853349  0.41491837  0.49975759
   0.41340198  0.41721099  0.50065054
   0.33474934  0.57963124  0.40349279
   0.25046492  0.50100487  0.59608937
   0.16713394  0.91657725  0.49956644
   0.66581723  0.91730871  0.49901701
   0.58113832  0.08523974  0.40296669
   0.41562770  0.16874004  0.50095964
   0.50140345 -0.00174677  0.59722094
   0.16627848  0.66579442  0.49943657
   0.74731926  0.75009390  0.59598998
Direct configuration=    13
   0.08498521  0.08320617  0.39802405
   0.41437672  0.66708781  0.50026464
   0.49990189  0.50189725  0.60472319
   0.58404093  0.83301188  0.39673613
   0.41641309  0.91925865  0.50025221
   0.82938593  0.08553162  0.39164741
   0.33498581  0.83117542  0.39615496
   0.66438155  0.16666741  0.49947425
   0.74849244 -0.00169817  0.60437217
   0.83080200  0.33660314  0.39443884
   0.25121972  0.25010898  0.60114392
   0.66611938  0.41866564  0.49942196
   0.25247011 -0.00323226  0.60246938
   0.49964230  0.25076082  0.60357835
   0.91910432  0.16660711  0.49993942
   0.00084344 -0.00137079  0.60502004
   0.00175973  0.74760128  0.60483191
   0.91771590  0.91577409  0.49995491
   0.08552427  0.82970590  0.39692842
  -0.00167365  0.50116095  0.60211548
   0.91624536  0.66552763  0.49993864
   0.08525310  0.33485044  0.39971888
  -0.00216784  0.25157808  0.60247003
   0.83236634  0.83227301  0.39495012
   0.83314154  0.58300744  0.40298383
   0.66641728  0.66809475  0.49920594
   0.74943735  0.25031421  0.59721790
   0.58311274  0.58234134  0.40209406
   0.50185033  0.74939432  0.59714759
   0.74881907  0.50130416  0.59581696
   0.25056143  0.74907457  0.59636513
   0.58090242  0.33479454  0.40262271
   0.91815821  0.41707200  0.49961888
   0.08531472  0.58173184  0.40369833
   0.33478041  0.08460645  0.40415522
   0.16703755  0.16859269  0.50041269
   0.33593685  0.33193702  0.40457039
   0.16836996  0.41501043  0.49988042
   0.41345929  0.41728122  0.50083363
   0.33477472  0.57962185  0.40360288
   0.25054955  0.50086125  0.59608217
   0.16695150  0.91667604  0.49949374
   0.66594154  0.91742644  0.49893010
   0.58130613  0.08503128  0.40304295
   0.41576386  0.16865556  0.50116263
   0.50144839 -0.00153018  0.59717300
   0.16633468  0.66585734  0.49945029
   0.74744245  0.75009138  0.59586922
Direct configuration=    14
   0.08491576  0.08323813  0.39799559
   0.41447450  0.66713675  0.50019711
   0.49988403  0.50172742  0.60498626
   0.58378638  0.83287321  0.39645489
   0.41640062  0.91925276  0.50019144
   0.82932722  0.08551308  0.39110861
   0.33515045  0.83114180  0.39606544
   0.66423309  0.16674123  0.49957744
   0.74840807 -0.00154094  0.60444777
   0.83095517  0.33626801  0.39407494
   0.25116949  0.25006773  0.60136628
   0.66658545  0.41845309  0.49929997
   0.25245212 -0.00326281  0.60241037
   0.49973977  0.25085865  0.60389669
   0.91915992  0.16675410  0.49972322
   0.00075316 -0.00140063  0.60518129
   0.00191330  0.74762553  0.60497144
   0.91803175  0.91566084  0.49988939
   0.08517417  0.82969018  0.39685762
  -0.00166071  0.50103516  0.60209615
   0.91625900  0.66591901  0.49991123
   0.08520225  0.33469746  0.39986666
  -0.00228302  0.25158614  0.60236945
   0.83276036  0.83241085  0.39463490
   0.83300294  0.58294733  0.40298389
   0.66639873  0.66817163  0.49890636
   0.74942557  0.25029040  0.59701703
   0.58308754  0.58248146  0.40200719
   0.50192215  0.74947360  0.59695331
   0.74889803  0.50111713  0.59557531
   0.25019115  0.74912047  0.59625318
   0.58096695  0.33474561  0.40275865
   0.91798271  0.41678224  0.49953799
   0.08516506  0.58199251  0.40378194
   0.33484283  0.08446561  0.40439736
   0.16680302  0.16868555  0.50062906
   0.33614391  0.33176551  0.40504369
   0.16828110  0.41514993  0.50018979
   0.41384279  0.41706727  0.50122272
   0.33486619  0.57962992  0.40377257
   0.25044283  0.50095700  0.59617892
   0.16661052  0.91681256  0.49938290
   0.66604343  0.91741020  0.49882421
   0.58145693  0.08497053  0.40318059
   0.41610896  0.16854829  0.50153146
   0.50147791 -0.00146085  0.59711734
   0.16593193  0.66628893  0.49953365
   0.74731451  0.75014043  0.59564676
Direct configuration=    15
   0.08490280  0.08324409  0.39799028
   0.41449274  0.66714587  0.50018452
   0.49988070  0.50169575  0.60503532
   0.58373891  0.83284735  0.39640244
   0.41639829  0.91925166  0.50018011
   0.82931627  0.08550962  0.39100813
   0.33518116  0.83113553  0.39604875
   0.66420540  0.16675500  0.49959668
   0.74839234 -0.00151162  0.60446187
   0.83098374  0.33620551  0.39400708
   0.25116012  0.25006003  0.60140775
   0.66667237  0.41841345  0.49927722
   0.25244877 -0.00326851  0.60239936
   0.49975794  0.25087689  0.60395606
   0.91917029  0.16678151  0.49968290
   0.00073632 -0.00140620  0.60521135
   0.00194194  0.74763005  0.60499746
   0.91809065  0.91563972  0.49987717
   0.08510888  0.82968725  0.39684441
  -0.00165829  0.50101170  0.60209255
   0.91626154  0.66599200  0.49990612
   0.08519277  0.33466893  0.39989422
  -0.00230449  0.25158765  0.60235069
   0.83283384  0.83243656  0.39457611
   0.83297710  0.58293612  0.40298390
   0.66639527  0.66818596  0.49885049
   0.74942337  0.25028597  0.59697957
   0.58308285  0.58250759  0.40199099
   0.50193555  0.74948838  0.59691708
   0.74891275  0.50108226  0.59553025
   0.25012210  0.74912903  0.59623230
   0.58097899  0.33473648  0.40278400
   0.91794998  0.41672821  0.49952291
   0.08513716  0.58204112  0.40379753
   0.33485447  0.08443934  0.40444252
   0.16675928  0.16870286  0.50066941
   0.33618252  0.33173353  0.40513195
   0.16826453  0.41517594  0.50024748
   0.41391431  0.41702737  0.50129527
   0.33488325  0.57963143  0.40380421
   0.25042292  0.50097486  0.59619697
   0.16654694  0.91683802  0.49936223
   0.66606243  0.91740717  0.49880446
   0.58148505  0.08495920  0.40320626
   0.41617331  0.16852829  0.50160024
   0.50148342 -0.00144793  0.59710696
   0.16585682  0.66636941  0.49954920
   0.74729065  0.75014957  0.59560527
Direct configuration=    16
   0.08479322  0.08318371  0.39797894
   0.41482498  0.66691103  0.50013673
   0.49984915  0.50179244  0.60519773
   0.58375628  0.83291940  0.39620507
   0.41649726  0.91923980  0.50016222
   0.82923268  0.08557594  0.39062662
   0.33519123  0.83106123  0.39599953
   0.66443039  0.16675330  0.49964639
   0.74847786 -0.00146963  0.60443044
   0.83100980  0.33607182  0.39371634
   0.25117455  0.24985879  0.60162913
   0.66668435  0.41857997  0.49910772
   0.25246144 -0.00329283  0.60227430
   0.49982912  0.25084159  0.60423490
   0.91889261  0.16676190  0.49949478
   0.00054663 -0.00121033  0.60525352
   0.00201162  0.74764733  0.60503407
   0.91795025  0.91584789  0.49979528
   0.08503400  0.82972703  0.39683115
  -0.00180982  0.50108037  0.60201561
   0.91617821  0.66604313  0.49975282
   0.08527232  0.33482416  0.40014039
  -0.00242674  0.25142388  0.60220776
   0.83287369  0.83241714  0.39434560
   0.83302431  0.58286931  0.40294398
   0.66647209  0.66814294  0.49863776
   0.74958966  0.25018860  0.59687297
   0.58318600  0.58237576  0.40187531
   0.50201241  0.74953037  0.59673089
   0.74884536  0.50112033  0.59536205
   0.24998548  0.74912900  0.59621389
   0.58103349  0.33463158  0.40289259
   0.91771518  0.41701377  0.49937736
   0.08511260  0.58190533  0.40390790
   0.33497170  0.08445714  0.40463159
   0.16695100  0.16864431  0.50083836
   0.33608542  0.33167305  0.40566077
   0.16835088  0.41522989  0.50049636
   0.41409082  0.41712940  0.50164133
   0.33487762  0.57962026  0.40395206
   0.25022364  0.50116641  0.59640695
   0.16669238  0.91683023  0.49929680
   0.66609444  0.91721729  0.49870462
   0.58146825  0.08495093  0.40329551
   0.41606806  0.16864975  0.50187241
   0.50144315 -0.00160917  0.59713396
   0.16584947  0.66636894  0.49963030
   0.74712149  0.75017552  0.59540725
Direct configuration=    17
   0.08474495  0.08315712  0.39797394
   0.41497133  0.66680759  0.50011569
   0.49983526  0.50183504  0.60526927
   0.58376393  0.83295113  0.39611813