  48  48   0   0
  0.5349325E+02  0.1100258E-08  0.1100258E-08  0.2449179E-08  0.3500000E-15
  1.000000000000000E-004
  CAR 
 unknown system                          
      6.33736132     -9.67638864  301     -1.09154012      1.00000000
     -9.676  0.0000E+00  0.0000E+00
     -9.623  0.0000E+00  0.0000E+00
     -9.570  0.0000E+00  0.0000E+00
     -9.516  0.0000E+00  0.0000E+00
     -9.463  0.0000E+00  0.0000E+00
     -9.409  0.0000E+00  0.0000E+00
     -9.356  0.0000E+00  0.0000E+00
     -9.303  0.0000E+00  0.0000E+00
     -9.249  0.3466E-17  0.1850E-18
     -9.196  0.1480E-14  0.7920E-16
     -9.143  0.3289E-12  0.1764E-13
     -9.089  0.4211E-10  0.2265E-11
     -9.036  0.3114E-08  0.1685E-09
     -8.982  0.1334E-06  0.7291E-08
     -8.929  0.3322E-05  0.1846E-06
     -8.876  0.4821E-04  0.2758E-05
     -8.822  0.4090E-03  0.2459E-04
     -8.769  0.2034E-02  0.1332E-03
     -8.716  0.5952E-02  0.4509E-03
     -8.662  0.1038E-01  0.1005E-02
     -8.609  0.1142E-01  0.1614E-02
     -8.555  0.9952E-02  0.2145E-02
     -8.502  0.9927E-02  0.2675E-02
     -8.449  0.1028E-01  0.3224E-02
     -8.395  0.8130E-02  0.3658E-02
     -8.342  0.4468E-02  0.3896E-02
     -8.289  0.1959E-02  0.4001E-02
     -8.235  0.1745E-02  0.4094E-02
     -8.182  0.3070E-02  0.4258E-02
     -8.128  0.4190E-02  0.4482E-02
     -8.075  0.4842E-02  0.4740E-02
     -8.022  0.6690E-02  0.5097E-02
     -7.968  0.9581E-02  0.5609E-02
     -7.915  0.1249E-01  0.6275E-02
     -7.861  0.1680E-01  0.7172E-02
     -7.808  0.2243E-01  0.8369E-02
     -7.755  0.2524E-01  0.9716E-02
     -7.701  0.2195E-01  0.1089E-01
     -7.648  0.1542E-01  0.1171E-01
     -7.595  0.1168E-01  0.1233E-01
     -7.541  0.1254E-01  0.1300E-01
     -7.488  0.1490E-01  0.1380E-01
     -7.434  0.1639E-01  0.1467E-01
     -7.381  0.1719E-01  0.1559E-01
     -7.328  0.1789E-01  0.1655E-01
     -7.274  0.1925E-01  0.1757E-01
     -7.221  0.2262E-01  0.1878E-01
     -7.168  0.2727E-01  0.2024E-01
     -7.114  0.3108E-01  0.2190E-01
     -7.061  0.3535E-01  0.2378E-01
     -7.007  0.4281E-01  0.2607E-01
     -6.954  0.5214E-01  0.2885E-01
     -6.901  0.6064E-01  0.3209E-01
     -6.847  0.6908E-01  0.3578E-01
     -6.794  0.7797E-01  0.3994E-01
     -6.741  0.8599E-01  0.4453E-01
     -6.687  0.9467E-01  0.4958E-01
     -6.634  0.1041E+00  0.5514E-01
     -6.580  0.1090E+00  0.6096E-01
     -6.527  0.1062E+00  0.6663E-01
     -6.474  0.9934E-01  0.7193E-01
     -6.420  0.9410E-01  0.7695E-01
     -6.367  0.9707E-01  0.8214E-01
     -6.314  0.1109E+00  0.8806E-01
     -6.260  0.1296E+00  0.9497E-01
     -6.207  0.1427E+00  0.1026E+00
     -6.153  0.1469E+00  0.1104E+00
     -6.100  0.1471E+00  0.1183E+00
     -6.047  0.1467E+00  0.1261E+00
     -5.993  0.1466E+00  0.1339E+00
     -5.940  0.1477E+00  0.1418E+00
     -5.886  0.1499E+00  0.1498E+00
     -5.833  0.1529E+00  0.1580E+00
     -5.780  0.1541E+00  0.1662E+00
     -5.726  0.1491E+00  0.1742E+00
     -5.673  0.1417E+00  0.1817E+00
     -5.620  0.1384E+00  0.1891E+00
     -5.566  0.1378E+00  0.1965E+00
     -5.513  0.1376E+00  0.2038E+00
     -5.459  0.1405E+00  0.2113E+00
     -5.406  0.1486E+00  0.2193E+00
     -5.353  0.1611E+00  0.2279E+00
     -5.299  0.1735E+00  0.2371E+00
     -5.246  0.1781E+00  0.2466E+00
     -5.193  0.1744E+00  0.2559E+00
     -5.139  0.1689E+00  0.2649E+00
     -5.086  0.1654E+00  0.2738E+00
     -5.032  0.1650E+00  0.2826E+00
     -4.979  0.1688E+00  0.2916E+00
     -4.926  0.1747E+00  0.3009E+00
     -4.872  0.1774E+00  0.3104E+00
     -4.819  0.1760E+00  0.3198E+00
     -4.766  0.1756E+00  0.3292E+00
     -4.712  0.1766E+00  0.3386E+00
     -4.659  0.1768E+00  0.3480E+00
     -4.605  0.1767E+00  0.3575E+00
     -4.552  0.1778E+00  0.3669E+00
     -4.499  0.1799E+00  0.3765E+00
     -4.445  0.1812E+00  0.3862E+00
     -4.392  0.1816E+00  0.3959E+00
     -4.338  0.1824E+00  0.4056E+00
     -4.285  0.1828E+00  0.4154E+00
     -4.232  0.1834E+00  0.4252E+00
     -4.178  0.1860E+00  0.4351E+00
     -4.125  0.1892E+00  0.4452E+00
     -4.072  0.1882E+00  0.4553E+00
     -4.018  0.1841E+00  0.4651E+00
     -3.965  0.1825E+00  0.4748E+00
     -3.911  0.1839E+00  0.4847E+00
     -3.858  0.1849E+00  0.4945E+00
     -3.805  0.1870E+00  0.5045E+00
     -3.751  0.1943E+00  0.5149E+00
     -3.698  0.2056E+00  0.5258E+00
     -3.645  0.2157E+00  0.5374E+00
     -3.591  0.2210E+00  0.5492E+00
     -3.538  0.2216E+00  0.5610E+00
     -3.484  0.2185E+00  0.5727E+00
     -3.431  0.2111E+00  0.5839E+00
     -3.378  0.2037E+00  0.5948E+00
     -3.324  0.2020E+00  0.6056E+00
     -3.271  0.2037E+00  0.6164E+00
     -3.218  0.2012E+00  0.6272E+00
     -3.164  0.1912E+00  0.6374E+00
     -3.111  0.1783E+00  0.6469E+00
     -3.057  0.1705E+00  0.6560E+00
     -3.004  0.1710E+00  0.6651E+00
     -2.951  0.1765E+00  0.6746E+00
     -2.897  0.1825E+00  0.6843E+00
     -2.844  0.1861E+00  0.6942E+00
     -2.790  0.1862E+00  0.7042E+00
     -2.737  0.1846E+00  0.7140E+00
     -2.684  0.1831E+00  0.7238E+00
     -2.630  0.1812E+00  0.7335E+00
     -2.577  0.1778E+00  0.7430E+00
     -2.524  0.1752E+00  0.7523E+00
     -2.470  0.1767E+00  0.7617E+00
     -2.417  0.1832E+00  0.7715E+00
     -2.363  0.1897E+00  0.7817E+00
     -2.310  0.1898E+00  0.7918E+00
     -2.257  0.1852E+00  0.8017E+00
     -2.203  0.1818E+00  0.8114E+00
     -2.150  0.1809E+00  0.8210E+00
     -2.097  0.1795E+00  0.8306E+00
     -2.043  0.1756E+00  0.8400E+00
     -1.990  0.1724E+00  0.8492E+00
     -1.936  0.1741E+00  0.8585E+00
     -1.883  0.1791E+00  0.8680E+00
     -1.830  0.1828E+00  0.8778E+00
     -1.776  0.1866E+00  0.8878E+00
     -1.723  0.1917E+00  0.8980E+00
     -1.670  0.1948E+00  0.9084E+00
     -1.616  0.1947E+00  0.9188E+00
     -1.563  0.1917E+00  0.9290E+00
     -1.509  0.1873E+00  0.9390E+00
     -1.456  0.1855E+00  0.9489E+00
     -1.403  0.1858E+00  0.9588E+00
     -1.349  0.1827E+00  0.9686E+00
     -1.296  0.1755E+00  0.9780E+00
     -1.242  0.1677E+00  0.9869E+00
     -1.189  0.1571E+00  0.9953E+00
     -1.136  0.1396E+00  0.1003E+01
     -1.082  0.1165E+00  0.1009E+01
     -1.029  0.9056E-01  0.1014E+01
     -0.976  0.6225E-01  0.1017E+01
     -0.922  0.3675E-01  0.1019E+01
     -0.869  0.2226E-01  0.1020E+01
     -0.815  0.1945E-01  0.1021E+01
     -0.762  0.2019E-01  0.1022E+01
     -0.709  0.1918E-01  0.1023E+01
     -0.655  0.1908E-01  0.1024E+01
     -0.602  0.2321E-01  0.1026E+01
     -0.549  0.3082E-01  0.1027E+01
     -0.495  0.3797E-01  0.1029E+01
     -0.442  0.4037E-01  0.1032E+01
     -0.388  0.3733E-01  0.1034E+01
     -0.335  0.3234E-01  0.1035E+01
     -0.282  0.3194E-01  0.1037E+01
     -0.228  0.3835E-01  0.1039E+01
     -0.175  0.4307E-01  0.1041E+01
     -0.122  0.3933E-01  0.1043E+01
     -0.068  0.3181E-01  0.1045E+01
     -0.015  0.2696E-01  0.1047E+01
      0.039  0.2666E-01  0.1048E+01
      0.092  0.3067E-01  0.1050E+01
      0.145  0.3553E-01  0.1051E+01
      0.199  0.3636E-01  0.1053E+01
      0.252  0.3543E-01  0.1055E+01
      0.306  0.3821E-01  0.1057E+01
      0.359  0.4203E-01  0.1060E+01
      0.412  0.4017E-01  0.1062E+01
      0.466  0.3388E-01  0.1064E+01
      0.519  0.3129E-01  0.1065E+01
      0.572  0.3488E-01  0.1067E+01
      0.626  0.3960E-01  0.1069E+01
      0.679  0.4082E-01  0.1071E+01
      0.733  0.3938E-01  0.1073E+01
      0.786  0.3655E-01  0.1075E+01
      0.839  0.3011E-01  0.1077E+01
      0.893  0.2311E-01  0.1078E+01
      0.946  0.2199E-01  0.1079E+01
      0.999  0.2398E-01  0.1081E+01
      1.053  0.2228E-01  0.1082E+01
      1.106  0.1842E-01  0.1083E+01
      1.160  0.1752E-01  0.1084E+01
      1.213  0.1824E-01  0.1085E+01
      1.266  0.1672E-01  0.1086E+01
      1.320  0.1387E-01  0.1086E+01
      1.373  0.1390E-01  0.1087E+01
      1.426  0.1900E-01  0.1088E+01
      1.480  0.2709E-01  0.1090E+01
      1.533  0.3346E-01  0.1091E+01
      1.587  0.3429E-01  0.1093E+01
      1.640  0.3229E-01  0.1095E+01
      1.693  0.3253E-01  0.1097E+01
      1.747  0.3464E-01  0.1099E+01
      1.800  0.3589E-01  0.1100E+01
      1.854  0.3349E-01  0.1102E+01
      1.907  0.2731E-01  0.1104E+01
      1.960  0.2313E-01  0.1105E+01
      2.014  0.2284E-01  0.1106E+01
      2.067  0.2161E-01  0.1107E+01
      2.120  0.1894E-01  0.1108E+01
      2.174  0.1941E-01  0.1109E+01
      2.227  0.2557E-01  0.1111E+01
      2.281  0.3532E-01  0.1113E+01
      2.334  0.4341E-01  0.1115E+01
      2.387  0.4590E-01  0.1117E+01
      2.441  0.4340E-01  0.1120E+01
      2.494  0.4068E-01  0.1122E+01
      2.547  0.4242E-01  0.1124E+01
      2.601  0.4735E-01  0.1127E+01
      2.654  0.4974E-01  0.1129E+01
      2.708  0.4702E-01  0.1132E+01
      2.761  0.4119E-01  0.1134E+01
      2.814  0.3322E-01  0.1136E+01
      2.868  0.2466E-01  0.1137E+01
      2.921  0.1907E-01  0.1138E+01
      2.974  0.1697E-01  0.1139E+01
      3.028  0.1655E-01  0.1140E+01
      3.081  0.1730E-01  0.1141E+01
      3.135  0.1907E-01  0.1142E+01
      3.188  0.2171E-01  0.1143E+01
      3.241  0.2402E-01  0.1144E+01
      3.295  0.2311E-01  0.1146E+01
      3.348  0.1941E-01  0.1147E+01
      3.402  0.1594E-01  0.1147E+01
      3.455  0.1495E-01  0.1148E+01
      3.508  0.1913E-01  0.1149E+01
      3.562  0.2760E-01  0.1151E+01
      3.615  0.3465E-01  0.1153E+01
      3.668  0.3651E-01  0.1155E+01
      3.722  0.3537E-01  0.1156E+01
      3.775  0.3424E-01  0.1158E+01
      3.829  0.3133E-01  0.1160E+01
      3.882  0.2530E-01  0.1161E+01
      3.935  0.2082E-01  0.1162E+01
      3.989  0.2217E-01  0.1164E+01
      4.042  0.2603E-01  0.1165E+01
      4.095  0.2757E-01  0.1166E+01
      4.149  0.2739E-01  0.1168E+01
      4.202  0.2647E-01  0.1169E+01
      4.256  0.2346E-01  0.1171E+01
      4.309  0.1909E-01  0.1172E+01
      4.362  0.1807E-01  0.1173E+01
      4.416  0.2316E-01  0.1174E+01
      4.469  0.2997E-01  0.1175E+01
      4.522  0.3569E-01  0.1177E+01
      4.576  0.4397E-01  0.1180E+01
      4.629  0.5366E-01  0.1182E+01
      4.683  0.5561E-01  0.1185E+01
      4.736  0.4861E-01  0.1188E+01
      4.789  0.4327E-01  0.1190E+01
      4.843  0.4498E-01  0.1193E+01
      4.896  0.5038E-01  0.1195E+01
      4.950  0.5690E-01  0.1198E+01
      5.003  0.6548E-01  0.1202E+01
      5.056  0.7454E-01  0.1206E+01
      5.110  0.7652E-01  0.1210E+01
      5.163  0.6913E-01  0.1214E+01
      5.216  0.5999E-01  0.1217E+01
      5.270  0.5236E-01  0.1220E+01
      5.323  0.4107E-01  0.1222E+01
      5.377  0.2491E-01  0.1223E+01
      5.430  0.1057E-01  0.1224E+01
      5.483  0.2952E-02  0.1224E+01
      5.537  0.5213E-03  0.1224E+01
      5.590  0.5655E-04  0.1224E+01
      5.643  0.3694E-05  0.1224E+01
      5.697  0.1434E-06  0.1224E+01
      5.750  0.3272E-08  0.1224E+01
      5.804  0.4361E-10  0.1224E+01
      5.857  0.3374E-12  0.1224E+01
      5.910  0.1509E-14  0.1224E+01
      5.964  0.2773E-17  0.1224E+01
      6.017  0.0000E+00  0.1224E+01
      6.070  0.0000E+00  0.1224E+01
      6.124  0.0000E+00  0.1224E+01
      6.177  0.0000E+00  0.1224E+01
      6.231  0.0000E+00  0.1224E+01
      6.284  0.0000E+00  0.1224E+01
      6.337  0.0000E+00  0.1224E+01
