 vasp.5.4.1 24Jun15 (build Mar 14 2019 10:18:33) complex                        
  
 executed on INTEL-19.0.2+OPENMPI date 2022.06.20  18:30:35
 running on   36 total cores
 distrk:  each k-point on   36 cores,    1 groups
 distr:  one band on NCORES_PER_BAND=   6 cores,    6 groups


--------------------------------------------------------------------------------------------------------


 INCAR:
 POTCAR:    PAW_PBE Au 04Oct2007                  
 POTCAR:    PAW_PBE Pd 04Jan2005                  
 POTCAR:    PAW_PBE Au 04Oct2007                  
  local pseudopotential read in
  partial core-charges read in
  partial kinetic energy density read in
  atomic valenz-charges read in
  non local Contribution for L=           2  read in
    real space projection operators read in
  non local Contribution for L=           2  read in
    real space projection operators read in
  non local Contribution for L=           0  read in
    real space projection operators read in
  non local Contribution for L=           0  read in
    real space projection operators read in
  non local Contribution for L=           1  read in
    real space projection operators read in
  non local Contribution for L=           1  read in
    real space projection operators read in
    PAW grid and wavefunctions read in
 
   number of l-projection  operators is LMAX  =           6
   number of lm-projection operators is LMMAX =          18
 
 POTCAR:    PAW_PBE Pd 04Jan2005                  
  local pseudopotential read in
  partial core-charges read in
  partial kinetic energy density read in
  atomic valenz-charges read in
  non local Contribution for L=           2  read in
    real space projection operators read in
  non local Contribution for L=           2  read in
    real space projection operators read in
  non local Contribution for L=           0  read in
    real space projection operators read in
  non local Contribution for L=           0  read in
    real space projection operators read in
  non local Contribution for L=           1  read in
    real space projection operators read in
  non local Contribution for L=           1  read in
    real space projection operators read in
    PAW grid and wavefunctions read in
 
   number of l-projection  operators is LMAX  =           6
   number of lm-projection operators is LMMAX =          18
 
 Optimization of the real space projectors (new method)

 maximal supplied QI-value         = 15.12
 optimisation between [QCUT,QGAM] = [ 10.13, 20.41] = [ 28.73,116.64] Ry 
 Optimized for a Real-space Cutoff    1.51 Angstroem

   l    n(q)    QCUT    max X(q) W(low)/X(q) W(high)/X(q)  e(spline) 
   2      8    10.129    60.898    0.46E-03    0.46E-03    0.14E-06
   2      8    10.129    58.894    0.47E-03    0.47E-03    0.14E-06
   0      9    10.129   109.617    0.16E-03    0.11E-03    0.54E-07
   0      9    10.129    75.026    0.15E-03    0.11E-03    0.52E-07
   1      9    10.129    16.344    0.96E-04    0.15E-03    0.14E-06
   1      9    10.129    10.160    0.81E-04    0.12E-03    0.11E-06
 Optimization of the real space projectors (new method)

 maximal supplied QI-value         = 14.36
 optimisation between [QCUT,QGAM] = [ 10.20, 20.39] = [ 29.12,116.47] Ry 
 Optimized for a Real-space Cutoff    1.51 Angstroem

   l    n(q)    QCUT    max X(q) W(low)/X(q) W(high)/X(q)  e(spline) 
   2      8    10.197    59.108    0.26E-03    0.14E-03    0.96E-07
   2      8    10.197    58.101    0.27E-03    0.14E-03    0.98E-07
   0      9    10.197   102.235    0.54E-04    0.60E-05    0.72E-07
   0      9    10.197    58.388    0.52E-04    0.60E-05    0.68E-07
   1      9    10.197    22.191    0.18E-03    0.25E-03    0.79E-07
   1      9    10.197    15.590    0.15E-03    0.21E-03    0.69E-07
  PAW_PBE Au 04Oct2007                  :
 energy of atom  1       EATOM= -926.0867
 kinetic energy error for atom=    0.0062 (will be added to EATOM!!)
  PAW_PBE Pd 04Jan2005                  :
 energy of atom  2       EATOM= -809.7530
 kinetic energy error for atom=    0.0091 (will be added to EATOM!!)
 
 
 POSCAR: Au Pd                                   
  positions in cartesian coordinates
  No initial velocities read in
 exchange correlation table for  LEXCH =        8
   RHO(1)=    0.500       N(1)  =     2000
   RHO(2)=  100.500       N(2)  =     4000

 VTST: version 3.2, (02/03/18)

 CHAIN: initializing optimizer
 
 OPT: Using VASP Conjugate-Gradient optimizer
 CHAIN: Read ICHAIN            0
 
 POSCAR: Au Pd                                   
  positions in cartesian coordinates
  No initial velocities read in
 


--------------------------------------------------------------------------------------------------------


 ion  position               nearest neighbor table
   1  0.083  0.083  0.408-  40 2.75  17 2.75  23 2.75  31 2.75   7 2.75   9 2.75  41 2.75   6 2.75
                            15 2.75
   2  0.583  0.333  0.408-  25 2.75   9 2.75  21 2.75   5 2.75  37 2.75  31 2.75  13 2.75  11 2.75
                            33 2.75
   3  0.500  0.000  0.592-   4 2.75  34 2.75  30 2.75  10 2.75  47 2.75  48 2.75  12 2.75  39 2.75
                             8 2.75
   4  0.417  0.167  0.500-  41 2.75   3 2.75  10 2.75  33 2.75  34 2.75  38 2.75   8 2.75  40 2.75
                            11 2.75  13 2.75   5 2.75  47 2.75
   5  0.583  0.083  0.408-  11 2.75   2 2.75  13 2.75  18 2.75  26 2.75   9 2.75  41 2.75  34 2.75
                             4 2.75
   6  0.167  0.917  0.500-  23 2.75  32 2.75  16 2.75  28 2.75  15 2.75  36 2.75  40 2.75   8 2.75
                            43 2.75   1 2.75   7 2.75  39 2.75
   7  0.333  0.833  0.408-   8 2.75   1 2.75  21 2.75  37 2.75  41 2.75  23 2.75  26 2.75  28 2.75
                             6 2.75
   8  0.417  0.917  0.500-   7 2.75  30 2.75  39 2.75  28 2.75   4 2.75  20 2.75  40 2.75   6 2.75
                            34 2.75  41 2.75   3 2.75  26 2.75
   9  0.833  0.083  0.408-  15 2.75   2 2.75  18 2.75  23 2.75  31 2.75   1 2.75   5 2.75  43 2.75
                            11 2.75
  10  0.250  0.250  0.592-  38 2.75   4 2.75  22 2.75  35 2.75   3 2.75  39 2.75  19 2.75  47 2.75
                            40 2.75
  11  0.667  0.167  0.500-   5 2.75  12 2.75  47 2.75  33 2.75  34 2.75  43 2.75  25 2.75  15 2.75
                             4 2.75   2 2.75  24 2.75   9 2.75
  12  0.750  0.000  0.592-  11 2.75  43 2.75  42 2.75  24 2.75  47 2.75  48 2.75  16 2.75   3 2.75
                            34 2.75
  13  0.333  0.333  0.408-  33 2.75   5 2.75  37 2.75  41 2.75  45 2.75   2 2.75  17 2.75   4 2.75
                            38 2.75
  14  0.750  0.500  0.592-  20 2.75  46 2.75  24 2.75  30 2.75  19 2.75  48 2.75  29 2.75  22 2.75
                            25 2.75
  15  0.917  0.167  0.500-   9 2.75  16 2.75  24 2.75   6 2.75  25 2.75  43 2.75  46 2.75  11 2.75
                            40 2.75  31 2.75   1 2.75  19 2.75
  16  0.000  0.000  0.592-  15 2.75   6 2.75  19 2.75  24 2.75  32 2.75  42 2.75  39 2.75  12 2.75
                            43 2.75
  17  0.083  0.333  0.408-  38 2.75  27 2.75   1 2.75  41 2.75  45 2.75  31 2.75  13 2.75  40 2.75
                            46 2.75
  18  0.833  0.833  0.408-  43 2.75   9 2.75  27 2.75   5 2.75  45 2.75  26 2.75  23 2.75  44 2.75
                            34 2.75
  19  0.000  0.250  0.592-  46 2.75  40 2.75  22 2.75  39 2.75  14 2.75  16 2.75  24 2.75  10 2.75
                            15 2.75
  20  0.667  0.667  0.500-  21 2.75  14 2.75  30 2.75  25 2.75   8 2.75  34 2.75  46 2.75  44 2.75
                            28 2.75  26 2.75  27 2.75  48 2.75
  21  0.583  0.583  0.408-  20 2.75   7 2.75   2 2.75  26 2.75  31 2.75  27 2.75  37 2.75  25 2.75
                            28 2.75
  22  0.000  0.500  0.592-  44 2.75  38 2.75  10 2.75  42 2.75  19 2.75  48 2.75  14 2.75  35 2.75
                            46 2.75
  23  0.083  0.833  0.408-   6 2.75   1 2.75   9 2.75  37 2.75  45 2.75   7 2.75  18 2.75  36 2.75
                            43 2.75
  24  0.750  0.250  0.592-  25 2.75  15 2.75  12 2.75  16 2.75  14 2.75  29 2.75  19 2.75  47 2.75
                            11 2.75
  25  0.667  0.417  0.500-   2 2.75  24 2.75  29 2.75  20 2.75  11 2.75  28 2.75  15 2.75  33 2.75
                            46 2.75  21 2.75  14 2.75  31 2.75
  26  0.583  0.833  0.408-  34 2.75  21 2.75  27 2.75   5 2.75  41 2.75   7 2.75  18 2.75  20 2.75
                             8 2.75
  27  0.833  0.583  0.408-  44 2.75  18 2.75  26 2.75  31 2.75  17 2.75  21 2.75  45 2.75  46 2.75
                            20 2.75
  28  0.417  0.667  0.500-  37 2.75  29 2.75  32 2.75   6 2.75   8 2.75  33 2.75  25 2.75  36 2.75
                            20 2.75   7 2.75  21 2.75  30 2.75
  29  0.500  0.500  0.592-  28 2.75  25 2.75  24 2.75  30 2.75  32 2.75  47 2.75  35 2.75  14 2.75
                            33 2.75
  30  0.500  0.750  0.592-   8 2.75  20 2.75  14 2.75   3 2.75  29 2.75  39 2.75  32 2.75  48 2.75
                            28 2.75
  31  0.833  0.333  0.408-  46 2.75   9 2.75  21 2.75  27 2.75   1 2.75  17 2.75   2 2.75  15 2.75
                            25 2.75
  32  0.250  0.750  0.592-   6 2.75  28 2.75  16 2.75  29 2.75  35 2.75  39 2.75  30 2.75  42 2.75
                            36 2.75
  33  0.417  0.417  0.500-  13 2.75  47 2.75  35 2.75  28 2.75  11 2.75  36 2.75   4 2.75  38 2.75
                            25 2.75  37 2.75  29 2.75   2 2.75
  34  0.667  0.917  0.500-  26 2.75  48 2.75   3 2.75  20 2.75   4 2.75  44 2.75  11 2.75   8 2.75
                            43 2.75   5 2.75  18 2.75  12 2.75
  35  0.250  0.500  0.592-  36 2.75  33 2.75  10 2.75  32 2.75  42 2.75  47 2.75  29 2.75  22 2.75
                            38 2.75
  36  0.167  0.667  0.500-  45 2.75  35 2.75  42 2.75  38 2.75  33 2.75  43 2.75   6 2.75  44 2.75
                            28 2.75  23 2.75  37 2.75  32 2.75
  37  0.333  0.583  0.408-  28 2.75   7 2.75  13 2.75  23 2.75   2 2.75  21 2.75  45 2.75  33 2.75
                            36 2.75
  38  0.167  0.417  0.500-  17 2.75  10 2.75  22 2.75   4 2.75  36 2.75  40 2.75  44 2.75  33 2.75
                            46 2.75  45 2.75  35 2.75  13 2.75
  39  0.250  0.000  0.592-  40 2.75   8 2.75  19 2.75  30 2.75  32 2.75  10 2.75   3 2.75  16 2.75
                             6 2.75
  40  0.167  0.167  0.500-   1 2.75  39 2.75  19 2.75   6 2.75  38 2.75   8 2.75  46 2.75   4 2.75
                            15 2.75  17 2.75  41 2.75  10 2.75
  41  0.333  0.083  0.408-   4 2.75   7 2.75  13 2.75  17 2.75  26 2.75   1 2.75   5 2.75   8 2.75
                            40 2.75
  42  0.000  0.750  0.592-  43 2.75  36 2.75  22 2.75  35 2.75  12 2.75  16 2.75  32 2.75  48 2.75
                            44 2.75
  43  0.917  0.917  0.500-  18 2.75  42 2.75  12 2.75  11 2.75  36 2.75  15 2.75  44 2.75  34 2.75
                             6 2.75   9 2.75  16 2.75  23 2.75
  44  0.917  0.667  0.500-  27 2.75  22 2.75  48 2.75  38 2.75  43 2.75  46 2.75  34 2.75  20 2.75
                            36 2.75  18 2.75  42 2.75  45 2.75
  45  0.083  0.583  0.408-  36 2.75  17 2.75  18 2.75  23 2.75  13 2.75  27 2.75  37 2.75  38 2.75
                            44 2.75
  46  0.917  0.417  0.500-  31 2.75  19 2.75  14 2.75  20 2.75  15 2.75  40 2.75  44 2.75  25 2.75
                            38 2.75  27 2.75  17 2.75  22 2.75
  47  0.500  0.250  0.592-  33 2.75  11 2.75  12 2.75  29 2.75   3 2.75  35 2.75  24 2.75  10 2.75
                             4 2.75
  48  0.750  0.750  0.592-  34 2.75  44 2.75  14 2.75  22 2.75   3 2.75  12 2.75  42 2.75  30 2.75
                            20 2.75
 
  LATTYP: Found a hexagonal cell.
 ALAT       =    11.0025815153
 C/A-ratio  =     2.2260035120
  
  Lattice vectors:
  
 A1 = (   5.5012907576,  -9.5285150994,   0.0000000000)
 A2 = ( -11.0025815153,   0.0000000000,   0.0000000000)
 A3 = (   0.0000000000,   0.0000000000, -24.4917850943)


Analysis of symmetry for initial positions (statically):
=====================================================================
 Subroutine PRICEL returns:
 Original cell was already a primitive cell.
 

 Routine SETGRP: Setting up the symmetry group for a 
 hexagonal supercell.


 Subroutine GETGRP returns: Found  1 space group operations
 (whereof  1 operations were pure point group operations)
 out of a pool of 24 trial point group operations.


The static configuration has the point symmetry C_1 .


Analysis of symmetry for dynamics (positions and initial velocities):
=====================================================================
 Subroutine PRICEL returns:
 Original cell was already a primitive cell.
 

 Routine SETGRP: Setting up the symmetry group for a 
 hexagonal supercell.


 Subroutine GETGRP returns: Found  1 space group operations
 (whereof  1 operations were pure point group operations)
 out of a pool of 24 trial point group operations.


The dynamic configuration has the point symmetry C_1 .
 
 
 KPOINTS: Automatic mesh                          

Automatic generation of k-mesh.
Space group operators:
 irot       det(A)        alpha          n_x          n_y          n_z        tau_x        tau_y        tau_z
    1     1.000000     0.000000     1.000000     0.000000     0.000000     0.000000     0.000000     0.000000
 
 Subroutine IBZKPT returns following result:
 ===========================================
 
 Found      6 irreducible k-points:
 
 Following reciprocal coordinates:
            Coordinates               Weight
  0.250000  0.250000  0.000000     16.000000
  0.000000  0.250000  0.000000     16.000000
 -0.250000  0.000000  0.000000     16.000000
 -0.250000  0.250000  0.000000     16.000000
  0.500000 -0.250000  0.000000     16.000000
 -0.250000  0.500000  0.000000     16.000000
 
 Following cartesian coordinates:
            Coordinates               Weight
  0.022722  0.013119  0.000000     16.000000
  0.000000  0.026237  0.000000     16.000000
 -0.022722  0.013119  0.000000     16.000000
 -0.022722  0.039356  0.000000     16.000000
  0.045444 -0.052474  0.000000     16.000000
 -0.022722  0.065593  0.000000     16.000000
 


--------------------------------------------------------------------------------------------------------




 Dimension of arrays:
   k-points           NKPTS =      6   k-points in BZ     NKDIM =      6   number of bands    NBANDS=    306
   number of dos      NEDOS =    301   number of ions     NIONS =     48
   non local maximal  LDIM  =      6   non local SUM 2l+1 LMDIM =     18
   total plane-waves  NPLWV = 349920
   max r-space proj   IRMAX =   2009   max aug-charges    IRDMAX=   8532
   dimension x,y,z NGX =    54 NGY =   54 NGZ =  120
   dimension x,y,z NGXF=   108 NGYF=  108 NGZF=  240
   support grid    NGXF=   108 NGYF=  108 NGZF=  240
   ions per type =              24  24
 NGX,Y,Z   is equivalent  to a cutoff of   8.16,  8.16,  8.15 a.u.
 NGXF,Y,Z  is equivalent  to a cutoff of  16.32, 16.32, 16.29 a.u.


 I would recommend the setting:
   dimension x,y,z NGX =    54 NGY =   54 NGZ =  120
 SYSTEM =  unknown system                          
 POSCAR =  Au Pd                                   

 Startparameter for this run:
   NWRITE =      1    write-flag & timer
   PREC   = normal    normal or accurate (medium, high low for compatibility)
   ISTART =      0    job   : 0-new  1-cont  2-samecut
   ICHARG =      2    charge: 1-file 2-atom 10-const
   ISPIN  =      1    spin polarized calculation?
   LNONCOLLINEAR =      F non collinear calculations
   LSORBIT =      F    spin-orbit coupling
   INIWAV =      1    electr: 0-lowe 1-rand  2-diag
   LASPH  =      F    aspherical Exc in radial PAW
   METAGGA=      F    non-selfconsistent MetaGGA calc.

 Electronic Relaxation 1
   ENCUT  =  400.0 eV  29.40 Ry    5.42 a.u.  17.94 17.94 39.94*2*pi/ulx,y,z
   ENINI  =  400.0     initial cutoff
   ENAUG  =  416.2 eV  augmentation charge cutoff
   NELM   =    500;   NELMIN=  2; NELMDL= -5     # of ELM steps 
   EDIFF  = 0.1E-05   stopping-criterion for ELM
   LREAL  =      T    real-space projection
   NLSPLINE    = F    spline interpolate recip. space projectors
   LCOMPAT=      F    compatible to vasp.4.4
   GGA_COMPAT  = T    GGA compatible to vasp.4.4-vasp.4.6
   LMAXPAW     = -100 max onsite density
   LMAXMIX     =    2 max onsite mixed and CHGCAR
   VOSKOWN=      1    Vosko Wilk Nusair interpolation
   ROPT   =   -0.00050  -0.00050
 Ionic relaxation
   EDIFFG = -.2E-01   stopping-criterion for IOM
   NSW    =    500    number of steps for IOM
   NBLOCK =      1;   KBLOCK =    500    inner block; outer block 
   IBRION =      2    ionic relax: 0-MD 1-quasi-New 2-CG
   NFREE  =      2    steps in history (QN), initial steepest desc. (CG)
   ISIF   =      0    stress and relaxation
   IWAVPR =     11    prediction:  0-non 1-charg 2-wave 3-comb
   ISYM   =      2    0-nonsym 1-usesym 2-fastsym
   LCORR  =      T    Harris-Foulkes like correction to forces

   POTIM  = 0.3500    time-step for ionic-motion
   TEIN   =    0.0    initial temperature
   TEBEG  =    0.0;   TEEND  =   0.0 temperature during run
   SMASS  =  -3.00    Nose mass-parameter (am)
   estimated Nose-frequenzy (Omega)   =  0.10E-29 period in steps =****** mass=  -0.277E-26a.u.
   SCALEE = 1.0000    scale energy and forces
   NPACO  =    256;   APACO  = 16.0  distance and # of slots for P.C.
   PSTRESS=    0.0 pullay stress

  Mass of Ions in am
   POMASS = 196.97106.42
  Ionic Valenz
   ZVAL   =  11.00 10.00
  Atomic Wigner-Seitz radii
   RWIGS  =  -1.00 -1.00
  virtual crystal weights 
   VCA    =   1.00  1.00
   NELECT =     504.0000    total number of electrons
   NUPDOWN=      -1.0000    fix difference up-down

 DOS related values:
   EMIN   =  10.00;   EMAX   =-10.00  energy-range for DOS
   EFERMI =   0.00
   ISMEAR =     0;   SIGMA  =   0.10  broadening in eV -4-tet -1-fermi 0-gaus

 Electronic relaxation 2 (details)
   IALGO  =     68    algorithm
   LDIAG  =      T    sub-space diagonalisation (order eigenvalues)
   LSUBROT=      F    optimize rotation matrix (better conditioning)
   TURBO    =      0    0=normal 1=particle mesh
   IRESTART =      0    0=no restart 2=restart with 2 vectors
   NREBOOT  =      0    no. of reboots
   NMIN     =      0    reboot dimension
   EREF     =   0.00    reference energy to select bands
   IMIX   =      4    mixing-type and parameters
     AMIX     =   0.40;   BMIX     =  1.00
     AMIX_MAG =   1.60;   BMIX_MAG =  1.00
     AMIN     =   0.10
     WC   =   100.;   INIMIX=   1;  MIXPRE=   1;  MAXMIX= -45

 Intra band minimization:
   WEIMIN = 0.0010     energy-eigenvalue tresh-hold
   EBREAK =  0.82E-09  absolut break condition
   DEPER  =   0.30     relativ break condition  

   TIME   =   0.40     timestep for ELM

  volume/ion in A,a.u.               =      53.49       360.99
  Fermi-wavevector in a.u.,A,eV,Ry     =   0.951418  1.797920 12.315955  0.905197
  Thomas-Fermi vector in A             =   2.079887
 
 Write flags
   LWAVE  =      F    write WAVECAR
   LCHARG =      F    write CHGCAR
   LVTOT  =      F    write LOCPOT, total local potential
   LVHAR  =      F    write LOCPOT, Hartree potential only
   LELF   =      F    write electronic localiz. function (ELF)
   LORBIT =      0    0 simple, 1 ext, 2 COOP (PROOUT)


 Dipole corrections
   LMONO  =      F    monopole corrections only (constant potential shift)
   LDIPOL =      T    correct potential (dipole corrections)
   IDIPOL =      3    1-x, 2-y, 3-z, 4-all directions 
   EPSILON=  1.0000000 bulk dielectric constant

 Exchange correlation treatment:
   GGA     =    PE    GGA type
   LEXCH   =     8    internal setting for exchange type
   VOSKOWN=      1    Vosko Wilk Nusair interpolation
   LHFCALC =     F    Hartree Fock is set to
   LHFONE  =     F    Hartree Fock one center treatment
   AEXX    =    0.0000 exact exchange contribution

 Linear response parameters
   LEPSILON=     F    determine dielectric tensor
   LRPA    =     F    only Hartree local field effects (RPA)
   LNABLA  =     F    use nabla operator in PAW spheres
   LVEL    =     F    velocity operator in full k-point grid
   LINTERFAST=   F  fast interpolation
   KINTER  =     0    interpolate to denser k-point grid
   CSHIFT  =0.1000    complex shift for real part using Kramers Kronig
   OMEGAMAX=  -1.0    maximum frequency
   DEG_THRESHOLD= 0.2000000E-02 threshold for treating states as degnerate
   RTIME   =    0.100 relaxation time in fs

 Orbital magnetization related:
   ORBITALMAG=     F  switch on orbital magnetization
   LCHIMAG   =     F  perturbation theory with respect to B field
   DQ        =  0.001000  dq finite difference perturbation B field



--------------------------------------------------------------------------------------------------------


 conjugate gradient relaxation of ions
 charge density and potential will be updated during run
 non-spin polarized calculation
 RMM-DIIS sequential band-by-band and
  variant of blocked Davidson during initial phase
 perform sub-space diagonalisation
    before iterative eigenvector-optimisation
 modified Broyden-mixing scheme, WC =      100.0
 initial mixing is a Kerker type mixing with AMIX =  0.4000 and BMIX =      1.0000
 Hartree-type preconditioning will be used
 using additional bands           54
 real space projection scheme for non local part
 use partial core corrections
 calculate Harris-corrections to forces 
   (improved forces if not selfconsistent)
 use gradient corrections 
 use of overlap-Matrix (Vanderbilt PP)
 Gauss-broadening in eV      SIGMA  =   0.10


--------------------------------------------------------------------------------------------------------


  energy-cutoff  :      400.00
  volume of cell :     2567.68
      direct lattice vectors                 reciprocal lattice vectors
    11.002581515  0.000000000  0.000000000     0.090887761 -0.052474073  0.000000000
     5.501290758  9.528515099  0.000000000     0.000000000  0.104948147  0.000000000
     0.000000000  0.000000000 24.491785094     0.000000000  0.000000000  0.040830017

  length of vectors
    11.002581515 11.002581515 24.491785094     0.104948147  0.104948147  0.040830017


 
 k-points in units of 2pi/SCALE and weight: Automatic mesh                          
   0.02272194  0.01311852  0.00000000       0.167
   0.00000000  0.02623704  0.00000000       0.167
  -0.02272194  0.01311852  0.00000000       0.167
  -0.02272194  0.03935555  0.00000000       0.167
   0.04544388 -0.05247407  0.00000000       0.167
  -0.02272194  0.06559259  0.00000000       0.167
 
 k-points in reciprocal lattice and weights: Automatic mesh                          
   0.25000000  0.25000000  0.00000000       0.167
   0.00000000  0.25000000  0.00000000       0.167
  -0.25000000  0.00000000  0.00000000       0.167
  -0.25000000  0.25000000  0.00000000       0.167
   0.50000000 -0.25000000  0.00000000       0.167
  -0.25000000  0.50000000  0.00000000       0.167
 
 position of ions in fractional coordinates (direct lattice) 
   0.08333333  0.08333333  0.40830017
   0.58333333  0.33333333  0.40830017
   0.50000000  0.00000000  0.59169983
   0.41666667  0.16666667  0.50000000
   0.58333333  0.08333333  0.40830017
   0.16666667  0.91666667  0.50000000
   0.33333333  0.83333333  0.40830017
   0.41666667  0.91666667  0.50000000
   0.83333333  0.08333333  0.40830017
   0.25000000  0.25000000  0.59169983
   0.66666667  0.16666667  0.50000000
   0.75000000  0.00000000  0.59169983
   0.33333333  0.33333333  0.40830017
   0.75000000  0.50000000  0.59169983
   0.91666667  0.16666667  0.50000000
   0.00000000  0.00000000  0.59169983
   0.08333333  0.33333333  0.40830017
   0.83333333  0.83333333  0.40830017
   0.00000000  0.25000000  0.59169983
   0.66666667  0.66666667  0.50000000
   0.58333333  0.58333333  0.40830017
   0.00000000  0.50000000  0.59169983
   0.08333333  0.83333333  0.40830017
   0.75000000  0.25000000  0.59169983
   0.66666667  0.41666667  0.50000000
   0.58333333  0.83333333  0.40830017
   0.83333333  0.58333333  0.40830017
   0.41666667  0.66666667  0.50000000
   0.50000000  0.50000000  0.59169983
   0.50000000  0.75000000  0.59169983
   0.83333333  0.33333333  0.40830017
   0.25000000  0.75000000  0.59169983
   0.41666667  0.41666667  0.50000000
   0.66666667  0.91666667  0.50000000
   0.25000000  0.50000000  0.59169983
   0.16666667  0.66666667  0.50000000
   0.33333333  0.58333333  0.40830017
   0.16666667  0.41666667  0.50000000
   0.25000000  0.00000000  0.59169983
   0.16666667  0.16666667  0.50000000
   0.33333333  0.08333333  0.40830017
   0.00000000  0.75000000  0.59169983
   0.91666667  0.91666667  0.50000000
   0.91666667  0.66666667  0.50000000
   0.08333333  0.58333333  0.40830017
   0.91666667  0.41666667  0.50000000
   0.50000000  0.25000000  0.59169983
   0.75000000  0.75000000  0.59169983
 
 position of ions in cartesian coordinates  (Angst):
   1.37532269  0.79404292 10.00000000
   8.25193614  3.17617170 10.00000000
   5.50129076  0.00000000 14.49178509
   5.50129076  1.58808585 12.24589255
   6.87661345  0.79404292 10.00000000
   6.87661345  8.73447217 12.24589255
   8.25193614  7.94042925 10.00000000
   9.62725883  8.73447217 12.24589255
   9.62725883  0.79404292 10.00000000
   4.12596807  2.38212877 14.49178509
   8.25193614  1.58808585 12.24589255
   8.25193614  0.00000000 14.49178509
   5.50129076  3.17617170 10.00000000
  11.00258152  4.76425755 14.49178509
  11.00258152  1.58808585 12.24589255
   0.00000000  0.00000000 14.49178509
   2.75064538  3.17617170 10.00000000
  13.75322689  7.94042925 10.00000000
   1.37532269  2.38212877 14.49178509
  11.00258152  6.35234340 12.24589255
   9.62725883  5.55830047 10.00000000
   2.75064538  4.76425755 14.49178509
   5.50129076  7.94042925 10.00000000
   9.62725883  2.38212877 14.49178509
   9.62725883  3.97021462 12.24589255
  11.00258152  7.94042925 10.00000000
  12.37790420  5.55830047 10.00000000
   8.25193614  6.35234340 12.24589255
   8.25193614  4.76425755 14.49178509
   9.62725883  7.14638632 14.49178509
  11.00258152  3.17617170 10.00000000
   6.87661345  7.14638632 14.49178509
   6.87661345  3.97021462 12.24589255
  12.37790420  8.73447217 12.24589255
   5.50129076  4.76425755 14.49178509
   5.50129076  6.35234340 12.24589255
   6.87661345  5.55830047 10.00000000
   4.12596807  3.97021462 12.24589255
   2.75064538  0.00000000 14.49178509
   2.75064538  1.58808585 12.24589255
   4.12596807  0.79404292 10.00000000
   4.12596807  7.14638632 14.49178509
  15.12854958  8.73447217 12.24589255
  13.75322689  6.35234340 12.24589255
   4.12596807  5.55830047 10.00000000
  12.37790420  3.97021462 12.24589255
   6.87661345  2.38212877 14.49178509
  12.37790420  7.14638632 14.49178509
 


--------------------------------------------------------------------------------------------------------


 k-point  1 :   0.2500 0.2500 0.0000  plane waves:   46635
 k-point  2 :   0.0000 0.2500 0.0000  plane waves:   46635
 k-point  3 :  -0.2500 0.0000 0.0000  plane waves:   46635
 k-point  4 :  -0.2500 0.2500 0.0000  plane waves:   46644
 k-point  5 :   0.5000-0.2500 0.0000  plane waves:   46644
 k-point  6 :  -0.2500 0.5000 0.0000  plane waves:   46644

 maximum and minimum number of plane-waves per node :      7818     7732

 maximum number of plane-waves:     46644
 maximum index in each direction: 
   IXMAX=   18   IYMAX=   18   IZMAX=   39
   IXMIN=  -18   IYMIN=  -18   IZMIN=  -39

 WARNING: aliasing errors must be expected set NGX to  74 to avoid them
 WARNING: aliasing errors must be expected set NGY to  74 to avoid them
 WARNING: aliasing errors must be expected set NGZ to 158 to avoid them
 aliasing errors are usually negligible using standard VASP settings
 and one can safely disregard these warnings

 real space projection operators:
  total allocation   :      12803.06 KBytes
  max/ min on nodes  :       2145.66       2127.94


 parallel 3D FFT for wavefunctions:
    minimum data exchange during FFTs selected (reduces bandwidth)
 parallel 3D FFT for charge:
    minimum data exchange during FFTs selected (reduces bandwidth)


 total amount of memory used by VASP on root node    84353. kBytes
========================================================================

   base      :      30000. kBytes
   nonlr-proj:       4285. kBytes
   fftplans  :       4447. kBytes
   grid      :       6721. kBytes
   one-center:        124. kBytes
   wavefun   :      38776. kBytes
 
     INWAV:  cpu time    0.0000: real time    0.0000
 Broyden mixing: mesh for mixing (old mesh)
   NGX = 35   NGY = 35   NGZ = 79
  (NGX  =108   NGY  =108   NGZ  =240)
  gives a total of  96775 points

 initial charge density was supplied:
 charge density of overlapping atoms calculated
 number of electron     504.0000000 magnetization 
 keeping initial charge density in first step


--------------------------------------------------------------------------------------------------------


 Maximum index for non-local projection operator          355
 Maximum index for augmentation-charges          437 (set IRDMAX)


--------------------------------------------------------------------------------------------------------


 First call to EWALD:  gamma=   0.129
 Maximum number of real-space cells 4x 4x 2
 Maximum number of reciprocal cells 2x 2x 5

 FEWALD executed in parallel
    FEWALD:  cpu time    0.0025: real time    0.0025


----------------------------------------- Iteration    1(   1)  ---------------------------------------


    POTLOK:  cpu time    0.0547: real time    0.0549
    SETDIJ:  cpu time    0.0064: real time    0.0064
     EDDAV:  cpu time    9.3482: real time    9.4175
       DOS:  cpu time    0.0015: real time    0.0015
    --------------------------------------------
      LOOP:  cpu time    9.4147: real time    9.4867

 eigenvalue-minimisations  :  3672
 total energy-change (2. order) : 0.3200750E+04  (-0.1898621E+05)
 number of electron     504.0000000 magnetization 
 augmentation part      504.0000000 magnetization 

 DIPCOR: dipole corrections for dipol
 direction  3 min pos     1,
 dipolmoment           0.000000      0.000000      0.000001 electrons x Angstroem
 Tr[quadrupol]    -10195.776921

 energy correction for charged system         0.000000 eV
 dipol+quadrupol energy correction           -0.000000 eV
 added-field ion interaction          0.000000 eV  (added to PSCEN)


 Free energy of the ion-electron system (eV)
  ---------------------------------------------------
  alpha Z        PSCENC =       805.86936475
  Ewald energy   TEWEN  =    199701.91393614
  -Hartree energ DENC   =   -242114.61941720
  -exchange      EXHF   =         0.00000000
  -V(xc)+E(xc)   XCENC  =      -327.75817355
  PAW double counting   =     40340.05962942   -38292.62782345
  entropy T*S    EENTRO =        -0.13953163
  eigenvalues    EBANDS =      1428.26639410
  atomic energy  EATOM  =     41659.78587232
  Solvation  Ediel_sol  =         0.00000000
  ---------------------------------------------------
  free energy    TOTEN  =      3200.75025090 eV

  energy without entropy =     3200.88978253  energy(sigma->0) =     3200.82001671


--------------------------------------------------------------------------------------------------------




----------------------------------------- Iteration    1(   2)  ---------------------------------------


     EDDAV:  cpu time   11.8367: real time   11.9135
       DOS:  cpu time    0.0016: real time    0.0016
    --------------------------------------------
      LOOP:  cpu time   11.8399: real time   11.9179

 eigenvalue-minimisations  :  4380
 total energy-change (2. order) :-0.3188303E+04  (-0.2929416E+04)
 number of electron     504.0000000 magnetization 
 augmentation part      504.0000000 magnetization 

 DIPCOR: dipole corrections for dipol
 direction  3 min pos     1,
 dipolmoment           0.000000      0.000000      0.000001 electrons x Angstroem
 Tr[quadrupol]    -10195.776921

 energy correction for charged system         0.000000 eV
 dipol+quadrupol energy correction           -0.000000 eV
 added-field ion interaction          0.000000 eV  (added to PSCEN)


 Free energy of the ion-electron system (eV)
  ---------------------------------------------------
  alpha Z        PSCENC =       805.86936475
  Ewald energy   TEWEN  =    199701.91393614
  -Hartree energ DENC   =   -242114.61941720
  -exchange      EXHF   =         0.00000000
  -V(xc)+E(xc)   XCENC  =      -327.75817355
  PAW double counting   =     40340.05962942   -38292.62782345
  entropy T*S    EENTRO =        -0.13588956
  eigenvalues    EBANDS =     -1760.04033644
  atomic energy  EATOM  =     41659.78587232
  Solvation  Ediel_sol  =         0.00000000
  ---------------------------------------------------
  free energy    TOTEN  =        12.44716243 eV

  energy without entropy =       12.58305199  energy(sigma->0) =       12.51510721


--------------------------------------------------------------------------------------------------------




----------------------------------------- Iteration    1(   3)  ---------------------------------------


     EDDAV:  cpu time   10.8518: real time   10.8590
       DOS:  cpu time    0.0017: real time    0.0017
    --------------------------------------------
      LOOP:  cpu time   10.8550: real time   10.8677

 eigenvalue-minimisations  :  4128
 total energy-change (2. order) :-0.2143681E+03  (-0.1991650E+03)
 number of electron     504.0000000 magnetization 
 augmentation part      504.0000000 magnetization 

 DIPCOR: dipole corrections for dipol
 direction  3 min pos     1,
 dipolmoment           0.000000      0.000000      0.000001 electrons x Angstroem
 Tr[quadrupol]    -10195.776921

 energy correction for charged system         0.000000 eV
 dipol+quadrupol energy correction           -0.000000 eV
 added-field ion interaction          0.000000 eV  (added to PSCEN)


 Free energy of the ion-electron system (eV)
  ---------------------------------------------------
  alpha Z        PSCENC =       805.86936475
  Ewald energy   TEWEN  =    199701.91393614
  -Hartree energ DENC   =   -242114.61941720
  -exchange      EXHF   =         0.00000000
  -V(xc)+E(xc)   XCENC  =      -327.75817355
  PAW double counting   =     40340.05962942   -38292.62782345
  entropy T*S    EENTRO =        -0.17799308
  eigenvalues    EBANDS =     -1974.36633607
  atomic energy  EATOM  =     41659.78587232
  Solvation  Ediel_sol  =         0.00000000
  ---------------------------------------------------
  free energy    TOTEN  =      -201.92094072 eV

  energy without entropy =     -201.74294764  energy(sigma->0) =     -201.83194418


--------------------------------------------------------------------------------------------------------




----------------------------------------- Iteration    1(   4)  ---------------------------------------


     EDDAV:  cpu time   11.0896: real time   11.1023
       DOS:  cpu time    0.0016: real time    0.0016
    --------------------------------------------
      LOOP:  cpu time   11.0928: real time   11.1081

 eigenvalue-minimisations  :  4260
 total energy-change (2. order) :-0.5866909E+01  (-0.5797736E+01)
 number of electron     504.0000000 magnetization 
 augmentation part      504.0000000 magnetization 

 DIPCOR: dipole corrections for dipol
 direction  3 min pos     1,
 dipolmoment           0.000000      0.000000      0.000001 electrons x Angstroem
 Tr[quadrupol]    -10195.776921

 energy correction for charged system         0.000000 eV
 dipol+quadrupol energy correction           -0.000000 eV
 added-field ion interaction          0.000000 eV  (added to PSCEN)


 Free energy of the ion-electron system (eV)
  ---------------------------------------------------
  alpha Z        PSCENC =       805.86936475
  Ewald energy   TEWEN  =    199701.91393614
  -Hartree energ DENC   =   -242114.61941720
  -exchange      EXHF   =         0.00000000
  -V(xc)+E(xc)   XCENC  =      -327.75817355
  PAW double counting   =     40340.05962942   -38292.62782345
  entropy T*S    EENTRO =        -0.18581326
  eigenvalues    EBANDS =     -1980.22542520
  atomic energy  EATOM  =     41659.78587232
  Solvation  Ediel_sol  =         0.00000000
  ---------------------------------------------------
  free energy    TOTEN  =      -207.78785003 eV

  energy without entropy =     -207.60203676  energy(sigma->0) =     -207.69494340


--------------------------------------------------------------------------------------------------------




----------------------------------------- Iteration    1(   5)  ---------------------------------------


     EDDAV:  cpu time   11.4064: real time   11.4732
       DOS:  cpu time    0.0017: real time    0.0017
    CHARGE:  cpu time    0.3035: real time    0.3035
    MIXING:  cpu time    0.0023: real time    0.0024
    --------------------------------------------
      LOOP:  cpu time   11.7160: real time   11.7843

 eigenvalue-minimisations  :  4440
 total energy-change (2. order) :-0.1819929E+00  (-0.1814359E+00)
 number of electron     503.9998403 magnetization 
 augmentation part      191.2146759 magnetization 

 DIPCOR: dipole corrections for dipol
 direction  3 min pos     1,
 dipolmoment           0.000000      0.000000      0.000001 electrons x Angstroem
 Tr[quadrupol]    -10195.776921

 energy correction for charged system         0.000000 eV
 dipol+quadrupol energy correction           -0.000000 eV
 added-field ion interaction          0.000000 eV  (added to PSCEN)


 Broyden mixing:
  rms(total) = 0.62108E+01    rms(broyden)= 0.62108E+01
  rms(prec ) = 0.63577E+01
  weight for this iteration     100.00

 Free energy of the ion-electron system (eV)
  ---------------------------------------------------
  alpha Z        PSCENC =       805.86936475
  Ewald energy   TEWEN  =    199701.91393614
  -Hartree energ DENC   =   -242114.61941720
  -exchange      EXHF   =         0.00000000
  -V(xc)+E(xc)   XCENC  =      -327.75817355
  PAW double counting   =     40340.05962942   -38292.62782345
  entropy T*S    EENTRO =        -0.18582308
  eigenvalues    EBANDS =     -1980.40740827
  atomic energy  EATOM  =     41659.78587232
  Solvation  Ediel_sol  =         0.00000000
  ---------------------------------------------------
  free energy    TOTEN  =      -207.96984292 eV

  energy without entropy =     -207.78401983  energy(sigma->0) =     -207.87693138


--------------------------------------------------------------------------------------------------------




----------------------------------------- Iteration    1(   6)  ---------------------------------------


    POTLOK:  cpu time    0.0502: real time    0.0502
    SETDIJ:  cpu time    0.0060: real time    0.0062
    EDDIAG:  cpu time    1.6605: real time    1.6612
  RMM-DIIS:  cpu time    4.5107: real time    4.5129
    ORTHCH:  cpu time    0.4192: real time    0.4192
       DOS:  cpu time    0.0016: real time    0.0016
    CHARGE:  cpu time    0.3047: real time    0.3049
    MIXING:  cpu time    0.0022: real time    0.0022
    --------------------------------------------
      LOOP:  cpu time    6.9556: real time    6.9616

 eigenvalue-minimisations  :  3678
 total energy-change (2. order) : 0.1648768E+01  (-0.1019545E+02)
 number of electron     503.9998431 magnetization 
 augmentation part      190.6033638 magnetization 

 DIPCOR: dipole corrections for dipol
 direction  3 min pos     1,
 dipolmoment           0.000000      0.000000      0.671079 electrons x Angstroem
 Tr[quadrupol]    -10198.531748

 energy correction for charged system         0.000000 eV
 dipol+quadrupol energy correction           -0.015869 eV
 added-field ion interaction          0.212435 eV  (added to PSCEN)


 Broyden mixing:
  rms(total) = 0.58446E+01    rms(broyden)= 0.58445E+01
  rms(prec ) = 0.62262E+01
  weight for this iteration     100.00

 eigenvalues of (default mixing * dielectric matrix)
  average eigenvalue GAMMA=   0.6108
  0.6108

 Free energy of the ion-electron system (eV)
  ---------------------------------------------------
  alpha Z        PSCENC =       806.06593010
  Ewald energy   TEWEN  =    199701.91393614
  -Hartree energ DENC   =   -241907.80327508
  -exchange      EXHF   =         0.00000000
  -V(xc)+E(xc)   XCENC  =      -340.62854710
  PAW double counting   =     43893.77091654   -41905.98321616
  entropy T*S    EENTRO =        -0.25208850
  eigenvalues    EBANDS =     -2113.19060362
  atomic energy  EATOM  =     41659.78587232
  Solvation  Ediel_sol  =         0.00000000
  ---------------------------------------------------
  free energy    TOTEN  =      -206.32107537 eV

  energy without entropy =     -206.06898687  energy(sigma->0) =     -206.19503112


--------------------------------------------------------------------------------------------------------




----------------------------------------- Iteration    1(   7)  ---------------------------------------


    POTLOK:  cpu time    0.0501: real time    0.0501
    SETDIJ:  cpu time    0.0060: real time    0.0060
    EDDIAG:  cpu time    1.6640: real time    1.6655
  RMM-DIIS:  cpu time    4.5261: real time    4.5279
    ORTHCH:  cpu time    0.4188: real time    0.4188
       DOS:  cpu time    0.0017: real time    0.0017
    CHARGE:  cpu time    0.3052: real time    0.3057
    MIXING:  cpu time    0.0022: real time    0.0022
    --------------------------------------------
      LOOP:  cpu time    6.9748: real time    6.9801

 eigenvalue-minimisations  :  3681
 total energy-change (2. order) :-0.3581131E+01  (-0.6198438E+01)
 number of electron     503.9998373 magnetization 
 augmentation part      195.2044105 magnetization 

 DIPCOR: dipole corrections for dipol
 direction  3 min pos     1,
 dipolmoment           0.000000      0.000000     -0.918459 electrons x Angstroem
 Tr[quadrupol]    -10196.110544

 energy correction for charged system         0.000000 eV
 dipol+quadrupol energy correction           -0.029725 eV
 added-field ion interaction         -0.290745 eV  (added to PSCEN)


 Broyden mixing:
  rms(total) = 0.47038E+01    rms(broyden)= 0.47034E+01
  rms(prec ) = 0.53415E+01
  weight for this iteration     100.00

 eigenvalues of (default mixing * dielectric matrix)
  average eigenvalue GAMMA=   0.8140
  1.3062  0.3219

 Free energy of the ion-electron system (eV)
  ---------------------------------------------------
  alpha Z        PSCENC =       805.54889469
  Ewald energy   TEWEN  =    199701.91393614
  -Hartree energ DENC   =   -241732.09118138
  -exchange      EXHF   =         0.00000000
  -V(xc)+E(xc)   XCENC  =      -342.61568769
  PAW double counting   =     45032.18787172   -43067.03591497
  entropy T*S    EENTRO =        -0.19617067
  eigenvalues    EBANDS =     -2267.39982676
  atomic energy  EATOM  =     41659.78587232
  Solvation  Ediel_sol  =         0.00000000
  ---------------------------------------------------
  free energy    TOTEN  =      -209.90220660 eV

  energy without entropy =     -209.70603593  energy(sigma->0) =     -209.80412127


--------------------------------------------------------------------------------------------------------




----------------------------------------- Iteration    1(   8)  ---------------------------------------


    POTLOK:  cpu time    0.0497: real time    0.0497
    SETDIJ:  cpu time    0.0061: real time    0.0061
    EDDIAG:  cpu time    1.6716: real time    1.6724
  RMM-DIIS:  cpu time    4.5094: real time    4.5115
    ORTHCH:  cpu time    0.4189: real time    0.4191
       DOS:  cpu time    0.0016: real time    0.0016
    CHARGE:  cpu time    0.3032: real time    0.3032
    MIXING:  cpu time    0.0021: real time    0.0021
    --------------------------------------------
      LOOP:  cpu time    6.9634: real time    6.9682

 eigenvalue-minimisations  :  3673
 total energy-change (2. order) :-0.1361880E+02  (-0.8901866E+01)
 number of electron     503.9998354 magnetization 
 augmentation part      196.1970849 magnetization 

 DIPCOR: dipole corrections for dipol
 direction  3 min pos     1,
 dipolmoment           0.000000      0.000000      1.720675 electrons x Angstroem
 Tr[quadrupol]    -10196.991792

 energy correction for charged system         0.000000 eV
 dipol+quadrupol energy correction           -0.104328 eV
 added-field ion interaction          0.544692 eV  (added to PSCEN)


 Broyden mixing:
  rms(total) = 0.46631E+01    rms(broyden)= 0.46627E+01
  rms(prec ) = 0.55641E+01
  weight for this iteration     100.00

 eigenvalues of (default mixing * dielectric matrix)
  average eigenvalue GAMMA=   0.8372
  1.8811  0.3687  0.2618

 Free energy of the ion-electron system (eV)
  ---------------------------------------------------
  alpha Z        PSCENC =       806.30972812
  Ewald energy   TEWEN  =    199701.91393614
  -Hartree energ DENC   =   -241684.23772427
  -exchange      EXHF   =         0.00000000
  -V(xc)+E(xc)   XCENC  =      -344.70125907
  PAW double counting   =     46681.63507657   -44743.05273658
  entropy T*S    EENTRO =        -0.25305520
  eigenvalues    EBANDS =     -2300.92084010
  atomic energy  EATOM  =     41659.78587232
  Solvation  Ediel_sol  =         0.00000000
  ---------------------------------------------------
  free energy    TOTEN  =      -223.52100208 eV

  energy without entropy =     -223.26794688  energy(sigma->0) =     -223.39447448


--------------------------------------------------------------------------------------------------------




----------------------------------------- Iteration    1(   9)  ---------------------------------------


    POTLOK:  cpu time    0.0492: real time    0.0492
    SETDIJ:  cpu time    0.0061: real time    0.0061
    EDDIAG:  cpu time    1.9500: real time    1.9640
  RMM-DIIS:  cpu time    4.6248: real time    4.6417
    ORTHCH:  cpu time    0.4216: real time    0.4217
       DOS:  cpu time    0.0016: real time    0.0016
    CHARGE:  cpu time    0.3113: real time    0.3117
    MIXING:  cpu time    0.0025: real time    0.0025
    --------------------------------------------
      LOOP:  cpu time    7.3680: real time    7.4005

 eigenvalue-minimisations  :  3679
 total energy-change (2. order) : 0.9947367E+01  (-0.5831775E+01)
 number of electron     503.9998340 magnetization 
 augmentation part      198.5212271 magnetization 

 DIPCOR: dipole corrections for dipol
 direction  3 min pos     1,
 dipolmoment           0.000000      0.000000     -0.723731 electrons x Angstroem
 Tr[quadrupol]    -10198.373820

 energy correction for charged system         0.000000 eV
 dipol+quadrupol energy correction           -0.018457 eV
 added-field ion interaction         -0.229102 eV  (added to PSCEN)


 Broyden mixing:
  rms(total) = 0.35157E+01    rms(broyden)= 0.35153E+01
  rms(prec ) = 0.38934E+01
  weight for this iteration     100.00

 eigenvalues of (default mixing * dielectric matrix)
  average eigenvalue GAMMA=   0.7823
  2.1537  0.3295  0.3231  0.3231

 Free energy of the ion-electron system (eV)
  ---------------------------------------------------
  alpha Z        PSCENC =       805.62180536
  Ewald energy   TEWEN  =    199701.91393614
  -Hartree energ DENC   =   -241689.66657240
  -exchange      EXHF   =         0.00000000
  -V(xc)+E(xc)   XCENC  =      -346.38894176
  PAW double counting   =     48055.11606163   -46137.80230782
  entropy T*S    EENTRO =        -0.22584061
  eigenvalues    EBANDS =     -2261.92764829
  atomic energy  EATOM  =     41659.78587232
  Solvation  Ediel_sol  =         0.00000000
  ---------------------------------------------------
  free energy    TOTEN  =      -213.57363543 eV

  energy without entropy =     -213.34779482  energy(sigma->0) =     -213.46071513


--------------------------------------------------------------------------------------------------------




----------------------------------------- Iteration    1(  10)  ---------------------------------------


    POTLOK:  cpu time    0.0495: real time    0.0506
    SETDIJ:  cpu time    0.0069: real time    0.0069
    EDDIAG:  cpu time    1.6500: real time    1.6504
  RMM-DIIS:  cpu time    4.3976: real time    4.4703
    ORTHCH:  cpu time    0.4062: real time    0.4068
       DOS:  cpu time    0.0017: real time    0.0017
    CHARGE:  cpu time    0.3154: real time    0.3154
    MIXING:  cpu time    0.0026: real time    0.0026
    --------------------------------------------
      LOOP:  cpu time    6.8309: real time    6.9107

 eigenvalue-minimisations  :  3681
 total energy-change (2. order) : 0.1563175E+02  (-0.2001187E+01)
 number of electron     503.9998336 magnetization 
 augmentation part      199.1161127 magnetization 

 DIPCOR: dipole corrections for dipol
 direction  3 min pos     1,
 dipolmoment           0.000000      0.000000      0.420009 electrons x Angstroem
 Tr[quadrupol]    -10197.325270

 energy correction for charged system         0.000000 eV
 dipol+quadrupol energy correction           -0.006216 eV
 added-field ion interaction          0.132957 eV  (added to PSCEN)


 Broyden mixing:
  rms(total) = 0.22180E+01    rms(broyden)= 0.22177E+01
  rms(prec ) = 0.25845E+01
  weight for this iteration     100.00

 eigenvalues of (default mixing * dielectric matrix)
  average eigenvalue GAMMA=   0.7497
  2.2642  0.4337  0.4337  0.3857  0.2312

 Free energy of the ion-electron system (eV)
  ---------------------------------------------------
  alpha Z        PSCENC =       805.99610502
  Ewald energy   TEWEN  =    199701.91393614
  -Hartree energ DENC   =   -241661.06340967
  -exchange      EXHF   =         0.00000000
  -V(xc)+E(xc)   XCENC  =      -346.44585007
  PAW double counting   =     48837.09131555   -46928.49357552
  entropy T*S    EENTRO =        -0.22162293
  eigenvalues    EBANDS =     -2266.50465807
  atomic energy  EATOM  =     41659.78587232
  Solvation  Ediel_sol  =         0.00000000
  ---------------------------------------------------
  free energy    TOTEN  =      -197.94188725 eV

  energy without entropy =     -197.72026431  energy(sigma->0) =     -197.83107578


--------------------------------------------------------------------------------------------------------




----------------------------------------- Iteration    1(  11)  ---------------------------------------


    POTLOK:  cpu time    0.0494: real time    0.0494
    SETDIJ:  cpu time    0.0066: real time    0.0066
    EDDIAG:  cpu time    1.6346: real time    1.6352
  RMM-DIIS:  cpu time    4.4703: real time    4.4724
    ORTHCH:  cpu time    0.3970: real time    0.3973
       DOS:  cpu time    0.0016: real time    0.0016
    CHARGE:  cpu time    0.3023: real time    0.3023
    MIXING:  cpu time    0.0027: real time    0.0027
    --------------------------------------------
      LOOP:  cpu time    6.8653: real time    6.8708

 eigenvalue-minimisations  :  3679
 total energy-change (2. order) : 0.3549550E+01  (-0.1680560E+01)
 number of electron     503.9998345 magnetization 
 augmentation part      198.4757808 magnetization 

 DIPCOR: dipole corrections for dipol
 direction  3 min pos     1,
 dipolmoment           0.000000      0.000000     -0.015280 electrons x Angstroem
 Tr[quadrupol]    -10198.693902

 energy correction for charged system         0.000000 eV
 dipol+quadrupol energy correction           -0.000008 eV
 added-field ion interaction         -0.004837 eV  (added to PSCEN)


 Broyden mixing:
  rms(total) = 0.15800E+01    rms(broyden)= 0.15796E+01
  rms(prec ) = 0.17728E+01
  weight for this iteration     100.00

 eigenvalues of (default mixing * dielectric matrix)
  average eigenvalue GAMMA=   0.7004
  2.2166  0.5328  0.5328  0.3999  0.2977  0.2227

 Free energy of the ion-electron system (eV)
  ---------------------------------------------------
  alpha Z        PSCENC =       805.86451919
  Ewald energy   TEWEN  =    199701.91393614
  -Hartree energ DENC   =   -241732.18423307
  -exchange      EXHF   =         0.00000000
  -V(xc)+E(xc)   XCENC  =      -346.00885786
  PAW double counting   =     49106.07818540   -47197.06993036
  entropy T*S    EENTRO =        -0.18738094
  eigenvalues    EBANDS =     -2192.58444794
  atomic energy  EATOM  =     41659.78587232
  Solvation  Ediel_sol  =         0.00000000
  ---------------------------------------------------
  free energy    TOTEN  =      -194.39233713 eV

  energy without entropy =     -194.20495618  energy(sigma->0) =     -194.29864666


--------------------------------------------------------------------------------------------------------




----------------------------------------- Iteration    1(  12)  ---------------------------------------


    POTLOK:  cpu time    0.0497: real time    0.0498
    SETDIJ:  cpu time    0.0061: real time    0.0061
    EDDIAG:  cpu time    1.6470: real time    1.6484
  RMM-DIIS:  cpu time    4.4024: real time    4.4044
    ORTHCH:  cpu time    0.3965: real time    0.3965
       DOS:  cpu time    0.0015: real time    0.0015
    CHARGE:  cpu time    0.3030: real time    0.3030
    MIXING:  cpu time    0.0029: real time    0.0029
    --------------------------------------------
      LOOP:  cpu time    6.8099: real time    6.8148

 eigenvalue-minimisations  :  3679
 total energy-change (2. order) : 0.3994855E+01  (-0.4987286E+00)
 number of electron     503.9998353 magnetization 
 augmentation part      197.7466589 magnetization 

 DIPCOR: dipole corrections for dipol
 direction  3 min pos     1,
 dipolmoment           0.000000      0.000000      0.024810 electrons x Angstroem
 Tr[quadrupol]    -10198.533995

 energy correction for charged system         0.000000 eV
 dipol+quadrupol energy correction           -0.000022 eV
 added-field ion interaction          0.007854 eV  (added to PSCEN)


 Broyden mixing:
  rms(total) = 0.95455E+00    rms(broyden)= 0.95440E+00
  rms(prec ) = 0.10586E+01
  weight for this iteration     100.00

 eigenvalues of (default mixing * dielectric matrix)
  average eigenvalue GAMMA=   0.6677
  2.2298  0.5294  0.5294  0.4121  0.4121  0.3389  0.2224

 Free energy of the ion-electron system (eV)
  ---------------------------------------------------
  alpha Z        PSCENC =       805.87719644
  Ewald energy   TEWEN  =    199701.91393614
  -Hartree energ DENC   =   -241761.37552637
  -exchange      EXHF   =         0.00000000
  -V(xc)+E(xc)   XCENC  =      -345.05047719
  PAW double counting   =     49152.55583347   -47239.49648630
  entropy T*S    EENTRO =        -0.23084453
  eigenvalues    EBANDS =     -2164.37698617
  atomic energy  EATOM  =     41659.78587232
  Solvation  Ediel_sol  =         0.00000000
  ---------------------------------------------------
  free energy    TOTEN  =      -190.39748221 eV

  energy without entropy =     -190.16663768  energy(sigma->0) =     -190.28205994


--------------------------------------------------------------------------------------------------------




----------------------------------------- Iteration    1(  13)  ---------------------------------------


    POTLOK:  cpu time    0.0493: real time    0.0495
    SETDIJ:  cpu time    0.0060: real time    0.0060
    EDDIAG:  cpu time    1.6450: real time    1.6468
  RMM-DIIS:  cpu time    4.5024: real time    4.5068
    ORTHCH:  cpu time    0.4019: real time    0.4021
       DOS:  cpu time    0.0017: real time    0.0017
    CHARGE:  cpu time    0.3001: real time    0.3001
    MIXING:  cpu time    0.0029: real time    0.0029
    --------------------------------------------
      LOOP:  cpu time    6.9101: real time    6.9181

 eigenvalue-minimisations  :  3681
 total energy-change (2. order) : 0.6757214E+00  (-0.1523754E+00)
 number of electron     503.9998356 magnetization 
 augmentation part      197.4925267 magnetization 

 DIPCOR: dipole corrections for dipol
 direction  3 min pos     1,
 dipolmoment           0.000000      0.000000      0.061787 electrons x Angstroem
 Tr[quadrupol]    -10198.968222

 energy correction for charged system         0.000000 eV
 dipol+quadrupol energy correction           -0.000135 eV
 added-field ion interaction          0.019559 eV  (added to PSCEN)


 Broyden mixing:
  rms(total) = 0.78328E+00    rms(broyden)= 0.78315E+00
  rms(prec ) = 0.86243E+00
  weight for this iteration     100.00

 eigenvalues of (default mixing * dielectric matrix)
  average eigenvalue GAMMA=   0.6617
  2.2284  0.6664  0.6664  0.5969  0.3324  0.3324  0.2219  0.2489

 Free energy of the ion-electron system (eV)
  ---------------------------------------------------
  alpha Z        PSCENC =       805.88878897
  Ewald energy   TEWEN  =    199701.91393614
  -Hartree energ DENC   =   -241781.65169774
  -exchange      EXHF   =         0.00000000
  -V(xc)+E(xc)   XCENC  =      -344.86213406
  PAW double counting   =     49192.59220609   -47278.36785130
  entropy T*S    EENTRO =        -0.22989110
  eigenvalues    EBANDS =     -2144.79099009
  atomic energy  EATOM  =     41659.78587232
  Solvation  Ediel_sol  =         0.00000000
  ---------------------------------------------------
  free energy    TOTEN  =      -189.72176079 eV

  energy without entropy =     -189.49186968  energy(sigma->0) =     -189.60681524


--------------------------------------------------------------------------------------------------------




----------------------------------------- Iteration    1(  14)  ---------------------------------------


    POTLOK:  cpu time    0.0490: real time    0.0490
    SETDIJ:  cpu time    0.0061: real time    0.0061
    EDDIAG:  cpu time    1.6351: real time    1.6358
  RMM-DIIS:  cpu time    4.4967: real time    4.4989
    ORTHCH:  cpu time    0.3970: real time    0.3972
       DOS:  cpu time    0.0016: real time    0.0016
    CHARGE:  cpu time    0.3001: real time    0.3003
    MIXING:  cpu time    0.0030: real time    0.0030
    --------------------------------------------
      LOOP:  cpu time    6.8895: real time    6.8941

 eigenvalue-minimisations  :  3679
 total energy-change (2. order) : 0.5845341E-01  (-0.9628387E-01)
 number of electron     503.9998356 magnetization 
 augmentation part      197.3475600 magnetization 

 DIPCOR: dipole corrections for dipol
 direction  3 min pos     1,
 dipolmoment           0.000000      0.000000      0.050176 electrons x Angstroem
 Tr[quadrupol]    -10199.102356

 energy correction for charged system         0.000000 eV
 dipol+quadrupol energy correction           -0.000089 eV
 added-field ion interaction          0.015884 eV  (added to PSCEN)


 Broyden mixing:
  rms(total) = 0.73079E+00    rms(broyden)= 0.73062E+00
  rms(prec ) = 0.80285E+00
  weight for this iteration     100.00

 eigenvalues of (default mixing * dielectric matrix)
  average eigenvalue GAMMA=   0.6705
  2.2191  0.8438  0.8438  0.6811  0.3733  0.3733  0.2738  0.2334  0.1928

 Free energy of the ion-electron system (eV)
  ---------------------------------------------------
  alpha Z        PSCENC =       805.88515928
  Ewald energy   TEWEN  =    199701.91393614
  -Hartree energ DENC   =   -241791.18606273
  -exchange      EXHF   =         0.00000000
  -V(xc)+E(xc)   XCENC  =      -344.69448613
  PAW double counting   =     49213.65362221   -47298.36282281
  entropy T*S    EENTRO =        -0.26518113
  eigenvalues    EBANDS =     -2136.39334451
  atomic energy  EATOM  =     41659.78587232
  Solvation  Ediel_sol  =         0.00000000
  ---------------------------------------------------
  free energy    TOTEN  =      -189.66330738 eV

  energy without entropy =     -189.39812625  energy(sigma->0) =     -189.53071681


--------------------------------------------------------------------------------------------------------




----------------------------------------- Iteration    1(  15)  ---------------------------------------


    POTLOK:  cpu time    0.0493: real time    0.0493
    SETDIJ:  cpu time    0.0060: real time    0.0060
    EDDIAG:  cpu time    1.6358: real time    1.6365
  RMM-DIIS:  cpu time    4.5066: real time    4.5083
    ORTHCH:  cpu time    0.3971: real time    0.3972
       DOS:  cpu time    0.0017: real time    0.0018
    CHARGE:  cpu time    0.3042: real time    0.3044
    MIXING:  cpu time    0.0032: real time    0.0032
    --------------------------------------------
      LOOP:  cpu time    6.9048: real time    6.9100

 eigenvalue-minimisations  :  3681
 total energy-change (2. order) :-0.1490102E-01  (-0.6761213E-01)
 number of electron     503.9998358 magnetization 
 augmentation part      197.3012706 magnetization 

 DIPCOR: dipole corrections for dipol
 direction  3 min pos     1,
 dipolmoment           0.000000      0.000000      0.040655 electrons x Angstroem
 Tr[quadrupol]    -10199.241462

 energy correction for charged system         0.000000 eV
 dipol+quadrupol energy correction           -0.000058 eV
 added-field ion interaction          0.012870 eV  (added to PSCEN)


 Broyden mixing:
  rms(total) = 0.61202E+00    rms(broyden)= 0.61193E+00
  rms(prec ) = 0.67943E+00
  weight for this iteration     100.00

 eigenvalues of (default mixing * dielectric matrix)
  average eigenvalue GAMMA=   0.6846
  2.1568  1.0468  1.0468  0.7729  0.4217  0.4217  0.2819  0.2819  0.2170  0.1983

 Free energy of the ion-electron system (eV)
  ---------------------------------------------------
  alpha Z        PSCENC =       805.88217577
  Ewald energy   TEWEN  =    199701.91393614
  -Hartree energ DENC   =   -241799.41534530
  -exchange      EXHF   =         0.00000000
  -V(xc)+E(xc)   XCENC  =      -344.53560500
  PAW double counting   =     49226.35462342   -47310.00939243
  entropy T*S    EENTRO =        -0.24623589
  eigenvalues    EBANDS =     -2129.40823741
  atomic energy  EATOM  =     41659.78587232
  Solvation  Ediel_sol  =         0.00000000
  ---------------------------------------------------
  free energy    TOTEN  =      -189.67820840 eV

  energy without entropy =     -189.43197251  energy(sigma->0) =     -189.55509045


--------------------------------------------------------------------------------------------------------




----------------------------------------- Iteration    1(  16)  ---------------------------------------


    POTLOK:  cpu time    0.0493: real time    0.0493
    SETDIJ:  cpu time    0.0061: real time    0.0061
    EDDIAG:  cpu time    1.6420: real time    1.6423
  RMM-DIIS:  cpu time    4.3541: real time    4.4255
    ORTHCH:  cpu time    0.3987: real time    0.3989
       DOS:  cpu time    0.0016: real time    0.0016
    CHARGE:  cpu time    0.3009: real time    0.3009
    MIXING:  cpu time    0.0035: real time    0.0035
    --------------------------------------------
      LOOP:  cpu time    6.7569: real time    6.8302

 eigenvalue-minimisations  :  3679
 total energy-change (2. order) : 0.2843991E+00  (-0.3254257E-01)
 number of electron     503.9998358 magnetization 
 augmentation part      197.2520099 magnetization 

 DIPCOR: dipole corrections for dipol
 direction  3 min pos     1,
 dipolmoment           0.000000      0.000000      0.022615 electrons x Angstroem
 Tr[quadrupol]    -10199.521213

 energy correction for charged system         0.000000 eV
 dipol+quadrupol energy correction           -0.000018 eV
 added-field ion interaction          0.007159 eV  (added to PSCEN)


 Broyden mixing:
  rms(total) = 0.38061E+00    rms(broyden)= 0.38055E+00
  rms(prec ) = 0.42307E+00
  weight for this iteration     100.00

 eigenvalues of (default mixing * dielectric matrix)
  average eigenvalue GAMMA=   0.6903
  2.1060  1.2641  1.2641  0.6645  0.4601  0.4601  0.3465  0.3465  0.2633  0.2276
  0.1908

 Free energy of the ion-electron system (eV)
  ---------------------------------------------------
  alpha Z        PSCENC =       805.87650525
  Ewald energy   TEWEN  =    199701.91393614
  -Hartree energ DENC   =   -241816.45500478
  -exchange      EXHF   =         0.00000000
  -V(xc)+E(xc)   XCENC  =      -344.25738338
  PAW double counting   =     49229.48824882   -47311.24210892
  entropy T*S    EENTRO =        -0.26882602
  eigenvalues    EBANDS =     -2114.23504875
  atomic energy  EATOM  =     41659.78587232
  Solvation  Ediel_sol  =         0.00000000
  ---------------------------------------------------
  free energy    TOTEN  =      -189.39380932 eV

  energy without entropy =     -189.12498330  energy(sigma->0) =     -189.25939631


--------------------------------------------------------------------------------------------------------




----------------------------------------- Iteration    1(  17)  ---------------------------------------


    POTLOK:  cpu time    0.0495: real time    0.0495
    SETDIJ:  cpu time    0.0064: real time    0.0064
    EDDIAG:  cpu time    1.6466: real time    1.6480
  RMM-DIIS:  cpu time    4.5583: real time    4.8085
    ORTHCH:  cpu time    0.3410: real time    0.5287
       DOS:  cpu time    0.0015: real time    0.0015
    CHARGE:  cpu time    0.3033: real time    0.4301
    MIXING:  cpu time    0.0038: real time    0.0038
    --------------------------------------------
      LOOP:  cpu time    6.9110: real time    7.4785

 eigenvalue-minimisations  :  3679
 total energy-change (2. order) : 0.5938447E-01  (-0.2009286E-01)
 number of electron     503.9998359 magnetization 
 augmentation part      197.1706044 magnetization 

 DIPCOR: dipole corrections for dipol
 direction  3 min pos     1,
 dipolmoment           0.000000      0.000000      0.056009 electrons x Angstroem
 Tr[quadrupol]    -10199.794916

 energy correction for charged system         0.000000 eV
 dipol+quadrupol energy correction           -0.000111 eV
 added-field ion interaction          0.017730 eV  (added to PSCEN)


 Broyden mixing:
  rms(total) = 0.31401E+00    rms(broyden)= 0.31395E+00
  rms(prec ) = 0.36193E+00
  weight for this iteration     100.00

 eigenvalues of (default mixing * dielectric matrix)
  average eigenvalue GAMMA=   0.7167
  2.0264  1.5937  1.5937  0.6238  0.6238  0.4002  0.4002  0.4120  0.2603  0.2603
  0.2156  0.1904

 Free energy of the ion-electron system (eV)
  ---------------------------------------------------
  alpha Z        PSCENC =       805.88698369
  Ewald energy   TEWEN  =    199701.91393614
  -Hartree energ DENC   =   -241830.90100160
  -exchange      EXHF   =         0.00000000
  -V(xc)+E(xc)   XCENC  =      -344.07293604
  PAW double counting   =     49245.04836223   -47325.45927143
  entropy T*S    EENTRO =        -0.26343781
  eigenvalues    EBANDS =     -2101.27293234
  atomic energy  EATOM  =     41659.78587232
  Solvation  Ediel_sol  =         0.00000000
  ---------------------------------------------------
  free energy    TOTEN  =      -189.33442485 eV

  energy without entropy =     -189.07098704  energy(sigma->0) =     -189.20270595


--------------------------------------------------------------------------------------------------------




----------------------------------------- Iteration    1(  18)  ---------------------------------------


    POTLOK:  cpu time    0.0497: real time    0.0505
    SETDIJ:  cpu time    0.0061: real time    0.0061
    EDDIAG:  cpu time    1.6400: real time    1.6405
  RMM-DIIS:  cpu time    4.5039: real time    4.5063
    ORTHCH:  cpu time    0.3894: real time    0.3896
       DOS:  cpu time    0.0016: real time    0.0016
    CHARGE:  cpu time    0.3003: real time    0.3003
    MIXING:  cpu time    0.0038: real time    0.0038
    --------------------------------------------
      LOOP:  cpu time    6.8957: real time    6.9027

 eigenvalue-minimisations  :  3681
 total energy-change (2. order) : 0.6491849E-01  (-0.1060283E-01)
 number of electron     503.9998359 magnetization 
 augmentation part      197.1077049 magnetization 

 DIPCOR: dipole corrections for dipol
 direction  3 min pos     1,
 dipolmoment           0.000000      0.000000      0.059758 electrons x Angstroem
 Tr[quadrupol]    -10200.088995

 energy correction for charged system         0.000000 eV
 dipol+quadrupol energy correction           -0.000126 eV
 added-field ion interaction          0.018917 eV  (added to PSCEN)


 Broyden mixing:
  rms(total) = 0.20916E+00    rms(broyden)= 0.20911E+00
  rms(prec ) = 0.24017E+00
  weight for this iteration     100.00

 eigenvalues of (default mixing * dielectric matrix)
  average eigenvalue GAMMA=   0.7057
  1.9613  1.9613  1.4995  0.6438  0.6438  0.4616  0.4064  0.4064  0.2878  0.2643
  0.1910  0.2233  0.2233

 Free energy of the ion-electron system (eV)
  ---------------------------------------------------
  alpha Z        PSCENC =       805.88815530
  Ewald energy   TEWEN  =    199701.91393614
  -Hartree energ DENC   =   -241845.31039936
  -exchange      EXHF   =         0.00000000
  -V(xc)+E(xc)   XCENC  =      -343.92338439
  PAW double counting   =     49267.72005929   -47347.04373942
  entropy T*S    EENTRO =        -0.27124633
  eigenvalues    EBANDS =     -2088.02875991
  atomic energy  EATOM  =     41659.78587232
  Solvation  Ediel_sol  =         0.00000000
  ---------------------------------------------------
  free energy    TOTEN  =      -189.26950636 eV

  energy without entropy =     -188.99826003  energy(sigma->0) =     -189.13388320


--------------------------------------------------------------------------------------------------------




----------------------------------------- Iteration    1(  19)  ---------------------------------------


    POTLOK:  cpu time    0.0501: real time    0.0501
    SETDIJ:  cpu time    0.0061: real time    0.0061
    EDDIAG:  cpu time    1.6258: real time    1.6266
  RMM-DIIS:  cpu time    4.4478: real time    4.4496
    ORTHCH:  cpu time    0.3894: real time    0.3895
       DOS:  cpu time    0.0015: real time    0.0015
    CHARGE:  cpu time    0.3047: real time    0.3049
    MIXING:  cpu time    0.0041: real time    0.0041
    --------------------------------------------
      LOOP:  cpu time    6.8303: real time    6.8390

 eigenvalue-minimisations  :  3680
 total energy-change (2. order) : 0.3818379E-01  (-0.3806312E-02)
 number of electron     503.9998360 magnetization 
 augmentation part      197.0827266 magnetization 

 DIPCOR: dipole corrections for dipol
 direction  3 min pos     1,
 dipolmoment           0.000000      0.000000      0.048793 electrons x Angstroem
 Tr[quadrupol]    -10200.215778

 energy correction for charged system         0.000000 eV
 dipol+quadrupol energy correction           -0.000084 eV
 added-field ion interaction          0.015446 eV  (added to PSCEN)


 Broyden mixing:
  rms(total) = 0.10912E+00    rms(broyden)= 0.10907E+00
  rms(prec ) = 0.12313E+00
  weight for this iteration     100.00

 eigenvalues of (default mixing * dielectric matrix)
  average eigenvalue GAMMA=   0.6949
  2.0479  2.0479  1.4447  0.6762  0.6762  0.4938  0.4196  0.4196  0.3335  0.2694
  0.2694  0.2302  0.2111  0.1891

 Free energy of the ion-electron system (eV)
  ---------------------------------------------------
  alpha Z        PSCENC =       805.88472631
  Ewald energy   TEWEN  =    199701.91393614
  -Hartree energ DENC   =   -241851.21726805
  -exchange      EXHF   =         0.00000000
  -V(xc)+E(xc)   XCENC  =      -343.87388866
  PAW double counting   =     49278.89588827   -47357.88454957
  entropy T*S    EENTRO =        -0.27006202
  eigenvalues    EBANDS =     -2082.46597731
  atomic energy  EATOM  =     41659.78587232
  Solvation  Ediel_sol  =         0.00000000
  ---------------------------------------------------
  free energy    TOTEN  =      -189.23132257 eV

  energy without entropy =     -188.96126056  energy(sigma->0) =     -189.09629156


--------------------------------------------------------------------------------------------------------




----------------------------------------- Iteration    1(  20)  ---------------------------------------


    POTLOK:  cpu time    0.0499: real time    0.0508
    SETDIJ:  cpu time    0.0061: real time    0.0061
    EDDIAG:  cpu time    1.6342: real time    1.6358
  RMM-DIIS:  cpu time    4.5040: real time    4.5057
    ORTHCH:  cpu time    0.3881: real time    0.3882
       DOS:  cpu time    0.0016: real time    0.0016
    CHARGE:  cpu time    0.2999: real time    0.2999
    MIXING:  cpu time    0.0040: real time    0.0042
    --------------------------------------------
      LOOP:  cpu time    6.8885: real time    6.8961

 eigenvalue-minimisations  :  3679
 total energy-change (2. order) : 0.1166869E-01  (-0.1147732E-02)
 number of electron     503.9998360 magnetization 
 augmentation part      197.0620390 magnetization 

 DIPCOR: dipole corrections for dipol
 direction  3 min pos     1,
 dipolmoment           0.000000      0.000000      0.030846 electrons x Angstroem
 Tr[quadrupol]    -10200.306909

 energy correction for charged system         0.000000 eV
 dipol+quadrupol energy correction           -0.000034 eV
 added-field ion interaction          0.009764 eV  (added to PSCEN)


 Broyden mixing:
  rms(total) = 0.68851E-01    rms(broyden)= 0.68840E-01
  rms(prec ) = 0.75024E-01
  weight for this iteration     100.00

 eigenvalues of (default mixing * dielectric matrix)
  average eigenvalue GAMMA=   0.6960
  2.1919  1.6688  1.6630  0.7680  0.7680  0.4927  0.4927  0.4236  0.4236  0.4057
  0.2747  0.2520  0.1896  0.2177  0.2080

 Free energy of the ion-electron system (eV)
  ---------------------------------------------------
  alpha Z        PSCENC =       805.87909518
  Ewald energy   TEWEN  =    199701.91393614
  -Hartree energ DENC   =   -241855.49305242
  -exchange      EXHF   =         0.00000000
  -V(xc)+E(xc)   XCENC  =      -343.84371347
  PAW double counting   =     49285.40732553   -47364.22022341
  entropy T*S    EENTRO =        -0.27401334
  eigenvalues    EBANDS =     -2078.37488040
  atomic energy  EATOM  =     41659.78587232
  Solvation  Ediel_sol  =         0.00000000
  ---------------------------------------------------
  free energy    TOTEN  =      -189.21965388 eV

  energy without entropy =     -188.94564053  energy(sigma->0) =     -189.08264721


--------------------------------------------------------------------------------------------------------




----------------------------------------- Iteration    1(  21)  ---------------------------------------


    POTLOK:  cpu time    0.0494: real time    0.0494
    SETDIJ:  cpu time    0.0060: real time    0.0060
    EDDIAG:  cpu time    1.6342: real time    1.6363
  RMM-DIIS:  cpu time    4.5053: real time    4.5069
    ORTHCH:  cpu time    0.3883: real time    0.3886
       DOS:  cpu time    0.0016: real time    0.0016
    CHARGE:  cpu time    0.3002: real time    0.3002
    MIXING:  cpu time    0.0042: real time    0.0042
    --------------------------------------------
      LOOP:  cpu time    6.8900: real time    6.8954

 eigenvalue-minimisations  :  3680
 total energy-change (2. order) : 0.8258934E-03  (-0.3818116E-03)
 number of electron     503.9998360 magnetization 
 augmentation part      197.0500004 magnetization 

 DIPCOR: dipole corrections for dipol
 direction  3 min pos     1,
 dipolmoment           0.000000      0.000000      0.026731 electrons x Angstroem
 Tr[quadrupol]    -10200.381561

 energy correction for charged system         0.000000 eV
 dipol+quadrupol energy correction           -0.000025 eV
 added-field ion interaction          0.008462 eV  (added to PSCEN)


 Broyden mixing:
  rms(total) = 0.58588E-01    rms(broyden)= 0.58584E-01
  rms(prec ) = 0.65100E-01
  weight for this iteration     100.00

 eigenvalues of (default mixing * dielectric matrix)
  average eigenvalue GAMMA=   0.7082
  2.2318  1.6427  1.6427  0.9281  0.9281  0.6314  0.6314  0.4087  0.4087  0.4389
  0.2844  0.2844  0.2544  0.2210  0.1897  0.2043

 Free energy of the ion-electron system (eV)
  ---------------------------------------------------
  alpha Z        PSCENC =       805.87780114
  Ewald energy   TEWEN  =    199701.91393614
  -Hartree energ DENC   =   -241858.60601467
  -exchange      EXHF   =         0.00000000
  -V(xc)+E(xc)   XCENC  =      -343.83303156
  PAW double counting   =     49289.07440604   -47367.87810081
  entropy T*S    EENTRO =        -0.27361470
  eigenvalues    EBANDS =     -2075.28008189
  atomic energy  EATOM  =     41659.78587232
  Solvation  Ediel_sol  =         0.00000000
  ---------------------------------------------------
  free energy    TOTEN  =      -189.21882799 eV

  energy without entropy =     -188.94521329  energy(sigma->0) =     -189.08202064


--------------------------------------------------------------------------------------------------------




----------------------------------------- Iteration    1(  22)  ---------------------------------------


    POTLOK:  cpu time    0.0500: real time    0.0500
    SETDIJ:  cpu time    0.0060: real time    0.0060
    EDDIAG:  cpu time    1.6058: real time    1.6313
  RMM-DIIS:  cpu time    4.3580: real time    4.4020
    ORTHCH:  cpu time    0.3886: real time    0.3886
       DOS:  cpu time    0.0016: real time    0.0016
    CHARGE:  cpu time    0.3001: real time    0.3004
    MIXING:  cpu time    0.0042: real time    0.0042
    --------------------------------------------
      LOOP:  cpu time    6.7150: real time    6.7874

 eigenvalue-minimisations  :  3679
 total energy-change (2. order) : 0.2636747E-02  (-0.2814027E-03)
 number of electron     503.9998361 magnetization 
 augmentation part      197.0287024 magnetization 

 DIPCOR: dipole corrections for dipol
 direction  3 min pos     1,
 dipolmoment           0.000000      0.000000      0.025851 electrons x Angstroem
 Tr[quadrupol]    -10200.499209

 energy correction for charged system         0.000000 eV
 dipol+quadrupol energy correction           -0.000024 eV
 added-field ion interaction          0.008183 eV  (added to PSCEN)


 Broyden mixing:
  rms(total) = 0.44304E-01    rms(broyden)= 0.44299E-01
  rms(prec ) = 0.50143E-01
  weight for this iteration     100.00

 eigenvalues of (default mixing * dielectric matrix)
  average eigenvalue GAMMA=   0.7249
  2.2806  1.7123  1.7123  1.0816  1.0816  0.6626  0.6626  0.5460  0.4107  0.4107
  0.3159  0.3159  0.2582  0.2582  0.2189  0.1895  0.2050

 Free energy of the ion-electron system (eV)
  ---------------------------------------------------
  alpha Z        PSCENC =       805.87752403
  Ewald energy   TEWEN  =    199701.91393614
  -Hartree energ DENC   =   -241863.76798146
  -exchange      EXHF   =         0.00000000
  -V(xc)+E(xc)   XCENC  =      -343.80587140
  PAW double counting   =     49293.71930956   -47372.44052065
  entropy T*S    EENTRO =        -0.27445417
  eigenvalues    EBANDS =     -2070.22400561
  atomic energy  EATOM  =     41659.78587232
  Solvation  Ediel_sol  =         0.00000000
  ---------------------------------------------------
  free energy    TOTEN  =      -189.21619124 eV

  energy without entropy =     -188.94173707  energy(sigma->0) =     -189.07896416


--------------------------------------------------------------------------------------------------------




----------------------------------------- Iteration    1(  23)  ---------------------------------------


    POTLOK:  cpu time    0.0497: real time    0.0497
    SETDIJ:  cpu time    0.0060: real time    0.0060
    EDDIAG:  cpu time    1.6242: real time    1.6248
  RMM-DIIS:  cpu time    4.5070: real time    4.5086
    ORTHCH:  cpu time    0.3889: real time    0.3889
       DOS:  cpu time    0.0016: real time    0.0016
    CHARGE:  cpu time    0.3030: real time    0.3035
    MIXING:  cpu time    0.0045: real time    0.0045
    --------------------------------------------
      LOOP:  cpu time    6.8856: real time    6.8898

 eigenvalue-minimisations  :  3680
 total energy-change (2. order) : 0.3352541E-03  (-0.2154194E-03)
 number of electron     503.9998361 magnetization 
 augmentation part      197.0239216 magnetization 

 DIPCOR: dipole corrections for dipol
 direction  3 min pos     1,
 dipolmoment           0.000000      0.000000      0.027502 electrons x Angstroem
 Tr[quadrupol]    -10200.592215

 energy correction for charged system         0.000000 eV
 dipol+quadrupol energy correction           -0.000027 eV
[...]
    275       1.7076      0.00000
    276       1.8358      0.00000
    277       2.0089      0.00000
    278       2.2656      0.00000
    279       2.3130      0.00000
    280       2.4157      0.00000
    281       2.5026      0.00000
    282       2.6011      0.00000
    283       2.7628      0.00000
    284       2.9786      0.00000
    285       3.0931      0.00000
    286       3.2409      0.00000
    287       3.5098      0.00000
    288       3.5843      0.00000
    289       3.7898      0.00000
    290       4.0343      0.00000
    291       4.1120      0.00000
    292       4.1733      0.00000
    293       4.4952      0.00000
    294       4.5270      0.00000
    295       4.5835      0.00000
    296       4.6189      0.00000
    297       4.6627      0.00000
    298       4.8073      0.00000
    299       4.8631      0.00000
    300       4.9379      0.00000
    301       4.9505      0.00000
    302       5.0266      0.00000
    303       5.0597      0.00000
    304       5.0717      0.00000
    305       5.1392      0.00000
    306       5.2364      0.00000


--------------------------------------------------------------------------------------------------------


 soft charge-density along one line, spin component           1
         0         1         2         3         4         5         6         7         8         9
 total charge-density along one line
 
 pseudopotential strength for first ion, spin component:           1
 -8.049   0.002   0.001  -0.004  -0.000  -8.195   0.002   0.001
  0.002  -7.977   0.002  -0.001   0.002   0.002  -8.125   0.002
  0.001   0.002  -7.969   0.001  -0.002   0.001   0.002  -8.117
 -0.004  -0.001   0.001  -7.972  -0.002  -0.004  -0.001   0.001
 -0.000   0.002  -0.002  -0.002  -8.049  -0.000   0.002  -0.002
 -8.195   0.002   0.001  -0.004  -0.000  -8.326   0.002   0.001
  0.002  -8.125   0.002  -0.001   0.002   0.002  -8.257   0.002
  0.001   0.002  -8.117   0.001  -0.002   0.001   0.002  -8.250
 -0.004  -0.001   0.001  -8.120  -0.002  -0.004  -0.001   0.001
 -0.000   0.002  -0.002  -0.002  -8.196  -0.000   0.002  -0.002
  0.001   0.002  -0.025   0.000  -0.001   0.001   0.002  -0.025
  0.001   0.003  -0.037   0.000  -0.002   0.001   0.003  -0.037
 -0.003  -0.003   0.001  -0.000   0.002  -0.003  -0.002   0.001
 -0.000  -0.002  -0.005  -0.003  -0.000  -0.000  -0.002  -0.005
 -0.002  -0.000   0.002  -0.003  -0.003  -0.002  -0.000   0.002
 -0.003  -0.002   0.002  -0.000   0.003  -0.003  -0.002   0.002
 -0.000  -0.003  -0.005  -0.004  -0.000  -0.000  -0.003  -0.005
 -0.003  -0.000   0.002  -0.003  -0.004  -0.003  -0.000   0.002
 total augmentation occupancy for first ion, spin component:           1
  4.510   0.046  -0.119   0.076  -0.132  -2.671  -0.021   0.113  -0.117   0.123  -0.069   0.044  -0.063   0.002  -0.005  -0.000
  0.046   4.013   0.016  -0.043   0.053  -0.022  -1.765   0.020   0.034  -0.047  -0.074   0.000  -0.153   0.004  -0.003   0.006
 -0.119   0.016   4.395  -0.041   0.034   0.113   0.020  -2.279   0.044  -0.031   1.081  -0.140  -0.013  -0.215  -0.001   0.002
  0.076  -0.043  -0.041   4.034  -0.044  -0.116   0.034   0.044  -1.762   0.008  -0.006  -0.019  -0.000   0.008  -0.143  -0.000
 -0.132   0.053   0.034  -0.044   4.423   0.123  -0.047  -0.031   0.007  -2.596   0.072  -0.032  -0.032   0.006   0.074   0.004
 -2.671  -0.022   0.113  -0.116   0.123   2.719   0.003  -0.107   0.147  -0.116   0.065  -0.042   0.057  -0.001   0.006  -0.002
 -0.021  -1.765   0.020   0.034  -0.047   0.003   1.485  -0.047  -0.026   0.042   0.069  -0.005   0.141  -0.005   0.004  -0.006
  0.113   0.020  -2.279   0.044  -0.031  -0.107  -0.047   2.106  -0.046   0.027  -1.016   0.166   0.008   0.216  -0.000  -0.001
 -0.117   0.034   0.044  -1.762   0.007   0.147  -0.026  -0.046   1.463   0.020   0.009   0.014   0.001  -0.003   0.131   0.000
  0.123  -0.047  -0.031   0.008  -2.596  -0.116   0.042   0.027   0.020   2.656  -0.057   0.028   0.027  -0.005  -0.061  -0.002
 -0.069  -0.074   1.081  -0.006   0.072   0.065   0.069  -1.016   0.009  -0.057   2.418  -0.520  -0.008   0.106   0.001   0.000
  0.044   0.000  -0.140  -0.019  -0.032  -0.042  -0.005   0.166   0.014   0.028  -0.520   0.157   0.011  -0.052   0.009  -0.000
 -0.063  -0.153  -0.013  -0.000  -0.032   0.057   0.141   0.008   0.001   0.027  -0.008   0.011   0.192   0.006   0.003  -0.006
  0.002   0.004  -0.215   0.008   0.006  -0.001  -0.005   0.216  -0.003  -0.005   0.106  -0.052   0.006   0.087   0.001  -0.000
 -0.005  -0.003  -0.001  -0.143   0.074   0.006   0.004  -0.000   0.131  -0.061   0.001   0.009   0.003   0.001   0.188  -0.000
 -0.000   0.006   0.002  -0.000   0.004  -0.002  -0.006  -0.001   0.000  -0.002   0.000  -0.000  -0.006  -0.000  -0.000   0.000
 -0.000  -0.003   0.002  -0.004  -0.000   0.000   0.001  -0.006   0.001   0.000  -0.007   0.002  -0.000  -0.003   0.000   0.000
 -0.002  -0.000   0.001   0.005  -0.006   0.000   0.000   0.000  -0.005   0.003  -0.000  -0.000  -0.000   0.000  -0.006   0.000


------------------------ aborting loop because EDIFF is reached ----------------------------------------


    CHARGE:  cpu time    0.2970: real time    0.2971
    FORLOC:  cpu time    0.0187: real time    0.0187
    FORNL :  cpu time    1.6858: real time    1.6864
    FORCOR:  cpu time    0.0668: real time    0.0674
    FORHAR:  cpu time    0.0291: real time    0.0291
    MIXING:  cpu time    0.0036: real time    0.0036
    OFIELD:  cpu time    0.0000: real time    0.0000

 VOLUME and BASIS-vectors are now :
 -----------------------------------------------------------------------------
  energy-cutoff  :      400.00
  volume of cell :     2567.68
      direct lattice vectors                 reciprocal lattice vectors
    11.002581515  0.000000000  0.000000000     0.090887761 -0.052474073  0.000000000
     5.501290758  9.528515099  0.000000000     0.000000000  0.104948147  0.000000000
     0.000000000  0.000000000 24.491785094     0.000000000  0.000000000  0.040830017

  length of vectors
    11.002581515 11.002581515 24.491785094     0.104948147  0.104948147  0.040830017


 FORCES acting on ions
    electron-ion (+dipol)            ewald-force                    non-local-force                 convergence-correction
 -----------------------------------------------------------------------------------------------
   -.508E+01 -.213E+02 0.224E+04   0.562E+01 0.217E+02 -.224E+04   -.544E+00 -.378E+00 0.244E+00   0.123E-02 0.181E-02 -.346E-02
   -.107E+02 -.533E+01 0.225E+04   0.109E+02 0.589E+01 -.225E+04   -.209E+00 -.563E+00 -.708E-01   -.732E-04 -.590E-03 -.453E-03
   0.101E+00 0.436E+01 -.229E+04   -.154E+00 -.494E+01 0.229E+04   0.544E-01 0.585E+00 -.178E+00   0.189E-03 0.356E-03 0.333E-02
   -.311E+01 0.278E+01 -.804E+01   0.296E+01 -.237E+01 0.799E+01   0.147E+00 -.408E+00 0.432E-01   -.102E-02 -.965E-03 0.464E-02
   0.101E+02 0.922E+01 0.227E+04   -.110E+02 -.101E+02 -.227E+04   0.877E+00 0.918E+00 -.222E-02   -.179E-02 -.837E-03 -.812E-03
   0.535E+01 -.924E+01 0.851E+01   -.544E+01 0.877E+01 -.734E+01   0.975E-01 0.456E+00 -.116E+01   0.188E-02 0.357E-02 0.316E-02
   -.113E+02 -.288E+01 0.230E+04   0.118E+02 0.268E+01 -.230E+04   -.457E+00 0.200E+00 0.673E-01   0.153E-02 0.180E-02 -.167E-02
   0.399E+00 -.382E+01 -.140E+02   -.453E+00 0.391E+01 0.139E+02   0.528E-01 -.881E-01 0.925E-01   0.273E-02 0.206E-02 0.365E-02
   -.714E+01 -.523E+01 0.224E+04   0.737E+01 0.553E+01 -.224E+04   -.222E+00 -.302E+00 0.237E-01   -.430E-03 0.395E-03 -.319E-02
   -.185E+02 -.676E+01 -.226E+04   0.188E+02 0.683E+01 0.226E+04   -.278E+00 -.716E-01 0.287E+00   0.216E-02 -.130E-03 0.749E-03
   -.658E+01 0.733E+01 0.586E+00   0.640E+01 -.717E+01 0.422E-01   0.186E+00 -.157E+00 -.628E+00   -.178E-02 -.501E-03 0.478E-02
   0.178E+01 0.529E+01 -.223E+04   -.218E+01 -.617E+01 0.223E+04   0.413E+00 0.880E+00 0.318E+00   -.140E-02 0.210E-03 0.379E-02
   0.192E+02 -.529E+01 0.225E+04   -.192E+02 0.599E+01 -.225E+04   -.940E-02 -.706E+00 -.168E+00   -.265E-02 -.642E-03 0.257E-03
   0.155E+02 -.171E+02 -.228E+04   -.160E+02 0.177E+02 0.228E+04   0.528E+00 -.611E+00 0.239E+00   0.694E-03 0.117E-02 0.168E-02
   0.446E+01 0.758E+01 -.531E+02   -.429E+01 -.683E+01 0.524E+02   -.174E+00 -.756E+00 0.743E+00   0.862E-03 0.155E-03 0.260E-02
   -.355E+01 0.272E+02 -.227E+04   0.377E+01 -.280E+02 0.227E+04   -.222E+00 0.817E+00 -.785E-01   -.773E-03 -.627E-04 0.421E-02
   0.105E+02 -.125E+02 0.217E+04   -.107E+02 0.128E+02 -.217E+04   0.195E+00 -.293E+00 -.670E+00   0.614E-03 0.753E-03 -.210E-03
   0.107E+02 0.198E+02 0.221E+04   -.112E+02 -.206E+02 -.221E+04   0.501E+00 0.775E+00 -.461E+00   -.196E-02 -.158E-02 -.724E-03
   -.504E+01 0.621E+01 -.228E+04   0.554E+01 -.669E+01 0.228E+04   -.504E+00 0.480E+00 0.411E+00   0.770E-03 0.317E-03 0.532E-03
   0.311E+01 0.642E+01 -.389E+02   -.265E+01 -.651E+01 0.389E+02   -.462E+00 0.858E-01 0.375E-02   0.254E-02 0.188E-02 0.283E-02
   -.232E+02 0.523E+01 0.225E+04   0.234E+02 -.531E+01 -.225E+04   -.262E+00 0.743E-01 -.327E+00   0.240E-02 0.355E-03 0.191E-03
   -.207E+02 -.169E+02 -.225E+04   0.210E+02 0.178E+02 0.225E+04   -.367E+00 -.912E+00 0.657E+00   0.136E-02 0.992E-03 0.107E-03
   0.780E+01 0.772E+01 0.224E+04   -.799E+01 -.882E+01 -.224E+04   0.183E+00 0.110E+01 -.258E+00   -.126E-02 -.293E-03 -.177E-03
   0.226E+02 -.505E+01 -.230E+04   -.234E+02 0.588E+01 0.230E+04   0.796E+00 -.845E+00 -.179E+00   -.227E-02 -.879E-03 0.553E-02
   -.354E+01 0.730E+01 -.153E+02   0.326E+01 -.711E+01 0.152E+02   0.275E+00 -.195E+00 0.310E-01   0.140E-02 -.932E-03 0.233E-02
   -.770E+01 0.708E+01 0.196E+04   0.787E+01 -.677E+01 -.196E+04   -.163E+00 -.315E+00 -.133E+01   0.737E-03 0.274E-03 0.264E-03
   -.366E+01 0.108E+02 0.193E+04   0.381E+01 -.108E+02 -.193E+04   -.142E+00 -.295E-01 -.184E+01   0.103E-02 0.199E-03 -.435E-03
   -.339E+01 -.338E+01 0.455E+02   0.275E+01 0.265E+01 -.446E+02   0.632E+00 0.729E+00 -.873E+00   0.256E-02 0.126E-02 0.365E-02
   0.230E+02 -.128E+02 -.194E+04   -.232E+02 0.128E+02 0.194E+04   0.201E+00 -.349E-01 0.183E+01   -.522E-03 -.144E-02 0.394E-02
   0.173E+02 0.246E+01 -.199E+04   -.177E+02 -.257E+01 0.199E+04   0.401E+00 0.112E+00 0.170E+01   0.173E-02 0.112E-02 0.404E-02
   -.166E+02 -.139E+02 0.192E+04   0.165E+02 0.143E+02 -.191E+04   0.834E-01 -.404E+00 -.158E+01   0.150E-02 0.689E-03 -.734E-03
   -.255E+01 0.161E+02 -.198E+04   0.264E+01 -.166E+02 0.197E+04   -.852E-01 0.480E+00 0.187E+01   0.363E-03 0.160E-03 0.574E-02
   -.176E+01 0.108E+02 0.447E+02   0.183E+01 -.993E+01 -.439E+02   -.564E-01 -.855E+00 -.813E+00   -.192E-02 -.390E-02 0.458E-02
   -.523E+01 -.131E+02 -.167E+02   0.562E+01 0.125E+02 0.167E+02   -.396E+00 0.569E+00 0.308E-02   -.134E-02 0.331E-04 0.300E-02
   -.187E+02 -.934E+01 -.195E+04   0.190E+02 0.949E+01 0.195E+04   -.329E+00 -.141E+00 0.192E+01   -.902E-03 -.252E-02 0.493E-02
   0.512E+00 -.440E+01 0.168E+02   -.573E+00 0.398E+01 -.165E+02   0.660E-01 0.419E+00 -.351E+00   -.306E-02 -.137E-02 0.362E-02
   0.628E+01 0.114E+01 0.198E+04   -.660E+01 -.118E+01 -.197E+04   0.324E+00 0.444E-01 -.196E+01   -.102E-02 -.728E-03 -.141E-02
   0.467E+01 0.125E+02 -.228E+02   -.455E+01 -.118E+02 0.228E+02   -.108E+00 -.667E+00 0.266E-02   -.104E-02 -.175E-02 0.302E-02
   0.369E+00 0.205E+02 -.199E+04   -.278E+00 -.206E+02 0.199E+04   -.957E-01 0.166E+00 0.145E+01   0.192E-02 0.256E-03 0.235E-02
   0.421E+01 -.696E+01 -.378E+02   -.412E+01 0.713E+01 0.378E+02   -.830E-01 -.172E+00 -.668E-02   0.188E-02 0.568E-03 0.189E-02
   0.458E+01 -.434E+01 0.195E+04   -.441E+01 0.401E+01 -.195E+04   -.171E+00 0.333E+00 -.151E+01   0.351E-03 0.377E-03 0.369E-03
   -.120E+02 0.532E+01 -.196E+04   0.120E+02 -.561E+01 0.196E+04   -.124E-01 0.292E+00 0.200E+01   -.187E-02 -.795E-03 0.467E-02
   0.713E+00 -.152E+02 0.329E+01   -.101E+01 0.144E+02 -.278E+01   0.304E+00 0.801E+00 -.510E+00   -.205E-02 0.762E-03 0.344E-02
   0.171E+01 -.122E+01 -.258E+02   -.135E+01 0.131E+01 0.258E+02   -.351E+00 -.857E-01 -.418E-01   -.181E-02 -.654E-03 0.231E-02
   0.168E+02 0.701E+01 0.195E+04   -.167E+02 -.688E+01 -.195E+04   -.898E-01 -.133E+00 -.193E+01   -.225E-02 -.122E-02 -.639E-03
   0.581E+00 0.827E+01 -.807E+02   -.469E+00 -.820E+01 0.798E+02   -.118E+00 -.704E-01 0.939E+00   0.193E-02 0.724E-03 0.143E-02
   0.681E+00 -.169E+02 -.196E+04   -.742E+00 0.177E+02 0.196E+04   0.670E-01 -.756E+00 0.161E+01   -.137E-02 -.619E-03 0.367E-02
   -.314E+01 -.569E+01 -.199E+04   0.338E+01 0.579E+01 0.199E+04   -.241E+00 -.852E-01 0.167E+01   -.349E-03 0.672E-03 0.190E-02
 -----------------------------------------------------------------------------------------------
   -.218E+00 -.318E+00 -.129E+01   -.256E-12 0.895E-12 0.750E-11   0.230E+00 0.284E+00 0.121E+01   -.570E-03 0.517E-03 0.893E-01
 
 
 POSITION                                       TOTAL-FORCE (eV/Angst)
 -----------------------------------------------------------------------------------
      1.39833      0.79896      9.71412         0.001288      0.007055      0.011740
      8.25916      3.18790      9.70141         0.004110      0.000789     -0.002648
      5.48512     -0.02843     14.80948         0.001225      0.001642     -0.009003
      5.49436      1.62189     12.24397         0.000487     -0.001010      0.002113
      6.85597      0.76797      9.67537         0.005522      0.001407      0.004571
      6.87106      8.72609     12.24183         0.001311     -0.010335      0.009466
      8.28054      7.93181      9.64006        -0.000353      0.001754      0.003985
      9.63048      8.73974     12.25356         0.001079     -0.002503      0.007613
      9.63550      0.79171      9.69925         0.002725      0.000645      0.010199
      4.13635      2.38493     14.77766         0.001677     -0.001945      0.003125
      8.25494      1.60496     12.24241        -0.002249      0.000995      0.003923
      8.23572     -0.02985     14.73620         0.006759      0.006392     -0.000741
      5.49515      3.19397      9.72176        -0.008593     -0.000726     -0.003803
     10.97027      4.78599     14.79802         0.000152      0.002802      0.006240
     11.01031      1.61299     12.29276        -0.007522     -0.004789      0.000140
     -0.00234     -0.04012     14.79330        -0.002431     -0.000594     -0.004752
      2.74290      3.19107      9.86154        -0.003981      0.000209     -0.002163
     13.74141      7.90681      9.78974        -0.002026     -0.004742     -0.000617
      1.37850      2.36870     14.82852        -0.004358     -0.003710      0.005681
     11.01444      6.34136     12.28266        -0.004085      0.001521      0.000746
      9.65592      5.55043      9.74393         0.003934     -0.006626     -0.007951
      2.76306      4.79113     14.75051         0.001383      0.001202      0.006606
      5.50499      7.90883      9.72265        -0.001271      0.000753     -0.009069
      9.58847      2.40044     14.85063        -0.002643     -0.011332     -0.013413
      9.61445      3.98656     12.25160        -0.003040      0.002979      0.003035
     11.00835      7.93203      9.88289         0.007365     -0.005434     -0.001378
     12.38750      5.55114      9.95042         0.000761     -0.003616     -0.000884
      8.24541      6.34191     12.18430        -0.006460     -0.005622      0.004347
      8.23077      4.76576     14.54415        -0.006512      0.008308     -0.001741
      9.58297      7.13242     14.62029        -0.005341      0.000198     -0.006300
     11.00835      3.17531      9.93686         0.007775      0.003176     -0.003005
      6.87816      7.11618     14.57774         0.000097      0.005467     -0.003201
      6.87427      4.01089     12.18154         0.004421      0.005918      0.007309
     12.39972      8.73493     12.25756        -0.006259     -0.000728      0.002414
      5.51738      4.77254     14.54610         0.001961      0.003537     -0.002701
      5.50514      6.35776     12.21357         0.001589     -0.000724     -0.002988
      6.87602      5.56027      9.84315         0.003754     -0.001250     -0.003373
      4.12292      4.00459     12.26393         0.005646      0.001154     -0.004040
      2.74333     -0.02150     14.64269        -0.002560     -0.004229     -0.002865
      2.74607      1.61271     12.28613         0.007126     -0.002149      0.002882
      4.13472      0.78932      9.87632        -0.002946      0.006041     -0.002959
      4.14211      7.12571     14.57584         0.001574      0.006130     -0.002595
     15.12664      8.72059     12.23754         0.000367     -0.002560      0.001351
     13.77817      6.36461     12.27095         0.002040      0.001406     -0.000308
      4.13212      5.55455      9.90674        -0.004475     -0.003459     -0.000886
     12.39582      3.98272     12.33432        -0.004021      0.001723     -0.000917
      6.86335      2.40616     14.60294         0.003896     -0.001500     -0.004632
     12.37086      7.14089     14.64396         0.001103      0.006379      0.001449
 -----------------------------------------------------------------------------------
    total drift:                                0.011554     -0.033435      0.010213


--------------------------------------------------------------------------------------------------------



  FREE ENERGIE OF THE ION-ELECTRON SYSTEM (eV)
  ---------------------------------------------------
  free  energy   TOTEN  =      -192.80897305 eV

  energy  without entropy=     -192.53796208  energy(sigma->0) =     -192.67346757
 
 d Force = 0.3825359E-03[ 0.173E-03, 0.592E-03]  d Energy = 0.3948502E-03-0.123E-04
 d Force = 0.5015040E+01[ 0.503E+01, 0.500E+01]  d Ewald  = 0.5015040E+01 0.248E-07


--------------------------------------------------------------------------------------------------------


    POTLOK:  cpu time    0.0581: real time    0.0582


--------------------------------------------------------------------------------------------------------


 stress matrix after NEB project (eV)
      0.00000      0.00000      0.00000
      0.00000      0.00000      0.00000
      0.00000      0.00000      0.00000
  FORCES: max atom, RMS     0.017757    0.007850
  FORCE total and by dimension    0.054389    0.013413
  Stress total and by dimension    0.000000    0.000000
 Conjugate gradient step on ions:
 trial-energy change:   -0.000395  1 .order   -0.000383   -0.000592   -0.000173
  (g-gl).g = 0.268E-03      g.g   = 0.223E-03  gl.gl    = 0.547E-03
 g(Force)  = 0.223E-03   g(Stress)= 0.000E+00 ortho     =-0.162E-04
 gamma     =   0.49073
 trial     =   2.75478
 opt step  =   3.67541  (harmonic =   3.89197) maximal distance =0.00441191
 next E    =  -192.809002   (d E  =  -0.00042)


--------------------------------------------------------------------------------------------------------


  
 reached required accuracy - stopping structural energy minimisation
     LOOP+:  cpu time   80.0903: real time   80.3613
    4ORBIT:  cpu time    0.0000: real time    0.0000

 total amount of memory used by VASP on root node    84353. kBytes
========================================================================

   base      :      30000. kBytes
   nonlr-proj:       4285. kBytes
   fftplans  :       4447. kBytes
   grid      :       6721. kBytes
   one-center:        124. kBytes
   wavefun   :      38776. kBytes
 
  
  
 General timing and accounting informations for this job:
 ========================================================
  
                  Total CPU time used (sec):     2338.520
                            User time (sec):     2245.900
                          System time (sec):       92.619
                         Elapsed time (sec):     2360.316
  
                   Maximum memory used (kb):      937408.
                   Average memory used (kb):           0.
  
                          Minor page faults:       953670
                          Major page faults:            2
                 Voluntary context switches:        10664
