unknown system                          
           1
    11.002582    0.000000    0.000000
     5.501291    9.528515    0.000000
     0.000000    0.000000   24.491785
   Au   Pd
  24  24
Direct configuration=     1
   0.08333333  0.08333333  0.40830017
   0.58333333  0.33333333  0.40830017
   0.50000000  0.00000000  0.59169983
   0.41666667  0.16666667  0.50000000
   0.58333333  0.08333333  0.40830017
   0.16666667  0.91666667  0.50000000
   0.33333333  0.83333333  0.40830017
   0.41666667  0.91666667  0.50000000
   0.83333333  0.08333333  0.40830017
   0.25000000  0.25000000  0.59169983
   0.66666667  0.16666667  0.50000000
   0.75000000  0.00000000  0.59169983
   0.33333333  0.33333333  0.40830017
   0.75000000  0.50000000  0.59169983
   0.91666667  0.16666667  0.50000000
   0.00000000  0.00000000  0.59169983
   0.08333333  0.33333333  0.40830017
   0.83333333  0.83333333  0.40830017
   0.00000000  0.25000000  0.59169983
   0.66666667  0.66666667  0.50000000
   0.58333333  0.58333333  0.40830017
   0.00000000  0.50000000  0.59169983
   0.08333333  0.83333333  0.40830017
   0.75000000  0.25000000  0.59169983
   0.66666667  0.41666667  0.50000000
   0.58333333  0.83333333  0.40830017
   0.83333333  0.58333333  0.40830017
   0.41666667  0.66666667  0.50000000
   0.50000000  0.50000000  0.59169983
   0.50000000  0.75000000  0.59169983
   0.83333333  0.33333333  0.40830017
   0.25000000  0.75000000  0.59169983
   0.41666667  0.41666667  0.50000000
   0.66666667  0.91666667  0.50000000
   0.25000000  0.50000000  0.59169983
   0.16666667  0.66666667  0.50000000
   0.33333333  0.58333333  0.40830017
   0.16666667  0.41666667  0.50000000
   0.25000000  0.00000000  0.59169983
   0.16666667  0.16666667  0.50000000
   0.33333333  0.08333333  0.40830017
   0.00000000  0.75000000  0.59169983
   0.91666667  0.91666667  0.50000000
   0.91666667  0.66666667  0.50000000
   0.08333333  0.58333333  0.40830017
   0.91666667  0.41666667  0.50000000
   0.50000000  0.25000000  0.59169983
   0.75000000  0.75000000  0.59169983
Direct configuration=     2
   0.08361541  0.08443194  0.40607898
   0.58297086  0.33474088  0.40638098
   0.50047392 -0.00097197  0.59389693
   0.41565533  0.16759617  0.50003267
   0.58292265  0.08197934  0.40603595
   0.16766038  0.91508489  0.50082385
   0.33429749  0.83284753  0.40611734
   0.41677759  0.91649797  0.50008284
   0.83353156  0.08350469  0.40604887
   0.25011969  0.25037997  0.59359135
   0.66581271  0.16726642  0.50041627
   0.75031926 -0.00147408  0.59358223
   0.33230651  0.33459159  0.40645620
   0.74861263  0.50110368  0.59354485
   0.91632912  0.16841659  0.49962817
   0.00123749 -0.00181881  0.59386275
   0.08257627  0.33408953  0.40684475
   0.83340029  0.83186307  0.40674921
   0.00107413  0.24960334  0.59365125
   0.66751134  0.66673423  0.50001894
   0.58388333  0.58300533  0.40650716
   0.00006494  0.50142251  0.59324346
   0.08381621  0.83145902  0.40645301
   0.74814915  0.25145091  0.59393229
   0.66584864  0.41743503  0.49998669
   0.58361381  0.83338111  0.40710168
   0.83367308  0.58338803  0.40747994
   0.41634674  0.66516836  0.50056240
   0.49915838  0.50036933  0.59237277
   0.49940322  0.74964373  0.59282453
   0.83321096  0.33395821  0.40726468
   0.25056741  0.74904689  0.59251313
   0.41550018  0.41879088  0.50052310
   0.66799453  0.91501119  0.50001435
   0.25045225  0.50063037  0.59228606
   0.16698725  0.66562848  0.50032179
   0.33276690  0.58327341  0.40761664
   0.16592536  0.41839797  0.49995561
   0.25032424 -0.00069725  0.59293381
   0.16676503  0.16710664  0.49993876
   0.33356347  0.08306370  0.40701072
   0.00060630  0.74923630  0.59232018
   0.91720288  0.91445855  0.50029790
   0.91738230  0.66671338  0.49998221
   0.08334359  0.58342177  0.40769554
   0.91678843  0.41713844  0.49946299
   0.49917796  0.25152648  0.59286841
   0.75027883  0.75010424  0.59268583
Direct configuration=     3
   0.08446166  0.08772777  0.39941540
   0.58188343  0.33896352  0.40062340
   0.50189570 -0.00388788  0.60048822
   0.41262134  0.17038468  0.50013067
   0.58169061  0.07791737  0.39924331
   0.17064150  0.91033956  0.50329539
   0.33718995  0.83139011  0.39956886
   0.41711037  0.91599189  0.50033134
   0.83412623  0.08401875  0.39929496
   0.25047874  0.25151990  0.59926590
   0.66325083  0.16906566  0.50166507
   0.75127703 -0.00589631  0.59922941
   0.32922603  0.33836638  0.40092430
   0.74445052  0.50441471  0.59907991
   0.91531649  0.17366637  0.49851267
   0.00494997 -0.00727524  0.60035152
   0.08030508  0.33635811  0.40247850
   0.83360117  0.82745230  0.40209632
   0.00429653  0.24841336  0.59950551
   0.67004537  0.66693694  0.50007575
   0.58553333  0.58202131  0.40112813
   0.00025975  0.50569004  0.59787435
   0.08526483  0.82583608  0.40091152
   0.74259658  0.25580366  0.60062967
   0.66339456  0.41974014  0.49994676
   0.58445523  0.83352444  0.40350620
   0.83469232  0.58355212  0.40501925
   0.41538698  0.66067346  0.50224962
   0.49663352  0.50147730  0.59439158
   0.49761286  0.74857491  0.59619864
   0.83284386  0.33583286  0.40415823
   0.25226966  0.74618758  0.59495301
   0.41200070  0.42516350  0.50209242
   0.67197811  0.91004475  0.50005742
   0.25180899  0.50252146  0.59404477
   0.16794902  0.66251393  0.50128715
   0.33106760  0.58309364  0.40556604
   0.16370145  0.42359187  0.49982243
   0.25129696 -0.00278898  0.59663574
   0.16706012  0.16842658  0.49975503
   0.33425387  0.08225481  0.40314239
   0.00242521  0.74694519  0.59418123
   0.91881153  0.90783420  0.50119161
   0.91952921  0.66685354  0.49992882
   0.08337436  0.58368707  0.40588164
   0.91715370  0.41855375  0.49785198
   0.49671184  0.25610590  0.59637415
   0.75111534  0.75041696  0.59564382
Direct configuration=     4
   0.08517573  0.08512812  0.39825268
   0.58173436  0.33654679  0.39960607
   0.50111124 -0.00304224  0.60178207
   0.41349970  0.17053493  0.50004796
   0.58204896  0.08004548  0.39812889
   0.16817731  0.91241711  0.50222041
   0.33610252  0.83162519  0.39846496
   0.41755524  0.91551003  0.50023142
   0.83381263  0.08325019  0.39836253
   0.25117846  0.25141941  0.60046770
   0.66438259  0.16785165  0.50126160
   0.75120026 -0.00404615  0.60045122
   0.33077623  0.33670113  0.39978929
   0.74589390  0.50378597  0.60020393
   0.91586807  0.17079976  0.49902350
   0.00278867 -0.00514314  0.60164771
   0.08126439  0.33648806  0.40129127
   0.83364173  0.82893632  0.40081406
   0.00241981  0.24908123  0.60049757
   0.66898629  0.66572379  0.50012918
   0.58518834  0.58369753  0.40005700
  -0.00016485  0.50421948  0.59894221
   0.08506472  0.82840671  0.40004848
   0.74500881  0.25384839  0.60199627
   0.66368289  0.41987847  0.49990640
   0.58406183  0.83223433  0.40278830
   0.83413761  0.58353924  0.40415608
   0.41688508  0.66239953  0.50132303
   0.49709435  0.50172761  0.59571188
   0.49737344  0.74891795  0.59690679
   0.83248135  0.33582797  0.40317531
   0.25246222  0.74579054  0.59651621
   0.41316086  0.42198721  0.50112065
   0.67046965  0.91304331  0.50002962
   0.25124116  0.50210998  0.59524197
   0.16687492  0.66451118  0.50080270
   0.33170939  0.58358790  0.40508839
   0.16400557  0.42174596  0.49992320
   0.25196105 -0.00265527  0.59758851
   0.16648115  0.16852528  0.49983051
   0.33390235  0.08286453  0.40251229
   0.00308207  0.74707191  0.59518076
   0.91870680  0.91089787  0.50077414
   0.91956324  0.66584777  0.49998525
   0.08316241  0.58306384  0.40511993
   0.91748280  0.41917456  0.49880200
   0.49645744  0.25471964  0.59724521
   0.75084524  0.74940293  0.59655288
Direct configuration=     5
   0.08563100  0.08347069  0.39751138
   0.58163932  0.33500598  0.39895747
   0.50061111 -0.00250310  0.60260698
   0.41405971  0.17063072  0.49999523
   0.58227743  0.08140228  0.39741838
   0.16660624  0.91374168  0.50153505
   0.33540923  0.83177507  0.39776116
   0.41783887  0.91520282  0.50016772
   0.83361269  0.08276018  0.39776805
   0.25162457  0.25135535  0.60123392
   0.66510416  0.16707764  0.50100436
   0.75115131 -0.00286656  0.60123020
   0.33176458  0.33563944  0.39906565
   0.74681413  0.50338511  0.60092055
   0.91621974  0.16897212  0.49934918
   0.00141071 -0.00378381  0.60247411
   0.08187601  0.33657091  0.40053434
   0.83366759  0.82988246  0.39999654
   0.00122329  0.24950704  0.60113007
   0.66831106  0.66495034  0.50016325
   0.58496839  0.58476622  0.39937410
  -0.00043556  0.50328191  0.59962304
   0.08493715  0.83004564  0.39949825
   0.74654675  0.25260178  0.60286756
   0.66386671  0.41996666  0.49988068
   0.58381101  0.83141180  0.40233059
   0.83378396  0.58353103  0.40360576
   0.41784020  0.66350001  0.50073228
   0.49738815  0.50188720  0.59655364
   0.49722080  0.74913666  0.59735828
   0.83225023  0.33582486  0.40254865
   0.25258499  0.74553741  0.59751285
   0.41390053  0.41996214  0.50050110
   0.66950793  0.91495507  0.50001189
   0.25087914  0.50184763  0.59600525
   0.16619013  0.66578454  0.50049384
   0.33211857  0.58390303  0.40478386
   0.16419947  0.42056909  0.49998745
   0.25238445 -0.00257002  0.59819595
   0.16611202  0.16858821  0.49987863
   0.33367824  0.08325326  0.40211056
   0.00350086  0.74715270  0.59581801
   0.91864003  0.91285114  0.50050798
   0.91958494  0.66520654  0.50002123
   0.08302728  0.58266649  0.40463429
   0.91769262  0.41957037  0.49940769
   0.49629524  0.25383582  0.59780057
   0.75067304  0.74875644  0.59713246
Direct configuration=     6
   0.08506945  0.08389324  0.39713900
   0.58222219  0.33503574  0.39861015
   0.50093838 -0.00247058  0.60299196
   0.41433070  0.16955167  0.49996488
   0.58242174  0.08101418  0.39699025
   0.16689641  0.91437381  0.50142055
   0.33501860  0.83230052  0.39729491
   0.41726906  0.91619183  0.50011609
   0.83361367  0.08309505  0.39744457
   0.25096689  0.25109638  0.60168292
   0.66609861  0.16722382  0.50091085
   0.75060861 -0.00276104  0.60159261
   0.33187666  0.33538209  0.39855004
   0.74693346  0.50272422  0.60141623
   0.91585028  0.16910826  0.49945505
   0.00180950 -0.00335564  0.60290386
   0.08188524  0.33548628  0.40020573
   0.83346116  0.83027366  0.39967475
   0.00133011  0.24919688  0.60146014
   0.66848972  0.66546958  0.50030076
   0.58479547  0.58365378  0.39884936
  -0.00009141  0.50249995  0.60009383
   0.08470422  0.83035795  0.39912088
   0.74655887  0.25243964  0.60334991
   0.66460325  0.41833760  0.49987522
   0.58368806  0.83250120  0.40225929
   0.83373221  0.58363725  0.40342833
   0.41708723  0.66422679  0.50039379
   0.49809066  0.50105179  0.59673880
   0.49733660  0.74924299  0.59757284
   0.83267258  0.33478908  0.40256472
   0.25206644  0.74649203  0.59777684
   0.41425925  0.41996450  0.50019507
   0.66911616  0.91547182  0.50004030
   0.25084067  0.50153412  0.59618908
   0.16666012  0.66602360  0.50037537
   0.33253249  0.58371458  0.40468496
   0.16488057  0.41963532  0.50014076
   0.25157851 -0.00217944  0.59822280
   0.16581221  0.16838706  0.49996625
   0.33394008  0.08314722  0.40214780
   0.00310628  0.74760545  0.59605296
   0.91769138  0.91384222  0.50034575
   0.91849379  0.66664337  0.50010691
   0.08320794  0.58316413  0.40435094
   0.91793550  0.41827344  0.49982885
   0.49736260  0.25318873  0.59794997
   0.75024784  0.74952389  0.59725313
Direct configuration=     7
   0.08485105  0.08405758  0.39699417
   0.58244890  0.33504732  0.39847506
   0.50106567 -0.00245793  0.60314169
   0.41443610  0.16913199  0.49995308
   0.58247786  0.08086323  0.39682374
   0.16700926  0.91461967  0.50137601
   0.33486667  0.83250489  0.39711358
   0.41704745  0.91657650  0.50009601
   0.83361405  0.08322530  0.39731875
   0.25071110  0.25099565  0.60185756
   0.66648539  0.16728068  0.50087449
   0.75039754 -0.00272000  0.60173357
   0.33192025  0.33528200  0.39834950
   0.74697987  0.50246718  0.60160902
   0.91570659  0.16916121  0.49949623
   0.00196460 -0.00318910  0.60307100
   0.08188883  0.33506443  0.40007792
   0.83338087  0.83042581  0.39954959
   0.00137166  0.24907625  0.60158851
   0.66855920  0.66567153  0.50035424
   0.58472821  0.58322111  0.39864527
   0.00004244  0.50219582  0.60027693
   0.08461363  0.83047942  0.39897411
   0.74656358  0.25237658  0.60353752
   0.66488971  0.41770399  0.49987310
   0.58364024  0.83292491  0.40223156
   0.83371208  0.58367856  0.40335932
   0.41679437  0.66450947  0.50026214
   0.49836389  0.50072686  0.59681081
   0.49738164  0.74928434  0.59765629
   0.83283684  0.33438622  0.40257097
   0.25186475  0.74686332  0.59787951
   0.41439877  0.41996542  0.50007605
   0.66896379  0.91567280  0.50005135
   0.25082571  0.50141218  0.59626057
   0.16684292  0.66611657  0.50032929
   0.33269348  0.58364129  0.40464649
   0.16514547  0.41927214  0.50020039
   0.25126506 -0.00202752  0.59823324
   0.16569560  0.16830882  0.50000033
   0.33404192  0.08310598  0.40216229
   0.00295282  0.74778154  0.59614434
   0.91732241  0.91422768  0.50028265
   0.91806940  0.66720220  0.50014023
   0.08327820  0.58335768  0.40424074
   0.91802996  0.41776901  0.49999265
   0.49777773  0.25293705  0.59800808
   0.75008246  0.74982238  0.59730006
Direct configuration=     8
   0.08461851  0.08436535  0.39677306
   0.58262000  0.33498656  0.39823474
   0.50074249 -0.00238975  0.60332537
   0.41477780  0.16908701  0.50002607
   0.58250694  0.08087515  0.39656654
   0.16702029  0.91471656  0.50141181
   0.33518217  0.83259698  0.39682973
   0.41696299  0.91663415  0.50014897
   0.83356025  0.08337924  0.39705330
   0.25097927  0.25054241  0.60206504
   0.66604291  0.16746488  0.50088034
   0.75064396 -0.00290997  0.60187167
   0.33168136  0.33548055  0.39813029
   0.74671967  0.50258887  0.60184447
   0.91608446  0.16908875  0.49957582
   0.00207963 -0.00337695  0.60325664
   0.08167515  0.33507962  0.40009283
   0.83347059  0.83030070  0.39944189
   0.00143555  0.24883033  0.60184960
   0.66858250  0.66551138  0.50037286
   0.58491259  0.58301410  0.39847297
  -0.00015265  0.50267675  0.60045665
   0.08459394  0.83026423  0.39877165
   0.74654034  0.25216456  0.60390393
   0.66473593  0.41792347  0.49992621
   0.58361075  0.83295334  0.40233286
   0.83378296  0.58347923  0.40353727
   0.41683336  0.66447192  0.50021645
   0.49825023  0.50059617  0.59659891
   0.49742853  0.74918850  0.59759541
   0.83314206  0.33416008  0.40274589
   0.25183259  0.74711793  0.59775067
   0.41449132  0.42007867  0.50003805
   0.66884594  0.91586797  0.50006468
   0.25107776  0.50129706  0.59607585
   0.16686013  0.66608095  0.50041124
   0.33261135  0.58354130  0.40455092
   0.16514211  0.41943520  0.50021585
   0.25118665 -0.00199053  0.59813338
   0.16544130  0.16837441  0.50005493
   0.33401253  0.08305372  0.40225148
   0.00261844  0.74802170  0.59607329
   0.91727115  0.91416496  0.50027311
   0.91810547  0.66757722  0.50018978
   0.08343920  0.58330261  0.40428634
   0.91792645  0.41759446  0.50015372
   0.49791112  0.25287073  0.59786744
   0.75016195  0.74986746  0.59730004
Direct configuration=     9
   0.08435790  0.08471029  0.39652524
   0.58281177  0.33491846  0.39796539
   0.50038030 -0.00231334  0.60353123
   0.41516076  0.16903659  0.50010788
   0.58253953  0.08088849  0.39627829
   0.16703266  0.91482515  0.50145192
   0.33553577  0.83270019  0.39651160
   0.41686833  0.91669877  0.50020832
   0.83349996  0.08355176  0.39675580
   0.25127982  0.25003444  0.60229758
   0.66554701  0.16767133  0.50088691
   0.75092014 -0.00312287  0.60202644
   0.33141362  0.33570307  0.39788461
   0.74642805  0.50272526  0.60210835
   0.91650795  0.16900754  0.49966502
   0.00220854 -0.00358747  0.60346470
   0.08143568  0.33509665  0.40010954
   0.83357113  0.83016048  0.39932119
   0.00150716  0.24855471  0.60214222
   0.66860862  0.66533190  0.50039373
   0.58511924  0.58278209  0.39827986
  -0.00037129  0.50321576  0.60065806
   0.08457188  0.83002304  0.39854474
   0.74651429  0.25192694  0.60431459
   0.66456358  0.41816945  0.49998572
   0.58357769  0.83298521  0.40244640
   0.83386241  0.58325584  0.40373670
   0.41687705  0.66442984  0.50016526
   0.49812284  0.50044969  0.59636142
   0.49748108  0.74908110  0.59752719
   0.83348414  0.33390663  0.40294193
   0.25179654  0.74740329  0.59760628
   0.41459504  0.42020559  0.49999546
   0.66871385  0.91608670  0.50007962
   0.25136025  0.50116804  0.59586882
   0.16687941  0.66604103  0.50050307
   0.33251931  0.58342925  0.40444380
   0.16513833  0.41961794  0.50023318
   0.25109878 -0.00194907  0.59802147
   0.16515629  0.16844792  0.50011612
   0.33397960  0.08299514  0.40235145
   0.00224369  0.74829087  0.59599365
   0.91721369  0.91409466  0.50026242
   0.91814590  0.66799753  0.50024532
   0.08361963  0.58324090  0.40433745
   0.91781044  0.41739884  0.50033425
   0.49806062  0.25279640  0.59770982
   0.75025104  0.74991799  0.59730002
Direct configuration=    10
   0.08446147  0.08440320  0.39629436
   0.58278605  0.33487855  0.39771540
   0.50042030 -0.00250336  0.60374289
   0.41489233  0.16931098  0.50012112
   0.58247091  0.08103760  0.39598597
   0.16693970  0.91467923  0.50135603
   0.33561711  0.83266467  0.39620460
   0.41693304  0.91662318  0.50025017
   0.83353927  0.08346347  0.39648987
   0.25121476  0.25012047  0.60248232
   0.66574651  0.16780572  0.50084760
   0.75091167 -0.00317614  0.60214981
   0.33135387  0.33566244  0.39770767
   0.74631639  0.50272341  0.60236735
   0.91630662  0.16883655  0.49980864
   0.00221024 -0.00379559  0.60366854
   0.08141725  0.33531759  0.40022101
   0.83356933  0.83004360  0.39924611
   0.00139840  0.24871774  0.60246772
   0.66866563  0.66525757  0.50043157
   0.58528731  0.58275803  0.39813898
  -0.00026691  0.50319681  0.60079773
   0.08477523  0.83003905  0.39836901
   0.74656790  0.25179297  0.60471041
   0.66453663  0.41820694  0.50003671
   0.58372220  0.83280611  0.40260646
   0.83394727  0.58311918  0.40402661
   0.41690722  0.66447115  0.50003159
   0.49798662  0.50043007  0.59609890
   0.49747239  0.74901569  0.59742335
   0.83347573  0.33394951  0.40316466
   0.25186566  0.74740312  0.59742444
   0.41455485  0.42033290  0.49982304
   0.66870665  0.91604942  0.50009921
   0.25139811  0.50106868  0.59565085
   0.16685684  0.66617936  0.50053511
   0.33252554  0.58348849  0.40434693
   0.16504019  0.41968968  0.50025888
   0.25112771 -0.00204587  0.59793561
   0.16531679  0.16867971  0.50018458
   0.33391175  0.08314730  0.40250661
   0.00220541  0.74840067  0.59590931
   0.91719965  0.91432660  0.50020238
   0.91821541  0.66798249  0.50027071
   0.08362560  0.58307950  0.40444105
   0.91775226  0.41769336  0.50059868
   0.49803517  0.25267994  0.59757179
   0.75007997  0.74998828  0.59727764
Direct configuration=    11
   0.08462155  0.08392858  0.39593752
   0.58274628  0.33481686  0.39732904
   0.50048213 -0.00279704  0.60407003
   0.41447747  0.16973505  0.50014159
   0.58236484  0.08126805  0.39553417
   0.16679603  0.91445370  0.50120783
   0.33574282  0.83260977  0.39573010
   0.41703305  0.91650636  0.50031486
   0.83360003  0.08332700  0.39607887
   0.25111422  0.25025343  0.60276785
   0.66605485  0.16801342  0.50078685
   0.75089859 -0.00325849  0.60234048
   0.33126152  0.33559964  0.39743419
   0.74614382  0.50272054  0.60276765
   0.91599545  0.16857227  0.50003061
   0.00221287 -0.00411724  0.60398358
   0.08138877  0.33565908  0.40039329
   0.83356654  0.82986295  0.39913007
   0.00123030  0.24896971  0.60297079
   0.66875373  0.66514269  0.50049005
   0.58554708  0.58272084  0.39792125
  -0.00010559  0.50316753  0.60101361
   0.08508952  0.83006380  0.39809741
   0.74665075  0.25158590  0.60532217
   0.66449497  0.41826489  0.50011552
   0.58394554  0.83252930  0.40285384
   0.83407843  0.58290798  0.40447468
   0.41695385  0.66453499  0.49982500
   0.49777607  0.50039975  0.59569316
   0.49745897  0.74891461  0.59726285
   0.83346274  0.33401579  0.40350890
   0.25197249  0.74740286  0.59714340
   0.41449274  0.42052967  0.49955657
   0.66869552  0.91599179  0.50012949
   0.25145663  0.50091511  0.59531397
   0.16682196  0.66639315  0.50058463
   0.33253516  0.58358005  0.40419721
   0.16488851  0.41980055  0.50029862
   0.25117244 -0.00219547  0.59780291
   0.16556484  0.16903794  0.50029039
   0.33380690  0.08338248  0.40274642
   0.00214625  0.74857036  0.59577895
   0.91717794  0.91468506  0.50010958
   0.91832285  0.66795925  0.50030995
   0.08363482  0.58283007  0.40460117
   0.91766235  0.41814856  0.50100738
   0.49799585  0.25249994  0.59735847
   0.74981558  0.75009693  0.59724306
Direct configuration=    12
   0.08483145  0.08386929  0.39582540
   0.58262888  0.33488574  0.39711220
   0.50061621 -0.00287261  0.60427565
   0.41448413  0.16989444  0.50009214
   0.58235109  0.08117585  0.39532938
   0.16669717  0.91478274  0.50094706
   0.33591082  0.83245339  0.39541444
   0.41696501  0.91660409  0.50030047
   0.83368303  0.08310592  0.39587463
   0.25090982  0.25047585  0.60292478
   0.66613943  0.16795222  0.50068625
   0.75049089 -0.00307642  0.60239252
   0.33153658  0.33546179  0.39731351
   0.74620104  0.50259462  0.60299996
   0.91607262  0.16878091  0.50022542
   0.00222670 -0.00398077  0.60417254
   0.08149531  0.33530011  0.40060583
   0.83359600  0.82996089  0.39912787
   0.00113202  0.24907216  0.60329516
   0.66867422  0.66516805  0.50063415
   0.58548369  0.58276441  0.39785163
  -0.00008492  0.50302513  0.60112428
   0.08513772  0.82997494  0.39797830
   0.74654163  0.25167481  0.60568323
   0.66474714  0.41809949  0.50013837
   0.58398718  0.83259484  0.40300989
   0.83412259  0.58292903  0.40475612
   0.41699042  0.66470465  0.49948371
   0.49796646  0.50023490  0.59543712
   0.49743821  0.74876967  0.59718465
   0.83345647  0.33388833  0.40381937
   0.25206364  0.74715837  0.59697745
   0.41443197  0.42043198  0.49914914
   0.66873555  0.91624793  0.50014409
   0.25123414  0.50090210  0.59515253
   0.16669779  0.66659594  0.50040592
   0.33269702  0.58365172  0.40408320
   0.16481691  0.41988058  0.50035896
   0.25099514 -0.00209412  0.59774327
   0.16525866  0.16913097  0.50040430
   0.33380814  0.08340836  0.40292713
   0.00236722  0.74834484  0.59571874
   0.91704583  0.91482676  0.49996581
   0.91830217  0.66793973  0.50037410
   0.08359180  0.58307347  0.40471573
   0.91781761  0.41801260  0.50141930
   0.49796509  0.25230187  0.59721859
   0.74974232  0.74991844  0.59722570
Direct configuration=    13
   0.08504052  0.08381024  0.39571373
   0.58251193  0.33495434  0.39689622
   0.50074975 -0.00294788  0.60448045
   0.41449076  0.17005320  0.50004288
   0.58233739  0.08108402  0.39512539
   0.16659871  0.91511048  0.50068734
   0.33607814  0.83229762  0.39510003
   0.41689724  0.91670144  0.50028614
   0.83376570  0.08288572  0.39567119
   0.25070624  0.25069739  0.60308109
   0.66622368  0.16789126  0.50058604
   0.75008481 -0.00289507  0.60244436
   0.33181054  0.33532450  0.39719330
   0.74625803  0.50246920  0.60323136
   0.91614948  0.16898873  0.50041946
   0.00224048 -0.00384484  0.60436075
   0.08160143  0.33494257  0.40081752
   0.83362534  0.83005843  0.39912568
   0.00103414  0.24917419  0.60361824
   0.66859502  0.66519330  0.50077768
   0.58542055  0.58280781  0.39778229
  -0.00006433  0.50288329  0.60123451
   0.08518572  0.82988644  0.39785966
   0.74643295  0.25176335  0.60604286
   0.66499831  0.41793474  0.50016112
   0.58402866  0.83266012  0.40316532
   0.83416657  0.58295001  0.40503645
   0.41702685  0.66487362  0.49914377
   0.49815609  0.50007072  0.59518210
   0.49741754  0.74862530  0.59710675
   0.83345023  0.33376138  0.40412860
   0.25215442  0.74691485  0.59681216
   0.41437144  0.42033468  0.49874333
   0.66877542  0.91650306  0.50015863
   0.25101253  0.50088915  0.59499174
   0.16657412  0.66679792  0.50022792
   0.33285823  0.58372310  0.40396964
   0.16474559  0.41996030  0.50041905
   0.25081854 -0.00199317  0.59768388
   0.16495368  0.16922364  0.50051775
   0.33380938  0.08343415  0.40310713
   0.00258731  0.74812021  0.59565877
   0.91691425  0.91496789  0.49982262
   0.91828158  0.66792028  0.50043799
   0.08354896  0.58331590  0.40482984
   0.91797225  0.41787717  0.50182958
   0.49793445  0.25210458  0.59707927
   0.74966935  0.74974066  0.59720840
Direct configuration=    14
   0.08501160  0.08378619  0.39574128
   0.58290872  0.33477717  0.39672504
   0.50030617 -0.00284983  0.60460468
   0.41449297  0.16986742  0.50003079
   0.58246709  0.08081830  0.39501232
   0.16652531  0.91542655  0.50046336
   0.33611422  0.83243151  0.39475899
   0.41680442  0.91708316  0.50031000
   0.83382636  0.08304601  0.39559714
   0.25088661  0.25043689  0.60317095
   0.66630071  0.16800668  0.50044280
   0.75031841 -0.00299789  0.60236749
   0.33161119  0.33549051  0.39712214
   0.74630551  0.50236134  0.60343131
   0.91623385  0.16900140  0.50067220
   0.00209127 -0.00381762  0.60440029
   0.08166380  0.33487491  0.40114760
   0.83358065  0.83010875  0.39918568
   0.00102622  0.24894745  0.60396621
   0.66850456  0.66528445  0.50094221
   0.58568625  0.58268411  0.39779784
  -0.00035091  0.50300690  0.60137614
   0.08516992  0.82994977  0.39775163
   0.74613231  0.25181341  0.60627788
   0.66501826  0.41785449  0.50015936
   0.58403089  0.83277941  0.40327057
   0.83424699  0.58287387  0.40528675
   0.41692512  0.66502804  0.49877634
   0.49832852  0.49979137  0.59484223
   0.49719113  0.74860869  0.59704791
   0.83341562  0.33355361  0.40446749
   0.25205985  0.74682297  0.59655287
   0.41445344  0.42033396  0.49839743
   0.66867555  0.91673738  0.50020373
   0.25114114  0.50082937  0.59483867
   0.16659264  0.66707834  0.49995382
   0.33286430  0.58374326  0.40372044
   0.16480866  0.41993247  0.50044309
   0.25077916 -0.00187421  0.59764752
   0.16488288  0.16908153  0.50071485
   0.33401241  0.08316532  0.40321754
   0.00251358  0.74824757  0.59557846
   0.91693531  0.91505730  0.49977281
   0.91807924  0.66807459  0.50056675
   0.08376323  0.58319211  0.40484951
   0.91803276  0.41778631  0.50222577
   0.49777507  0.25227474  0.59692433
   0.74985705  0.74948995  0.59724577
Direct configuration=    15
   0.08499665  0.08377375  0.39575553
   0.58311396  0.33468553  0.39663650
   0.50007672 -0.00279911  0.60466895
   0.41449411  0.16977131  0.50002453
   0.58253418  0.08068085  0.39495384
   0.16648735  0.91559005  0.50034750
   0.33613288  0.83250076  0.39458258
   0.41675641  0.91728062  0.50032234
   0.83385775  0.08312893  0.39555884
   0.25097991  0.25030215  0.60321743
   0.66634055  0.16806637  0.50036870
   0.75043924 -0.00305107  0.60232773
   0.33150807  0.33557638  0.39708533
   0.74633007  0.50230556  0.60353474
   0.91627750  0.16900796  0.50080294
   0.00201409 -0.00380355  0.60442075
   0.08169607  0.33483991  0.40131835
   0.83355753  0.83013477  0.39921671
   0.00102212  0.24883017  0.60414620
   0.66845776  0.66533159  0.50102731
   0.58582368  0.58262012  0.39780588
  -0.00049915  0.50307083  0.60144940
   0.08516175  0.82998253  0.39769576
   0.74597680  0.25183931  0.60639945
   0.66502857  0.41781298  0.50015845
   0.58403205  0.83284111  0.40332502
   0.83428858  0.58283449  0.40541622
   0.41687249  0.66510791  0.49858628
   0.49841770  0.49964688  0.59466642
   0.49707402  0.74860010  0.59701748
   0.83339772  0.33344614  0.40464278
   0.25201093  0.74677545  0.59641874
   0.41449585  0.42033359  0.49821850
   0.66862390  0.91685859  0.50022707
   0.25120766  0.50079844  0.59475949
   0.16660221  0.66722339  0.49981204
   0.33286743  0.58375368  0.40359154
   0.16484128  0.41991808  0.50045552
   0.25075880 -0.00181267  0.59762871
   0.16484625  0.16900803  0.50081681
   0.33411743  0.08302627  0.40327465
   0.00247545  0.74831345  0.59553692
   0.91694621  0.91510355  0.49974705
   0.91797458  0.66815442  0.50063336
   0.08387406  0.58312808  0.40485969
   0.91806406  0.41773931  0.50243071
   0.49769263  0.25236276  0.59684418
   0.74995413  0.74936027  0.59726509
Direct configuration=    16
   0.08487300  0.08388374  0.39589065
   0.58324914  0.33446187  0.39649705
   0.50016228 -0.00297146  0.60471681
   0.41449107  0.16985698  0.50003483
   0.58254018  0.08084856  0.39492078
   0.16661649  0.91554984  0.50022916
   0.33613599  0.83259378  0.39427553
   0.41680680  0.91715366  0.50038394
   0.83394996  0.08321424  0.39559746
   0.25085084  0.25033616  0.60324315
   0.66626151  0.16821224  0.50024002
   0.75046124 -0.00321333  0.60215099
   0.33156335  0.33542656  0.39704323
   0.74614674  0.50222078  0.60370155
   0.91617980  0.16890496  0.50111136
   0.00204259 -0.00395449  0.60432578
   0.08156380  0.33494841  0.40169533
   0.83374935  0.82994679  0.39933211
   0.00107848  0.24859813  0.60448555
   0.66827317  0.66542243  0.50115627
   0.58610373  0.58261897  0.39787222
  -0.00025250  0.50292829  0.60163444
   0.08507891  0.83011396  0.39755212
   0.74580038  0.25175538  0.60648083
   0.66484673  0.41802378  0.50016956
   0.58413609  0.83260353  0.40337974
   0.83444802  0.58266365  0.40566041
   0.41670219  0.66533333  0.49831779
   0.49834077  0.49972317  0.59431036
   0.49683855  0.74857494  0.59696394
   0.83366378  0.33334641  0.40495883
   0.25186065  0.74692487  0.59606864
   0.41452331  0.42043911  0.49802965
   0.66856693  0.91692032  0.50033458
   0.25126986  0.50079530  0.59454914
   0.16667801  0.66738229  0.49951528
   0.33297311  0.58369909  0.40319441
   0.16492878  0.41992072  0.50053807
   0.25060119 -0.00198951  0.59764738
   0.16494246  0.16906190  0.50103426
   0.33419709  0.08295037  0.40325191
   0.00243266  0.74837358  0.59543944
   0.91707320  0.91517638  0.49976453
   0.91800011  0.66823890  0.50072797
   0.08387458  0.58302490  0.40479567
   0.91792220  0.41786228  0.50271372
   0.49769910  0.25243231  0.59666606
   0.74975434  0.74966195  0.59739749
Direct configuration=    17
   0.08479295  0.08395494  0.39597814
   0.58333665  0.33431706  0.39640678
   0.50021767 -0.00308303  0.60474780
   0.41448909  0.16991244  0.50004150