unknown system                          
           1
    11.002582    0.000000    0.000000
     5.501291    9.528515    0.000000
     0.000000    0.000000   24.491785
   Au   Pd
  24  24
Direct configuration=     1
   0.75000000  0.75000000  0.59169983
   0.08333333  0.83333333  0.40830017
   0.58333333  0.58333333  0.40830017
   0.66666667  0.16666667  0.50000000
   0.00000000  0.25000000  0.59169983
   0.66666667  0.66666667  0.50000000
   0.75000000  0.50000000  0.59169983
   0.83333333  0.83333333  0.40830017
   0.91666667  0.16666667  0.50000000
   0.08333333  0.58333333  0.40830017
   0.33333333  0.33333333  0.40830017
   0.50000000  0.25000000  0.59169983
   0.66666667  0.41666667  0.50000000
   0.33333333  0.58333333  0.40830017
   0.16666667  0.66666667  0.50000000
   0.25000000  0.50000000  0.59169983
   0.58333333  0.83333333  0.40830017
   0.16666667  0.91666667  0.50000000
   0.66666667  0.91666667  0.50000000
   0.58333333  0.08333333  0.40830017
   0.41666667  0.16666667  0.50000000
   0.58333333  0.33333333  0.40830017
   0.41666667  0.66666667  0.50000000
   0.41666667  0.91666667  0.50000000
   0.16666667  0.16666667  0.50000000
   0.33333333  0.08333333  0.40830017
   0.00000000  0.75000000  0.59169983
   0.91666667  0.91666667  0.50000000
   0.00000000  0.00000000  0.59169983
   0.91666667  0.66666667  0.50000000
   0.91666667  0.41666667  0.50000000
   0.08333333  0.33333333  0.40830017
   0.25000000  0.00000000  0.59169983
   0.00000000  0.50000000  0.59169983
   0.16666667  0.41666667  0.50000000
   0.83333333  0.08333333  0.40830017
   0.33333333  0.83333333  0.40830017
   0.50000000  0.00000000  0.59169983
   0.08333333  0.08333333  0.40830017
   0.83333333  0.58333333  0.40830017
   0.75000000  0.00000000  0.59169983
   0.50000000  0.75000000  0.59169983
   0.50000000  0.50000000  0.59169983
   0.83333333  0.33333333  0.40830017
   0.75000000  0.25000000  0.59169983
   0.41666667  0.41666667  0.50000000
   0.25000000  0.25000000  0.59169983
   0.25000000  0.75000000  0.59169983
Direct configuration=     2
   0.75063231  0.75051783  0.59388419
   0.08333333  0.83333333  0.40830017
   0.58333333  0.58333333  0.40830017
   0.66846953  0.16581978  0.50050022
   0.00106628  0.24951333  0.59353253
   0.66860371  0.66561655  0.50005327
   0.74978220  0.49977237  0.59391079
   0.83333333  0.83333333  0.40830017
   0.91738299  0.16622070  0.49963424
   0.08333333  0.58333333  0.40830017
   0.33333333  0.33333333  0.40830017
   0.50038818  0.24984838  0.59384406
   0.66727714  0.41581841  0.50036865
   0.33333333  0.58333333  0.40830017
   0.16537122  0.66657081  0.50091330
   0.24943006  0.50025034  0.59348034
   0.58333333  0.83333333  0.40830017
   0.16601779  0.91803449  0.50037913
   0.66824352  0.91644347  0.50082267
   0.58333333  0.08333333  0.40830017
   0.41383863  0.16770156  0.50042025
   0.58333333  0.33333333  0.40830017
   0.41613725  0.66666235  0.50083703
   0.41472686  0.91817135  0.50042357
   0.16633313  0.16774514  0.49974044
   0.33333333  0.08333333  0.40830017
  -0.00042148  0.75062984  0.59259247
   0.91646897  0.91646033  0.50051207
  -0.00016061 -0.00071551  0.59288426
   0.91756962  0.66561176  0.50022601
   0.91830675  0.41676986  0.49949231
   0.08333333  0.33333333  0.40830017
   0.25034106 -0.00008863  0.59282868
   0.00059130  0.49982065  0.59244716
   0.16547275  0.41616549  0.50021947
   0.83333333  0.08333333  0.40830017
   0.33333333  0.83333333  0.40830017
   0.49944049  0.00004228  0.59311580
   0.08333333  0.08333333  0.40830017
   0.83333333  0.58333333  0.40830017
   0.75080197 -0.00022219  0.59286351
   0.49916606  0.75040417  0.59311146
   0.49993436  0.50029294  0.59294570
   0.83333333  0.33333333  0.40830017
   0.74995790  0.24948474  0.59311556
   0.41620530  0.41697555  0.50038532
   0.24959476  0.24964852  0.59263834
   0.24991920  0.75055377  0.59303364
Direct configuration=     3
   0.75252923  0.75207132  0.60043728
   0.08333333  0.83333333  0.40830017
   0.58333333  0.58333333  0.40830017
   0.67387814  0.16327911  0.50200089
   0.00426514  0.24805333  0.59903062
   0.67441483  0.66246618  0.50021307
   0.74912881  0.49908947  0.60054366
   0.83333333  0.83333333  0.40830017
   0.91953196  0.16488280  0.49853697
   0.08333333  0.58333333  0.40830017
   0.33333333  0.33333333  0.40830017
   0.50155272  0.24939354  0.60027675
   0.66910855  0.41327366  0.50147461
   0.33333333  0.58333333  0.40830017
   0.16148486  0.66628326  0.50365319
   0.24772023  0.50100135  0.59882187
   0.58333333  0.83333333  0.40830017
   0.16407118  0.92213796  0.50151653
   0.67297410  0.91577386  0.50329069
   0.58333333  0.08333333  0.40830017
   0.40535451  0.17080626  0.50168102
   0.58333333  0.33333333  0.40830017
   0.41454899  0.66664942  0.50334814
   0.40890746  0.92268539  0.50169427
   0.16533251  0.17098056  0.49896177
   0.33333333  0.08333333  0.40830017
  -0.00168590  0.75251936  0.59527041
   0.91587587  0.91584132  0.50204830
  -0.00064244 -0.00286204  0.59643756
   0.92027847  0.66244703  0.50090405
   0.92322700  0.41707945  0.49796922
   0.08333333  0.33333333  0.40830017
   0.25136424 -0.00035453  0.59621524
   0.00236519  0.49928260  0.59468913
   0.16189101  0.41466197  0.50087787
   0.83333333  0.08333333  0.40830017
   0.33333333  0.83333333  0.40830017
   0.49776194  0.00016914  0.59736372
   0.08333333  0.08333333  0.40830017
   0.83333333  0.58333333  0.40830017
   0.75320787 -0.00088877  0.59635456
   0.49666426  0.75161670  0.59734634
   0.49973746  0.50117174  0.59668329
   0.83333333  0.33333333  0.40830017
   0.74983158  0.24793894  0.59736276
   0.41482121  0.41790222  0.50154126
   0.24837905  0.24859408  0.59545389
   0.24967682  0.75221510  0.59703508
Direct configuration=     4
   0.75299490  0.75245268  0.60204598
   0.08333333  0.83333333  0.40830017
   0.58333333  0.58333333  0.40830017
   0.67520588  0.16265541  0.50236929
   0.00505041  0.24769492  0.60038032
   0.67584138  0.66169281  0.50025230
   0.74896842  0.49892183  0.60217194
   0.83333333  0.83333333  0.40830017
   0.92005951  0.16455436  0.49826760
   0.08333333  0.58333333  0.40830017
   0.33333333  0.33333333  0.40830017
   0.50183860  0.24928188  0.60185589
   0.66955814  0.41264896  0.50174611
   0.33333333  0.58333333  0.40830017
   0.16053082  0.66621267  0.50432580
   0.24730049  0.50118572  0.60013315
   0.58333333  0.83333333  0.40830017
   0.16359331  0.92314530  0.50179575
   0.67413539  0.91560949  0.50389655
   0.58333333  0.08333333  0.40830017
   0.40327177  0.17156842  0.50199052
   0.58333333  0.33333333  0.40830017
   0.41415910  0.66664624  0.50396458
   0.40747887  0.92379353  0.50200621
   0.16508687  0.17177481  0.49877061
   0.33333333  0.08333333  0.40830017
  -0.00199630  0.75298321  0.59592780
   0.91573027  0.91568936  0.50242542
  -0.00076072 -0.00338899  0.59730985
   0.92094345  0.66167013  0.50107050
   0.92443486  0.41715544  0.49759532
   0.08333333  0.33333333  0.40830017
   0.25161542 -0.00041980  0.59704659
   0.00280065  0.49915052  0.59523950
   0.16101175  0.41429287  0.50103950
   0.83333333  0.08333333  0.40830017
   0.33333333  0.83333333  0.40830017
   0.49734988  0.00020028  0.59840652
   0.08333333  0.08333333  0.40830017
   0.83333333  0.58333333  0.40830017
   0.75379849 -0.00105240  0.59721156
   0.49605010  0.75191436  0.59838594
   0.49968912  0.50138748  0.59760082
   0.83333333  0.33333333  0.40830017
   0.74980057  0.24755947  0.59840539
   0.41448144  0.41812970  0.50182503
   0.24808061  0.24833523  0.59614506
   0.24961732  0.75262293  0.59801738
Direct configuration=     5
   0.75259812  0.75197768  0.60459462
   0.08333333  0.83333333  0.40830017
   0.58333333  0.58333333  0.40830017
   0.67303072  0.16340156  0.50389752
   0.00438201  0.24725676  0.60218359
   0.67549202  0.66202127  0.50227428
   0.74932480  0.49898258  0.60441631
   0.83333333  0.83333333  0.40830017
   0.92069239  0.16588193  0.49973509
   0.08333333  0.58333333  0.40830017
   0.33333333  0.33333333  0.40830017
   0.50165953  0.24896128  0.60402657
   0.67055101  0.41306899  0.50350450
   0.33333333  0.58333333  0.40830017
   0.16128200  0.66591299  0.50575088
   0.24768734  0.50080144  0.60234123
   0.58333333  0.83333333  0.40830017
   0.16312098  0.92232479  0.50307489
   0.67229165  0.91546187  0.50562838
   0.58333333  0.08333333  0.40830017
   0.40609150  0.17164442  0.50354125
   0.58333333  0.33333333  0.40830017
   0.41421020  0.66721263  0.50531211
   0.40983566  0.92212029  0.50317926
   0.16194489  0.17279342  0.49952608
   0.33333333  0.08333333  0.40830017
  -0.00189867  0.75303911  0.59763010
   0.91756830  0.91472154  0.50324688
  -0.00063035 -0.00306696  0.59877305
   0.92027083  0.66204027  0.50222476
   0.92372000  0.41603927  0.49864771
   0.08333333  0.33333333  0.40830017
   0.25124263 -0.00036993  0.59868189
   0.00218469  0.49925336  0.59637246
   0.16148779  0.41536494  0.50212470
   0.83333333  0.08333333  0.40830017
   0.33333333  0.83333333  0.40830017
   0.49761184  0.00017830  0.59995473
   0.08333333  0.08333333  0.40830017
   0.83333333  0.58333333  0.40830017
   0.75343110 -0.00043002  0.59918737
   0.49686629  0.75191414  0.59984431
   0.49957453  0.50122302  0.59921405
   0.83333333  0.33333333  0.40830017
   0.75077295  0.24735349  0.60007326
   0.41424417  0.41702879  0.50349394
   0.24852186  0.24828635  0.59770683
   0.24909266  0.75319878  0.59977185
Direct configuration=     6
   0.75140780  0.75055269  0.61224056
   0.08333333  0.83333333  0.40830017
   0.58333333  0.58333333  0.40830017
   0.66650527  0.16564001  0.50848221
   0.00237681  0.24594230  0.60759340
   0.67444396  0.66300665  0.50834021
   0.75039395  0.49916483  0.61114941
   0.83333333  0.83333333  0.40830017
   0.92259102  0.16986465  0.50413758
   0.08333333  0.58333333  0.40830017
   0.33333333  0.33333333  0.40830017
   0.50112232  0.24799949  0.61053864
   0.67352962  0.41432909  0.50877967
   0.33333333  0.58333333  0.40830017
   0.16353556  0.66501395  0.51002611
   0.24884789  0.49964860  0.60896547
   0.58333333  0.83333333  0.40830017
   0.16170398  0.91986323  0.50691234
   0.66676044  0.91501901  0.51082387
   0.58333333  0.08333333  0.40830017
   0.41455068  0.17187241  0.50819344
   0.58333333  0.33333333  0.40830017
   0.41436350  0.66891177  0.50935468
   0.41690602  0.91710057  0.50669842
   0.15251895  0.17584925  0.50179249
   0.33333333  0.08333333  0.40830017
  -0.00160579  0.75320679  0.60273700
   0.92308239  0.91181807  0.50571128
  -0.00023922 -0.00210089  0.60316268
   0.91825298  0.66315067  0.50568753
   0.92157543  0.41269073  0.50180487
   0.08333333  0.33333333  0.40830017
   0.25012427 -0.00022031  0.60358780
   0.00033682  0.49956190  0.59977132
   0.16291591  0.41858114  0.50538029
   0.83333333  0.08333333  0.40830017
   0.33333333  0.83333333  0.40830017
   0.49839770  0.00011236  0.60459934
   0.08333333  0.08333333  0.40830017
   0.83333333  0.58333333  0.40830017
   0.75232892  0.00143714  0.60511479
   0.49931488  0.75191347  0.60421940
   0.49923077  0.50072964  0.60405372
   0.83333333  0.33333333  0.40830017
   0.75369010  0.24673555  0.60507688
   0.41353238  0.41372606  0.50850067
   0.24984563  0.24813970  0.60239211
   0.24751867  0.75492632  0.60503528
Direct configuration=     7
   0.75127327  0.75024790  0.61591772
   0.08333333  0.83333333  0.40830017
   0.58333333  0.58333333  0.40830017
   0.66791923  0.16552203  0.51077065
   0.00178800  0.24651128  0.61018516
   0.67342213  0.66270489  0.51148506
   0.75090901  0.49904574  0.61436898
   0.83333333  0.83333333  0.40830017
   0.91630762  0.16870251  0.50681738
   0.08333333  0.58333333  0.40830017
   0.33333333  0.33333333  0.40830017
   0.50126254  0.24814387  0.61382486
   0.67125258  0.41585684  0.51141256
   0.33333333  0.58333333  0.40830017
   0.16696503  0.66302351  0.51206674
   0.24902760  0.49958971  0.61215692
   0.58333333  0.83333333  0.40830017
   0.16507329  0.91797432  0.50876200
   0.66789227  0.91438491  0.51333391
   0.58333333  0.08333333  0.40830017
   0.41449945  0.16957803  0.51031777
   0.58333333  0.33333333  0.40830017
   0.41560879  0.66714692  0.51099722
   0.41577339  0.91856283  0.50839297
   0.16033615  0.17282253  0.50396604
   0.33333333  0.08333333  0.40830017
  -0.00197742  0.75264308  0.60561125
   0.91931063  0.91417663  0.50723969
  -0.00039338 -0.00125213  0.60538723
   0.91620606  0.66528780  0.50766526
   0.91839349  0.41663305  0.50427838
   0.08333333  0.33333333  0.40830017
   0.25021084 -0.00012446  0.60560358
  -0.00048250  0.49920201  0.60158890
   0.16449887  0.41810949  0.50733345
   0.83333333  0.08333333  0.40830017
   0.33333333  0.83333333  0.40830017
   0.49852723  0.00020515  0.60729688
   0.08333333  0.08333333  0.40830017
   0.83333333  0.58333333  0.40830017
   0.75187843  0.00124704  0.60789116
   0.50061106  0.75134956  0.60663901
   0.49939434  0.50026433  0.60646545
   0.83333333  0.33333333  0.40830017
   0.75367934  0.24730069  0.60749135
   0.41430197  0.41560814  0.51129144
   0.24966811  0.24827967  0.60445699
   0.24779108  0.75434587  0.60784499
Direct configuration=     8
   0.75124962  0.75019433  0.61656401
   0.08333333  0.83333333  0.40830017
   0.58333333  0.58333333  0.40830017
   0.66816775  0.16550130  0.51117287
   0.00168451  0.24661129  0.61064068
   0.67324254  0.66265185  0.51203780
   0.75099953  0.49902481  0.61493485
   0.83333333  0.83333333  0.40830017
   0.91520326  0.16849826  0.50728838
   0.08333333  0.58333333  0.40830017
   0.33333333  0.33333333  0.40830017
   0.50128718  0.24816925  0.61440244
   0.67085237  0.41612535  0.51187531
   0.33333333  0.58333333  0.40830017
   0.16756779  0.66267367  0.51242540
   0.24905919  0.49957936  0.61271785
   0.58333333  0.83333333  0.40830017
   0.16566548  0.91764233  0.50908710
   0.66809120  0.91427347  0.51377507
   0.58333333  0.08333333  0.40830017
   0.41449045  0.16917478  0.51069114
   0.58333333  0.33333333  0.40830017
   0.41582766  0.66683673  0.51128591
   0.41557432  0.91881983  0.50869080
   0.16171009  0.17229056  0.50434806
   0.33333333  0.08333333  0.40830017
  -0.00204274  0.75254401  0.60611642
   0.91864771  0.91459117  0.50750832
  -0.00042047 -0.00110295  0.60577821
   0.91584630  0.66566342  0.50801287
   0.91783424  0.41732594  0.50471312
   0.08333333  0.33333333  0.40830017
   0.25022606 -0.00010762  0.60595787
  -0.00062650  0.49913876  0.60190835
   0.16477709  0.41802659  0.50767673
   0.83333333  0.08333333  0.40830017
   0.33333333  0.83333333  0.40830017
   0.49855000  0.00022146  0.60777099
   0.08333333  0.08333333  0.40830017
   0.83333333  0.58333333  0.40830017
   0.75179925  0.00121363  0.60837913
   0.50083888  0.75125044  0.60706427
   0.49942309  0.50018254  0.60688934
   0.83333333  0.33333333  0.40830017
   0.75367745  0.24740002  0.60791571
   0.41443723  0.41593893  0.51178194
   0.24963690  0.24830427  0.60481991
   0.24783896  0.75424385  0.60833882
Direct configuration=     9
   0.75181841  0.75085596  0.61672050
   0.08333333  0.83333333  0.40830017
   0.58333333  0.58333333  0.40830017
   0.66826063  0.16520653  0.51100379
   0.00268970  0.24718647  0.61039483
   0.67208455  0.66358468  0.51182227
   0.75067620  0.49878367  0.61518136
   0.83333333  0.83333333  0.40830017
   0.91757511  0.16666336  0.50699148
   0.08333333  0.58333333  0.40830017
   0.33333333  0.33333333  0.40830017
   0.50159496  0.24850690  0.61452043
   0.66851176  0.41643394  0.51151983
   0.33333333  0.58333333  0.40830017
   0.16561798  0.66393233  0.51246931
   0.24820777  0.50007861  0.61279045
   0.58333333  0.83333333  0.40830017
   0.16519312  0.91908782  0.50882722
   0.67012793  0.91431694  0.51368305
   0.58333333  0.08333333  0.40830017
   0.41280814  0.16934418  0.51033872
   0.58333333  0.33333333  0.40830017
   0.41679635  0.66612738  0.51103360
   0.41390941  0.91967356  0.50852542
   0.16300107  0.17142649  0.50481873
   0.33333333  0.08333333  0.40830017
  -0.00216908  0.75219533  0.60613738
   0.91736479  0.91467175  0.50780336
  -0.00035924 -0.00164849  0.60586107
   0.91704910  0.66599743  0.50807108
   0.91960941  0.41666865  0.50498045
   0.08333333  0.33333333  0.40830017
   0.25078662 -0.00024261  0.60586049
   0.00002393  0.49896118  0.60216649
   0.16446755  0.41693993  0.50774495
   0.83333333  0.08333333  0.40830017
   0.33333333  0.83333333  0.40830017
   0.49837689  0.00025033  0.60825531
   0.08333333  0.08333333  0.40830017
   0.83333333  0.58333333  0.40830017
   0.75217607  0.00029760  0.60848528
   0.49999396  0.75110580  0.60739638
   0.49975949  0.50029121  0.60735600
   0.83333333  0.33333333  0.40830017
   0.75212240  0.24797626  0.60834286
   0.41606790  0.41575226  0.51185683
   0.24894366  0.24870095  0.60492136
   0.24862007  0.75330634  0.60851587
Direct configuration=    10
   0.75186249  0.75090724  0.61673262
   0.08333333  0.83333333  0.40830017
   0.58333333  0.58333333  0.40830017
   0.66826783  0.16518369  0.51099068
   0.00276760  0.24723105  0.61037577
   0.67199480  0.66365698  0.51180557
   0.75065114  0.49876498  0.61520046
   0.83333333  0.83333333  0.40830017
   0.91775894  0.16652115  0.50696847
   0.08333333  0.58333333  0.40830017
   0.33333333  0.33333333  0.40830017
   0.50161881  0.24853306  0.61452957
   0.66833036  0.41645785  0.51149228
   0.33333333  0.58333333  0.40830017
   0.16546686  0.66402988  0.51247271
   0.24814178  0.50011731  0.61279608
   0.58333333  0.83333333  0.40830017
   0.16515651  0.91919985  0.50880708
   0.67028579  0.91432031  0.51367592
   0.58333333  0.08333333  0.40830017
   0.41267776  0.16935731  0.51031140
   0.58333333  0.33333333  0.40830017
   0.41687142  0.66607240  0.51101405
   0.41378037  0.91973972  0.50851260
   0.16310112  0.17135952  0.50485521
   0.33333333  0.08333333  0.40830017
  -0.00217887  0.75216831  0.60613900
   0.91726536  0.91467799  0.50782623
  -0.00035450 -0.00169077  0.60586749
   0.91714232  0.66602332  0.50807559
   0.91974699  0.41661771  0.50500117
   0.08333333  0.33333333  0.40830017
   0.25083006 -0.00025307  0.60585294
   0.00007435  0.49894741  0.60218649
   0.16444356  0.41685571  0.50775024
   0.83333333  0.08333333  0.40830017
   0.33333333  0.83333333  0.40830017
   0.49836348  0.00025256  0.60829284
   0.08333333  0.08333333  0.40830017
   0.83333333  0.58333333  0.40830017
   0.75220527  0.00022660  0.60849350
   0.49992847  0.75109459  0.60742212
   0.49978557  0.50029963  0.60739216
   0.83333333  0.33333333  0.40830017
   0.75200188  0.24802092  0.60837597
   0.41619428  0.41573779  0.51186263
   0.24888993  0.24873169  0.60492923
   0.24868061  0.75323368  0.60852959
Direct configuration=    11
   0.75183709  0.75089809  0.61674550
   0.08333333  0.83333333  0.40830017
   0.58333333  0.58333333  0.40830017
   0.66839940  0.16515403  0.51088341
   0.00271964  0.24745783  0.61006365
   0.67209026  0.66405723  0.51165078
   0.75053202  0.49886551  0.61521575
   0.83333333  0.83333333  0.40830017
   0.91782501  0.16682599  0.50681105
   0.08333333  0.58333333  0.40830017
   0.33333333  0.33333333  0.40830017
   0.50144850  0.24868524  0.61449406
   0.66900688  0.41551628  0.51121529
   0.33333333  0.58333333  0.40830017
   0.16530041  0.66449099  0.51244842
   0.24797540  0.50025544  0.61272681
   0.58333333  0.83333333  0.40830017
   0.16515859  0.91886232  0.50864070
   0.67013348  0.91447177  0.51364241
   0.58333333  0.08333333  0.40830017
   0.41252142  0.16926520  0.51012315
   0.58333333  0.33333333  0.40830017
   0.41612479  0.66650928  0.51085510
   0.41399146  0.91974442  0.50843158
   0.16344474  0.17111798  0.50516536
   0.33333333  0.08333333  0.40830017
  -0.00201611  0.75193403  0.60623019
   0.91708162  0.91498536  0.50801207
  -0.00029770 -0.00180680  0.60587538
   0.91744500  0.66564659  0.50807139
   0.91977630  0.41640876  0.50522912
   0.08333333  0.33333333  0.40830017
   0.25113659 -0.00050915  0.60580672
   0.00005479  0.49923362  0.60242370
   0.16463955  0.41662260  0.50774582
   0.83333333  0.08333333  0.40830017
   0.33333333  0.83333333  0.40830017
   0.49837736  0.00027288  0.60847596
   0.08333333  0.08333333  0.40830017
   0.83333333  0.58333333  0.40830017
   0.75230235  0.00000152  0.60861455
   0.49968430  0.75097303  0.60761757
   0.49966858  0.50054878  0.60776930
   0.83333333  0.33333333  0.40830017
   0.75163072  0.24811694  0.60853069
   0.41609653  0.41576562  0.51193979
   0.24912290  0.24893499  0.60506155
   0.24911939  0.75263282  0.60848446
Direct configuration=    12
   0.75182285  0.75089297  0.61675272
   0.08333333  0.83333333  0.40830017
   0.58333333  0.58333333  0.40830017
   0.66847313  0.16513742  0.51082330
   0.00269276  0.24758491  0.60988874
   0.67214376  0.66428151  0.51156404
   0.75046527  0.49892185  0.61522432
   0.83333333  0.83333333  0.40830017
   0.91786203  0.16699681  0.50672284
   0.08333333  0.58333333  0.40830017
   0.33333333  0.33333333  0.40830017
   0.50135307  0.24877052  0.61447417
   0.66938599  0.41498865  0.51106007
   0.33333333  0.58333333  0.40830017
   0.16520713  0.66474937  0.51243480
   0.24788216  0.50033284  0.61268800
   0.58333333  0.83333333  0.40830017
   0.16515976  0.91867317  0.50854746
   0.67004813  0.91455665  0.51362363
   0.58333333  0.08333333  0.40830017
   0.41243381  0.16921359  0.51001766
   0.58333333  0.33333333  0.40830017
   0.41570641  0.66675409  0.51076603
   0.41410974  0.91974705  0.50838618
   0.16363728  0.17098264  0.50533916
   0.33333333  0.08333333  0.40830017
  -0.00192490  0.75180275  0.60628128
   0.91697866  0.91515760  0.50811622
  -0.00026587 -0.00187182  0.60587980
   0.91761461  0.66543548  0.50806904
   0.91979273  0.41629168  0.50535686
   0.08333333  0.33333333  0.40830017
   0.25130835 -0.00065264  0.60578081
   0.00004383  0.49939400  0.60255663
   0.16474937  0.41649198  0.50774334
   0.83333333  0.08333333  0.40830017
   0.33333333  0.83333333  0.40830017
   0.49838514  0.00028426  0.60857858
   0.08333333  0.08333333  0.40830017
   0.83333333  0.58333333  0.40830017
   0.75235675 -0.00012461  0.60868239
   0.49954748  0.75090492  0.60772709
   0.49960303  0.50068839  0.60798064
   0.83333333  0.33333333  0.40830017
   0.75142273  0.24817074  0.60861739
   0.41604175  0.41578122  0.51198302
   0.24925345  0.24904891  0.60513570
   0.24936527  0.75229612  0.60845917
Direct configuration=    13
   0.75159839  0.75081843  0.61673054
   0.08333333  0.83333333  0.40830017
   0.58333333  0.58333333  0.40830017
   0.66842417  0.16501212  0.51081489
   0.00254617  0.24762940  0.60954450
   0.67211384  0.66396357  0.51146988
   0.75028848  0.49907130  0.61513779
   0.83333333  0.83333333  0.40830017
   0.91820789  0.16681676  0.50662459
   0.08333333  0.58333333  0.40830017
   0.33333333  0.33333333  0.40830017
   0.50125982  0.24881534  0.61438805
   0.66931478  0.41538549  0.51094892
   0.33333333  0.58333333  0.40830017
   0.16503525  0.66471048  0.51238081
   0.24792598  0.50034853  0.61261074
   0.58333333  0.83333333  0.40830017
   0.16497215  0.91882284  0.50844966
   0.66985727  0.91478076  0.51366772
   0.58333333  0.08333333  0.40830017
   0.41274002  0.16914970  0.50992964
   0.58333333  0.33333333  0.40830017
   0.41608376  0.66645442  0.51072912
   0.41444263  0.91940268  0.50840314
   0.16375272  0.17070580  0.50562369
   0.33333333  0.08333333  0.40830017
  -0.00180155  0.75171639  0.60639414
   0.91685139  0.91541898  0.50830040
  -0.00008990 -0.00189352  0.60584209
   0.91776968  0.66517099  0.50809656
   0.91967827  0.41647427  0.50558491
   0.08333333  0.33333333  0.40830017
   0.25138120 -0.00082901  0.60571207
  -0.00004800  0.49961942  0.60279773
   0.16486167  0.41658084  0.50776471
   0.83333333  0.08333333  0.40830017
   0.33333333  0.83333333  0.40830017
   0.49844465  0.00025844  0.60869061
   0.08333333  0.08333333  0.40830017
   0.83333333  0.58333333  0.40830017
   0.75228348 -0.00006708  0.60878871
   0.49958106  0.75076148  0.60780197
   0.49960354  0.50082507  0.60817731
   0.83333333  0.33333333  0.40830017
   0.75133753  0.24818469  0.60869063
   0.41589663  0.41590019  0.51212031
   0.24953708  0.24910484  0.60526320
   0.24955474  0.75203825  0.60840992
Direct configuration=    14
   0.75153132  0.75079616  0.61672391
   0.08333333  0.83333333  0.40830017
   0.58333333  0.58333333  0.40830017
   0.66840954  0.16497468  0.51081238
   0.00250237  0.24764269  0.60944163
   0.67210490  0.66386857  0.51144174
   0.75023565  0.49911596  0.61511193
   0.83333333  0.83333333  0.40830017
   0.91831123  0.16676296  0.50659523
   0.08333333  0.58333333  0.40830017
   0.33333333  0.33333333  0.40830017
   0.50123196  0.24882873  0.61436232
   0.66929351  0.41550407  0.51091571
   0.33333333  0.58333333  0.40830017
   0.16498389  0.66469885  0.51236468
   0.24793907  0.50035322  0.61258766
   0.58333333  0.83333333  0.40830017
   0.16491608  0.91886757  0.50842043
   0.66980024  0.91484772  0.51368089
   0.58333333  0.08333333  0.40830017
   0.41283152  0.16913061  0.50990334
   0.58333333  0.33333333  0.40830017
   0.41619652  0.66636488  0.51071809
   0.41454209  0.91929978  0.50840820
   0.16378721  0.17062308  0.50570871
   0.33333333  0.08333333  0.40830017
  -0.00176469  0.75169059  0.60642786
   0.91681336  0.91549708  0.50835543
  -0.00003732 -0.00190000  0.60583082
   0.91781602  0.66509196  0.50810479
   0.91964407  0.41652883  0.50565305
   0.08333333  0.33333333  0.40830017
   0.25140297 -0.00088171  0.60569153
  -0.00007544  0.49968678  0.60286977
   0.16489523  0.41660739  0.50777110
   0.83333333  0.08333333  0.40830017
   0.33333333  0.83333333  0.40830017
   0.49846243  0.00025072  0.60872409
   0.08333333  0.08333333  0.40830017
   0.83333333  0.58333333  0.40830017
   0.75226159 -0.00004989  0.60882048
   0.49959110  0.75071862  0.60782434
   0.49960369  0.50086591  0.60823608
   0.83333333  0.33333333  0.40830017
   0.75131207  0.24818886  0.60871252
   0.41585327  0.41593573  0.51216134
   0.24962183  0.24912155  0.60530130
   0.24961135  0.75196119  0.60839520
Direct configuration=    15
   0.75135468  0.75085404  0.61668148
   0.08333333  0.83333333  0.40830017
   0.58333333  0.58333333  0.40830017
   0.66846363  0.16527267  0.51086849
   0.00244993  0.24766851  0.60914525
   0.67216368  0.66378158  0.51138368
   0.75018354  0.49907702  0.61501679
   0.83333333  0.83333333  0.40830017
   0.91807146  0.16686577  0.50652322
   0.08333333  0.58333333  0.40830017
   0.33333333  0.33333333  0.40830017
   0.50130475  0.24882401  0.61427970
   0.66920552  0.41551980  0.51094190
   0.33333333  0.58333333  0.40830017
   0.16490315  0.66473190  0.51231006
   0.24802002  0.50034960  0.61254652
   0.58333333  0.83333333  0.40830017
   0.16518324  0.91865058  0.50837938
   0.66994953  0.91456844  0.51377072
   0.58333333  0.08333333  0.40830017
   0.41287624  0.16912765  0.50990237
   0.58333333  0.33333333  0.40830017
   0.41640559  0.66611477  0.51077444
   0.41468828  0.91901861  0.50847132
   0.16405641  0.17055003  0.50591074
   0.33333333  0.08333333  0.40830017
  -0.00179447  0.75177014  0.60652580
   0.91673978  0.91543318  0.50848971
   0.00011823 -0.00193074  0.60580399
   0.91756223  0.66522058  0.50817300
   0.91979482  0.41658689  0.50580223
   0.08333333  0.33333333  0.40830017
   0.25137476 -0.00093053  0.60563060
  -0.00005251  0.49972573  0.60307246
   0.16491911  0.41651969  0.50782831
   0.83333333  0.08333333  0.40830017
   0.33333333  0.83333333  0.40830017
   0.49847084  0.00019815  0.60878982
   0.08333333  0.08333333  0.40830017
   0.83333333  0.58333333  0.40830017
   0.75224269  0.00000116  0.60892096
   0.49964125  0.75071842  0.60783158
   0.49968742  0.50085415  0.60831950
   0.83333333  0.33333333  0.40830017
   0.75132467  0.24819133  0.60866849
   0.41588639  0.41603307  0.51230319
   0.24970065  0.24903579  0.60536644
   0.24959255  0.75198700  0.60830486
Direct configuration=    16
   0.75129934  0.75087218  0.61666818
   0.08333333  0.83333333  0.40830017
   0.58333333  0.58333333  0.40830017
   0.66848058  0.16536603  0.51088607
   0.00243350  0.24767660  0.60905240
   0.67218209  0.66375433  0.51136549
   0.75016721  0.49906482  0.61498699
   0.83333333  0.83333333  0.40830017
   0.91799634  0.16689798  0.50650067
   0.08333333  0.58333333  0.40830017
   0.33333333  0.33333333  0.40830017
   0.50132756  0.24882253  0.61425381
   0.66917796  0.41552473  0.51095011
   0.33333333  0.58333333  0.40830017
   0.16487785  0.66474226  0.51229294
   0.24804539  0.50034847  0.61253363
   0.58333333  0.83333333  0.40830017
   0.16526694  0.91858260  0.50836652
   0.66999630  0.91448094  0.51379887
   0.58333333  0.08333333  0.40830017
   0.41289025  0.16912672  0.50990207
   0.58333333  0.33333333  0.40830017
   0.41647109  0.66603641  0.51079209
   0.41473408  0.91893052  0.50849109
   0.16414075  0.17052714  0.50597404
   0.33333333  0.08333333  0.40830017
  -0.00180380  0.75179507  0.60655648
   0.91671673  0.91541316  0.50853177
   0.00016696 -0.00194038  0.60579559
   0.91748272  0.66526088  0.50819438
   0.91984205  0.41660508  0.50584897
   0.08333333  0.33333333  0.40830017
   0.25136592 -0.00094582  0.60561151
  -0.00004533  0.49973793  0.60313595
   0.16492659  0.41649222  0.50784624
   0.83333333  0.08333333  0.40830017
   0.33333333  0.83333333  0.40830017
   0.49847347  0.00018168  0.60881041
   0.08333333  0.08333333  0.40830017
   0.83333333  0.58333333  0.40830017
   0.75223677  0.00001715  0.60895244
   0.49965697  0.75071835  0.60783384
   0.49971365  0.50085047  0.60834564
   0.83333333  0.33333333  0.40830017
   0.75132862  0.24819211  0.60865470
   0.41589677  0.41606356  0.51234764
   0.24972535  0.24900892  0.60538684
   0.24958666  0.75199509  0.60827655
Direct configuration=    17
   0.75128225  0.75087778  0.61666408
   0.08333333  0.83333333  0.40830017
   0.58333333  0.58333333  0.40830017
   0.66848581  0.16539486  0.51089150