  56  56   0   0
  0.4903395E+02  0.1100258E-08  0.1100258E-08  0.2619179E-08  0.3500000E-15
  1.000000000000000E-004
  CAR 
 unknown system                          
      6.44639567    -21.31996744  301     -1.32990418      1.00000000
    -21.320  0.0000E+00  0.0000E+00
    -21.227  0.0000E+00  0.0000E+00
    -21.135  0.0000E+00  0.0000E+00
    -21.042  0.0000E+00  0.0000E+00
    -20.950  0.0000E+00  0.0000E+00
    -20.857  0.0000E+00  0.0000E+00
    -20.765  0.0000E+00  0.0000E+00
    -20.672  0.0000E+00  0.0000E+00
    -20.580  0.2477E-14  0.2292E-15
    -20.487  0.2093E-10  0.1938E-11
    -20.394  0.3325E-07  0.3080E-08
    -20.302  0.1013E-04  0.9410E-06
    -20.209  0.6158E-03  0.5794E-04
    -20.117  0.8100E-02  0.8076E-03
    -20.024  0.2770E-01  0.3371E-02
    -19.932  0.3384E-01  0.6503E-02
    -19.839  0.2501E-01  0.8818E-02
    -19.747  0.3675E-01  0.1222E-01
    -19.654  0.4613E-01  0.1649E-01
    -19.561  0.3013E-01  0.1928E-01
    -19.469  0.1245E-01  0.2043E-01
    -19.376  0.2869E-01  0.2309E-01
    -19.284  0.5234E-01  0.2793E-01
    -19.191  0.3566E-01  0.3123E-01
    -19.099  0.7858E-02  0.3196E-01
    -19.006  0.4538E-03  0.3200E-01
    -18.914  0.5869E-05  0.3200E-01
    -18.821  0.1548E-07  0.3200E-01
    -18.728  0.7905E-11  0.3200E-01
    -18.636  0.7581E-15  0.3200E-01
    -18.543  0.0000E+00  0.3200E-01
    -18.451  0.0000E+00  0.3200E-01
    -18.358  0.0000E+00  0.3200E-01
    -18.266  0.0000E+00  0.3200E-01
    -18.173  0.0000E+00  0.3200E-01
    -18.081  0.0000E+00  0.3200E-01
    -17.988  0.0000E+00  0.3200E-01
    -17.895  0.0000E+00  0.3200E-01
    -17.803  0.0000E+00  0.3200E-01
    -17.710  0.0000E+00  0.3200E-01
    -17.618  0.0000E+00  0.3200E-01
    -17.525  0.0000E+00  0.3200E-01
    -17.433  0.0000E+00  0.3200E-01
    -17.340  0.0000E+00  0.3200E-01
    -17.248  0.0000E+00  0.3200E-01
    -17.155  0.0000E+00  0.3200E-01
    -17.062  0.0000E+00  0.3200E-01
    -16.970  0.0000E+00  0.3200E-01
    -16.877  0.0000E+00  0.3200E-01
    -16.785  0.0000E+00  0.3200E-01
    -16.692  0.0000E+00  0.3200E-01
    -16.600  0.0000E+00  0.3200E-01
    -16.507  0.0000E+00  0.3200E-01
    -16.415  0.0000E+00  0.3200E-01
    -16.322  0.0000E+00  0.3200E-01
    -16.229  0.0000E+00  0.3200E-01
    -16.137  0.0000E+00  0.3200E-01
    -16.044  0.0000E+00  0.3200E-01
    -15.952  0.0000E+00  0.3200E-01
    -15.859  0.0000E+00  0.3200E-01
    -15.767  0.0000E+00  0.3200E-01
    -15.674  0.0000E+00  0.3200E-01
    -15.582  0.0000E+00  0.3200E-01
    -15.489  0.0000E+00  0.3200E-01
    -15.396  0.0000E+00  0.3200E-01
    -15.304  0.0000E+00  0.3200E-01
    -15.211  0.0000E+00  0.3200E-01
    -15.119  0.0000E+00  0.3200E-01
    -15.026  0.0000E+00  0.3200E-01
    -14.934  0.0000E+00  0.3200E-01
    -14.841  0.0000E+00  0.3200E-01
    -14.749  0.0000E+00  0.3200E-01
    -14.656  0.0000E+00  0.3200E-01
    -14.563  0.0000E+00  0.3200E-01
    -14.471  0.0000E+00  0.3200E-01
    -14.378  0.0000E+00  0.3200E-01
    -14.286  0.0000E+00  0.3200E-01
    -14.193  0.0000E+00  0.3200E-01
    -14.101  0.0000E+00  0.3200E-01
    -14.008  0.0000E+00  0.3200E-01
    -13.916  0.0000E+00  0.3200E-01
    -13.823  0.0000E+00  0.3200E-01
    -13.730  0.0000E+00  0.3200E-01
    -13.638  0.0000E+00  0.3200E-01
    -13.545  0.0000E+00  0.3200E-01
    -13.453  0.0000E+00  0.3200E-01
    -13.360  0.0000E+00  0.3200E-01
    -13.268  0.0000E+00  0.3200E-01
    -13.175  0.0000E+00  0.3200E-01
    -13.083  0.0000E+00  0.3200E-01
    -12.990  0.0000E+00  0.3200E-01
    -12.898  0.0000E+00  0.3200E-01
    -12.805  0.0000E+00  0.3200E-01
    -12.712  0.0000E+00  0.3200E-01
    -12.620  0.0000E+00  0.3200E-01
    -12.527  0.0000E+00  0.3200E-01
    -12.435  0.0000E+00  0.3200E-01
    -12.342  0.0000E+00  0.3200E-01
    -12.250  0.0000E+00  0.3200E-01
    -12.157  0.0000E+00  0.3200E-01
    -12.065  0.0000E+00  0.3200E-01
    -11.972  0.0000E+00  0.3200E-01
    -11.879  0.0000E+00  0.3200E-01
    -11.787  0.0000E+00  0.3200E-01
    -11.694  0.0000E+00  0.3200E-01
    -11.602  0.0000E+00  0.3200E-01
    -11.509  0.0000E+00  0.3200E-01
    -11.417  0.0000E+00  0.3200E-01
    -11.324  0.0000E+00  0.3200E-01
    -11.232  0.0000E+00  0.3200E-01
    -11.139  0.0000E+00  0.3200E-01
    -11.046  0.0000E+00  0.3200E-01
    -10.954  0.0000E+00  0.3200E-01
    -10.861  0.0000E+00  0.3200E-01
    -10.769  0.0000E+00  0.3200E-01
    -10.676  0.0000E+00  0.3200E-01
    -10.584  0.0000E+00  0.3200E-01
    -10.491  0.0000E+00  0.3200E-01
    -10.399  0.0000E+00  0.3200E-01
    -10.306  0.0000E+00  0.3200E-01
    -10.213  0.0000E+00  0.3200E-01
    -10.121  0.0000E+00  0.3200E-01
    -10.028  0.0000E+00  0.3200E-01
     -9.936  0.0000E+00  0.3200E-01
     -9.843  0.0000E+00  0.3200E-01
     -9.751  0.1104E-13  0.3200E-01
     -9.658  0.6316E-10  0.3200E-01
     -9.566  0.6839E-07  0.3200E-01
     -9.473  0.1433E-04  0.3200E-01
     -9.380  0.6031E-03  0.3206E-01
     -9.288  0.5442E-02  0.3256E-01
     -9.195  0.1262E-01  0.3373E-01
     -9.103  0.1358E-01  0.3499E-01
     -9.010  0.8986E-02  0.3582E-01
     -8.918  0.1880E-02  0.3599E-01
     -8.825  0.9362E-04  0.3600E-01
     -8.733  0.2374E-03  0.3602E-01
     -8.640  0.3202E-02  0.3632E-01
     -8.547  0.1062E-01  0.3730E-01
     -8.455  0.1417E-01  0.3861E-01
     -8.362  0.1756E-01  0.4024E-01
     -8.270  0.1859E-01  0.4196E-01
     -8.177  0.2459E-01  0.4424E-01
     -8.085  0.3491E-01  0.4747E-01
     -7.992  0.3852E-01  0.5103E-01
     -7.900  0.3913E-01  0.5465E-01
     -7.807  0.4655E-01  0.5896E-01
     -7.714  0.5861E-01  0.6439E-01
     -7.622  0.6565E-01  0.7046E-01
     -7.529  0.6994E-01  0.7694E-01
     -7.437  0.7014E-01  0.8343E-01
     -7.344  0.7772E-01  0.9062E-01
     -7.252  0.9852E-01  0.9974E-01
     -7.159  0.1068E+00  0.1096E+00
     -7.067  0.1174E+00  0.1205E+00
     -6.974  0.1310E+00  0.1326E+00
     -6.881  0.1372E+00  0.1453E+00
     -6.789  0.1466E+00  0.1589E+00
     -6.696  0.1408E+00  0.1719E+00
     -6.604  0.1342E+00  0.1843E+00
     -6.511  0.1413E+00  0.1974E+00
     -6.419  0.1514E+00  0.2114E+00
     -6.326  0.1669E+00  0.2269E+00
     -6.234  0.1790E+00  0.2434E+00
     -6.141  0.1783E+00  0.2599E+00
     -6.048  0.1715E+00  0.2758E+00
     -5.956  0.1668E+00  0.2913E+00
     -5.863  0.1607E+00  0.3061E+00
     -5.771  0.1567E+00  0.3206E+00
     -5.678  0.1559E+00  0.3351E+00
     -5.586  0.1608E+00  0.3499E+00
     -5.493  0.1633E+00  0.3651E+00
     -5.401  0.1607E+00  0.3799E+00
     -5.308  0.1680E+00  0.3955E+00
     -5.215  0.1771E+00  0.4119E+00
     -5.123  0.1761E+00  0.4282E+00
     -5.030  0.1711E+00  0.4440E+00
     -4.938  0.1678E+00  0.4596E+00
     -4.845  0.1700E+00  0.4753E+00
     -4.753  0.1754E+00  0.4915E+00
     -4.660  0.1770E+00  0.5079E+00
     -4.568  0.1734E+00  0.5240E+00
     -4.475  0.1800E+00  0.5406E+00
     -4.382  0.1873E+00  0.5580E+00
     -4.290  0.1890E+00  0.5754E+00
     -4.197  0.1838E+00  0.5925E+00
     -4.105  0.1856E+00  0.6096E+00
     -4.012  0.1927E+00  0.6275E+00
     -3.920  0.1961E+00  0.6456E+00
     -3.827  0.1942E+00  0.6636E+00
     -3.735  0.1928E+00  0.6814E+00
     -3.642  0.1929E+00  0.6993E+00
     -3.549  0.1972E+00  0.7175E+00
     -3.457  0.1958E+00  0.7357E+00
     -3.364  0.1864E+00  0.7529E+00
     -3.272  0.1830E+00  0.7699E+00
     -3.179  0.1840E+00  0.7869E+00
     -3.087  0.1896E+00  0.8044E+00
     -2.994  0.1928E+00  0.8223E+00
     -2.902  0.1865E+00  0.8395E+00
     -2.809  0.1906E+00  0.8572E+00
     -2.717  0.1943E+00  0.8752E+00
     -2.624  0.1947E+00  0.8932E+00
     -2.531  0.1869E+00  0.9105E+00
     -2.439  0.1730E+00  0.9265E+00
     -2.346  0.1699E+00  0.9422E+00
     -2.254  0.1768E+00  0.9586E+00
     -2.161  0.1835E+00  0.9756E+00
     -2.069  0.1934E+00  0.9935E+00
     -1.976  0.1988E+00  0.1012E+01
     -1.884  0.1863E+00  0.1029E+01
     -1.791  0.1733E+00  0.1045E+01
     -1.698  0.1705E+00  0.1061E+01
     -1.606  0.1509E+00  0.1075E+01
     -1.513  0.1190E+00  0.1086E+01
     -1.421  0.1020E+00  0.1095E+01
     -1.328  0.9505E-01  0.1104E+01
     -1.236  0.8268E-01  0.1112E+01
     -1.143  0.6283E-01  0.1118E+01
     -1.051  0.5434E-01  0.1123E+01
     -0.958  0.5507E-01  0.1128E+01
     -0.865  0.5459E-01  0.1133E+01
     -0.773  0.4805E-01  0.1137E+01
     -0.680  0.4553E-01  0.1141E+01
     -0.588  0.4946E-01  0.1146E+01
     -0.495  0.4718E-01  0.1150E+01
     -0.403  0.4520E-01  0.1155E+01
     -0.310  0.4333E-01  0.1159E+01
     -0.218  0.3773E-01  0.1162E+01
     -0.125  0.2576E-01  0.1164E+01
     -0.032  0.2367E-01  0.1167E+01
      0.060  0.2459E-01  0.1169E+01
      0.153  0.1962E-01  0.1171E+01
      0.245  0.2413E-01  0.1173E+01
      0.338  0.3136E-01  0.1176E+01
      0.430  0.3916E-01  0.1180E+01
      0.523  0.4074E-01  0.1183E+01
      0.615  0.3496E-01  0.1187E+01
      0.708  0.3438E-01  0.1190E+01
      0.801  0.3196E-01  0.1193E+01
      0.893  0.2656E-01  0.1195E+01
      0.986  0.2523E-01  0.1197E+01
      1.078  0.2754E-01  0.1200E+01
      1.171  0.2575E-01  0.1202E+01
      1.263  0.2490E-01  0.1205E+01
      1.356  0.2902E-01  0.1207E+01
      1.448  0.2716E-01  0.1210E+01
      1.541  0.2528E-01  0.1212E+01
      1.634  0.2934E-01  0.1215E+01
      1.726  0.3158E-01  0.1218E+01
      1.819  0.3414E-01  0.1221E+01
      1.911  0.3901E-01  0.1225E+01
      2.004  0.3709E-01  0.1228E+01
      2.096  0.3385E-01  0.1231E+01
      2.189  0.3085E-01  0.1234E+01
      2.281  0.3029E-01  0.1237E+01
      2.374  0.2877E-01  0.1240E+01
      2.467  0.2411E-01  0.1242E+01
      2.559  0.3089E-01  0.1245E+01
      2.652  0.2826E-01  0.1247E+01
      2.744  0.2209E-01  0.1249E+01
      2.837  0.1777E-01  0.1251E+01
      2.929  0.1676E-01  0.1252E+01
      3.022  0.2396E-01  0.1255E+01
      3.114  0.3244E-01  0.1258E+01
      3.207  0.3291E-01  0.1261E+01
      3.300  0.2912E-01  0.1263E+01
      3.392  0.3035E-01  0.1266E+01
      3.485  0.3597E-01  0.1270E+01
      3.577  0.3767E-01  0.1273E+01
      3.670  0.3230E-01  0.1276E+01
      3.762  0.3144E-01  0.1279E+01
      3.855  0.3758E-01  0.1282E+01
      3.947  0.4168E-01  0.1286E+01
      4.040  0.3597E-01  0.1290E+01
      4.133  0.3214E-01  0.1293E+01
      4.225  0.3605E-01  0.1296E+01
      4.318  0.4118E-01  0.1300E+01
      4.410  0.3902E-01  0.1303E+01
      4.503  0.4203E-01  0.1307E+01
      4.595  0.5070E-01  0.1312E+01
      4.688  0.4843E-01  0.1316E+01
      4.780  0.4954E-01  0.1321E+01
      4.873  0.5524E-01  0.1326E+01
      4.966  0.5709E-01  0.1331E+01
      5.058  0.5844E-01  0.1337E+01
      5.151  0.4718E-01  0.1341E+01
      5.243  0.2492E-01  0.1343E+01
      5.336  0.5157E-02  0.1344E+01
      5.428  0.2919E-03  0.1344E+01
      5.521  0.3887E-05  0.1344E+01
      5.613  0.1118E-07  0.1344E+01
      5.706  0.6539E-11  0.1344E+01
      5.799  0.7469E-15  0.1344E+01
      5.891  0.0000E+00  0.1344E+01
      5.984  0.0000E+00  0.1344E+01
      6.076  0.0000E+00  0.1344E+01
      6.169  0.0000E+00  0.1344E+01
      6.261  0.0000E+00  0.1344E+01
      6.354  0.0000E+00  0.1344E+01
      6.446  0.0000E+00  0.1344E+01
