<?xml version="1.0" encoding="ISO-8859-1"?>
<modeling>
 <generator>
  <i name="program" type="string">vasp </i>
  <i name="version" type="string">5.4.1  </i>
  <i name="subversion" type="string">24Jun15 (build Mar 14 2019 10:18:33) complex                          parallel </i>
  <i name="platform" type="string">INTEL-19.0.2+OPENMPI-3.1.3 </i>
  <i name="date" type="string">2023 01 22 </i>
  <i name="time" type="string">03:21:18 </i>
 </generator>
 <incar>
  <i type="int" name="ISTART">     0</i>
  <i type="string" name="PREC">normal</i>
  <i type="string" name="ALGO"> Fast</i>
  <i type="int" name="NELM">   500</i>
  <i type="int" name="IBRION">     2</i>
  <i type="int" name="NFREE">     2</i>
  <i name="EDIFF">      0.00000100</i>
  <i name="EDIFFG">     -0.02000000</i>
  <i type="int" name="NSW">   500</i>
  <i type="int" name="ISIF">     0</i>
  <i type="int" name="ISYM">     2</i>
  <i name="ENCUT">    400.00000000</i>
  <i name="POTIM">      0.35000000</i>
  <i type="string" name="LREAL"> Auto</i>
  <i type="logical" name="LPLANE"> T  </i>
  <i type="int" name="ISMEAR">     0</i>
  <i name="SIGMA">      0.10000000</i>
  <i type="int" name="NWRITE">     1</i>
  <i type="logical" name="LWAVE"> F  </i>
  <i type="logical" name="LCHARG"> F  </i>
  <i type="logical" name="LVTOT"> F  </i>
  <i type="logical" name="LORBIT"> F  </i>
  <i type="logical" name="LAECHG"> F  </i>
  <v type="int" name="KPOINT_BSE">    -1     0     0     0</v>
  <i type="int" name="NELM">   500</i>
  <i type="string" name="GGA"> PE          ! optPBE-vdW XC-functional</i>
  <i type="int" name="VOSKOWN">     1</i>
  <i type="logical" name="LDIPOL"> T  </i>
  <i type="logical" name="LMONO"> F  </i>
  <i type="int" name="IDIPOL">     3</i>
  <v name="DIPOL">      0.00000000      0.00000000      0.50000000</v>
 </incar>
 <kpoints>
  <generation param="Monkhorst-Pack">
   <v type="int" name="divisions">       2        2        1 </v>
   <v name="usershift">      0.00000000       0.00000000       0.00000000 </v>
   <v name="genvec1">      0.50000000       0.00000000       0.00000000 </v>
   <v name="genvec2">      0.00000000       0.50000000       0.00000000 </v>
   <v name="genvec3">      0.00000000       0.00000000       1.00000000 </v>
   <v name="shift">      0.50000000       0.50000000       0.00000000 </v>
  </generation>
  <varray name="kpointlist" >
   <v>       0.25000000       0.25000000       0.00000000 </v>
   <v>       0.00000000       0.25000000       0.00000000 </v>
   <v>      -0.25000000       0.00000000       0.00000000 </v>
   <v>      -0.25000000       0.25000000       0.00000000 </v>
   <v>       0.50000000      -0.25000000       0.00000000 </v>
   <v>      -0.25000000       0.50000000       0.00000000 </v>
  </varray>
  <varray name="weights" >
   <v>       0.16666667 </v>
   <v>       0.16666667 </v>
   <v>       0.16666667 </v>
   <v>       0.16666667 </v>
   <v>       0.16666667 </v>
   <v>       0.16666667 </v>
  </varray>
 </kpoints>
 <parameters>
  <separator name="general" >
   <i type="string" name="SYSTEM">unknown system</i>
   <i type="logical" name="LCOMPAT"> F  </i>
  </separator>
  <separator name="electronic" >
   <i type="string" name="PREC">normal</i>
   <i name="ENMAX">    400.00000000</i>
   <i name="ENAUG">    605.39200000</i>
   <i name="EDIFF">      0.00000100</i>
   <i type="int" name="IALGO">    68</i>
   <i type="int" name="IWAVPR">    11</i>
   <i type="int" name="NBANDS">   336</i>
   <i name="NELECT">    552.00000000</i>
   <i type="int" name="TURBO">     0</i>
   <i type="int" name="IRESTART">     0</i>
   <i type="int" name="NREBOOT">     0</i>
   <i type="int" name="NMIN">     0</i>
   <i name="EREF">      0.00000000</i>
   <separator name="electronic smearing" >
    <i type="int" name="ISMEAR">     0</i>
    <i name="SIGMA">      0.10000000</i>
    <i name="KSPACING">      0.50000000</i>
    <i type="logical" name="KGAMMA"> T  </i>
   </separator>
   <separator name="electronic projectors" >
    <i type="logical" name="LREAL"> T  </i>
    <v name="ROPT">     -0.00050000     -0.00050000     -0.00050000</v>
    <i type="int" name="LMAXPAW">  -100</i>
    <i type="int" name="LMAXMIX">     2</i>
    <i type="logical" name="NLSPLINE"> F  </i>
   </separator>
   <separator name="electronic startup" >
    <i type="int" name="ISTART">     0</i>
    <i type="int" name="ICHARG">     2</i>
    <i type="int" name="INIWAV">     1</i>
   </separator>
   <separator name="electronic spin" >
    <i type="int" name="ISPIN">     1</i>
    <i type="logical" name="LNONCOLLINEAR"> F  </i>
    <v name="MAGMOM">      1.00000000      1.00000000      1.00000000      1.00000000      1.00000000      1.00000000      1.00000000      1.00000000      1.00000000      1.00000000      1.00000000      1.00000000      1.00000000      1.00000000      1.00000000      1.00000000      1.00000000      1.00000000      1.00000000      1.00000000
      1.00000000      1.00000000      1.00000000      1.00000000      1.00000000      1.00000000      1.00000000      1.00000000      1.00000000      1.00000000      1.00000000      1.00000000      1.00000000      1.00000000      1.00000000      1.00000000      1.00000000      1.00000000      1.00000000      1.00000000
      1.00000000      1.00000000      1.00000000      1.00000000      1.00000000      1.00000000      1.00000000      1.00000000      1.00000000      1.00000000      1.00000000      1.00000000      1.00000000      1.00000000      1.00000000      1.00000000</v>
    <i name="NUPDOWN">     -1.00000000</i>
    <i type="logical" name="LSORBIT"> F  </i>
    <v name="SAXIS">      0.00000000      0.00000000      1.00000000</v>
    <i type="logical" name="LSPIRAL"> F  </i>
    <v name="QSPIRAL">      0.00000000      0.00000000      0.00000000</v>
    <i type="logical" name="LZEROZ"> F  </i>
   </separator>
   <separator name="electronic exchange-correlation" >
    <i type="logical" name="LASPH"> F  </i>
    <i type="logical" name="LMETAGGA"> F  </i>
   </separator>
   <separator name="electronic convergence" >
    <i type="int" name="NELM">   500</i>
    <i type="int" name="NELMDL">    -5</i>
    <i type="int" name="NELMIN">     2</i>
    <i name="ENINI">    400.00000000</i>
    <separator name="electronic convergence detail" >
     <i type="logical" name="LDIAG"> T  </i>
     <i type="logical" name="LSUBROT"> F  </i>
     <i name="WEIMIN">      0.00100000</i>
     <i name="EBREAK">      0.00000000</i>
     <i name="DEPER">      0.30000000</i>
     <i type="int" name="NRMM">     4</i>
     <i name="TIME">      0.40000000</i>
    </separator>
   </separator>
   <separator name="electronic mixer" >
    <i name="AMIX">      0.40000000</i>
    <i name="BMIX">      1.00000000</i>
    <i name="AMIN">      0.10000000</i>
    <i name="AMIX_MAG">      1.60000000</i>
    <i name="BMIX_MAG">      1.00000000</i>
    <separator name="electronic mixer details" >
     <i type="int" name="IMIX">     4</i>
     <i type="logical" name="MIXFIRST"> F  </i>
     <i type="int" name="MAXMIX">   -45</i>
     <i name="WC">    100.00000000</i>
     <i type="int" name="INIMIX">     1</i>
     <i type="int" name="MIXPRE">     1</i>
     <i type="int" name="MREMOVE">     5</i>
    </separator>
   </separator>
   <separator name="electronic dipolcorrection" >
    <i type="logical" name="LDIPOL"> T  </i>
    <i type="logical" name="LMONO"> F  </i>
    <i type="int" name="IDIPOL">     3</i>
    <i name="EPSILON">      1.00000000</i>
    <v name="DIPOL">      0.00000000      0.00000000      0.50000000</v>
    <i name="EFIELD">      0.00000000</i>
   </separator>
  </separator>
  <separator name="grids" >
   <i type="int" name="NGX">    54</i>
   <i type="int" name="NGY">    54</i>
   <i type="int" name="NGZ">   128</i>
   <i type="int" name="NGXF">   108</i>
   <i type="int" name="NGYF">   108</i>
   <i type="int" name="NGZF">   256</i>
   <i type="logical" name="ADDGRID"> F  </i>
  </separator>
  <separator name="ionic" >
   <i type="int" name="NSW">   500</i>
   <i type="int" name="IBRION">     2</i>
   <i type="int" name="ISIF">     0</i>
   <i name="PSTRESS">      0.00000000</i>
   <i name="EDIFFG">     -0.02000000</i>
   <i type="int" name="NFREE">     2</i>
   <i name="POTIM">      0.35000000</i>
   <i name="SMASS">     -3.00000000</i>
   <i name="SCALEE">      1.00000000</i>
  </separator>
  <separator name="ionic md" >
   <i name="TEBEG">      0.00010000</i>
   <i name="TEEND">      0.00010000</i>
   <i type="int" name="NBLOCK">     1</i>
   <i type="int" name="KBLOCK">   500</i>
   <i type="int" name="NPACO">   256</i>
   <i name="APACO">     16.00000000</i>
  </separator>
  <separator name="symmetry" >
   <i type="int" name="ISYM">     2</i>
   <i name="SYMPREC">      0.00001000</i>
  </separator>
  <separator name="dos" >
   <i type="logical" name="LORBIT"> F  </i>
   <v name="RWIGS">     -1.00000000     -1.00000000     -1.00000000</v>
   <i type="int" name="NEDOS">   301</i>
   <i name="EMIN">     10.00000000</i>
   <i name="EMAX">    -10.00000000</i>
   <i name="EFERMI">      0.00000000</i>
  </separator>
  <separator name="writing" >
   <i type="int" name="NWRITE">     1</i>
   <i type="logical" name="LWAVE"> F  </i>
   <i type="logical" name="LCHARG"> F  </i>
   <i type="logical" name="LPARD"> F  </i>
   <i type="logical" name="LVTOT"> F  </i>
   <i type="logical" name="LVHAR"> F  </i>
   <i type="logical" name="LELF"> F  </i>
   <i type="logical" name="LOPTICS"> F  </i>
   <v name="STM">      0.00000000      0.00000000      0.00000000      0.00000000      0.00000000      0.00000000      0.00000000</v>
  </separator>
  <separator name="performance" >
   <i type="int" name="NPAR">     6</i>
   <i type="int" name="NSIM">     4</i>
   <i type="int" name="NBLK">    -1</i>
   <i type="logical" name="LPLANE"> T  </i>
   <i type="logical" name="LSCALAPACK"> T  </i>
   <i type="logical" name="LSCAAWARE"> F  </i>
   <i type="logical" name="LSCALU"> F  </i>
   <i type="logical" name="LASYNC"> F  </i>
   <i type="logical" name="LORBITALREAL"> F  </i>
  </separator>
  <separator name="miscellaneous" >
   <i type="int" name="IDIOT">     3</i>
   <i type="logical" name="LMUSIC"> F  </i>
   <v name="POMASS">    196.96600000     16.00000000    106.42000000</v>
   <v name="DARWINR">      0.00000000      0.00000000      0.00000000</v>
   <v name="DARWINV">      1.00000000      1.00000000      1.00000000</v>
   <i type="logical" name="LCORR"> T  </i>
  </separator>
  <i type="logical" name="GGA_COMPAT"> T  </i>
  <i type="logical" name="LBERRY"> F  </i>
  <i type="int" name="ICORELEVEL">     0</i>
  <i type="logical" name="LDAU"> F  </i>
  <i type="int" name="I_CONSTRAINED_M">     0</i>
  <separator name="electronic exchange-correlation" >
   <i type="string" name="GGA">PE</i>
   <i type="int" name="VOSKOWN">     1</i>
   <i type="logical" name="LHFCALC"> F  </i>
   <i type="string" name="PRECFOCK"></i>
   <i type="logical" name="LSYMGRAD"> F  </i>
   <i type="logical" name="LHFONE"> F  </i>
   <i type="logical" name="LRHFCALC"> F  </i>
   <i type="logical" name="LTHOMAS"> F  </i>
   <i type="logical" name="LMODELHF"> F  </i>
   <i name="ENCUT4O">     -1.00000000</i>
   <i type="int" name="EXXOEP">     0</i>
   <i type="int" name="FOURORBIT">     0</i>
   <i name="AEXX">      0.00000000</i>
   <i name="HFALPHA">      0.00000000</i>
   <i name="MCALPHA">      0.00000000</i>
   <i name="ALDAX">      1.00000000</i>
   <i name="AGGAX">      1.00000000</i>
   <i name="ALDAC">      1.00000000</i>
   <i name="AGGAC">      1.00000000</i>
   <i type="int" name="NKREDX">     1</i>
   <i type="int" name="NKREDY">     1</i>
   <i type="int" name="NKREDZ">     1</i>
   <i type="logical" name="SHIFTRED"> F  </i>
   <i type="logical" name="ODDONLY"> F  </i>
   <i type="logical" name="EVENONLY"> F  </i>
   <i type="int" name="LMAXFOCK">     0</i>
   <i type="int" name="NMAXFOCKAE">     0</i>
   <i type="logical" name="LFOCKAEDFT"> F  </i>
   <i name="HFSCREEN">      0.00000000</i>
   <i name="HFSCREENC">      0.00000000</i>
   <i type="int" name="NBANDSGWLOW">     0</i>
  </separator>
  <separator name="vdW DFT" >
   <i type="logical" name="LUSE_VDW"> F  </i>
   <i name="Zab_VDW">     -0.84910000</i>
   <i name="PARAM1">      0.12340000</i>
   <i name="PARAM2">      1.00000000</i>
   <i name="PARAM3">      0.00000000</i>
  </separator>
  <separator name="model GW" >
   <i type="int" name="MODEL_GW">     0</i>
   <i name="MODEL_EPS0">     29.42037089</i>
   <i name="MODEL_ALPHA">      1.00000000</i>
  </separator>
  <separator name="linear response parameters" >
   <i type="logical" name="LEPSILON"> F  </i>
   <i type="logical" name="LRPA"> F  </i>
   <i type="logical" name="LNABLA"> F  </i>
   <i type="logical" name="LVEL"> F  </i>
   <i type="int" name="KINTER">     0</i>
   <i name="CSHIFT">      0.10000000</i>
   <i name="OMEGAMAX">     -1.00000000</i>
   <i name="DEG_THRESHOLD">      0.00200000</i>
  </separator>
  <separator name="orbital magnetization" >
   <i type="logical" name="NUCIND"> F  </i>
   <v name="MAGPOS">      0.00000000      0.00000000      0.00000000</v>
   <i type="logical" name="LNICSALL"> T  </i>
   <i type="logical" name="ORBITALMAG"> F  </i>
   <i type="logical" name="LMAGBLOCH"> F  </i>
   <i type="logical" name="LCHIMAG"> F  </i>
   <i type="logical" name="LGAUGE"> T  </i>
   <i type="int" name="MAGATOM">     0</i>
   <v name="MAGDIPOL">      0.00000000      0.00000000      0.00000000</v>
   <v name="AVECCONST">      0.00000000      0.00000000      0.00000000</v>
  </separator>
  <separator name="response functions" >
   <i type="logical" name="LADDER"> F  </i>
   <i type="logical" name="LFXC"> F  </i>
   <i type="logical" name="LHARTREE"> T  </i>
   <i type="int" name="IBSE">     0</i>
   <v type="int" name="KPOINT">    -1     0     0     0</v>
   <i type="logical" name="LTCTE"> F  </i>
   <i type="logical" name="LTETE"> F  </i>
   <i type="logical" name="LTRIPLET"> F  </i>
   <i type="logical" name="LFXCEPS"> F  </i>
   <i type="logical" name="LFXHEG"> F  </i>
   <i type="int" name="NATURALO">     0</i>
   <i type="logical" name="L2ORDER"> F  </i>
   <i type="logical" name="LUSEW"> F  </i>
   <i name="ENCUTGW">     -2.00000000</i>
   <i name="ENCUTGWSOFT">     -2.00000000</i>
   <i name="ENCUTLF">     -1.00000000</i>
   <i type="int" name="LMAXMP2">    -1</i>
   <i name="SCISSOR">      0.00000000</i>
   <i type="int" name="NOMEGA">     0</i>
   <i type="int" name="NOMEGAR">     0</i>
   <i type="int" name="NBANDSGW">    -1</i>
   <i type="int" name="NBANDSO">    -1</i>
   <i type="int" name="NBANDSV">    -1</i>
   <i type="int" name="NELM">   500</i>
   <i type="int" name="NELMHF">     1</i>
   <i type="int" name="DIM">     3</i>
   <i type="int" name="ANTIRES">     0</i>
   <i name="OMEGAMAX">    -30.00000000</i>
   <i name="OMEGAMIN">    -30.00000000</i>
   <i name="OMEGATL">   -200.00000000</i>
   <i type="int" name="OMEGAGRID">     0</i>
   <i name="CSHIFT">     -0.10000000</i>
   <i type="logical" name="SELFENERGY"> F  </i>
   <i type="logical" name="LSPECTRAL"> F  </i>
   <i type="logical" name="LSPECTRALGW"> F  </i>
   <i type="logical" name="LSINGLES"> F  </i>
   <i type="logical" name="LFERMIGW"> F  </i>
   <i type="logical" name="ODDONLYGW"> F  </i>
   <i type="logical" name="EVENONLYGW"> F  </i>
   <i type="int" name="NKREDLFX">     1</i>
   <i type="int" name="NKREDLFY">     1</i>
   <i type="int" name="NKREDLFZ">     1</i>
   <i type="int" name="MAXMEM">  1800</i>
   <i type="int" name="TELESCOPE">     0</i>
   <i type="int" name="TAUPAR">     1</i>
   <i type="int" name="OMEGAPAR">    -1</i>
   <i name="LAMBDA">      1.00000000</i>
  </separator>
  <separator name="External order field" >
   <i name="OFIELD_KAPPA">      0.00000000</i>
   <v name="OFIELD_K">      0.00000000      0.00000000      0.00000000</v>
   <i name="OFIELD_Q6_NEAR">      0.00000000</i>
   <i name="OFIELD_Q6_FAR">      0.00000000</i>
   <i name="OFIELD_A">      0.00000000</i>
  </separator>
 </parameters>
 <atominfo>
  <atoms>      56 </atoms>
  <types>       3 </types>
  <array name="atoms" >
   <dimension dim="1">ion</dimension>
   <field type="string">element</field>
   <field type="int">atomtype</field>
   <set>
    <rc><c>Au</c><c>   1</c></rc>
    <rc><c>Au</c><c>   1</c></rc>
    <rc><c>Au</c><c>   1</c></rc>
    <rc><c>Au</c><c>   1</c></rc>
    <rc><c>Au</c><c>   1</c></rc>
    <rc><c>Au</c><c>   1</c></rc>
    <rc><c>Au</c><c>   1</c></rc>
    <rc><c>Au</c><c>   1</c></rc>
    <rc><c>Au</c><c>   1</c></rc>
    <rc><c>Au</c><c>   1</c></rc>
    <rc><c>Au</c><c>   1</c></rc>
    <rc><c>Au</c><c>   1</c></rc>
    <rc><c>Au</c><c>   1</c></rc>
    <rc><c>Au</c><c>   1</c></rc>
    <rc><c>Au</c><c>   1</c></rc>
    <rc><c>Au</c><c>   1</c></rc>
    <rc><c>Au</c><c>   1</c></rc>
    <rc><c>Au</c><c>   1</c></rc>
    <rc><c>Au</c><c>   1</c></rc>
    <rc><c>Au</c><c>   1</c></rc>
    <rc><c>Au</c><c>   1</c></rc>
    <rc><c>Au</c><c>   1</c></rc>
    <rc><c>Au</c><c>   1</c></rc>
    <rc><c>Au</c><c>   1</c></rc>
    <rc><c>O </c><c>   2</c></rc>
    <rc><c>O </c><c>   2</c></rc>
    <rc><c>O </c><c>   2</c></rc>
    <rc><c>O </c><c>   2</c></rc>
    <rc><c>O </c><c>   2</c></rc>
    <rc><c>O </c><c>   2</c></rc>
    <rc><c>O </c><c>   2</c></rc>
    <rc><c>O </c><c>   2</c></rc>
    <rc><c>Pd</c><c>   3</c></rc>
    <rc><c>Pd</c><c>   3</c></rc>
    <rc><c>Pd</c><c>   3</c></rc>
    <rc><c>Pd</c><c>   3</c></rc>
    <rc><c>Pd</c><c>   3</c></rc>
    <rc><c>Pd</c><c>   3</c></rc>
    <rc><c>Pd</c><c>   3</c></rc>
    <rc><c>Pd</c><c>   3</c></rc>
    <rc><c>Pd</c><c>   3</c></rc>
    <rc><c>Pd</c><c>   3</c></rc>
    <rc><c>Pd</c><c>   3</c></rc>
    <rc><c>Pd</c><c>   3</c></rc>
    <rc><c>Pd</c><c>   3</c></rc>
    <rc><c>Pd</c><c>   3</c></rc>
    <rc><c>Pd</c><c>   3</c></rc>
    <rc><c>Pd</c><c>   3</c></rc>
    <rc><c>Pd</c><c>   3</c></rc>
    <rc><c>Pd</c><c>   3</c></rc>
    <rc><c>Pd</c><c>   3</c></rc>
    <rc><c>Pd</c><c>   3</c></rc>
    <rc><c>Pd</c><c>   3</c></rc>
    <rc><c>Pd</c><c>   3</c></rc>
    <rc><c>Pd</c><c>   3</c></rc>
    <rc><c>Pd</c><c>   3</c></rc>
   </set>
  </array>
  <array name="atomtypes" >
   <dimension dim="1">type</dimension>
   <field type="int">atomspertype</field>
   <field type="string">element</field>
   <field>mass</field>
   <field>valence</field>
   <field type="string">pseudopotential</field>
   <set>
    <rc><c>  24</c><c>Au</c><c>    196.96600000</c><c>     11.00000000</c><c>  PAW_PBE Au 04Oct2007                  </c></rc>
    <rc><c>   8</c><c>O </c><c>     16.00000000</c><c>      6.00000000</c><c>  PAW_PBE O 08Apr2002                   </c></rc>
    <rc><c>  24</c><c>Pd</c><c>    106.42000000</c><c>     10.00000000</c><c>  PAW_PBE Pd 04Jan2005                  </c></rc>
   </set>
  </array>
 </atominfo>
 <structure name="initialpos" >
  <crystal>
   <varray name="basis" >
    <v>      11.00258152       0.00000000       0.00000000 </v>
    <v>       5.50129076       9.52851510       0.00000000 </v>
    <v>       0.00000000       0.00000000      26.19178509 </v>
   </varray>
   <i name="volume">   2745.90128299 </i>
   <varray name="rec_basis" >
    <v>       0.09088776      -0.05247407       0.00000000 </v>
    <v>       0.00000000       0.10494815       0.00000000 </v>
    <v>       0.00000000       0.00000000       0.03817991 </v>
   </varray>
  </crystal>
  <varray name="positions" >
   <v>       0.08333333       0.08333333       0.38179910 </v>
   <v>       0.25000000       0.50000000       0.55329505 </v>
   <v>       0.75000000       0.00000000       0.55329505 </v>
   <v>       0.83333333       0.83333333       0.38179910 </v>
   <v>       0.66666667       0.41666667       0.46754708 </v>
   <v>       0.83333333       0.33333333       0.38179910 </v>
   <v>       0.08333333       0.33333333       0.38179910 </v>
   <v>       0.91666667       0.41666667       0.46754708 </v>
   <v>       0.00000000       0.25000000       0.55329505 </v>
   <v>       0.08333333       0.58333333       0.38179910 </v>
   <v>       0.91666667       0.66666667       0.46754708 </v>
   <v>       0.91666667       0.91666667       0.46754708 </v>
   <v>       0.00000000       0.50000000       0.55329505 </v>
   <v>       0.16666667       0.66666667       0.46754708 </v>
   <v>       0.00000000       0.75000000       0.55329505 </v>
   <v>       0.50000000       0.75000000       0.55329505 </v>
   <v>       0.33333333       0.08333333       0.38179910 </v>
   <v>       0.16666667       0.16666667       0.46754708 </v>
   <v>       0.25000000       0.00000000       0.55329505 </v>
   <v>       0.41666667       0.91666667       0.46754708 </v>
   <v>       0.16666667       0.41666667       0.46754708 </v>
   <v>       0.41666667       0.41666667       0.46754708 </v>
   <v>       0.75000000       0.75000000       0.55329505 </v>
   <v>       0.66666667       0.16666667       0.46754708 </v>
   <v>       0.33333333       0.33333333       0.61820090 </v>
   <v>       0.08333333       0.33333333       0.61820090 </v>
   <v>       0.08333333       0.08333333       0.61820090 </v>
   <v>       0.33333333       0.08333333       0.61820090 </v>
   <v>       0.83333333       0.83333333       0.61820090 </v>
   <v>       0.33333333       0.58333333       0.61820090 </v>
   <v>       0.58333333       0.58333333       0.61820090 </v>
   <v>       0.83333333       0.08333333       0.61820090 </v>
   <v>       0.58333333       0.58333333       0.38179910 </v>
   <v>       0.58333333       0.33333333       0.38179910 </v>
   <v>       0.25000000       0.25000000       0.55329505 </v>
   <v>       0.33333333       0.33333333       0.38179910 </v>
   <v>       0.50000000       0.00000000       0.55329505 </v>
   <v>       0.41666667       0.16666667       0.46754708 </v>
   <v>       0.58333333       0.08333333       0.38179910 </v>
   <v>       0.25000000       0.75000000       0.55329505 </v>
   <v>       0.16666667       0.91666667       0.46754708 </v>
   <v>       0.50000000       0.50000000       0.55329505 </v>
   <v>       0.33333333       0.83333333       0.38179910 </v>
   <v>       0.58333333       0.83333333       0.38179910 </v>
   <v>       0.33333333       0.58333333       0.38179910 </v>
   <v>       0.83333333       0.08333333       0.38179910 </v>
   <v>       0.08333333       0.83333333       0.38179910 </v>
   <v>       0.00000000       0.00000000       0.55329505 </v>
   <v>       0.75000000       0.25000000       0.55329505 </v>
   <v>       0.83333333       0.58333333       0.38179910 </v>
   <v>       0.66666667       0.66666667       0.46754708 </v>
   <v>       0.75000000       0.50000000       0.55329505 </v>
   <v>       0.91666667       0.16666667       0.46754708 </v>
   <v>       0.66666667       0.91666667       0.46754708 </v>
   <v>       0.41666667       0.66666667       0.46754708 </v>
   <v>       0.50000000       0.25000000       0.55329505 </v>
  </varray>
  <varray name="selective"  type="logical" >
   <v type="logical" >  F  F  F </v>
   <v type="logical" >  T  T  T </v>
   <v type="logical" >  T  T  T </v>
   <v type="logical" >  F  F  F </v>
   <v type="logical" >  T  T  T </v>
   <v type="logical" >  F  F  F </v>
   <v type="logical" >  F  F  F </v>
   <v type="logical" >  T  T  T </v>
   <v type="logical" >  T  T  T </v>
   <v type="logical" >  F  F  F </v>
   <v type="logical" >  T  T  T </v>
   <v type="logical" >  T  T  T </v>
   <v type="logical" >  T  T  T </v>
   <v type="logical" >  T  T  T </v>
   <v type="logical" >  T  T  T </v>
   <v type="logical" >  T  T  T </v>
   <v type="logical" >  F  F  F </v>
   <v type="logical" >  T  T  T </v>
   <v type="logical" >  T  T  T </v>
   <v type="logical" >  T  T  T </v>
   <v type="logical" >  T  T  T </v>
   <v type="logical" >  T  T  T </v>
   <v type="logical" >  T  T  T </v>
   <v type="logical" >  T  T  T </v>
   <v type="logical" >  T  T  T </v>
   <v type="logical" >  T  T  T </v>
   <v type="logical" >  T  T  T </v>
   <v type="logical" >  T  T  T </v>
   <v type="logical" >  T  T  T </v>
   <v type="logical" >  T  T  T </v>
   <v type="logical" >  T  T  T </v>
   <v type="logical" >  T  T  T </v>
   <v type="logical" >  F  F  F </v>
   <v type="logical" >  F  F  F </v>
   <v type="logical" >  T  T  T </v>
   <v type="logical" >  F  F  F </v>
   <v type="logical" >  T  T  T </v>
   <v type="logical" >  T  T  T </v>
   <v type="logical" >  F  F  F </v>
   <v type="logical" >  T  T  T </v>
   <v type="logical" >  T  T  T </v>
   <v type="logical" >  T  T  T </v>
   <v type="logical" >  F  F  F </v>
   <v type="logical" >  F  F  F </v>
   <v type="logical" >  F  F  F </v>
   <v type="logical" >  F  F  F </v>
   <v type="logical" >  F  F  F </v>
   <v type="logical" >  T  T  T </v>
   <v type="logical" >  T  T  T </v>
   <v type="logical" >  F  F  F </v>
   <v type="logical" >  T  T  T </v>
   <v type="logical" >  T  T  T </v>
   <v type="logical" >  T  T  T </v>
   <v type="logical" >  T  T  T </v>
   <v type="logical" >  T  T  T </v>
   <v type="logical" >  T  T  T </v>
  </varray>
  <nose>
   <v>      -3.00000000       0.00000000       0.00010000       0.00010000 </v>
  </nose>
 </structure>
 <calculation>
  <scstep>
   <time name="dav">    8.59    8.61</time>
   <time name="total">    8.65    8.67</time>
   <dipole>
    <v name="dipole">      0.00000000       0.00000000       0.00013011 </v>
    <i name="Tr[quadrupol]"> -11073.36640708 </i>
    <i name="Echarged">      0.00000000 </i>
    <i name="Edipol_quadrupol">      0.00000000 </i>
    <i name="Eion">      0.00000000 </i>
   </dipole>
   <energy>
    <i name="alphaZ">    862.57884191 </i>
    <i name="ewald"> 255927.48892141 </i>
    <i name="hartreedc">-301504.93205062 </i>
    <i name="XCdc">   -109.64064428 </i>
    <i name="pawpsdc">  43112.45544455 </i>
    <i name="pawaedc"> -41079.41300390 </i>
    <i name="eentropy">     -0.12936646 </i>
    <i name="bandstr">   1334.87855912 </i>
    <i name="atom">  45117.89144060 </i>
    <i name="e_fr_energy">   3661.17814233 </i>
    <i name="e_wo_entrp">   3661.30750879 </i>
    <i name="e_0_energy">   3661.24282556 </i>
   </energy>
  </scstep>
  <scstep>
   <time name="dav">   10.20   10.23</time>
   <time name="total">   10.21   10.23</time>
   <dipole>
    <v name="dipole">      0.00000000       0.00000000       0.00013011 </v>
    <i name="Tr[quadrupol]"> -11073.36640708 </i>
    <i name="Echarged">      0.00000000 </i>
    <i name="Edipol_quadrupol">      0.00000000 </i>
    <i name="Eion">      0.00000000 </i>
   </dipole>
   <energy>
    <i name="e_fr_energy">     54.37411122 </i>
    <i name="e_wo_entrp">     54.54839309 </i>
    <i name="e_0_energy">     54.46125216 </i>
   </energy>
  </scstep>
  <scstep>
   <time name="dav">    9.97   10.06</time>
   <time name="total">    9.97   10.07</time>
   <dipole>
    <v name="dipole">      0.00000000       0.00000000       0.00013011 </v>
    <i name="Tr[quadrupol]"> -11073.36640708 </i>
    <i name="Echarged">      0.00000000 </i>
    <i name="Edipol_quadrupol">      0.00000000 </i>
    <i name="Eion">      0.00000000 </i>
   </dipole>
   <energy>
    <i name="e_fr_energy">   -250.78248802 </i>
    <i name="e_wo_entrp">   -250.32567937 </i>
    <i name="e_0_energy">   -250.55408369 </i>
   </energy>
  </scstep>
  <scstep>
   <time name="dav">    9.69    9.72</time>
   <time name="total">    9.70    9.73</time>
   <dipole>
    <v name="dipole">      0.00000000       0.00000000       0.00013011 </v>
    <i name="Tr[quadrupol]"> -11073.36640708 </i>
    <i name="Echarged">      0.00000000 </i>
    <i name="Edipol_quadrupol">      0.00000000 </i>
    <i name="Eion">      0.00000000 </i>
   </dipole>
   <energy>
    <i name="e_fr_energy">   -261.86124474 </i>
    <i name="e_wo_entrp">   -261.39010540 </i>
    <i name="e_0_energy">   -261.62567507 </i>
   </energy>
  </scstep>
  <scstep>
   <time name="dav">   10.17   10.19</time>
   <time name="total">   10.43   10.46</time>
   <dipole>
    <v name="dipole">      0.00000000       0.00000000       0.00013011 </v>
    <i name="Tr[quadrupol]"> -11073.36640708 </i>
    <i name="Echarged">      0.00000000 </i>
    <i name="Edipol_quadrupol">      0.00000000 </i>
    <i name="Eion">      0.00000000 </i>
   </dipole>
   <energy>
    <i name="e_fr_energy">   -262.19539163 </i>
    <i name="e_wo_entrp">   -261.72333600 </i>
    <i name="e_0_energy">   -261.95936382 </i>
   </energy>
  </scstep>
  <scstep>
   <time name="diag">    1.57    1.58</time>
   <time name="diis">    4.06    4.07</time>
   <time name="orth">    0.44    0.44</time>
   <time name="total">    6.38    6.41</time>
   <dipole>
    <v name="dipole">      0.00000000       0.00000000       3.35944448 </v>
    <i name="Tr[quadrupol]"> -11065.23264005 </i>
    <i name="Echarged">      0.00000000 </i>
    <i name="Edipol_quadrupol">      0.00000000 </i>
    <i name="Eion">      0.00000000 </i>
   </dipole>
   <energy>
    <i name="e_fr_energy">   -350.45446923 </i>
    <i name="e_wo_entrp">   -350.36083982 </i>
    <i name="e_0_energy">   -350.40765452 </i>
   </energy>
  </scstep>
  <scstep>
   <time name="diag">    1.55    1.56</time>
   <time name="diis">    4.01    4.02</time>
   <time name="orth">    0.44    0.44</time>
   <time name="total">    6.31    6.33</time>
   <dipole>
    <v name="dipole">      0.00000000       0.00000000      -1.32606026 </v>
    <i name="Tr[quadrupol]"> -11067.41643861 </i>
    <i name="Echarged">      0.00000000 </i>
    <i name="Edipol_quadrupol">      0.00000000 </i>
    <i name="Eion">      0.00000000 </i>
   </dipole>
   <energy>
    <i name="e_fr_energy">   -277.07227526 </i>
    <i name="e_wo_entrp">   -276.82922815 </i>
    <i name="e_0_energy">   -276.95075170 </i>
   </energy>
  </scstep>
  <scstep>
   <time name="diag">    1.54    1.61</time>
   <time name="diis">    4.11    4.12</time>
   <time name="orth">    0.44    0.44</time>
   <time name="total">    6.40    6.49</time>
   <dipole>
    <v name="dipole">      0.00000000       0.00000000       0.90298725 </v>
    <i name="Tr[quadrupol]"> -11071.13022529 </i>
    <i name="Echarged">      0.00000000 </i>
    <i name="Edipol_quadrupol">      0.00000000 </i>
    <i name="Eion">      0.00000000 </i>
   </dipole>
   <energy>
    <i name="e_fr_energy">   -233.65772120 </i>
    <i name="e_wo_entrp">   -233.36808796 </i>
    <i name="e_0_energy">   -233.51290458 </i>
   </energy>
  </scstep>
  <scstep>
   <time name="diag">    1.56    1.56</time>
   <time name="diis">    4.09    4.10</time>
   <time name="orth">    0.44    0.44</time>
   <time name="total">    6.39    6.41</time>
   <dipole>
    <v name="dipole">      0.00000000       0.00000000       0.79423485 </v>
    <i name="Tr[quadrupol]"> -11065.26206452 </i>
    <i name="Echarged">      0.00000000 </i>
    <i name="Edipol_quadrupol">      0.00000000 </i>
    <i name="Eion">      0.00000000 </i>
   </dipole>
   <energy>
    <i name="e_fr_energy">   -258.92961711 </i>
    <i name="e_wo_entrp">   -258.78820720 </i>
    <i name="e_0_energy">   -258.85891216 </i>
   </energy>
  </scstep>
  <scstep>
   <time name="diag">    1.56    1.56</time>
   <time name="diis">    4.08    4.08</time>
   <time name="orth">    0.44    0.44</time>
   <time name="total">    6.38    6.39</time>
   <dipole>
    <v name="dipole">      0.00000000       0.00000000       1.61846327 </v>
    <i name="Tr[quadrupol]"> -11068.20714680 </i>
    <i name="Echarged">      0.00000000 </i>
    <i name="Edipol_quadrupol">      0.00000000 </i>
    <i name="Eion">      0.00000000 </i>
   </dipole>
   <energy>
    <i name="e_fr_energy">   -256.62211272 </i>
    <i name="e_wo_entrp">   -256.49062002 </i>
    <i name="e_0_energy">   -256.55636637 </i>
   </energy>
  </scstep>
  <scstep>
   <time name="diag">    1.57    1.58</time>
   <time name="diis">    4.05    4.06</time>
   <time name="orth">    0.43    0.43</time>
   <time name="total">    6.35    6.37</time>
   <dipole>
    <v name="dipole">      0.00000000       0.00000000       1.46442661 </v>
    <i name="Tr[quadrupol]"> -11069.19097294 </i>
    <i name="Echarged">      0.00000000 </i>
    <i name="Edipol_quadrupol">      0.00000000 </i>
    <i name="Eion">      0.00000000 </i>
   </dipole>
   <energy>
    <i name="e_fr_energy">   -234.27697758 </i>
    <i name="e_wo_entrp">   -234.11528988 </i>
    <i name="e_0_energy">   -234.19613373 </i>
   </energy>
  </scstep>
  <scstep>
   <time name="diag">    1.56    1.56</time>
   <time name="diis">    4.09    4.10</time>
   <time name="orth">    0.43    0.43</time>
   <time name="total">    6.39    6.41</time>
   <dipole>
    <v name="dipole">      0.00000000       0.00000000       1.06484411 </v>
    <i name="Tr[quadrupol]"> -11069.53621611 </i>
    <i name="Echarged">      0.00000000 </i>
    <i name="Edipol_quadrupol">      0.00000000 </i>
    <i name="Eion">      0.00000000 </i>
   </dipole>
   <energy>
    <i name="e_fr_energy">   -224.34195586 </i>
    <i name="e_wo_entrp">   -224.11006075 </i>
    <i name="e_0_energy">   -224.22600831 </i>
   </energy>
  </scstep>
  <scstep>
   <time name="diag">    1.55    1.56</time>
   <time name="diis">    4.12    4.13</time>
   <time name="orth">    0.43    0.43</time>
   <time name="total">    6.40    6.42</time>
   <dipole>
    <v name="dipole">      0.00000000       0.00000000       1.12600990 </v>
    <i name="Tr[quadrupol]"> -11069.88462090 </i>
    <i name="Echarged">      0.00000000 </i>
    <i name="Edipol_quadrupol">      0.00000000 </i>
    <i name="Eion">      0.00000000 </i>
   </dipole>
   <energy>
    <i name="e_fr_energy">   -220.12519146 </i>
    <i name="e_wo_entrp">   -219.78875723 </i>
    <i name="e_0_energy">   -219.95697434 </i>
   </energy>
  </scstep>
  <scstep>
   <time name="diag">    1.56    1.56</time>
   <time name="diis">    4.00    4.10</time>
   <time name="orth">    0.43    0.43</time>
   <time name="total">    6.30    6.40</time>
   <dipole>
    <v name="dipole">      0.00000000       0.00000000       1.19489855 </v>
    <i name="Tr[quadrupol]"> -11069.92990268 </i>
    <i name="Echarged">      0.00000000 </i>
    <i name="Edipol_quadrupol">      0.00000000 </i>
    <i name="Eion">      0.00000000 </i>
   </dipole>
   <energy>
    <i name="e_fr_energy">   -219.86094695 </i>
    <i name="e_wo_entrp">   -219.54281577 </i>
    <i name="e_0_energy">   -219.70188136 </i>
   </energy>
  </scstep>
  <scstep>
   <time name="diag">    1.54    1.55</time>
   <time name="diis">    4.06    4.10</time>
   <time name="orth">    0.43    0.43</time>
   <time name="total">    6.34    6.39</time>
   <dipole>
    <v name="dipole">      0.00000000       0.00000000       1.22299692 </v>
    <i name="Tr[quadrupol]"> -11069.90183722 </i>
    <i name="Echarged">      0.00000000 </i>
    <i name="Edipol_quadrupol">      0.00000000 </i>
    <i name="Eion">      0.00000000 </i>
   </dipole>
   <energy>
    <i name="e_fr_energy">   -219.72940320 </i>
    <i name="e_wo_entrp">   -219.39797354 </i>
    <i name="e_0_energy">   -219.56368837 </i>
   </energy>
  </scstep>
  <scstep>
   <time name="diag">    1.56    1.56</time>
   <time name="diis">    4.10    4.11</time>
   <time name="orth">    0.43    0.43</time>
   <time name="total">    6.41    6.42</time>
   <dipole>
    <v name="dipole">      0.00000000       0.00000000       1.23594744 </v>
    <i name="Tr[quadrupol]"> -11069.86753028 </i>
    <i name="Echarged">      0.00000000 </i>
    <i name="Edipol_quadrupol">      0.00000000 </i>
    <i name="Eion">      0.00000000 </i>
   </dipole>
   <energy>
    <i name="e_fr_energy">   -219.74855650 </i>
    <i name="e_wo_entrp">   -219.41174187 </i>
    <i name="e_0_energy">   -219.58014919 </i>
   </energy>
  </scstep>
  <scstep>
   <time name="diag">    1.55    1.55</time>
   <time name="diis">    4.08    4.09</time>
   <time name="orth">    0.43    0.43</time>
   <time name="total">    6.36    6.38</time>
   <dipole>
    <v name="dipole">      0.00000000       0.00000000       1.24658228 </v>
    <i name="Tr[quadrupol]"> -11069.91179767 </i>
    <i name="Echarged">      0.00000000 </i>
    <i name="Edipol_quadrupol">      0.00000000 </i>
    <i name="Eion">      0.00000000 </i>
   </dipole>
   <energy>
    <i name="e_fr_energy">   -219.80832519 </i>
    <i name="e_wo_entrp">   -219.47787348 </i>
    <i name="e_0_energy">   -219.64309933 </i>
   </energy>
  </scstep>
  <scstep>
   <time name="diag">    1.55    1.56</time>
   <time name="diis">    4.15    4.16</time>
   <time name="orth">    0.43    0.43</time>
   <time name="total">    6.44    6.46</time>
   <dipole>
    <v name="dipole">      0.00000000       0.00000000       1.27046474 </v>
    <i name="Tr[quadrupol]"> -11070.05818282 </i>
    <i name="Echarged">      0.00000000 </i>
    <i name="Edipol_quadrupol">      0.00000000 </i>
    <i name="Eion">      0.00000000 </i>
   </dipole>
   <energy>
    <i name="e_fr_energy">   -219.71196550 </i>
    <i name="e_wo_entrp">   -219.36241630 </i>
    <i name="e_0_energy">   -219.53719090 </i>
   </energy>
  </scstep>
  <scstep>
   <time name="diag">    1.55    1.55</time>
   <time name="diis">    4.08    4.09</time>
   <time name="orth">    0.43    0.43</time>
   <time name="total">    6.36    6.38</time>
   <dipole>
    <v name="dipole">      0.00000000       0.00000000       1.29079915 </v>
    <i name="Tr[quadrupol]"> -11070.20438898 </i>
    <i name="Echarged">      0.00000000 </i>
    <i name="Edipol_quadrupol">      0.00000000 </i>
    <i name="Eion">      0.00000000 </i>
   </dipole>
   <energy>
    <i name="e_fr_energy">   -219.76906835 </i>
    <i name="e_wo_entrp">   -219.39130128 </i>
    <i name="e_0_energy">   -219.58018481 </i>
   </energy>
  </scstep>
  <scstep>
   <time name="diag">    1.56    1.57</time>
   <time name="diis">    4.00    4.10</time>
   <time name="orth">    0.43    0.43</time>
   <time name="total">    6.30    6.41</time>
   <dipole>
    <v name="dipole">      0.00000000       0.00000000       1.29307287 </v>
    <i name="Tr[quadrupol]"> -11070.26094353 </i>
    <i name="Echarged">      0.00000000 </i>
    <i name="Edipol_quadrupol">      0.00000000 </i>
    <i name="Eion">      0.00000000 </i>
   </dipole>
   <energy>
    <i name="e_fr_energy">   -219.64323386 </i>
    <i name="e_wo_entrp">   -219.28475369 </i>
    <i name="e_0_energy">   -219.46399377 </i>
   </energy>
  </scstep>
  <scstep>
   <time name="diag">    1.55    1.55</time>
   <time name="diis">    4.16    4.17</time>
   <time name="orth">    0.43    0.43</time>
   <time name="total">    6.45    6.47</time>
   <dipole>
    <v name="dipole">      0.00000000       0.00000000       1.29907239 </v>
    <i name="Tr[quadrupol]"> -11070.36343971 </i>
    <i name="Echarged">      0.00000000 </i>
    <i name="Edipol_quadrupol">      0.00000000 </i>
    <i name="Eion">      0.00000000 </i>
   </dipole>
   <energy>
    <i name="e_fr_energy">   -219.59781937 </i>
    <i name="e_wo_entrp">   -219.22603141 </i>
    <i name="e_0_energy">   -219.41192539 </i>
   </energy>
  </scstep>
  <scstep>
   <time name="diag">    1.55    1.56</time>
   <time name="diis">    4.14    4.15</time>
   <time name="orth">    0.43    0.43</time>
   <time name="total">    6.43    6.45</time>
   <dipole>
    <v name="dipole">      0.00000000       0.00000000       1.29935798 </v>
    <i name="Tr[quadrupol]"> -11070.38937192 </i>
    <i name="Echarged">      0.00000000 </i>
    <i name="Edipol_quadrupol">      0.00000000 </i>
    <i name="Eion">      0.00000000 </i>
   </dipole>
   <energy>
    <i name="e_fr_energy">   -219.59643959 </i>
    <i name="e_wo_entrp">   -219.22911430 </i>
    <i name="e_0_energy">   -219.41277694 </i>
   </energy>
  </scstep>
  <scstep>
   <time name="diag">    1.55    1.55</time>
   <time name="diis">    4.08    4.09</time>
   <time name="orth">    0.43    0.43</time>
   <time name="total">    6.36    6.38</time>
   <dipole>
    <v name="dipole">      0.00000000       0.00000000       1.30147995 </v>
    <i name="Tr[quadrupol]"> -11070.41768909 </i>
    <i name="Echarged">      0.00000000 </i>
    <i name="Edipol_quadrupol">      0.00000000 </i>
    <i name="Eion">      0.00000000 </i>
   </dipole>
   <energy>
    <i name="e_fr_energy">   -219.59372560 </i>
    <i name="e_wo_entrp">   -219.22346228 </i>
    <i name="e_0_energy">   -219.40859394 </i>
   </energy>
  </scstep>
  <scstep>
   <time name="diag">    1.56    1.57</time>
   <time name="diis">    4.11    4.12</time>
   <time name="orth">    0.43    0.43</time>
   <time name="total">    6.41    6.44</time>
   <dipole>
    <v name="dipole">      0.00000000       0.00000000       1.30648888 </v>
    <i name="Tr[quadrupol]"> -11070.46843525 </i>
    <i name="Echarged">      0.00000000 </i>
    <i name="Edipol_quadrupol">      0.00000000 </i>
    <i name="Eion">      0.00000000 </i>
   </dipole>
   <energy>
    <i name="e_fr_energy">   -219.59148764 </i>
    <i name="e_wo_entrp">   -219.22612645 </i>
    <i name="e_0_energy">   -219.40880705 </i>
   </energy>
  </scstep>
  <scstep>
   <time name="diag">    1.54    1.55</time>
   <time name="diis">    4.14    4.15</time>
   <time name="orth">    0.43    0.43</time>
   <time name="total">    6.42    6.45</time>
   <dipole>
    <v name="dipole">      0.00000000       0.00000000       1.31292162 </v>
    <i name="Tr[quadrupol]"> -11070.55390829 </i>
    <i name="Echarged">      0.00000000 </i>
    <i name="Edipol_quadrupol">      0.00000000 </i>
    <i name="Eion">      0.00000000 </i>
   </dipole>
   <energy>
    <i name="e_fr_energy">   -219.58886021 </i>
    <i name="e_wo_entrp">   -219.22185881 </i>
    <i name="e_0_energy">   -219.40535951 </i>
   </energy>
  </scstep>
  <scstep>
   <time name="diag">    1.56    1.56</time>
   <time name="diis">    4.18    4.19</time>
   <time name="orth">    0.42    0.46</time>
   <time name="total">    6.47    6.54</time>
   <dipole>
    <v name="dipole">      0.00000000       0.00000000       1.31758423 </v>
    <i name="Tr[quadrupol]"> -11070.60465877 </i>
    <i name="Echarged">      0.00000000 </i>
    <i name="Edipol_quadrupol">      0.00000000 </i>
    <i name="Eion">      0.00000000 </i>
   </dipole>
   <energy>
    <i name="e_fr_energy">   -219.58728134 </i>
    <i name="e_wo_entrp">   -219.21990917 </i>
    <i name="e_0_energy">   -219.40359526 </i>
   </energy>
  </scstep>
  <scstep>
   <time name="diag">    1.55    1.56</time>
   <time name="diis">    4.12    4.13</time>
   <time name="orth">    0.43    0.43</time>
   <time name="total">    6.40    6.44</time>
   <dipole>
    <v name="dipole">      0.00000000       0.00000000       1.32129191 </v>
    <i name="Tr[quadrupol]"> -11070.65135706 </i>
    <i name="Echarged">      0.00000000 </i>
    <i name="Edipol_quadrupol">      0.00000000 </i>
    <i name="Eion">      0.00000000 </i>
   </dipole>
   <energy>
    <i name="e_fr_energy">   -219.58755683 </i>
    <i name="e_wo_entrp">   -219.21953921 </i>
    <i name="e_0_energy">   -219.40354802 </i>
   </energy>
  </scstep>
  <scstep>
   <time name="diag">    1.55    1.56</time>
   <time name="diis">    4.16    4.17</time>
   <time name="orth">    0.43    0.43</time>
   <time name="total">    6.46    6.48</time>
   <dipole>
    <v name="dipole">      0.00000000       0.00000000       1.32597050 </v>
    <i name="Tr[quadrupol]"> -11070.69782432 </i>
    <i name="Echarged">      0.00000000 </i>
    <i name="Edipol_quadrupol">      0.00000000 </i>
    <i name="Eion">      0.00000000 </i>
   </dipole>
   <energy>
    <i name="e_fr_energy">   -219.58801511 </i>
    <i name="e_wo_entrp">   -219.21996389 </i>
    <i name="e_0_energy">   -219.40398950 </i>
   </energy>
  </scstep>
  <scstep>
   <time name="diag">    1.54    1.55</time>
   <time name="diis">    4.14    4.15</time>
   <time name="orth">    0.43    0.43</time>
   <time name="total">    6.42    6.44</time>
   <dipole>
    <v name="dipole">      0.00000000       0.00000000       1.33076376 </v>
    <i name="Tr[quadrupol]"> -11070.72368459 </i>
    <i name="Echarged">      0.00000000 </i>
    <i name="Edipol_quadrupol">      0.00000000 </i>
    <i name="Eion">      0.00000000 </i>
   </dipole>
   <energy>
    <i name="e_fr_energy">   -219.58829423 </i>
    <i name="e_wo_entrp">   -219.22082672 </i>
    <i name="e_0_energy">   -219.40456047 </i>
   </energy>
  </scstep>
  <scstep>
   <time name="diag">    1.56    1.56</time>
   <time name="diis">    4.13    4.15</time>
   <time name="orth">    0.43    0.43</time>
   <time name="total">    6.43    6.45</time>
   <dipole>
    <v name="dipole">      0.00000000       0.00000000       1.33710035 </v>
    <i name="Tr[quadrupol]"> -11070.76108907 </i>
    <i name="Echarged">      0.00000000 </i>
    <i name="Edipol_quadrupol">      0.00000000 </i>
    <i name="Eion">      0.00000000 </i>
   </dipole>
   <energy>
    <i name="e_fr_energy">   -219.58866377 </i>
    <i name="e_wo_entrp">   -219.22154596 </i>
    <i name="e_0_energy">   -219.40510486 </i>
   </energy>
  </scstep>
  <scstep>
   <time name="diag">    1.55    1.56</time>
   <time name="diis">    4.14    4.16</time>
   <time name="orth">    0.43    0.43</time>
   <time name="total">    6.42    6.45</time>
   <dipole>
    <v name="dipole">      0.00000000       0.00000000       1.34509795 </v>
    <i name="Tr[quadrupol]"> -11070.81559439 </i>
    <i name="Echarged">      0.00000000 </i>
    <i name="Edipol_quadrupol">      0.00000000 </i>
    <i name="Eion">      0.00000000 </i>
   </dipole>
   <energy>
    <i name="e_fr_energy">   -219.58911660 </i>
    <i name="e_wo_entrp">   -219.22154455 </i>
    <i name="e_0_energy">   -219.40533058 </i>
   </energy>
  </scstep>
  <scstep>
   <time name="diag">    1.55    1.56</time>
   <time name="diis">    4.07    4.08</time>
   <time name="orth">    0.43    0.43</time>
   <time name="total">    6.36    6.39</time>
   <dipole>
    <v name="dipole">      0.00000000       0.00000000       1.34860782 </v>
    <i name="Tr[quadrupol]"> -11070.83945213 </i>
    <i name="Echarged">      0.00000000 </i>
    <i name="Edipol_quadrupol">      0.00000000 </i>
    <i name="Eion">      0.00000000 </i>
   </dipole>
   <energy>
    <i name="e_fr_energy">   -219.58931203 </i>
    <i name="e_wo_entrp">   -219.22148057 </i>
    <i name="e_0_energy">   -219.40539630 </i>
   </energy>
  </scstep>
  <scstep>
   <time name="diag">    1.52    1.59</time>
   <time name="diis">    4.13    4.14</time>
   <time name="orth">    0.43    0.43</time>
   <time name="total">    6.39    6.48</time>
   <dipole>
    <v name="dipole">      0.00000000       0.00000000       1.35623096 </v>
    <i name="Tr[quadrupol]"> -11070.88724732 </i>
    <i name="Echarged">      0.00000000 </i>
    <i name="Edipol_quadrupol">      0.00000000 </i>
    <i name="Eion">      0.00000000 </i>
   </dipole>
   <energy>
    <i name="e_fr_energy">   -219.58972163 </i>
    <i name="e_wo_entrp">   -219.22160513 </i>
    <i name="e_0_energy">   -219.40566338 </i>
   </energy>
  </scstep>
  <scstep>
   <time name="diag">    1.57    1.57</time>
   <time name="diis">    3.96    3.98</time>
   <time name="orth">    0.43    0.43</time>
   <time name="total">    6.27    6.29</time>
   <dipole>
    <v name="dipole">      0.00000000       0.00000000       1.36293241 </v>
    <i name="Tr[quadrupol]"> -11070.92476755 </i>
    <i name="Echarged">      0.00000000 </i>
    <i name="Edipol_quadrupol">      0.00000000 </i>
    <i name="Eion">      0.00000000 </i>
   </dipole>
   <energy>
    <i name="e_fr_energy">   -219.59004342 </i>
    <i name="e_wo_entrp">   -219.22209366 </i>
    <i name="e_0_energy">   -219.40606854 </i>
   </energy>
  </scstep>
  <scstep>
   <time name="diag">    1.55    1.55</time>
   <time name="diis">    4.01    4.02</time>
   <time name="orth">    0.43    0.43</time>
   <time name="total">    6.29    6.31</time>
   <dipole>
    <v name="dipole">      0.00000000       0.00000000       1.37264514 </v>
    <i name="Tr[quadrupol]"> -11070.97406597 </i>
    <i name="Echarged">      0.00000000 </i>
    <i name="Edipol_quadrupol">      0.00000000 </i>
    <i name="Eion">      0.00000000 </i>
   </dipole>
   <energy>
    <i name="e_fr_energy">   -219.59043306 </i>
    <i name="e_wo_entrp">   -219.22268431 </i>
    <i name="e_0_energy">   -219.40655868 </i>
   </energy>
  </scstep>
  <scstep>
   <time name="diag">    1.55    1.56</time>
   <time name="diis">    3.77    3.78</time>
   <time name="orth">    0.43    0.43</time>
   <time name="total">    6.08    6.10</time>
   <dipole>
    <v name="dipole">      0.00000000       0.00000000       1.37904324 </v>
    <i name="Tr[quadrupol]"> -11071.00679093 </i>
    <i name="Echarged">      0.00000000 </i>
    <i name="Edipol_quadrupol">      0.00000000 </i>
    <i name="Eion">      0.00000000 </i>
   </dipole>
   <energy>
    <i name="e_fr_energy">   -219.59062162 </i>
    <i name="e_wo_entrp">   -219.22288238 </i>
    <i name="e_0_energy">   -219.40675200 </i>
   </energy>
  </scstep>
  <scstep>
   <time name="diag">    1.54    1.54</time>
   <time name="diis">    3.27    3.28</time>
   <time name="orth">    0.43    0.43</time>
   <time name="total">    5.55    5.56</time>
   <dipole>
    <v name="dipole">      0.00000000       0.00000000       1.38283535 </v>
    <i name="Tr[quadrupol]"> -11071.02480701 </i>
    <i name="Echarged">      0.00000000 </i>
    <i name="Edipol_quadrupol">      0.00000000 </i>
    <i name="Eion">      0.00000000 </i>
   </dipole>
   <energy>
    <i name="e_fr_energy">   -219.59070139 </i>
    <i name="e_wo_entrp">   -219.22293315 </i>
    <i name="e_0_energy">   -219.40681727 </i>
   </energy>
  </scstep>
  <scstep>
   <time name="diag">    1.55    1.55</time>
   <time name="diis">    3.05    3.06</time>
   <time name="orth">    0.43    0.43</time>
   <time name="total">    5.34    5.36</time>
   <dipole>
    <v name="dipole">      0.00000000       0.00000000       1.38627973 </v>
    <i name="Tr[quadrupol]"> -11071.04078180 </i>
    <i name="Echarged">      0.00000000 </i>
    <i name="Edipol_quadrupol">      0.00000000 </i>
    <i name="Eion">      0.00000000 </i>
   </dipole>
   <energy>
    <i name="e_fr_energy">   -219.59075678 </i>
    <i name="e_wo_entrp">   -219.22288851 </i>
    <i name="e_0_energy">   -219.40682264 </i>
   </energy>
  </scstep>
  <scstep>
   <time name="diag">    1.55    1.56</time>
   <time name="diis">    2.83    2.84</time>
   <time name="orth">    0.42    0.44</time>
   <time name="total">    5.12    5.18</time>
   <dipole>
    <v name="dipole">      0.00000000       0.00000000       1.39016387 </v>
    <i name="Tr[quadrupol]"> -11071.05674006 </i>
    <i name="Echarged">      0.00000000 </i>
    <i name="Edipol_quadrupol">      0.00000000 </i>
    <i name="Eion">      0.00000000 </i>
   </dipole>
   <energy>
    <i name="e_fr_energy">   -219.59080969 </i>
    <i name="e_wo_entrp">   -219.22291143 </i>
    <i name="e_0_energy">   -219.40686056 </i>
   </energy>
  </scstep>
  <scstep>
   <time name="diag">    1.54    1.56</time>
   <time name="diis">    2.54    2.55</time>
   <time name="orth">    0.42    0.43</time>
   <time name="total">    4.83    4.87</time>
   <dipole>
    <v name="dipole">      0.00000000       0.00000000       1.39211391 </v>
    <i name="Tr[quadrupol]"> -11071.06338131 </i>
    <i name="Echarged">      0.00000000 </i>
    <i name="Edipol_quadrupol">      0.00000000 </i>
    <i name="Eion">      0.00000000 </i>
   </dipole>
   <energy>
    <i name="e_fr_energy">   -219.59083965 </i>
    <i name="e_wo_entrp">   -219.22291437 </i>
    <i name="e_0_energy">   -219.40687701 </i>
   </energy>
  </scstep>
  <scstep>
   <time name="diag">    1.55    1.55</time>
   <time name="diis">    2.52    2.53</time>
   <time name="orth">    0.42    0.43</time>
   <time name="total">    4.81    4.83</time>
   <dipole>
    <v name="dipole">      0.00000000       0.00000000       1.39495394 </v>
    <i name="Tr[quadrupol]"> -11071.07155770 </i>
    <i name="Echarged">      0.00000000 </i>
    <i name="Edipol_quadrupol">      0.00000000 </i>
    <i name="Eion">      0.00000000 </i>
   </dipole>
   <energy>
    <i name="e_fr_energy">   -219.59088613 </i>
    <i name="e_wo_entrp">   -219.22296076 </i>
    <i name="e_0_energy">   -219.40692344 </i>
   </energy>
  </scstep>
  <scstep>
   <time name="diag">    1.56    1.56</time>
   <time name="diis">    2.49    2.50</time>
   <time name="orth">    0.42    0.42</time>
   <time name="total">    4.79    4.81</time>
   <dipole>
    <v name="dipole">      0.00000000       0.00000000       1.39756140 </v>
    <i name="Tr[quadrupol]"> -11071.07840981 </i>
    <i name="Echarged">      0.00000000 </i>
    <i name="Edipol_quadrupol">      0.00000000 </i>
    <i name="Eion">      0.00000000 </i>
   </dipole>
   <energy>
    <i name="e_fr_energy">   -219.59092548 </i>
    <i name="e_wo_entrp">   -219.22299934 </i>
    <i name="e_0_energy">   -219.40696241 </i>
   </energy>
  </scstep>
  <scstep>
   <time name="diag">    1.55    1.55</time>
   <time name="diis">    2.50    2.51</time>
   <time name="orth">    0.42    0.43</time>
   <time name="total">    4.78    4.80</time>
   <dipole>
    <v name="dipole">      0.00000000       0.00000000       1.39989149 </v>
    <i name="Tr[quadrupol]"> -11071.08415726 </i>
    <i name="Echarged">      0.00000000 </i>
    <i name="Edipol_quadrupol">      0.00000000 </i>
    <i name="Eion">      0.00000000 </i>
   </dipole>
   <energy>
    <i name="e_fr_energy">   -219.59095348 </i>
    <i name="e_wo_entrp">   -219.22302171 </i>
    <i name="e_0_energy">   -219.40698759 </i>
   </energy>
  </scstep>
  <scstep>
   <time name="diag">    1.55    1.55</time>
   <time name="diis">    2.49    2.50</time>
   <time name="orth">    0.42    0.43</time>
   <time name="total">    4.79    4.80</time>
   <dipole>
    <v name="dipole">      0.00000000       0.00000000       1.40160058 </v>
    <i name="Tr[quadrupol]"> -11071.08785951 </i>
    <i name="Echarged">      0.00000000 </i>
    <i name="Edipol_quadrupol">      0.00000000 </i>
    <i name="Eion">      0.00000000 </i>
   </dipole>
   <energy>
    <i name="e_fr_energy">   -219.59096968 </i>
    <i name="e_wo_entrp">   -219.22302551 </i>
    <i name="e_0_energy">   -219.40699760 </i>
   </energy>
  </scstep>
  <scstep>
   <time name="diag">    1.54    1.55</time>
   <time name="diis">    2.17    2.19</time>
   <time name="orth">    0.43    0.43</time>
   <time name="total">    4.45    4.49</time>
   <dipole>
    <v name="dipole">      0.00000000       0.00000000       1.40251550 </v>
    <i name="Tr[quadrupol]"> -11071.08980592 </i>
    <i name="Echarged">      0.00000000 </i>
    <i name="Edipol_quadrupol">      0.00000000 </i>
    <i name="Eion">      0.00000000 </i>
   </dipole>
   <energy>
    <i name="e_fr_energy">   -219.59097601 </i>
    <i name="e_wo_entrp">   -219.22301875 </i>
    <i name="e_0_energy">   -219.40699738 </i>
   </energy>
  </scstep>
  <scstep>
   <time name="diag">    1.54    1.56</time>
   <time name="diis">    2.30    2.31</time>
   <time name="orth">    0.42    0.43</time>
   <time name="total">    4.59    4.61</time>
   <dipole>
    <v name="dipole">      0.00000000       0.00000000       1.40334046 </v>
    <i name="Tr[quadrupol]"> -11071.09104211 </i>
    <i name="Echarged">      0.00000000 </i>
    <i name="Edipol_quadrupol">      0.00000000 </i>
    <i name="Eion">      0.00000000 </i>
   </dipole>
   <energy>
    <i name="e_fr_energy">   -219.59098094 </i>
    <i name="e_wo_entrp">   -219.22302196 </i>
    <i name="e_0_energy">   -219.40700145 </i>
   </energy>
  </scstep>
  <scstep>
   <time name="diag">    1.55    1.55</time>
   <time name="diis">    1.80    1.81</time>
   <time name="orth">    0.42    0.43</time>
   <time name="total">    3.83    3.84</time>
   <dipole>
    <v name="dipole">      0.00000000       0.00000000       1.40354587 </v>
    <i name="Tr[quadrupol]"> -11071.09134334 </i>
    <i name="Echarged">      0.00000000 </i>
    <i name="Edipol_quadrupol">      0.00000000 </i>
    <i name="Eion">      0.00000000 </i>
   </dipole>
   <energy>
    <i name="alphaZ">    887.97537157 </i>
    <i name="ewald"> 255927.48892141 </i>
    <i name="hartreedc">-300909.40225958 </i>
    <i name="XCdc">   -123.79732229 </i>
    <i name="pawpsdc">  52973.56386712 </i>
    <i name="pawaedc"> -51071.88558075 </i>
    <i name="eentropy">     -0.36796422 </i>
    <i name="bandstr">  -3021.05745578 </i>
    <i name="atom">  45117.89144060 </i>
    <i name="e_fr_energy">   -219.59098192 </i>
    <i name="e_wo_entrp">   -219.22301770 </i>
    <i name="e_0_energy">   -219.40699981 </i>
   </energy>
  </scstep>
  <structure>
   <crystal>
    <varray name="basis" >
     <v>      11.00258152       0.00000000       0.00000000 </v>
     <v>       5.50129076       9.52851510       0.00000000 </v>
     <v>       0.00000000       0.00000000      26.19178509 </v>
    </varray>
    <i name="volume">   2745.90128299 </i>
    <varray name="rec_basis" >
     <v>       0.09088776      -0.05247407       0.00000000 </v>
     <v>       0.00000000       0.10494815       0.00000000 </v>
     <v>       0.00000000       0.00000000       0.03817991 </v>
    </varray>
   </crystal>
   <varray name="positions" >
    <v>       0.08333333       0.08333333       0.38179910 </v>
    <v>       0.25000000       0.50000000       0.55329505 </v>
    <v>       0.75000000       0.00000000       0.55329505 </v>
    <v>       0.83333333       0.83333333       0.38179910 </v>
    <v>       0.66666667       0.41666667       0.46754708 </v>
    <v>       0.83333333       0.33333333       0.38179910 </v>
    <v>       0.08333333       0.33333333       0.38179910 </v>
    <v>       0.91666667       0.41666667       0.46754708 </v>
    <v>       0.00000000       0.25000000       0.55329505 </v>
    <v>       0.08333333       0.58333333       0.38179910 </v>
    <v>       0.91666667       0.66666667       0.46754708 </v>
    <v>       0.91666667       0.91666667       0.46754708 </v>
    <v>       0.00000000       0.50000000       0.55329505 </v>
    <v>       0.16666667       0.66666667       0.46754708 </v>
    <v>       0.00000000       0.75000000       0.55329505 </v>
    <v>       0.50000000       0.75000000       0.55329505 </v>
    <v>       0.33333333       0.08333333       0.38179910 </v>
    <v>       0.16666667       0.16666667       0.46754708 </v>
    <v>       0.25000000       0.00000000       0.55329505 </v>
    <v>       0.41666667       0.91666667       0.46754708 </v>
    <v>       0.16666667       0.41666667       0.46754708 </v>
    <v>       0.41666667       0.41666667       0.46754708 </v>
    <v>       0.75000000       0.75000000       0.55329505 </v>
    <v>       0.66666667       0.16666667       0.46754708 </v>
    <v>       0.33333333       0.33333333       0.61820090 </v>
    <v>       0.08333333       0.33333333       0.61820090 </v>
    <v>       0.08333333       0.08333333       0.61820090 </v>
    <v>       0.33333333       0.08333333       0.61820090 </v>
    <v>       0.83333333       0.83333333       0.61820090 </v>
    <v>       0.33333333       0.58333333       0.61820090 </v>
    <v>       0.58333333       0.58333333       0.61820090 </v>
    <v>       0.83333333       0.08333333       0.61820090 </v>
    <v>       0.58333333       0.58333333       0.38179910 </v>
    <v>       0.58333333       0.33333333       0.38179910 </v>
    <v>       0.25000000       0.25000000       0.55329505 </v>
    <v>       0.33333333       0.33333333       0.38179910 </v>
    <v>       0.50000000       0.00000000       0.55329505 </v>
    <v>       0.41666667       0.16666667       0.46754708 </v>
    <v>       0.58333333       0.08333333       0.38179910 </v>
    <v>       0.25000000       0.75000000       0.55329505 </v>
    <v>       0.16666667       0.91666667       0.46754708 </v>
    <v>       0.50000000       0.50000000       0.55329505 </v>
    <v>       0.33333333       0.83333333       0.38179910 </v>
    <v>       0.58333333       0.83333333       0.38179910 </v>
    <v>       0.33333333       0.58333333       0.38179910 </v>
    <v>       0.83333333       0.08333333       0.38179910 </v>
    <v>       0.08333333       0.83333333       0.38179910 </v>
    <v>       0.00000000       0.00000000       0.55329505 </v>
    <v>       0.75000000       0.25000000       0.55329505 </v>
    <v>       0.83333333       0.58333333       0.38179910 </v>
    <v>       0.66666667       0.66666667       0.46754708 </v>
    <v>       0.75000000       0.50000000       0.55329505 </v>
    <v>       0.91666667       0.16666667       0.46754708 </v>
    <v>       0.66666667       0.91666667       0.46754708 </v>
    <v>       0.41666667       0.66666667       0.46754708 </v>
    <v>       0.50000000       0.25000000       0.55329505 </v>
   </varray>
  </structure>
  <varray name="forces" >
   <v>      -0.34656552      -0.53775448      -1.37812947 </v>
   <v>       0.13036742      -0.04146566       2.65301869 </v>
   <v>      -0.43350881       0.61261448       2.34267654 </v>
   <v>      -0.33080604       0.29590413      -1.47036215 </v>
   <v>      -0.13259470       0.32752280       0.46109000 </v>
   <v>      -0.40761988       0.09705052      -1.58902959 </v>
   <v>       0.14226424       0.24060839      -1.86987083 </v>
   <v>      -0.63351078       0.22667358       0.30271074 </v>
   <v>      -0.78434703       0.21041570       2.36868985 </v>
   <v>       0.28902307      -0.03552760      -1.85929407 </v>
   <v>      -0.67418607       0.03313996      -0.13878499 </v>
   <v>       0.53106218       0.55589831      -0.27611796 </v>
   <v>      -0.20656553      -0.00009372       2.30096362 </v>
   <v>       0.73431117       0.41066108       0.01620122 </v>
   <v>       0.45535923      -0.00491524       2.27006407 </v>
   <v>      -0.05141058      -0.43741983       1.86417866 </v>
   <v>       0.53072346      -0.22463792      -1.51876946 </v>
   <v>       0.13295968      -0.19468525       0.24379520 </v>
   <v>      -0.02279935      -0.57155664       2.36461026 </v>
   <v>       0.21870271      -0.47212440       0.04077502 </v>
   <v>       0.51178931      -0.57812652       0.17663406 </v>
   <v>       0.26616516      -0.11620654      -0.32027710 </v>
   <v>      -0.46831210       0.02694249       1.86639142 </v>
   <v>      -0.26670756      -0.12603705       0.06534604 </v>
   <v>       0.50469813      -0.43327042      -2.66596335 </v>
   <v>      -0.06837825       0.40980603      -2.13471581 </v>
   <v>      -0.48268630      -0.39623407      -2.19156457 </v>
   <v>       0.69703308      -0.33848693      -2.72519183 </v>
   <v>      -0.20208803      -0.37160303      -1.97291712 </v>
   <v>       0.19694771       0.44887702      -2.78444927 </v>
   <v>       0.32091830      -0.22746736      -2.93926338 </v>
   <v>       0.37756911       0.47423848      -2.83073670 </v>
   <v>      -0.03393068       0.22431509      -0.56513558 </v>
   <v>      -0.15281300      -0.07418368      -0.84354504 </v>
   <v>       0.57570453      -0.11253712       3.47514931 </v>
   <v>       0.28641614      -0.06312101      -0.87696573 </v>
   <v>      -0.05633021       0.51854647       1.63086788 </v>
   <v>       0.13888321      -0.06335440       0.14254890 </v>
   <v>      -0.04125138       0.11482221      -0.60128982 </v>
   <v>       0.19941276      -0.33768209       1.70679091 </v>
   <v>      -0.11724477      -0.19901142       0.61388089 </v>
   <v>       0.16327484       0.32660863       2.90502097 </v>
   <v>      -0.11124857      -0.32650002      -0.58066480 </v>
   <v>      -0.02298097      -0.14067564      -0.53418402 </v>
   <v>       0.19203660       0.11897079      -0.74008787 </v>
   <v>      -0.07035940       0.08756410      -0.78501955 </v>
   <v>       0.28979607       0.05976768      -0.77147483 </v>
   <v>       0.05540599       0.26863035       2.68485778 </v>
   <v>      -0.03076249      -0.17855127       1.86575567 </v>
   <v>      -0.35059631       0.14213854      -0.81214699 </v>
   <v>      -0.02611708       0.09970789      -0.19040852 </v>
   <v>      -0.60569176       0.19627146       1.79623664 </v>
   <v>      -0.05668333      -0.25123853       0.22177551 </v>
   <v>      -0.41057449       0.26920078       0.16511313 </v>
   <v>       0.00419758       0.09884740      -0.43232727 </v>
   <v>      -0.34635072      -0.04127651       1.85354468 </v>
  </varray>
  <energy>
   <i name="e_fr_energy">   -219.59098192 </i>
   <i name="e_wo_entrp">   -219.40699981 </i>
   <i name="e_0_energy">     -0.36796422 </i>
  </energy>
  <time name="totalsc">  302.32  303.87</time>
 </calculation>
 <calculation>
  <scstep>
   <time name="dav">    8.76    8.86</time>
   <time name="total">    9.07    9.16</time>
   <dipole>
    <v name="dipole">      0.00000000       0.00000000       1.40365391 </v>
    <i name="Tr[quadrupol]"> -11080.00588199 </i>
    <i name="Echarged">      0.00000000 </i>
    <i name="Edipol_quadrupol">      0.00000000 </i>
    <i name="Eion">      0.00000000 </i>
   </dipole>
   <energy>
    <i name="alphaZ">    887.14160080 </i>
    <i name="ewald"> 254876.44171797 </i>
    <i name="hartreedc">-299850.06259302 </i>
    <i name="XCdc">   -123.68929646 </i>
    <i name="pawpsdc">  52973.56428995 </i>
    <i name="pawaedc"> -51071.88600338 </i>
    <i name="eentropy">     -0.27689675 </i>
    <i name="bandstr">  -3031.02781984 </i>
    <i name="atom">  45117.89144060 </i>
    <i name="e_fr_energy">   -221.90356014 </i>
    <i name="e_wo_entrp">   -221.62666338 </i>
    <i name="e_0_energy">   -221.76511176 </i>
   </energy>
  </scstep>
  <scstep>
   <time name="diag">    1.54    1.55</time>
   <time name="diis">    4.10    4.11</time>
   <time name="orth">    0.42    0.43</time>
   <time name="total">    6.37    6.39</time>
   <dipole>
    <v name="dipole">      0.00000000       0.00000000       0.73392463 </v>
    <i name="Tr[quadrupol]"> -11079.51832977 </i>
    <i name="Echarged">      0.00000000 </i>
    <i name="Edipol_quadrupol">      0.00000000 </i>
    <i name="Eion">      0.00000000 </i>
   </dipole>
   <energy>
    <i name="e_fr_energy">   -232.33383266 </i>
    <i name="e_wo_entrp">   -232.01169216 </i>
    <i name="e_0_energy">   -232.17276241 </i>
   </energy>
  </scstep>
  <scstep>
   <time name="diag">    1.56    1.56</time>
   <time name="diis">    4.17    4.18</time>
   <time name="orth">    0.42    0.42</time>
   <time name="total">    6.45    6.47</time>
   <dipole>
    <v name="dipole">      0.00000000       0.00000000       1.29630156 </v>
    <i name="Tr[quadrupol]"> -11080.05112643 </i>
    <i name="Echarged">      0.00000000 </i>
    <i name="Edipol_quadrupol">      0.00000000 </i>
    <i name="Eion">      0.00000000 </i>
   </dipole>
   <energy>
    <i name="e_fr_energy">   -224.43168543 </i>
    <i name="e_wo_entrp">   -224.10230828 </i>
    <i name="e_0_energy">   -224.26699686 </i>
   </energy>
  </scstep>
  <scstep>
   <time name="diag">    1.55    1.56</time>
   <time name="diis">    4.14    4.15</time>
   <time name="orth">    0.42    0.42</time>
   <time name="total">    6.42    6.45</time>
   <dipole>
    <v name="dipole">      0.00000000       0.00000000       1.09749923 </v>
    <i name="Tr[quadrupol]"> -11080.00987302 </i>
    <i name="Echarged">      0.00000000 </i>
    <i name="Edipol_quadrupol">      0.00000000 </i>
    <i name="Eion">      0.00000000 </i>
   </dipole>
   <energy>
    <i name="e_fr_energy">   -225.04765652 </i>
    <i name="e_wo_entrp">   -224.71350510 </i>
    <i name="e_0_energy">   -224.88058081 </i>
   </energy>
  </scstep>
  <scstep>
   <time name="diag">    1.56    1.56</time>
   <time name="diis">    4.13    4.14</time>
   <time name="orth">    0.42    0.42</time>
   <time name="total">    6.41    6.43</time>
   <dipole>
    <v name="dipole">      0.00000000       0.00000000       1.07280296 </v>
    <i name="Tr[quadrupol]"> -11080.29800096 </i>
    <i name="Echarged">      0.00000000 </i>
    <i name="Edipol_quadrupol">      0.00000000 </i>
    <i name="Eion">      0.00000000 </i>
   </dipole>
   <energy>
    <i name="e_fr_energy">   -224.75893532 </i>
    <i name="e_wo_entrp">   -224.39641786 </i>
    <i name="e_0_energy">   -224.57767659 </i>
   </energy>
  </scstep>
  <scstep>
   <time name="diag">    1.55    1.56</time>
   <time name="diis">    4.12    4.13</time>
   <time name="orth">    0.42    0.42</time>
   <time name="total">    6.40    6.42</time>
   <dipole>
    <v name="dipole">      0.00000000       0.00000000       1.13005999 </v>
    <i name="Tr[quadrupol]"> -11080.42914165 </i>
    <i name="Echarged">      0.00000000 </i>
    <i name="Edipol_quadrupol">      0.00000000 </i>
    <i name="Eion">      0.00000000 </i>
   </dipole>
   <energy>
    <i name="e_fr_energy">   -224.13569414 </i>
    <i name="e_wo_entrp">   -223.77532840 </i>
    <i name="e_0_energy">   -223.95551127 </i>
   </energy>
  </scstep>
  <scstep>
   <time name="diag">    1.53    1.60</time>
   <time name="diis">    4.08    4.09</time>
   <time name="orth">    0.42    0.43</time>
   <time name="total">    6.33    6.43</time>
   <dipole>
    <v name="dipole">      0.00000000       0.00000000       1.15703846 </v>
    <i name="Tr[quadrupol]"> -11080.54203787 </i>
    <i name="Echarged">      0.00000000 </i>
    <i name="Edipol_quadrupol">      0.00000000 </i>
    <i name="Eion">      0.00000000 </i>
   </dipole>
   <energy>
    <i name="e_fr_energy">   -224.10523512 </i>
    <i name="e_wo_entrp">   -223.77302573 </i>
    <i name="e_0_energy">   -223.93913042 </i>
   </energy>
  </scstep>
  <scstep>
   <time name="diag">    1.54    1.56</time>
   <time name="diis">    4.13    4.14</time>
   <time name="orth">    0.42    0.43</time>
   <time name="total">    6.40    6.44</time>
   <dipole>
    <v name="dipole">      0.00000000       0.00000000       1.15939777 </v>
    <i name="Tr[quadrupol]"> -11080.66976962 </i>
    <i name="Echarged">      0.00000000 </i>
    <i name="Edipol_quadrupol">      0.00000000 </i>
    <i name="Eion">      0.00000000 </i>
   </dipole>
   <energy>
    <i name="e_fr_energy">   -223.95040491 </i>
    <i name="e_wo_entrp">   -223.61313575 </i>
    <i name="e_0_energy">   -223.78177033 </i>
   </energy>
  </scstep>
  <scstep>
   <time name="diag">    1.54    1.55</time>
   <time name="diis">    4.08    4.09</time>
   <time name="orth">    0.42    0.42</time>
   <time name="total">    6.35    6.37</time>
   <dipole>
    <v name="dipole">      0.00000000       0.00000000       1.16591684 </v>
    <i name="Tr[quadrupol]"> -11080.78004952 </i>
    <i name="Echarged">      0.00000000 </i>
    <i name="Edipol_quadrupol">      0.00000000 </i>
    <i name="Eion">      0.00000000 </i>
   </dipole>
   <energy>
    <i name="e_fr_energy">   -223.88408518 </i>
    <i name="e_wo_entrp">   -223.54883022 </i>
    <i name="e_0_energy">   -223.71645770 </i>
   </energy>
  </scstep>
  <scstep>
   <time name="diag">    1.56    1.56</time>
   <time name="diis">    4.14    4.15</time>
   <time name="orth">    0.42    0.42</time>
   <time name="total">    6.42    6.45</time>
   <dipole>
    <v name="dipole">      0.00000000       0.00000000       1.17152997 </v>
    <i name="Tr[quadrupol]"> -11080.83521330 </i>
    <i name="Echarged">      0.00000000 </i>
    <i name="Edipol_quadrupol">      0.00000000 </i>
    <i name="Eion">      0.00000000 </i>
   </dipole>
   <energy>
    <i name="e_fr_energy">   -223.87937660 </i>
    <i name="e_wo_entrp">   -223.54496819 </i>
    <i name="e_0_energy">   -223.71217239 </i>
   </energy>
  </scstep>
  <scstep>
   <time name="diag">    1.55    1.55</time>
   <time name="diis">    4.16    4.17</time>
   <time name="orth">    0.42    0.42</time>
   <time name="total">    6.43    6.45</time>
   <dipole>
    <v name="dipole">      0.00000000       0.00000000       1.17621484 </v>
    <i name="Tr[quadrupol]"> -11080.85356448 </i>
    <i name="Echarged">      0.00000000 </i>
    <i name="Edipol_quadrupol">      0.00000000 </i>
    <i name="Eion">      0.00000000 </i>
   </dipole>
   <energy>
    <i name="e_fr_energy">   -223.87279052 </i>
    <i name="e_wo_entrp">   -223.54311752 </i>
    <i name="e_0_energy">   -223.70795402 </i>
   </energy>
  </scstep>
  <scstep>
   <time name="diag">    1.56    1.56</time>
   <time name="diis">    4.07    4.08</time>
   <time name="orth">    0.42    0.43</time>
   <time name="total">    6.36    6.38</time>
   <dipole>
    <v name="dipole">      0.00000000       0.00000000       1.17426803 </v>
    <i name="Tr[quadrupol]"> -11080.87643722 </i>
    <i name="Echarged">      0.00000000 </i>
    <i name="Edipol_quadrupol">      0.00000000 </i>
    <i name="Eion">      0.00000000 </i>
   </dipole>
   <energy>
    <i name="e_fr_energy">   -223.87326319 </i>
    <i name="e_wo_entrp">   -223.54270203 </i>
    <i name="e_0_energy">   -223.70798261 </i>
   </energy>
  </scstep>
  <scstep>
   <time name="diag">    1.55    1.56</time>
   <time name="diis">    3.97    4.07</time>
   <time name="orth">    0.42    0.42</time>
   <time name="total">    6.25    6.36</time>
   <dipole>
    <v name="dipole">      0.00000000       0.00000000       1.17150088 </v>
    <i name="Tr[quadrupol]"> -11080.90497621 </i>
    <i name="Echarged">      0.00000000 </i>
    <i name="Edipol_quadrupol">      0.00000000 </i>
    <i name="Eion">      0.00000000 </i>
   </dipole>
   <energy>
    <i name="e_fr_energy">   -223.87036685 </i>
    <i name="e_wo_entrp">   -223.53767010 </i>
    <i name="e_0_energy">   -223.70401848 </i>
   </energy>
  </scstep>
  <scstep>
   <time name="diag">    1.56    1.56</time>
   <time name="diis">    4.12    4.13</time>
   <time name="orth">    0.42    0.43</time>
   <time name="total">    6.41    6.43</time>
   <dipole>
    <v name="dipole">      0.00000000       0.00000000       1.17100466 </v>
    <i name="Tr[quadrupol]"> -11080.90656176 </i>
    <i name="Echarged">      0.00000000 </i>
    <i name="Edipol_quadrupol">      0.00000000 </i>
    <i name="Eion">      0.00000000 </i>
   </dipole>
   <energy>
    <i name="e_fr_energy">   -223.86827940 </i>
    <i name="e_wo_entrp">   -223.53656521 </i>
    <i name="e_0_energy">   -223.70242231 </i>
   </energy>
  </scstep>
  <scstep>
   <time name="diag">    1.55    1.55</time>
   <time name="diis">    4.15    4.16</time>
   <time name="orth">    0.42    0.42</time>
   <time name="total">    6.43    6.45</time>
   <dipole>
    <v name="dipole">      0.00000000       0.00000000       1.17288733 </v>
    <i name="Tr[quadrupol]"> -11080.92161317 </i>
    <i name="Echarged">      0.00000000 </i>
    <i name="Edipol_quadrupol">      0.00000000 </i>
    <i name="Eion">      0.00000000 </i>
   </dipole>
   <energy>
    <i name="e_fr_energy">   -223.86811373 </i>
    <i name="e_wo_entrp">   -223.53733987 </i>
    <i name="e_0_energy">   -223.70272680 </i>
   </energy>
  </scstep>
  <scstep>
   <time name="diag">    1.56    1.57</time>
   <time name="diis">    4.18    4.19</time>
   <time name="orth">    0.42    0.42</time>
   <time name="total">    6.47    6.49</time>
   <dipole>
    <v name="dipole">      0.00000000       0.00000000       1.17250173 </v>
    <i name="Tr[quadrupol]"> -11080.93309303 </i>
    <i name="Echarged">      0.00000000 </i>
    <i name="Edipol_quadrupol">      0.00000000 </i>
    <i name="Eion">      0.00000000 </i>
   </dipole>
   <energy>
    <i name="e_fr_energy">   -223.86807340 </i>
    <i name="e_wo_entrp">   -223.53812552 </i>
    <i name="e_0_energy">   -223.70309946 </i>
   </energy>
  </scstep>
  <scstep>
   <time name="diag">    1.56    1.57</time>
   <time name="diis">    4.11    4.17</time>
   <time name="orth">    0.42    0.43</time>
   <time name="total">    6.40    6.46</time>
   <dipole>
    <v name="dipole">      0.00000000       0.00000000       1.17169252 </v>
    <i name="Tr[quadrupol]"> -11080.94737348 </i>
    <i name="Echarged">      0.00000000 </i>
    <i name="Edipol_quadrupol">      0.00000000 </i>
    <i name="Eion">      0.00000000 </i>
   </dipole>
   <energy>
    <i name="e_fr_energy">   -223.86817448 </i>
    <i name="e_wo_entrp">   -223.53756544 </i>
    <i name="e_0_energy">   -223.70286996 </i>
   </energy>
  </scstep>
  <scstep>
   <time name="diag">    1.56    1.56</time>
   <time name="diis">    4.17    4.18</time>
   <time name="orth">    0.43    0.43</time>
   <time name="total">    6.46    6.48</time>
   <dipole>
    <v name="dipole">      0.00000000       0.00000000       1.16990089 </v>
    <i name="Tr[quadrupol]"> -11080.95859004 </i>
    <i name="Echarged">      0.00000000 </i>
    <i name="Edipol_quadrupol">      0.00000000 </i>
    <i name="Eion">      0.00000000 </i>
   </dipole>
   <energy>
    <i name="e_fr_energy">   -223.86825938 </i>
    <i name="e_wo_entrp">   -223.53838056 </i>
    <i name="e_0_energy">   -223.70331997 </i>
   </energy>
  </scstep>
  <scstep>
   <time name="diag">    1.55    1.55</time>
   <time name="diis">    4.07    4.16</time>
   <time name="orth">    0.42    0.43</time>
   <time name="total">    6.35    6.46</time>
   <dipole>
    <v name="dipole">      0.00000000       0.00000000       1.16911187 </v>
    <i name="Tr[quadrupol]"> -11080.96945680 </i>
    <i name="Echarged">      0.00000000 </i>
    <i name="Edipol_quadrupol">      0.00000000 </i>
    <i name="Eion">      0.00000000 </i>
   </dipole>
   <energy>
    <i name="e_fr_energy">   -223.86832521 </i>
    <i name="e_wo_entrp">   -223.53814096 </i>
    <i name="e_0_energy">   -223.70323309 </i>
   </energy>
  </scstep>
  <scstep>
   <time name="diag">    1.56    1.56</time>
   <time name="diis">    4.04    4.05</time>
   <time name="orth">    0.42    0.42</time>
   <time name="total">    6.34    6.35</time>
   <dipole>
    <v name="dipole">      0.00000000       0.00000000       1.16847343 </v>
    <i name="Tr[quadrupol]"> -11080.97966447 </i>
    <i name="Echarged">      0.00000000 </i>
    <i name="Edipol_quadrupol">      0.00000000 </i>
    <i name="Eion">      0.00000000 </i>
   </dipole>
   <energy>
    <i name="e_fr_energy">   -223.86840653 </i>
    <i name="e_wo_entrp">   -223.53842697 </i>
    <i name="e_0_energy">   -223.70341675 </i>
   </energy>
  </scstep>
  <scstep>
   <time name="diag">    1.55    1.56</time>
   <time name="diis">    3.28    3.28</time>
   <time name="orth">    0.42    0.42</time>
   <time name="total">    5.56    5.57</time>
   <dipole>
    <v name="dipole">      0.00000000       0.00000000       1.16801892 </v>
    <i name="Tr[quadrupol]"> -11080.98382402 </i>
    <i name="Echarged">      0.00000000 </i>
    <i name="Edipol_quadrupol">      0.00000000 </i>
    <i name="Eion">      0.00000000 </i>
   </dipole>
   <energy>
    <i name="e_fr_energy">   -223.86845405 </i>
    <i name="e_wo_entrp">   -223.53847360 </i>
    <i name="e_0_energy">   -223.70346382 </i>
   </energy>
  </scstep>
  <scstep>
   <time name="diag">    1.57    1.57</time>
   <time name="diis">    2.68    2.68</time>
   <time name="orth">    0.42    0.42</time>
   <time name="total">    4.97    4.99</time>
   <dipole>
    <v name="dipole">      0.00000000       0.00000000       1.16736371 </v>
    <i name="Tr[quadrupol]"> -11080.99109805 </i>
    <i name="Echarged">      0.00000000 </i>
    <i name="Edipol_quadrupol">      0.00000000 </i>
    <i name="Eion">      0.00000000 </i>
   </dipole>
   <energy>
    <i name="e_fr_energy">   -223.86853393 </i>
    <i name="e_wo_entrp">   -223.53853101 </i>
    <i name="e_0_energy">   -223.70353247 </i>
   </energy>
  </scstep>
  <scstep>
   <time name="diag">    1.55    1.56</time>
   <time name="diis">    2.76    2.77</time>
   <time name="orth">    0.42    0.43</time>
   <time name="total">    5.05    5.06</time>
   <dipole>
    <v name="dipole">      0.00000000       0.00000000       1.16673364 </v>
    <i name="Tr[quadrupol]"> -11080.99762248 </i>
    <i name="Echarged">      0.00000000 </i>
    <i name="Edipol_quadrupol">      0.00000000 </i>
    <i name="Eion">      0.00000000 </i>
   </dipole>
[...]
       <r>   -19.0061     0.2269    15.9997 </r>
       <r>   -18.9135     0.0029    16.0000 </r>
       <r>   -18.8210     0.0000    16.0000 </r>
       <r>   -18.7284     0.0000    16.0000 </r>
       <r>   -18.6359     0.0000    16.0000 </r>
       <r>   -18.5433     0.0000    16.0000 </r>
       <r>   -18.4508     0.0000    16.0000 </r>
       <r>   -18.3582     0.0000    16.0000 </r>
       <r>   -18.2657     0.0000    16.0000 </r>
       <r>   -18.1731     0.0000    16.0000 </r>
       <r>   -18.0806     0.0000    16.0000 </r>
       <r>   -17.9880     0.0000    16.0000 </r>
       <r>   -17.8954     0.0000    16.0000 </r>
       <r>   -17.8029     0.0000    16.0000 </r>
       <r>   -17.7103     0.0000    16.0000 </r>
       <r>   -17.6178     0.0000    16.0000 </r>
       <r>   -17.5252     0.0000    16.0000 </r>
       <r>   -17.4327     0.0000    16.0000 </r>
       <r>   -17.3401     0.0000    16.0000 </r>
       <r>   -17.2476     0.0000    16.0000 </r>
       <r>   -17.1550     0.0000    16.0000 </r>
       <r>   -17.0625     0.0000    16.0000 </r>
       <r>   -16.9699     0.0000    16.0000 </r>
       <r>   -16.8773     0.0000    16.0000 </r>
       <r>   -16.7848     0.0000    16.0000 </r>
       <r>   -16.6922     0.0000    16.0000 </r>
       <r>   -16.5997     0.0000    16.0000 </r>
       <r>   -16.5071     0.0000    16.0000 </r>
       <r>   -16.4146     0.0000    16.0000 </r>
       <r>   -16.3220     0.0000    16.0000 </r>
       <r>   -16.2295     0.0000    16.0000 </r>
       <r>   -16.1369     0.0000    16.0000 </r>
       <r>   -16.0444     0.0000    16.0000 </r>
       <r>   -15.9518     0.0000    16.0000 </r>
       <r>   -15.8592     0.0000    16.0000 </r>
       <r>   -15.7667     0.0000    16.0000 </r>
       <r>   -15.6741     0.0000    16.0000 </r>
       <r>   -15.5816     0.0000    16.0000 </r>
       <r>   -15.4890     0.0000    16.0000 </r>
       <r>   -15.3965     0.0000    16.0000 </r>
       <r>   -15.3039     0.0000    16.0000 </r>
       <r>   -15.2114     0.0000    16.0000 </r>
       <r>   -15.1188     0.0000    16.0000 </r>
       <r>   -15.0263     0.0000    16.0000 </r>
       <r>   -14.9337     0.0000    16.0000 </r>
       <r>   -14.8411     0.0000    16.0000 </r>
       <r>   -14.7486     0.0000    16.0000 </r>
       <r>   -14.6560     0.0000    16.0000 </r>
       <r>   -14.5635     0.0000    16.0000 </r>
       <r>   -14.4709     0.0000    16.0000 </r>
       <r>   -14.3784     0.0000    16.0000 </r>
       <r>   -14.2858     0.0000    16.0000 </r>
       <r>   -14.1933     0.0000    16.0000 </r>
       <r>   -14.1007     0.0000    16.0000 </r>
       <r>   -14.0082     0.0000    16.0000 </r>
       <r>   -13.9156     0.0000    16.0000 </r>
       <r>   -13.8230     0.0000    16.0000 </r>
       <r>   -13.7305     0.0000    16.0000 </r>
       <r>   -13.6379     0.0000    16.0000 </r>
       <r>   -13.5454     0.0000    16.0000 </r>
       <r>   -13.4528     0.0000    16.0000 </r>
       <r>   -13.3603     0.0000    16.0000 </r>
       <r>   -13.2677     0.0000    16.0000 </r>
       <r>   -13.1752     0.0000    16.0000 </r>
       <r>   -13.0826     0.0000    16.0000 </r>
       <r>   -12.9901     0.0000    16.0000 </r>
       <r>   -12.8975     0.0000    16.0000 </r>
       <r>   -12.8049     0.0000    16.0000 </r>
       <r>   -12.7124     0.0000    16.0000 </r>
       <r>   -12.6198     0.0000    16.0000 </r>
       <r>   -12.5273     0.0000    16.0000 </r>
       <r>   -12.4347     0.0000    16.0000 </r>
       <r>   -12.3422     0.0000    16.0000 </r>
       <r>   -12.2496     0.0000    16.0000 </r>
       <r>   -12.1571     0.0000    16.0000 </r>
       <r>   -12.0645     0.0000    16.0000 </r>
       <r>   -11.9720     0.0000    16.0000 </r>
       <r>   -11.8794     0.0000    16.0000 </r>
       <r>   -11.7868     0.0000    16.0000 </r>
       <r>   -11.6943     0.0000    16.0000 </r>
       <r>   -11.6017     0.0000    16.0000 </r>
       <r>   -11.5092     0.0000    16.0000 </r>
       <r>   -11.4166     0.0000    16.0000 </r>
       <r>   -11.3241     0.0000    16.0000 </r>
       <r>   -11.2315     0.0000    16.0000 </r>
       <r>   -11.1390     0.0000    16.0000 </r>
       <r>   -11.0464     0.0000    16.0000 </r>
       <r>   -10.9539     0.0000    16.0000 </r>
       <r>   -10.8613     0.0000    16.0000 </r>
       <r>   -10.7687     0.0000    16.0000 </r>
       <r>   -10.6762     0.0000    16.0000 </r>
       <r>   -10.5836     0.0000    16.0000 </r>
       <r>   -10.4911     0.0000    16.0000 </r>
       <r>   -10.3985     0.0000    16.0000 </r>
       <r>   -10.3060     0.0000    16.0000 </r>
       <r>   -10.2134     0.0000    16.0000 </r>
       <r>   -10.1209     0.0000    16.0000 </r>
       <r>   -10.0283     0.0000    16.0000 </r>
       <r>    -9.9358     0.0000    16.0000 </r>
       <r>    -9.8432     0.0000    16.0000 </r>
       <r>    -9.7506     0.0000    16.0000 </r>
       <r>    -9.6581     0.0000    16.0000 </r>
       <r>    -9.5655     0.0000    16.0000 </r>
       <r>    -9.4730     0.0072    16.0007 </r>
       <r>    -9.3804     0.3016    16.0286 </r>
       <r>    -9.2879     2.7209    16.2804 </r>
       <r>    -9.1953     6.3094    16.8644 </r>
       <r>    -9.1028     6.7914    17.4930 </r>
       <r>    -9.0102     4.4930    17.9088 </r>
       <r>    -8.9177     0.9400    17.9958 </r>
       <r>    -8.8251     0.0468    18.0001 </r>
       <r>    -8.7325     0.1187    18.0111 </r>
       <r>    -8.6400     1.6010    18.1593 </r>
       <r>    -8.5474     5.3118    18.6509 </r>
       <r>    -8.4549     7.0842    19.3066 </r>
       <r>    -8.3623     8.7818    20.1194 </r>
       <r>    -8.2698     9.2939    20.9796 </r>
       <r>    -8.1772    12.2971    22.1178 </r>
       <r>    -8.0847    17.4574    23.7335 </r>
       <r>    -7.9921    19.2616    25.5163 </r>
       <r>    -7.8996    19.5666    27.3272 </r>
       <r>    -7.8070    23.2764    29.4816 </r>
       <r>    -7.7144    29.3049    32.1939 </r>
       <r>    -7.6219    32.8237    35.2319 </r>
       <r>    -7.5293    34.9682    38.4683 </r>
       <r>    -7.4368    35.0677    41.7140 </r>
       <r>    -7.3442    38.8597    45.3106 </r>
       <r>    -7.2517    49.2592    49.8698 </r>
       <r>    -7.1591    53.4158    54.8137 </r>
       <r>    -7.0666    58.7013    60.2468 </r>
       <r>    -6.9740    65.4783    66.3071 </r>
       <r>    -6.8815    68.6137    72.6576 </r>
       <r>    -6.7889    73.3005    79.4419 </r>
       <r>    -6.6963    70.4015    85.9578 </r>
       <r>    -6.6038    67.0818    92.1666 </r>
       <r>    -6.5112    70.6744    98.7078 </r>
       <r>    -6.4187    75.6886   105.7131 </r>
       <r>    -6.3261    83.4261   113.4346 </r>
       <r>    -6.2336    89.5060   121.7188 </r>
       <r>    -6.1410    89.1685   129.9717 </r>
       <r>    -6.0485    85.7348   137.9069 </r>
       <r>    -5.9559    83.4172   145.6275 </r>
       <r>    -5.8634    80.3669   153.0658 </r>
       <r>    -5.7708    78.3618   160.3186 </r>
       <r>    -5.6782    77.9552   167.5337 </r>
       <r>    -5.5857    80.3755   174.9728 </r>
       <r>    -5.4931    81.6711   182.5318 </r>
       <r>    -5.4006    80.3627   189.9698 </r>
       <r>    -5.3080    83.9946   197.7438 </r>
       <r>    -5.2155    88.5660   205.9410 </r>
       <r>    -5.1229    88.0522   214.0907 </r>
       <r>    -5.0304    85.5730   222.0108 </r>
       <r>    -4.9378    83.9213   229.7781 </r>
       <r>    -4.8453    85.0154   237.6467 </r>
       <r>    -4.7527    87.7032   245.7640 </r>
       <r>    -4.6601    88.5073   253.9558 </r>
       <r>    -4.5676    86.7176   261.9819 </r>
       <r>    -4.4750    90.0005   270.3118 </r>
       <r>    -4.3825    93.6350   278.9782 </r>
       <r>    -4.2899    94.4845   287.7232 </r>
       <r>    -4.1974    91.9139   296.2302 </r>
       <r>    -4.1048    92.8113   304.8203 </r>
       <r>    -4.0123    96.3293   313.7360 </r>
       <r>    -3.9197    98.0409   322.8102 </r>
       <r>    -3.8272    97.1013   331.7973 </r>
       <r>    -3.7346    96.3775   340.7175 </r>
       <r>    -3.6420    96.4569   349.6450 </r>
       <r>    -3.5495    98.5943   358.7704 </r>
       <r>    -3.4569    97.9060   367.8320 </r>
       <r>    -3.3644    93.1964   376.4578 </r>
       <r>    -3.2718    91.5051   384.9270 </r>
       <r>    -3.1793    91.9850   393.4406 </r>
       <r>    -3.0867    94.8055   402.2153 </r>
       <r>    -2.9942    96.4028   411.1378 </r>
       <r>    -2.9016    93.2662   419.7700 </r>
       <r>    -2.8091    95.3109   428.5915 </r>
       <r>    -2.7165    97.1676   437.5848 </r>
       <r>    -2.6239    97.3618   446.5961 </r>
       <r>    -2.5314    93.4386   455.2442 </r>
       <r>    -2.4388    86.4903   463.2493 </r>
       <r>    -2.3463    84.9333   471.1103 </r>
       <r>    -2.2537    88.4250   479.2944 </r>
       <r>    -2.1612    91.7621   487.7874 </r>
       <r>    -2.0686    96.7177   496.7391 </r>
       <r>    -1.9761    99.3759   505.9367 </r>
       <r>    -1.8835    93.1680   514.5599 </r>
       <r>    -1.7910    86.6437   522.5791 </r>
       <r>    -1.6984    85.2456   530.4690 </r>
       <r>    -1.6058    75.4314   537.4505 </r>
       <r>    -1.5133    59.5006   542.9576 </r>
       <r>    -1.4207    51.0190   547.6796 </r>
       <r>    -1.3282    47.5263   552.0784 </r>
       <r>    -1.2356    41.3412   555.9047 </r>
       <r>    -1.1431    31.4156   558.8123 </r>
       <r>    -1.0505    27.1692   561.3270 </r>
       <r>    -0.9580    27.5335   563.8753 </r>
       <r>    -0.8654    27.2932   566.4014 </r>
       <r>    -0.7729    24.0271   568.6253 </r>
       <r>    -0.6803    22.7653   570.7323 </r>
       <r>    -0.5877    24.7319   573.0213 </r>
       <r>    -0.4952    23.5892   575.2046 </r>
       <r>    -0.4026    22.5989   577.2963 </r>
       <r>    -0.3101    21.6635   579.3013 </r>
       <r>    -0.2175    18.8659   581.0474 </r>
       <r>    -0.1250    12.8821   582.2397 </r>
       <r>    -0.0324    11.8352   583.3351 </r>
       <r>     0.0601    12.2929   584.4729 </r>
       <r>     0.1527     9.8113   585.3810 </r>
       <r>     0.2452    12.0647   586.4976 </r>
       <r>     0.3378    15.6789   587.9488 </r>
       <r>     0.4304    19.5820   589.7612 </r>
       <r>     0.5229    20.3716   591.6467 </r>
       <r>     0.6155    17.4779   593.2643 </r>
       <r>     0.7080    17.1915   594.8555 </r>
       <r>     0.8006    15.9790   596.3344 </r>
       <r>     0.8931    13.2791   597.5635 </r>
       <r>     0.9857    12.6148   598.7310 </r>
       <r>     1.0782    13.7710   600.0056 </r>
       <r>     1.1708    12.8750   601.1972 </r>
       <r>     1.2633    12.4476   602.3493 </r>
       <r>     1.3559    14.5104   603.6923 </r>
       <r>     1.4485    13.5806   604.9493 </r>
       <r>     1.5410    12.6424   606.1194 </r>
       <r>     1.6336    14.6691   607.4771 </r>
       <r>     1.7261    15.7893   608.9384 </r>
       <r>     1.8187    17.0702   610.5184 </r>
       <r>     1.9112    19.5057   612.3237 </r>
       <r>     2.0038    18.5431   614.0399 </r>
       <r>     2.0963    16.9250   615.6064 </r>
       <r>     2.1889    15.4250   617.0341 </r>
       <r>     2.2814    15.1466   618.4360 </r>
       <r>     2.3740    14.3864   619.7675 </r>
       <r>     2.4666    12.0567   620.8834 </r>
       <r>     2.5591    15.4463   622.3130 </r>
       <r>     2.6517    14.1281   623.6207 </r>
       <r>     2.7442    11.0465   624.6431 </r>
       <r>     2.8368     8.8851   625.4654 </r>
       <r>     2.9293     8.3808   626.2411 </r>
       <r>     3.0219    11.9781   627.3497 </r>
       <r>     3.1144    16.2217   628.8511 </r>
       <r>     3.2070    16.4536   630.3740 </r>
       <r>     3.2995    14.5583   631.7214 </r>
       <r>     3.3921    15.1744   633.1259 </r>
       <r>     3.4847    17.9828   634.7903 </r>
       <r>     3.5772    18.8360   636.5336 </r>
       <r>     3.6698    16.1522   638.0286 </r>
       <r>     3.7623    15.7196   639.4835 </r>
       <r>     3.8549    18.7880   641.2224 </r>
       <r>     3.9474    20.8378   643.1510 </r>
       <r>     4.0400    17.9855   644.8157 </r>
       <r>     4.1325    16.0706   646.3031 </r>
       <r>     4.2251    18.0272   647.9716 </r>
       <r>     4.3176    20.5911   649.8774 </r>
       <r>     4.4102    19.5080   651.6829 </r>
       <r>     4.5028    21.0140   653.6279 </r>
       <r>     4.5953    25.3497   655.9741 </r>
       <r>     4.6879    24.2146   658.2153 </r>
       <r>     4.7804    24.7712   660.5080 </r>
       <r>     4.8730    27.6187   663.0642 </r>
       <r>     4.9655    28.5473   665.7064 </r>
       <r>     5.0581    29.2215   668.4110 </r>
       <r>     5.1506    23.5919   670.5945 </r>
       <r>     5.2432    12.4593   671.7477 </r>
       <r>     5.3357     2.5784   671.9863 </r>
       <r>     5.4283     0.1459   671.9998 </r>
       <r>     5.5209     0.0019   672.0000 </r>
       <r>     5.6134     0.0000   672.0000 </r>
       <r>     5.7060     0.0000   672.0000 </r>
       <r>     5.7985     0.0000   672.0000 </r>
       <r>     5.8911     0.0000   672.0000 </r>
       <r>     5.9836     0.0000   672.0000 </r>
       <r>     6.0762     0.0000   672.0000 </r>
       <r>     6.1687     0.0000   672.0000 </r>
       <r>     6.2613     0.0000   672.0000 </r>
       <r>     6.3538     0.0000   672.0000 </r>
       <r>     6.4464     0.0000   672.0000 </r>
      </set>
     </set>
    </array>
   </total>
  </dos>
 </calculation>
 <structure name="finalpos" >
  <crystal>
   <varray name="basis" >
    <v>      11.00258152       0.00000000       0.00000000 </v>
    <v>       5.50129076       9.52851510       0.00000000 </v>
    <v>       0.00000000       0.00000000      26.19178509 </v>
   </varray>
   <i name="volume">   2745.90128299 </i>
   <varray name="rec_basis" >
    <v>       0.09088776      -0.05247407       0.00000000 </v>
    <v>       0.00000000       0.10494815       0.00000000 </v>
    <v>       0.00000000       0.00000000       0.03817991 </v>
   </varray>
  </crystal>
  <varray name="positions" >
   <v>       0.08333333       0.08333333       0.38179910 </v>
   <v>       0.24955347       0.50272832       0.56245304 </v>
   <v>       0.72559662       0.00660684       0.56774355 </v>
   <v>       0.83333333       0.83333333       0.38179910 </v>
   <v>       0.66288489       0.42148997       0.47559083 </v>
   <v>       0.83333333       0.33333333       0.38179910 </v>
   <v>       0.08333333       0.33333333       0.38179910 </v>
   <v>       0.91707789       0.41226136       0.47954737 </v>
   <v>      -0.03150336       0.27341751       0.60476025 </v>
   <v>       0.08333333       0.58333333       0.38179910 </v>
   <v>       0.91519678       0.66517876       0.47624460 </v>
   <v>       0.91717929       0.92129794       0.47782469 </v>
   <v>       0.00292560       0.49268502       0.57083189 </v>
   <v>       0.16528119       0.67338777       0.47350922 </v>
   <v>       0.00625167       0.74900414       0.57383168 </v>
   <v>       0.48970545       0.75321946       0.56259933 </v>
   <v>       0.33333333       0.08333333       0.38179910 </v>
   <v>       0.16747354       0.16428385       0.50744848 </v>
   <v>       0.26192349      -0.01025942       0.59988657 </v>
   <v>       0.41171088       0.91855859       0.47264373 </v>
   <v>       0.16964006       0.40782841       0.47753213 </v>
   <v>       0.41585323       0.41977668       0.46987914 </v>
   <v>       0.73809076       0.74687175       0.56400795 </v>
   <v>       0.66758349       0.16625218       0.47140787 </v>
   <v>       0.47663715       0.28687041       0.63268205 </v>
   <v>       0.09056010       0.35998686       0.63833827 </v>
   <v>       0.06875527       0.06672672       0.63475694 </v>
   <v>       0.37217008       0.09210425       0.62662732 </v>
   <v>       0.82451818       0.82092053       0.61881766 </v>
   <v>       0.31419948       0.60319408       0.61992147 </v>
   <v>       0.58580520       0.57425345       0.61613741 </v>
   <v>       0.81453488       0.10453116       0.61210660 </v>
   <v>       0.58333333       0.58333333       0.38179910 </v>
   <v>       0.58333333       0.33333333       0.38179910 </v>
   <v>       0.28712203       0.30245011       0.63233058 </v>
   <v>       0.33333333       0.33333333       0.38179910 </v>
   <v>       0.47347101       0.01993794       0.56101562 </v>
   <v>       0.41336018       0.16684437       0.47040787 </v>
   <v>       0.58333333       0.08333333       0.38179910 </v>
   <v>       0.24788095       0.75839060       0.56642130 </v>
   <v>       0.16566817       0.92258324       0.48024737 </v>
   <v>       0.51524263       0.44509628       0.62113313 </v>
   <v>       0.33333333       0.83333333       0.38179910 </v>
   <v>       0.58333333       0.83333333       0.38179910 </v>
   <v>       0.33333333       0.58333333       0.38179910 </v>
   <v>       0.83333333       0.08333333       0.38179910 </v>
   <v>       0.08333333       0.83333333       0.38179910 </v>
   <v>       0.00064608       0.00100166       0.57509850 </v>
   <v>       0.74684898       0.26166301       0.56406334 </v>
   <v>       0.83333333       0.58333333       0.38179910 </v>
   <v>       0.66430577       0.66690078       0.47236627 </v>
   <v>       0.74404337       0.50087394       0.56653747 </v>
   <v>       0.92160268       0.16645329       0.47499205 </v>
   <v>       0.66183676       0.91866176       0.47405419 </v>
   <v>       0.41252169       0.67066669       0.47106065 </v>
   <v>       0.49268518       0.25456625       0.55696776 </v>
  </varray>
  <varray name="selective"  type="logical" >
   <v type="logical" >  F  F  F </v>
   <v type="logical" >  T  T  T </v>
   <v type="logical" >  T  T  T </v>
   <v type="logical" >  F  F  F </v>
   <v type="logical" >  T  T  T </v>
   <v type="logical" >  F  F  F </v>
   <v type="logical" >  F  F  F </v>
   <v type="logical" >  T  T  T </v>
   <v type="logical" >  T  T  T </v>
   <v type="logical" >  F  F  F </v>
   <v type="logical" >  T  T  T </v>
   <v type="logical" >  T  T  T </v>
   <v type="logical" >  T  T  T </v>
   <v type="logical" >  T  T  T </v>
   <v type="logical" >  T  T  T </v>
   <v type="logical" >  T  T  T </v>
   <v type="logical" >  F  F  F </v>
   <v type="logical" >  T  T  T </v>
   <v type="logical" >  T  T  T </v>
   <v type="logical" >  T  T  T </v>
   <v type="logical" >  T  T  T </v>
   <v type="logical" >  T  T  T </v>
   <v type="logical" >  T  T  T </v>
   <v type="logical" >  T  T  T </v>
   <v type="logical" >  T  T  T </v>
   <v type="logical" >  T  T  T </v>
   <v type="logical" >  T  T  T </v>
   <v type="logical" >  T  T  T </v>
   <v type="logical" >  T  T  T </v>
   <v type="logical" >  T  T  T </v>
   <v type="logical" >  T  T  T </v>
   <v type="logical" >  T  T  T </v>
   <v type="logical" >  F  F  F </v>
   <v type="logical" >  F  F  F </v>
   <v type="logical" >  T  T  T </v>
   <v type="logical" >  F  F  F </v>
   <v type="logical" >  T  T  T </v>
   <v type="logical" >  T  T  T </v>
   <v type="logical" >  F  F  F </v>
   <v type="logical" >  T  T  T </v>
   <v type="logical" >  T  T  T </v>
   <v type="logical" >  T  T  T </v>
   <v type="logical" >  F  F  F </v>
   <v type="logical" >  F  F  F </v>
   <v type="logical" >  F  F  F </v>
   <v type="logical" >  F  F  F </v>
   <v type="logical" >  F  F  F </v>
   <v type="logical" >  T  T  T </v>
   <v type="logical" >  T  T  T </v>
   <v type="logical" >  F  F  F </v>
   <v type="logical" >  T  T  T </v>
   <v type="logical" >  T  T  T </v>
   <v type="logical" >  T  T  T </v>
   <v type="logical" >  T  T  T </v>
   <v type="logical" >  T  T  T </v>
   <v type="logical" >  T  T  T </v>
  </varray>
  <nose>
   <v>      -3.00000000       0.00000000       0.00010000       0.00010000 </v>
  </nose>
 </structure>
</modeling>
