  48  48   0   0
  0.5349325E+02  0.1100258E-08  0.1100258E-08  0.2449179E-08  0.3500000E-15
  1.000000000000000E-004
  CAR 
 unknown system                          
      6.38852917     -9.94951568  301     -1.07370060      1.00000000
     -9.950  0.0000E+00  0.0000E+00
     -9.895  0.0000E+00  0.0000E+00
     -9.841  0.0000E+00  0.0000E+00
     -9.786  0.0000E+00  0.0000E+00
     -9.732  0.0000E+00  0.0000E+00
     -9.677  0.0000E+00  0.0000E+00
     -9.623  0.0000E+00  0.0000E+00
     -9.568  0.0000E+00  0.0000E+00
     -9.514  0.1087E-16  0.5921E-18
     -9.459  0.4176E-14  0.2280E-15
     -9.405  0.9310E-12  0.5093E-13
     -9.350  0.1169E-09  0.6415E-11
     -9.296  0.8285E-08  0.4576E-09
     -9.242  0.3328E-06  0.1858E-07
     -9.187  0.7596E-05  0.4323E-06
     -9.133  0.9887E-04  0.5817E-05
     -9.078  0.7360E-03  0.4590E-04
     -9.024  0.3144E-02  0.2171E-03
     -8.969  0.7751E-02  0.6393E-03
     -8.915  0.1128E-01  0.1254E-02
     -8.860  0.1082E-01  0.1843E-02
     -8.806  0.9731E-02  0.2373E-02
     -8.751  0.1051E-01  0.2945E-02
     -8.697  0.9839E-02  0.3481E-02
     -8.642  0.6252E-02  0.3822E-02
     -8.588  0.2576E-02  0.3962E-02
     -8.534  0.9443E-03  0.4013E-02
     -8.479  0.1356E-02  0.4087E-02
     -8.425  0.3120E-02  0.4257E-02
     -8.370  0.5178E-02  0.4539E-02
     -8.316  0.7069E-02  0.4924E-02
     -8.261  0.8473E-02  0.5385E-02
     -8.207  0.8247E-02  0.5835E-02
     -8.152  0.7694E-02  0.6254E-02
     -8.098  0.8689E-02  0.6727E-02
     -8.043  0.9681E-02  0.7254E-02
     -7.989  0.9825E-02  0.7789E-02
     -7.934  0.1100E-01  0.8388E-02
     -7.880  0.1379E-01  0.9139E-02
     -7.826  0.1594E-01  0.1001E-01
     -7.771  0.1543E-01  0.1085E-01
     -7.717  0.1339E-01  0.1158E-01
     -7.662  0.1338E-01  0.1231E-01
     -7.608  0.1768E-01  0.1327E-01
     -7.553  0.2431E-01  0.1459E-01
     -7.499  0.2854E-01  0.1615E-01
     -7.444  0.2815E-01  0.1768E-01
     -7.390  0.2607E-01  0.1910E-01
     -7.335  0.2471E-01  0.2045E-01
     -7.281  0.2404E-01  0.2175E-01
     -7.227  0.2632E-01  0.2319E-01
     -7.172  0.3311E-01  0.2499E-01
     -7.118  0.4135E-01  0.2724E-01
     -7.063  0.4679E-01  0.2979E-01
     -7.009  0.4972E-01  0.3250E-01
     -6.954  0.5466E-01  0.3548E-01
     -6.900  0.6122E-01  0.3881E-01
     -6.845  0.6609E-01  0.4241E-01
     -6.791  0.7224E-01  0.4634E-01
     -6.736  0.8428E-01  0.5093E-01
     -6.682  0.9710E-01  0.5622E-01
     -6.627  0.1026E+00  0.6181E-01
     -6.573  0.1028E+00  0.6741E-01
     -6.519  0.1057E+00  0.7316E-01
     -6.464  0.1151E+00  0.7943E-01
     -6.410  0.1276E+00  0.8638E-01
     -6.355  0.1380E+00  0.9390E-01
     -6.301  0.1435E+00  0.1017E+00
     -6.246  0.1437E+00  0.1095E+00
     -6.192  0.1428E+00  0.1173E+00
     -6.137  0.1456E+00  0.1253E+00
     -6.083  0.1495E+00  0.1334E+00
     -6.028  0.1486E+00  0.1415E+00
     -5.974  0.1431E+00  0.1493E+00
     -5.919  0.1372E+00  0.1568E+00
     -5.865  0.1350E+00  0.1641E+00
     -5.811  0.1362E+00  0.1715E+00
     -5.756  0.1355E+00  0.1789E+00
     -5.702  0.1313E+00  0.1861E+00
     -5.647  0.1292E+00  0.1931E+00
     -5.593  0.1323E+00  0.2003E+00
     -5.538  0.1377E+00  0.2078E+00
     -5.484  0.1418E+00  0.2155E+00
     -5.429  0.1454E+00  0.2234E+00
     -5.375  0.1491E+00  0.2316E+00
     -5.320  0.1538E+00  0.2399E+00
     -5.266  0.1618E+00  0.2487E+00
     -5.211  0.1682E+00  0.2579E+00
     -5.157  0.1697E+00  0.2671E+00
     -5.103  0.1714E+00  0.2765E+00
     -5.048  0.1740E+00  0.2860E+00
     -4.994  0.1712E+00  0.2953E+00
     -4.939  0.1649E+00  0.3043E+00
     -4.885  0.1627E+00  0.3131E+00
     -4.830  0.1652E+00  0.3221E+00
     -4.776  0.1670E+00  0.3312E+00
     -4.721  0.1669E+00  0.3403E+00
     -4.667  0.1680E+00  0.3494E+00
     -4.612  0.1712E+00  0.3588E+00
     -4.558  0.1745E+00  0.3683E+00
     -4.504  0.1761E+00  0.3779E+00
     -4.449  0.1764E+00  0.3875E+00
     -4.395  0.1750E+00  0.3970E+00
     -4.340  0.1711E+00  0.4063E+00
     -4.286  0.1685E+00  0.4155E+00
     -4.231  0.1714E+00  0.4248E+00
     -4.177  0.1790E+00  0.4346E+00
     -4.122  0.1833E+00  0.4446E+00
     -4.068  0.1786E+00  0.4543E+00
     -4.013  0.1701E+00  0.4635E+00
     -3.959  0.1679E+00  0.4727E+00
     -3.904  0.1731E+00  0.4821E+00
     -3.850  0.1790E+00  0.4919E+00
     -3.796  0.1811E+00  0.5017E+00
     -3.741  0.1825E+00  0.5117E+00
     -3.687  0.1879E+00  0.5219E+00
     -3.632  0.1958E+00  0.5326E+00
     -3.578  0.2012E+00  0.5435E+00
     -3.523  0.2009E+00  0.5545E+00
     -3.469  0.1943E+00  0.5650E+00
     -3.414  0.1870E+00  0.5752E+00
     -3.360  0.1849E+00  0.5853E+00
     -3.305  0.1865E+00  0.5955E+00
     -3.251  0.1892E+00  0.6058E+00
     -3.196  0.1923E+00  0.6162E+00
     -3.142  0.1933E+00  0.6268E+00
     -3.088  0.1918E+00  0.6372E+00
     -3.033  0.1890E+00  0.6475E+00
     -2.979  0.1841E+00  0.6575E+00
     -2.924  0.1790E+00  0.6673E+00
     -2.870  0.1789E+00  0.6770E+00
     -2.815  0.1840E+00  0.6870E+00
     -2.761  0.1886E+00  0.6973E+00
     -2.706  0.1895E+00  0.7076E+00
     -2.652  0.1887E+00  0.7179E+00
     -2.597  0.1881E+00  0.7282E+00
     -2.543  0.1871E+00  0.7383E+00
     -2.488  0.1837E+00  0.7483E+00
     -2.434  0.1785E+00  0.7581E+00
     -2.380  0.1753E+00  0.7676E+00
     -2.325  0.1756E+00  0.7772E+00
     -2.271  0.1761E+00  0.7868E+00
     -2.216  0.1773E+00  0.7964E+00
     -2.162  0.1818E+00  0.8063E+00
     -2.107  0.1869E+00  0.8165E+00
     -2.053  0.1905E+00  0.8269E+00
     -1.998  0.1947E+00  0.8375E+00
     -1.944  0.2010E+00  0.8484E+00
     -1.889  0.2079E+00  0.8598E+00
     -1.835  0.2133E+00  0.8714E+00
     -1.780  0.2163E+00  0.8832E+00
     -1.726  0.2145E+00  0.8948E+00
     -1.672  0.2059E+00  0.9061E+00
     -1.617  0.1943E+00  0.9166E+00
     -1.563  0.1868E+00  0.9268E+00
     -1.508  0.1856E+00  0.9369E+00
     -1.454  0.1887E+00  0.9472E+00
     -1.399  0.1930E+00  0.9577E+00
     -1.345  0.1939E+00  0.9683E+00
     -1.290  0.1850E+00  0.9783E+00
     -1.236  0.1668E+00  0.9874E+00
     -1.181  0.1468E+00  0.9954E+00
     -1.127  0.1272E+00  0.1002E+01
     -1.073  0.1058E+00  0.1008E+01
     -1.018  0.8226E-01  0.1013E+01
     -0.964  0.5796E-01  0.1016E+01
     -0.909  0.3704E-01  0.1018E+01
     -0.855  0.2485E-01  0.1019E+01
     -0.800  0.2102E-01  0.1020E+01
     -0.746  0.2073E-01  0.1021E+01
     -0.691  0.2205E-01  0.1023E+01
     -0.637  0.2646E-01  0.1024E+01
     -0.582  0.3394E-01  0.1026E+01
     -0.528  0.4162E-01  0.1028E+01
     -0.473  0.4589E-01  0.1031E+01
     -0.419  0.4281E-01  0.1033E+01
     -0.365  0.3431E-01  0.1035E+01
     -0.310  0.3022E-01  0.1036E+01
     -0.256  0.3453E-01  0.1038E+01
     -0.201  0.3938E-01  0.1041E+01
     -0.147  0.3738E-01  0.1043E+01
     -0.092  0.2953E-01  0.1044E+01
     -0.038  0.2181E-01  0.1045E+01
      0.017  0.1908E-01  0.1046E+01
      0.071  0.2088E-01  0.1048E+01
      0.126  0.2487E-01  0.1049E+01
      0.180  0.2979E-01  0.1051E+01
      0.235  0.3412E-01  0.1052E+01
      0.289  0.3714E-01  0.1054E+01
      0.343  0.4027E-01  0.1057E+01
      0.398  0.4326E-01  0.1059E+01
      0.452  0.4406E-01  0.1061E+01
      0.507  0.4309E-01  0.1064E+01
      0.561  0.4389E-01  0.1066E+01
      0.616  0.4802E-01  0.1069E+01
      0.670  0.5063E-01  0.1071E+01
      0.725  0.4558E-01  0.1074E+01
      0.779  0.3563E-01  0.1076E+01
      0.834  0.2785E-01  0.1077E+01
      0.888  0.2315E-01  0.1079E+01
      0.943  0.1964E-01  0.1080E+01
      0.997  0.1841E-01  0.1081E+01
      1.051  0.2090E-01  0.1082E+01
      1.106  0.2434E-01  0.1083E+01
      1.160  0.2460E-01  0.1085E+01
      1.215  0.2100E-01  0.1086E+01
      1.269  0.1530E-01  0.1086E+01
      1.324  0.1031E-01  0.1087E+01
      1.378  0.8643E-02  0.1088E+01
      1.433  0.1152E-01  0.1088E+01
      1.487  0.1861E-01  0.1089E+01
      1.542  0.2719E-01  0.1091E+01
      1.596  0.3312E-01  0.1092E+01
      1.650  0.3395E-01  0.1094E+01
      1.705  0.3197E-01  0.1096E+01
      1.759  0.3191E-01  0.1098E+01
      1.814  0.3342E-01  0.1100E+01
      1.868  0.3210E-01  0.1101E+01
      1.923  0.2747E-01  0.1103E+01
      1.977  0.2384E-01  0.1104E+01
      2.032  0.2467E-01  0.1105E+01
      2.086  0.2832E-01  0.1107E+01
      2.141  0.3241E-01  0.1109E+01
      2.195  0.3697E-01  0.1111E+01
      2.250  0.4164E-01  0.1113E+01
      2.304  0.4603E-01  0.1116E+01
      2.358  0.4877E-01  0.1118E+01
      2.413  0.4710E-01  0.1121E+01
      2.467  0.3975E-01  0.1123E+01
      2.522  0.3089E-01  0.1125E+01
      2.576  0.2860E-01  0.1126E+01
      2.631  0.3660E-01  0.1128E+01
      2.685  0.4920E-01  0.1131E+01
      2.740  0.5336E-01  0.1134E+01
      2.794  0.4252E-01  0.1136E+01
      2.849  0.2602E-01  0.1138E+01
      2.903  0.1601E-01  0.1138E+01
      2.958  0.1293E-01  0.1139E+01
      3.012  0.1015E-01  0.1140E+01
      3.066  0.6989E-02  0.1140E+01
      3.121  0.8242E-02  0.1140E+01
      3.175  0.1459E-01  0.1141E+01
      3.230  0.2082E-01  0.1142E+01
      3.284  0.2215E-01  0.1144E+01
      3.339  0.1956E-01  0.1145E+01
      3.393  0.1770E-01  0.1146E+01
      3.448  0.1881E-01  0.1147E+01
      3.502  0.2241E-01  0.1148E+01
      3.557  0.2849E-01  0.1149E+01
      3.611  0.3663E-01  0.1151E+01
      3.666  0.4330E-01  0.1154E+01
      3.720  0.4416E-01  0.1156E+01
      3.774  0.3955E-01  0.1158E+01
      3.829  0.3342E-01  0.1160E+01
      3.883  0.2773E-01  0.1162E+01
      3.938  0.2370E-01  0.1163E+01
      3.992  0.2333E-01  0.1164E+01
      4.047  0.2419E-01  0.1166E+01
      4.101  0.2352E-01  0.1167E+01
      4.156  0.2287E-01  0.1168E+01
      4.210  0.2269E-01  0.1169E+01
      4.265  0.2127E-01  0.1170E+01
      4.319  0.1883E-01  0.1172E+01
      4.374  0.1842E-01  0.1173E+01
      4.428  0.2238E-01  0.1174E+01
      4.482  0.2892E-01  0.1175E+01
      4.537  0.3678E-01  0.1177E+01
      4.591  0.4589E-01  0.1180E+01
      4.646  0.5110E-01  0.1183E+01
      4.700  0.4793E-01  0.1185E+01
      4.755  0.4300E-01  0.1188E+01
      4.809  0.4533E-01  0.1190E+01
      4.864  0.5360E-01  0.1193E+01
      4.918  0.6065E-01  0.1196E+01
      4.973  0.6457E-01  0.1200E+01
      5.027  0.6909E-01  0.1204E+01
      5.081  0.7423E-01  0.1208E+01
      5.136  0.7318E-01  0.1212E+01
      5.190  0.6503E-01  0.1215E+01
      5.245  0.5576E-01  0.1218E+01
      5.299  0.4520E-01  0.1221E+01
      5.354  0.3178E-01  0.1222E+01
      5.408  0.1867E-01  0.1223E+01
      5.463  0.8714E-02  0.1224E+01
      5.517  0.2912E-02  0.1224E+01
      5.572  0.6295E-03  0.1224E+01
      5.626  0.8259E-04  0.1224E+01
      5.681  0.6361E-05  0.1224E+01
      5.735  0.2826E-06  0.1224E+01
      5.789  0.7166E-08  0.1224E+01
      5.844  0.1030E-09  0.1224E+01
      5.898  0.8361E-12  0.1224E+01
      5.953  0.3818E-14  0.1224E+01
      6.007  0.8154E-17  0.1224E+01
      6.062  0.0000E+00  0.1224E+01
      6.116  0.0000E+00  0.1224E+01
      6.171  0.0000E+00  0.1224E+01
      6.225  0.0000E+00  0.1224E+01
      6.280  0.0000E+00  0.1224E+01
      6.334  0.0000E+00  0.1224E+01
      6.389  0.0000E+00  0.1224E+01
