       N       E                     dE             d eps       ncg     rms          rms(c)
DAV:   1     0.320028720165E+04    0.32003E+04   -0.18976E+05  3672   0.112E+03
DAV:   2     0.159758247781E+02   -0.31843E+04   -0.29331E+04  4392   0.263E+02
DAV:   3    -0.200144471454E+03   -0.21612E+03   -0.20039E+03  4116   0.651E+01
DAV:   4    -0.206031175071E+03   -0.58867E+01   -0.58210E+01  4236   0.109E+01
DAV:   5    -0.206228640510E+03   -0.19747E+00   -0.19685E+00  4416   0.202E+00    0.625E+01
RMM:   6    -0.200732787229E+03    0.54959E+01   -0.93778E+01  3679   0.152E+01    0.568E+01
RMM:   7    -0.208555839538E+03   -0.78231E+01   -0.59245E+01  3683   0.125E+01    0.459E+01
RMM:   8    -0.227625219335E+03   -0.19069E+02   -0.87644E+01  3678   0.139E+01    0.468E+01
RMM:   9    -0.212069835803E+03    0.15555E+02   -0.58555E+01  3681   0.117E+01    0.360E+01
RMM:  10    -0.197613209208E+03    0.14457E+02   -0.25767E+01  3681   0.837E+00    0.232E+01
RMM:  11    -0.191553053298E+03    0.60602E+01   -0.14282E+01  3681   0.612E+00    0.125E+01
RMM:  12    -0.188960537079E+03    0.25925E+01   -0.50235E+00  3680   0.346E+00    0.865E+00
RMM:  13    -0.188556242152E+03    0.40429E+00   -0.16028E+00  3682   0.197E+00    0.657E+00
RMM:  14    -0.188699997646E+03   -0.14376E+00   -0.78245E-01  3680   0.135E+00    0.753E+00
RMM:  15    -0.188621591058E+03    0.78407E-01   -0.66130E-01  3681   0.126E+00    0.587E+00
RMM:  16    -0.188445802439E+03    0.17579E+00   -0.40278E-01  3680   0.979E-01    0.454E+00
RMM:  17    -0.188302583103E+03    0.14322E+00   -0.14182E-01  3679   0.575E-01    0.301E+00
RMM:  18    -0.188213192426E+03    0.89391E-01   -0.82522E-02  3681   0.439E-01    0.177E+00
RMM:  19    -0.188188504653E+03    0.24688E-01   -0.15173E-02  3681   0.183E-01    0.104E+00
RMM:  20    -0.188182696177E+03    0.58085E-02   -0.79733E-03  3682   0.130E-01    0.886E-01
RMM:  21    -0.188178028838E+03    0.46673E-02   -0.24871E-03  3681   0.732E-02    0.669E-01
RMM:  22    -0.188174565187E+03    0.34637E-02   -0.27823E-03  3681   0.759E-02    0.493E-01
RMM:  23    -0.188173090036E+03    0.14752E-02   -0.16286E-03  3682   0.586E-02    0.348E-01
RMM:  24    -0.188171879213E+03    0.12108E-02   -0.16269E-03  3680   0.582E-02    0.162E-01
RMM:  25    -0.188171859909E+03    0.19304E-04   -0.44528E-04  3680   0.292E-02    0.731E-02
RMM:  26    -0.188172265817E+03   -0.40591E-03   -0.20310E-04  3685   0.207E-02    0.534E-02
RMM:  27    -0.188172647884E+03   -0.38207E-03   -0.10995E-04  3680   0.147E-02    0.478E-02
RMM:  28    -0.188172935574E+03   -0.28769E-03   -0.35621E-05  3672   0.895E-03    0.354E-02
RMM:  29    -0.188173613870E+03   -0.67830E-03   -0.39107E-05  3672   0.864E-03    0.265E-02
RMM:  30    -0.188174075245E+03   -0.46138E-03   -0.24960E-05  3637   0.690E-03    0.222E-02
RMM:  31    -0.188174875134E+03   -0.79989E-03   -0.51804E-05  3666   0.945E-03    0.185E-02
RMM:  32    -0.188175056749E+03   -0.18161E-03   -0.14814E-05  3163   0.516E-03    0.974E-03
RMM:  33    -0.188175245668E+03   -0.18892E-03   -0.93357E-06  2827   0.375E-03    0.713E-03
RMM:  34    -0.188175317717E+03   -0.72050E-04   -0.29262E-06  2443   0.219E-03    0.577E-03
RMM:  35    -0.188175380114E+03   -0.62397E-04   -0.16514E-06  2247   0.171E-03    0.255E-03
RMM:  36    -0.188175404878E+03   -0.24764E-04   -0.54752E-07  2130   0.102E-03    0.227E-03
RMM:  37    -0.188175433149E+03   -0.28271E-04   -0.46941E-07  2135   0.998E-04    0.992E-04
RMM:  38    -0.188175446536E+03   -0.13387E-04   -0.26828E-07  1793   0.750E-04    0.123E-03
RMM:  39    -0.188175453837E+03   -0.73014E-05   -0.20390E-07  1732   0.647E-04    0.104E-03
RMM:  40    -0.188175455200E+03   -0.13631E-05   -0.60285E-08  1118   0.387E-04    0.693E-04
RMM:  41    -0.188175455820E+03   -0.61993E-06   -0.22910E-08   689   0.333E-04
   1 F= -.18817546E+03 E0= -.18804647E+03  d E =-.188175E+03
       N       E                     dE             d eps       ncg     rms          rms(c)
DAV:   1    -0.188779554850E+03   -0.60410E+00   -0.21108E+02  3684   0.223E+01    0.246E+00
RMM:   2    -0.189006757403E+03   -0.22720E+00   -0.22670E+00  3684   0.323E+00    0.186E+00
RMM:   3    -0.189187129525E+03   -0.18037E+00   -0.23611E-01  3702   0.811E-01    0.389E+00
RMM:   4    -0.189007023827E+03    0.18011E+00   -0.11175E-01  3687   0.520E-01    0.177E+00
RMM:   5    -0.188988998283E+03    0.18026E-01   -0.47484E-02  3682   0.349E-01    0.101E+00
RMM:   6    -0.188988758342E+03    0.23994E-03   -0.22479E-02  3687   0.245E-01    0.859E-01
RMM:   7    -0.188982254846E+03    0.65035E-02   -0.10453E-02  3682   0.164E-01    0.408E-01
RMM:   8    -0.188980403304E+03    0.18515E-02   -0.26294E-03  3682   0.813E-02    0.172E-01
RMM:   9    -0.188980084964E+03    0.31834E-03   -0.10235E-03  3685   0.498E-02    0.107E-01
RMM:  10    -0.188979985552E+03    0.99412E-04   -0.37514E-04  3687   0.297E-02    0.756E-02
RMM:  11    -0.188979944531E+03    0.41021E-04   -0.92179E-05  3685   0.153E-02    0.446E-02
RMM:  12    -0.188979938559E+03    0.59714E-05   -0.31361E-05  3680   0.898E-03    0.312E-02
RMM:  13    -0.188979930698E+03    0.78610E-05   -0.13755E-05  3577   0.609E-03    0.113E-02
RMM:  14    -0.188979931132E+03   -0.43327E-06   -0.42797E-06  2786   0.334E-03
   2 F= -.18897993E+03 E0= -.18885018E+03  d E =-.804475E+00
       N       E                     dE             d eps       ncg     rms          rms(c)
DAV:   1    -0.188517286442E+03    0.46264E+00   -0.12993E+03  3672   0.559E+01    0.508E+00
RMM:   2    -0.189867590252E+03   -0.13503E+01   -0.13722E+01  3682   0.797E+00    0.365E+00
RMM:   3    -0.190354817211E+03   -0.48723E+00   -0.10862E+00  3705   0.178E+00    0.638E+00
RMM:   4    -0.189856604793E+03    0.49821E+00   -0.39970E-01  3687   0.101E+00    0.363E+00
RMM:   5    -0.189776906102E+03    0.79699E-01   -0.16799E-01  3685   0.645E-01    0.224E+00
RMM:   6    -0.189797497216E+03   -0.20591E-01   -0.14877E-01  3681   0.608E-01    0.240E+00
RMM:   7    -0.189744906244E+03    0.52591E-01   -0.77649E-02  3681   0.447E-01    0.109E+00
RMM:   8    -0.189731762042E+03    0.13144E-01   -0.19688E-02  3685   0.224E-01    0.481E-01
RMM:   9    -0.189729406311E+03    0.23557E-02   -0.68106E-03  3682   0.128E-01    0.323E-01
RMM:  10    -0.189728715748E+03    0.69056E-03   -0.24822E-03  3683   0.764E-02    0.256E-01
RMM:  11    -0.189728254762E+03    0.46099E-03   -0.89718E-04  3685   0.472E-02    0.151E-01
RMM:  12    -0.189728125263E+03    0.12950E-03   -0.33955E-04  3684   0.293E-02    0.917E-02
RMM:  13    -0.189728070856E+03    0.54406E-04   -0.15306E-04  3683   0.199E-02    0.395E-02
RMM:  14    -0.189728073125E+03   -0.22691E-05   -0.42050E-05  3677   0.105E-02    0.311E-02
RMM:  15    -0.189728066845E+03    0.62804E-05   -0.14828E-05  3598   0.624E-03    0.140E-02
RMM:  16    -0.189728069689E+03   -0.28438E-05   -0.50476E-06  2905   0.364E-03    0.993E-03
RMM:  17    -0.189728072213E+03   -0.25240E-05   -0.18750E-06  2131   0.244E-03    0.375E-03
RMM:  18    -0.189728076021E+03   -0.38086E-05   -0.66990E-07  2044   0.145E-03    0.389E-03
RMM:  19    -0.189728078445E+03   -0.24237E-05   -0.26392E-07  1994   0.925E-04    0.180E-03
RMM:  20    -0.189728080783E+03   -0.23384E-05   -0.59444E-08   985   0.443E-04    0.129E-03
RMM:  21    -0.189728083260E+03   -0.24764E-05   -0.35141E-08   824   0.435E-04    0.941E-04
RMM:  22    -0.189728088227E+03   -0.49671E-05   -0.20059E-07  1909   0.618E-04    0.165E-03
RMM:  23    -0.189728090659E+03   -0.24318E-05   -0.78296E-08   991   0.379E-04    0.150E-03
RMM:  24    -0.189728093194E+03   -0.25352E-05   -0.92800E-08  1017   0.422E-04    0.998E-04
RMM:  25    -0.189728094891E+03   -0.16966E-05   -0.92298E-08  1073   0.459E-04    0.684E-04
RMM:  26    -0.189728095819E+03   -0.92851E-06   -0.86807E-08  1069   0.424E-04
   3 F= -.18972810E+03 E0= -.18959653E+03  d E =-.155264E+01
       N       E                     dE             d eps       ncg     rms          rms(c)
DAV:   1    -0.190090413960E+03   -0.36232E+00   -0.37178E+02  3672   0.298E+01    0.227E+00
RMM:   2    -0.190504005417E+03   -0.41359E+00   -0.38609E+00  3684   0.426E+00    0.237E+00
RMM:   3    -0.190610973392E+03   -0.10697E+00   -0.29616E-01  3712   0.927E-01    0.382E+00
RMM:   4    -0.190450313004E+03    0.16066E+00   -0.63012E-02  3686   0.429E-01    0.135E+00
RMM:   5    -0.190445599427E+03    0.47136E-02   -0.36476E-02  3685   0.309E-01    0.120E+00
RMM:   6    -0.190442987642E+03    0.26118E-02   -0.46653E-02  3682   0.342E-01    0.100E+00
RMM:   7    -0.190436587621E+03    0.64000E-02   -0.17050E-02  3682   0.208E-01    0.667E-01
RMM:   8    -0.190432063091E+03    0.45245E-02   -0.41388E-03  3686   0.104E-01    0.240E-01
RMM:   9    -0.190431525448E+03    0.53764E-03   -0.13757E-03  3681   0.596E-02    0.160E-01
RMM:  10    -0.190431313343E+03    0.21211E-03   -0.44299E-04  3684   0.331E-02    0.105E-01
RMM:  11    -0.190431236947E+03    0.76395E-04   -0.18946E-04  3684   0.218E-02    0.731E-02
RMM:  12    -0.190431212433E+03    0.24514E-04   -0.11543E-04  3683   0.168E-02    0.552E-02
RMM:  13    -0.190431189529E+03    0.22904E-04   -0.54058E-05  3685   0.117E-02    0.269E-02
RMM:  14    -0.190431188189E+03    0.13398E-05   -0.15197E-05  3672   0.621E-03    0.173E-02
RMM:  15    -0.190431186653E+03    0.15368E-05   -0.37745E-06  2653   0.324E-03    0.643E-03
RMM:  16    -0.190431187218E+03   -0.56520E-06   -0.94328E-07  2021   0.173E-03
   4 F= -.19043119E+03 E0= -.19030149E+03  d E =-.703091E+00
       N       E                     dE             d eps       ncg     rms          rms(c)
DAV:   1    -0.188916606587E+03    0.15146E+01   -0.24137E+03  3672   0.773E+01    0.481E+00
RMM:   2    -0.191324679602E+03   -0.24081E+01   -0.23977E+01  3684   0.107E+01    0.438E+00
RMM:   3    -0.191823876312E+03   -0.49920E+00   -0.15083E+00  3708   0.210E+00    0.722E+00
RMM:   4    -0.191164369451E+03    0.65951E+00   -0.29647E-01  3687   0.918E-01    0.325E+00
RMM:   5    -0.191114458922E+03    0.49911E-01   -0.12171E-01  3685   0.562E-01    0.267E+00
RMM:   6    -0.191124192251E+03   -0.97333E-02   -0.23487E-01  3681   0.758E-01    0.293E+00
RMM:   7    -0.191066932828E+03    0.57259E-01   -0.17991E-01  3682   0.673E-01    0.182E+00
RMM:   8    -0.191039357371E+03    0.27575E-01   -0.45636E-02  3687   0.347E-01    0.900E-01
RMM:   9    -0.191032522523E+03    0.68348E-02   -0.12250E-02  3681   0.176E-01    0.595E-01
RMM:  10    -0.191029635910E+03    0.28866E-02   -0.43030E-03  3681   0.106E-01    0.343E-01
RMM:  11    -0.191029077214E+03    0.55870E-03   -0.24795E-03  3681   0.785E-02    0.309E-01
RMM:  12    -0.191028124212E+03    0.95300E-03   -0.18014E-03  3686   0.657E-02    0.134E-01
RMM:  13    -0.191028084033E+03    0.40178E-04   -0.76217E-04  3682   0.433E-02    0.941E-02
RMM:  14    -0.191028013367E+03    0.70667E-04   -0.20249E-04  3683   0.229E-02    0.415E-02
RMM:  15    -0.191028000894E+03    0.12473E-04   -0.31131E-05  3677   0.910E-03    0.217E-02
RMM:  16    -0.191027999744E+03    0.11501E-05   -0.13518E-05  3672   0.591E-03    0.127E-02
RMM:  17    -0.191028002593E+03   -0.28488E-05   -0.55208E-06  3081   0.373E-03    0.736E-03
RMM:  18    -0.191028008402E+03   -0.58099E-05   -0.20511E-06  2130   0.251E-03    0.341E-03
RMM:  19    -0.191028010880E+03   -0.24772E-05   -0.54244E-07  2013   0.139E-03    0.201E-03
RMM:  20    -0.191028014577E+03   -0.36977E-05   -0.18736E-07  2049   0.715E-04    0.142E-03
RMM:  21    -0.191028017445E+03   -0.28679E-05   -0.80711E-08  1123   0.487E-04    0.934E-04
RMM:  22    -0.191028020537E+03   -0.30921E-05   -0.76159E-08  1217   0.485E-04    0.737E-04
RMM:  23    -0.191028025140E+03   -0.46026E-05   -0.19433E-07  1806   0.589E-04    0.114E-03
RMM:  24    -0.191028027090E+03   -0.19497E-05   -0.75927E-08   930   0.389E-04    0.799E-04
RMM:  25    -0.191028028942E+03   -0.18523E-05   -0.14993E-07  1267   0.460E-04    0.430E-04
RMM:  26    -0.191028029405E+03   -0.46276E-06   -0.22096E-08   564   0.349E-04
   5 F= -.19102803E+03 E0= -.19090278E+03  d E =-.129993E+01
       N       E                     dE             d eps       ncg     rms          rms(c)
DAV:   1    -0.190969750801E+03    0.58278E-01   -0.59599E+02  3672   0.379E+01    0.256E+00
RMM:   2    -0.191613175464E+03   -0.64342E+00   -0.62009E+00  3684   0.541E+00    0.255E+00
RMM:   3    -0.191776500617E+03   -0.16333E+00   -0.43489E-01  3709   0.113E+00    0.441E+00
RMM:   4    -0.191554830335E+03    0.22167E+00   -0.82049E-02  3683   0.493E-01    0.152E+00
RMM:   5    -0.191550663643E+03    0.41667E-02   -0.45294E-02  3684   0.341E-01    0.161E+00
RMM:   6    -0.191545037461E+03    0.56262E-02   -0.77921E-02  3683   0.443E-01    0.139E+00
RMM:   7    -0.191530150288E+03    0.14887E-01   -0.33306E-02  3682   0.290E-01    0.708E-01
RMM:   8    -0.191526872386E+03    0.32779E-02   -0.74306E-03  3686   0.136E-01    0.454E-01
RMM:   9    -0.191524677088E+03    0.21953E-02   -0.25303E-03  3682   0.821E-02    0.193E-01
RMM:  10    -0.191524447292E+03    0.22980E-03   -0.76805E-04  3684   0.434E-02    0.150E-01
RMM:  11    -0.191524232811E+03    0.21448E-03   -0.39873E-04  3681   0.316E-02    0.903E-02
RMM:  12    -0.191524179594E+03    0.53216E-04   -0.28001E-04  3685   0.258E-02    0.660E-02
RMM:  13    -0.191524143914E+03    0.35680E-04   -0.11667E-04  3684   0.169E-02    0.320E-02
RMM:  14    -0.191524140457E+03    0.34575E-05   -0.23353E-05  3678   0.763E-03    0.150E-02
RMM:  15    -0.191524139682E+03    0.77505E-06   -0.37728E-06  2665   0.328E-03
   6 F= -.19152414E+03 E0= -.19140086E+03  d E =-.496110E+00
       N       E                     dE             d eps       ncg     rms          rms(c)
DAV:   1    -0.191165290245E+03    0.35885E+00   -0.53016E+02  3672   0.357E+01    0.217E+00
RMM:   2    -0.191736504439E+03   -0.57121E+00   -0.55523E+00  3683   0.512E+00    0.222E+00
RMM:   3    -0.191864744791E+03   -0.12824E+00   -0.36790E-01  3711   0.104E+00    0.393E+00
RMM:   4    -0.191688837414E+03    0.17591E+00   -0.60351E-02  3683   0.428E-01    0.133E+00
RMM:   5    -0.191682473113E+03    0.63643E-02   -0.27949E-02  3685   0.271E-01    0.127E+00
RMM:   6    -0.191671642332E+03    0.10831E-01   -0.61913E-02  3682   0.393E-01    0.898E-01
RMM:   7    -0.191668211185E+03    0.34311E-02   -0.25755E-02  3682   0.254E-01    0.656E-01
RMM:   8    -0.191664347779E+03    0.38634E-02   -0.54418E-03  3687   0.118E-01    0.348E-01
RMM:   9    -0.191663162277E+03    0.11855E-02   -0.18257E-03  3681   0.688E-02    0.184E-01
RMM:  10    -0.191662908901E+03    0.25338E-03   -0.57852E-04  3683   0.375E-02    0.130E-01
RMM:  11    -0.191662766350E+03    0.14255E-03   -0.35638E-04  3681   0.297E-02    0.957E-02
RMM:  12    -0.191662701368E+03    0.64982E-04   -0.26744E-04  3685   0.251E-02    0.576E-02
RMM:  13    -0.191662679063E+03    0.22305E-04   -0.10623E-04  3684   0.161E-02    0.315E-02
RMM:  14    -0.191662676177E+03    0.28864E-05   -0.19356E-05  3676   0.702E-03    0.151E-02
RMM:  15    -0.191662675504E+03    0.67279E-06   -0.35006E-06  2625   0.316E-03
   7 F= -.19166268E+03 E0= -.19154145E+03  d E =-.634646E+00
       N       E                     dE             d eps       ncg     rms          rms(c)
DAV:   1    -0.191684483373E+03   -0.21807E-01   -0.24278E+01  3708   0.762E+00    0.558E-01
RMM:   2    -0.191714313210E+03   -0.29830E-01   -0.28379E-01  3685   0.112E+00    0.691E-01
RMM:   3    -0.191718374018E+03   -0.40608E-02   -0.20611E-02  3697   0.235E-01    0.855E-01
RMM:   4    -0.191710921178E+03    0.74528E-02   -0.49444E-03  3685   0.115E-01    0.372E-01
RMM:   5    -0.191710219448E+03    0.70173E-03   -0.23608E-03  3683   0.780E-02    0.293E-01
RMM:   6    -0.191710735375E+03   -0.51593E-03   -0.31537E-03  3682   0.880E-02    0.345E-01
RMM:   7    -0.191709665976E+03    0.10694E-02   -0.21195E-03  3683   0.726E-02    0.102E-01
RMM:   8    -0.191709634550E+03    0.31427E-04   -0.31075E-04  3686   0.277E-02    0.879E-02
RMM:   9    -0.191709536545E+03    0.98005E-04   -0.11260E-04  3681   0.171E-02    0.420E-02
RMM:  10    -0.191709517678E+03    0.18867E-04   -0.36677E-05  3678   0.951E-03    0.243E-02
RMM:  11    -0.191709509622E+03    0.80563E-05   -0.24196E-05  3679   0.730E-03    0.139E-02
RMM:  12    -0.191709508299E+03    0.13229E-05   -0.10440E-05  3669   0.484E-03    0.834E-03
RMM:  13    -0.191709508662E+03   -0.36271E-06   -0.39058E-06  2600   0.312E-03
   8 F= -.19170951E+03 E0= -.19158908E+03  d E =-.468332E-01
       N       E                     dE             d eps       ncg     rms          rms(c)
DAV:   1    -0.191706703185E+03    0.28051E-02   -0.10738E+01  3708   0.507E+00    0.365E-01
RMM:   2    -0.191719951104E+03   -0.13248E-01   -0.12571E-01  3685   0.744E-01    0.463E-01
RMM:   3    -0.191721529017E+03   -0.15779E-02   -0.90593E-03  3697   0.156E-01    0.562E-01
RMM:   4    -0.191718273160E+03    0.32559E-02   -0.20633E-03  3685   0.745E-02    0.229E-01
RMM:   5    -0.191718040323E+03    0.23284E-03   -0.98226E-04  3682   0.505E-02    0.182E-01
RMM:   6    -0.191718320249E+03   -0.27993E-03   -0.14357E-03  3682   0.593E-02    0.232E-01
RMM:   7    -0.191717841996E+03    0.47825E-03   -0.86702E-04  3684   0.464E-02    0.690E-02
RMM:   8    -0.191717831763E+03    0.10233E-04   -0.13421E-04  3685   0.181E-02    0.591E-02
RMM:   9    -0.191717788226E+03    0.43536E-04   -0.49180E-05  3680   0.113E-02    0.280E-02
RMM:  10    -0.191717779709E+03    0.85172E-05   -0.16596E-05  3670   0.639E-03    0.162E-02
RMM:  11    -0.191717776106E+03    0.36037E-05   -0.11335E-05  3672   0.498E-03    0.928E-03
RMM:  12    -0.191717775552E+03    0.55342E-06   -0.43810E-06  2743   0.324E-03
   9 F= -.19171778E+03 E0= -.19159788E+03  d E =-.551000E-01
       N       E                     dE             d eps       ncg     rms          rms(c)
DAV:   1    -0.191721264531E+03   -0.34884E-02   -0.92004E+00  3696   0.469E+00    0.291E-01
RMM:   2    -0.191732682532E+03   -0.11418E-01   -0.10618E-01  3685   0.689E-01    0.437E-01
RMM:   3    -0.191732692023E+03   -0.94910E-05   -0.71609E-03  3702   0.140E-01    0.396E-01
RMM:   4    -0.191731162262E+03    0.15298E-02   -0.12911E-03  3685   0.598E-02    0.210E-01
RMM:   5    -0.191730951245E+03    0.21102E-03   -0.55108E-04  3684   0.380E-02    0.171E-01
RMM:   6    -0.191730986597E+03   -0.35353E-04   -0.12469E-03  3681   0.550E-02    0.170E-01
RMM:   7    -0.191730762299E+03    0.22430E-03   -0.78911E-04  3684   0.437E-02    0.585E-02
RMM:   8    -0.191730756890E+03    0.54091E-05   -0.91565E-05  3687   0.153E-02    0.518E-02
RMM:   9    -0.191730723225E+03    0.33665E-04   -0.34755E-05  3678   0.944E-03    0.281E-02
RMM:  10    -0.191730712826E+03    0.10399E-04   -0.19324E-05  3674   0.678E-03    0.177E-02
RMM:  11    -0.191730708326E+03    0.44993E-05   -0.13734E-05  3676   0.550E-03    0.910E-03
RMM:  12    -0.191730707734E+03    0.59203E-06   -0.75847E-06  3647   0.408E-03
  10 F= -.19173071E+03 E0= -.19161136E+03  d E =-.129322E-01
       N       E                     dE             d eps       ncg     rms          rms(c)
DAV:   1    -0.191729929231E+03    0.77910E-03   -0.24284E+00  3720   0.241E+00    0.148E-01
RMM:   2    -0.191732940362E+03   -0.30111E-02   -0.28016E-02  3685   0.354E-01    0.227E-01
RMM:   3    -0.191732892721E+03    0.47641E-04   -0.18857E-03  3702   0.721E-02    0.200E-01
RMM:   4    -0.191732510591E+03    0.38213E-03   -0.32877E-04  3685   0.303E-02    0.105E-01
RMM:   5    -0.191732469320E+03    0.41272E-04   -0.14247E-04  3684   0.193E-02    0.875E-02
RMM:   6    -0.191732489569E+03   -0.20249E-04   -0.33094E-04  3681   0.284E-02    0.883E-02
RMM:   7    -0.191732431100E+03    0.58469E-04   -0.20872E-04  3684   0.225E-02    0.298E-02
RMM:   8    -0.191732429916E+03    0.11839E-05   -0.23791E-05  3679   0.782E-03    0.264E-02
RMM:   9    -0.191732421217E+03    0.86991E-05   -0.90675E-06  3646   0.483E-03    0.145E-02
RMM:  10    -0.191732418485E+03    0.27313E-05   -0.51235E-06  3028   0.355E-03    0.910E-03
RMM:  11    -0.191732417396E+03    0.10890E-05   -0.36447E-06  2347   0.309E-03    0.489E-03
RMM:  12    -0.191732417328E+03    0.68932E-07   -0.23680E-06  1966   0.266E-03
  11 F= -.19173242E+03 E0= -.19161336E+03  d E =-.146418E-01
       N       E                     dE             d eps       ncg     rms          rms(c)
DAV:   1    -0.191733257053E+03   -0.83966E-03   -0.19401E+00  3684   0.215E+00    0.137E-01
RMM:   2    -0.191735405342E+03   -0.21483E-02   -0.21767E-02  3683   0.315E-01    0.143E-01
RMM:   3    -0.191735805169E+03   -0.39983E-03   -0.14868E-03  3702   0.656E-02    0.231E-01
RMM:   4    -0.191735269630E+03    0.53554E-03   -0.28235E-04  3689   0.275E-02    0.873E-02
RMM:   5    -0.191735246668E+03    0.22962E-04   -0.15123E-04  3683   0.198E-02    0.745E-02
RMM:   6    -0.191735241989E+03    0.46785E-05   -0.31020E-04  3682   0.272E-02    0.585E-02
RMM:   7    -0.191735218540E+03    0.23450E-04   -0.10635E-04  3681   0.162E-02    0.283E-02
RMM:   8    -0.191735213379E+03    0.51607E-05   -0.15039E-05  3664   0.625E-03    0.204E-02
RMM:   9    -0.191735207862E+03    0.55166E-05   -0.64983E-06  3264   0.416E-03    0.115E-02
RMM:  10    -0.191735205877E+03    0.19857E-05   -0.50346E-06  3248   0.346E-03    0.717E-03
RMM:  11    -0.191735205171E+03    0.70596E-06   -0.24915E-06  2030   0.260E-03
  12 F= -.19173521E+03 E0= -.19161632E+03  d E =-.278784E-02
       N       E                     dE             d eps       ncg     rms          rms(c)
DAV:   1    -0.191735043801E+03    0.16208E-03   -0.63243E-01  3720   0.123E+00    0.787E-02
RMM:   2    -0.191735750448E+03   -0.70665E-03   -0.71049E-03  3684   0.180E-01    0.854E-02
RMM:   3    -0.191735871956E+03   -0.12151E-03   -0.48882E-04  3703   0.375E-02    0.132E-01
RMM:   4    -0.191735696379E+03    0.17558E-03   -0.92105E-05  3687   0.157E-02    0.496E-02
RMM:   5    -0.191735692372E+03    0.40072E-05   -0.51062E-05  3680   0.115E-02    0.438E-02
RMM:   6    -0.191735696611E+03   -0.42392E-05   -0.10175E-04  3682   0.156E-02    0.406E-02
RMM:   7    -0.191735685521E+03    0.11090E-04   -0.38409E-05  3676   0.972E-03    0.199E-02
RMM:   8    -0.191735683540E+03    0.19808E-05   -0.68877E-06  3046   0.421E-03    0.131E-02
RMM:   9    -0.191735681260E+03    0.22800E-05   -0.23277E-06  2168   0.264E-03    0.738E-03
RMM:  10    -0.191735680634E+03    0.62618E-06   -0.15994E-06  1950   0.216E-03
  13 F= -.19173568E+03 E0= -.19161687E+03  d E =-.326331E-02
       N       E                     dE             d eps       ncg     rms          rms(c)
DAV:   1    -0.191735674757E+03    0.65036E-05   -0.12417E+00  3684   0.171E+00    0.103E-01
RMM:   2    -0.191737049859E+03   -0.13751E-02   -0.13767E-02  3684   0.252E-01    0.115E-01
RMM:   3    -0.191737141719E+03   -0.91860E-04   -0.91213E-04  3707   0.524E-02    0.142E-01
RMM:   4    -0.191736983473E+03    0.15825E-03   -0.14106E-04  3686   0.195E-02    0.796E-02
RMM:   5    -0.191736948777E+03    0.34696E-04   -0.85762E-05  3684   0.148E-02    0.670E-02
RMM:   6    -0.191736952534E+03   -0.37562E-05   -0.19797E-04  3680   0.218E-02    0.663E-02
RMM:   7    -0.191736915766E+03    0.36767E-04   -0.10473E-04  3680   0.160E-02    0.219E-02
RMM:   8    -0.191736915081E+03    0.68512E-06   -0.11277E-05  3591   0.547E-03    0.175E-02
RMM:   9    -0.191736912021E+03    0.30604E-05   -0.35958E-06  2623   0.312E-03    0.122E-02
RMM:  10    -0.191736909985E+03    0.20354E-05   -0.37520E-06  2451   0.316E-03    0.871E-03
RMM:  11    -0.191736908984E+03    0.10016E-05   -0.26036E-06  2005   0.280E-03    0.428E-03
RMM:  12    -0.191736908789E+03    0.19432E-06   -0.19239E-06  1931   0.241E-03
  14 F= -.19173691E+03 E0= -.19161822E+03  d E =-.122816E-02
       N       E                     dE             d eps       ncg     rms          rms(c)
DAV:   1    -0.191736887324E+03    0.21660E-04   -0.11084E-01  3732   0.512E-01    0.304E-02
RMM:   2    -0.191737010329E+03   -0.12301E-03   -0.12231E-03  3686   0.752E-02    0.355E-02
RMM:   3    -0.191737017449E+03   -0.71199E-05   -0.80897E-05  3711   0.156E-02    0.431E-02
RMM:   4    -0.191737001913E+03    0.15536E-04   -0.12155E-05  3666   0.576E-03    0.228E-02
RMM:   5    -0.191736999971E+03    0.19418E-05   -0.75482E-06  3277   0.443E-03    0.202E-02
RMM:   6    -0.191737001056E+03   -0.10848E-05   -0.20083E-05  3674   0.700E-03    0.198E-02
RMM:   7    -0.191736997893E+03    0.31626E-05   -0.91245E-06  3538   0.473E-03    0.676E-03
RMM:   8    -0.191736997676E+03    0.21675E-06   -0.89793E-07  1969   0.167E-03
  15 F= -.19173700E+03 E0= -.19161832E+03  d E =-.131704E-02
       N       E                     dE             d eps       ncg     rms          rms(c)
DAV:   1    -0.191737058529E+03   -0.60636E-04   -0.37121E-01  3684   0.939E-01    0.512E-02
RMM:   2    -0.191737478881E+03   -0.42035E-03   -0.41679E-03  3682   0.138E-01    0.660E-02
RMM:   3    -0.191737476622E+03    0.22584E-05   -0.27596E-04  3716   0.287E-02    0.592E-02
RMM:   4    -0.191737459372E+03    0.17250E-04   -0.38551E-05  3683   0.102E-02    0.487E-02
RMM:   5    -0.191737439586E+03    0.19786E-04   -0.16181E-05  3672   0.648E-03    0.311E-02
RMM:   6    -0.191737441512E+03   -0.19261E-05   -0.41001E-05  3680   0.995E-03    0.357E-02
RMM:   7    -0.191737431961E+03    0.95510E-05   -0.42676E-05  3677   0.101E-02    0.143E-02
RMM:   8    -0.191737432481E+03   -0.52019E-06   -0.64399E-06  3139   0.406E-03
  16 F= -.19173743E+03 E0= -.19161886E+03  d E =-.434805E-03
