 vasp.5.4.1 24Jun15 (build Mar 14 2019 10:18:33) complex                        
  
 executed on INTEL-19.0.2+OPENMPI date 2023.01.31  01:32:16
 running on   36 total cores
 distrk:  each k-point on   36 cores,    1 groups
 distr:  one band on NCORES_PER_BAND=   6 cores,    6 groups


--------------------------------------------------------------------------------------------------------


 INCAR:
 POTCAR:    PAW_PBE Au 04Oct2007                  
 POTCAR:    PAW_PBE Pd 04Jan2005                  
 POTCAR:    PAW_PBE Au 04Oct2007                  
  local pseudopotential read in
  partial core-charges read in
  partial kinetic energy density read in
  atomic valenz-charges read in
  non local Contribution for L=           2  read in
    real space projection operators read in
  non local Contribution for L=           2  read in
    real space projection operators read in
  non local Contribution for L=           0  read in
    real space projection operators read in
  non local Contribution for L=           0  read in
    real space projection operators read in
  non local Contribution for L=           1  read in
    real space projection operators read in
  non local Contribution for L=           1  read in
    real space projection operators read in
    PAW grid and wavefunctions read in
 
   number of l-projection  operators is LMAX  =           6
   number of lm-projection operators is LMMAX =          18
 
 POTCAR:    PAW_PBE Pd 04Jan2005                  
  local pseudopotential read in
  partial core-charges read in
  partial kinetic energy density read in
  atomic valenz-charges read in
  non local Contribution for L=           2  read in
    real space projection operators read in
  non local Contribution for L=           2  read in
    real space projection operators read in
  non local Contribution for L=           0  read in
    real space projection operators read in
  non local Contribution for L=           0  read in
    real space projection operators read in
  non local Contribution for L=           1  read in
    real space projection operators read in
  non local Contribution for L=           1  read in
    real space projection operators read in
    PAW grid and wavefunctions read in
 
   number of l-projection  operators is LMAX  =           6
   number of lm-projection operators is LMMAX =          18
 
 Optimization of the real space projectors (new method)

 maximal supplied QI-value         = 15.12
 optimisation between [QCUT,QGAM] = [ 10.13, 20.41] = [ 28.73,116.64] Ry 
 Optimized for a Real-space Cutoff    1.51 Angstroem

   l    n(q)    QCUT    max X(q) W(low)/X(q) W(high)/X(q)  e(spline) 
   2      8    10.129    60.898    0.46E-03    0.46E-03    0.14E-06
   2      8    10.129    58.894    0.47E-03    0.47E-03    0.14E-06
   0      9    10.129   109.617    0.16E-03    0.11E-03    0.54E-07
   0      9    10.129    75.026    0.15E-03    0.11E-03    0.52E-07
   1      9    10.129    16.344    0.96E-04    0.15E-03    0.14E-06
   1      9    10.129    10.160    0.81E-04    0.12E-03    0.11E-06
 Optimization of the real space projectors (new method)

 maximal supplied QI-value         = 14.36
 optimisation between [QCUT,QGAM] = [ 10.20, 20.39] = [ 29.12,116.47] Ry 
 Optimized for a Real-space Cutoff    1.51 Angstroem

   l    n(q)    QCUT    max X(q) W(low)/X(q) W(high)/X(q)  e(spline) 
   2      8    10.197    59.108    0.26E-03    0.14E-03    0.96E-07
   2      8    10.197    58.101    0.27E-03    0.14E-03    0.98E-07
   0      9    10.197   102.235    0.54E-04    0.60E-05    0.72E-07
   0      9    10.197    58.388    0.52E-04    0.60E-05    0.68E-07
   1      9    10.197    22.191    0.18E-03    0.25E-03    0.79E-07
   1      9    10.197    15.590    0.15E-03    0.21E-03    0.69E-07
  PAW_PBE Au 04Oct2007                  :
 energy of atom  1       EATOM= -926.0867
 kinetic energy error for atom=    0.0062 (will be added to EATOM!!)
  PAW_PBE Pd 04Jan2005                  :
 energy of atom  2       EATOM= -809.7530
 kinetic energy error for atom=    0.0091 (will be added to EATOM!!)
 
 
 POSCAR: Au Pd                                   
  positions in cartesian coordinates
  No initial velocities read in
 exchange correlation table for  LEXCH =        8
   RHO(1)=    0.500       N(1)  =     2000
   RHO(2)=  100.500       N(2)  =     4000

 VTST: version 3.2, (02/03/18)

 CHAIN: initializing optimizer
 
 OPT: Using VASP Conjugate-Gradient optimizer
 CHAIN: Read ICHAIN            0
 
 POSCAR: Au Pd                                   
  positions in cartesian coordinates
  No initial velocities read in
 


--------------------------------------------------------------------------------------------------------


 ion  position               nearest neighbor table
   1  0.250  0.750  0.592-  38 2.75  43 2.75  26 2.75  10 2.75  18 2.75  47 2.75  45 2.75  28 2.75
                            15 2.75
   2  0.667  0.417  0.500-  22 2.75   7 2.75  18 2.75   9 2.75  12 2.75  29 2.75  43 2.75  31 2.75
                            23 2.75   4 2.75  42 2.75  36 2.75
   3  0.917  0.917  0.500-  40 2.75  28 2.75  41 2.75  11 2.75  29 2.75  12 2.75  15 2.75  19 2.75
                            38 2.75  44 2.75  10 2.75  13 2.75
   4  0.583  0.583  0.408-   9 2.75  17 2.75  22 2.75  36 2.75  37 2.75   8 2.75  35 2.75   2 2.75
                            43 2.75
   5  0.000  0.500  0.592-  11 2.75  33 2.75  28 2.75  30 2.75  14 2.75  48 2.75  47 2.75  42 2.75
                            31 2.75
   6  0.333  0.083  0.408-  46 2.75  25 2.75  32 2.75  37 2.75  17 2.75  39 2.75  20 2.75  16 2.75
                            27 2.75
   7  0.750  0.250  0.592-   2 2.75  29 2.75  18 2.75  10 2.75  41 2.75  42 2.75  24 2.75  30 2.75
                            12 2.75
   8  0.833  0.583  0.408-  11 2.75  17 2.75  32 2.75  36 2.75  40 2.75   4 2.75  34 2.75  31 2.75
                             9 2.75
   9  0.667  0.667  0.500-   4 2.75  42 2.75  45 2.75  19 2.75  31 2.75   2 2.75  16 2.75  43 2.75
                            11 2.75  17 2.75   8 2.75  48 2.75
  10  0.000  0.000  0.592-  29 2.75  38 2.75  28 2.75   1 2.75  30 2.75   7 2.75  26 2.75  41 2.75
                             3 2.75
  11  0.917  0.667  0.500-   8 2.75   5 2.75  48 2.75  19 2.75  31 2.75  33 2.75   3 2.75   9 2.75
                            15 2.75  40 2.75  28 2.75  34 2.75
  12  0.667  0.167  0.500-  20 2.75  41 2.75  24 2.75   2 2.75  23 2.75   3 2.75  19 2.75  29 2.75
                            46 2.75  22 2.75  44 2.75   7 2.75
  13  0.083  0.833  0.408-  38 2.75  35 2.75  34 2.75  39 2.75  44 2.75  40 2.75  37 2.75  15 2.75
                             3 2.75
  14  0.250  0.250  0.592-  33 2.75  46 2.75  26 2.75   5 2.75  21 2.75  47 2.75  30 2.75  24 2.75
                            27 2.75
  15  0.167  0.667  0.500-  34 2.75  47 2.75  28 2.75  33 2.75  23 2.75  38 2.75   3 2.75  43 2.75
                            11 2.75  13 2.75  35 2.75   1 2.75
  16  0.417  0.917  0.500-  37 2.75  45 2.75  26 2.75   9 2.75  43 2.75  27 2.75  46 2.75  38 2.75
                            19 2.75   6 2.75  21 2.75  17 2.75
  17  0.583  0.833  0.408-  19 2.75   6 2.75   8 2.75   4 2.75  20 2.75  37 2.75  40 2.75   9 2.75
                            16 2.75
  18  0.500  0.500  0.592-  43 2.75   2 2.75   7 2.75  24 2.75   1 2.75  45 2.75  42 2.75  47 2.75
                            23 2.75
  19  0.667  0.917  0.500-  17 2.75  48 2.75  21 2.75   9 2.75  11 2.75  46 2.75  12 2.75   3 2.75
                            16 2.75  20 2.75  40 2.75  41 2.75
  20  0.583  0.083  0.408-  12 2.75  17 2.75  22 2.75  25 2.75  40 2.75   6 2.75  44 2.75  19 2.75
                            46 2.75
  21  0.500  0.000  0.592-  46 2.75  19 2.75  24 2.75  45 2.75  14 2.75  48 2.75  41 2.75  26 2.75
                            16 2.75
  22  0.583  0.333  0.408-   2 2.75   4 2.75  20 2.75  35 2.75  44 2.75  36 2.75  25 2.75  12 2.75
                            23 2.75
  23  0.417  0.417  0.500-  25 2.75  24 2.75  47 2.75  15 2.75  43 2.75  46 2.75  12 2.75  33 2.75
                             2 2.75  35 2.75  22 2.75  18 2.75
  24  0.500  0.250  0.592-  23 2.75  12 2.75  21 2.75  18 2.75  41 2.75  47 2.75  14 2.75   7 2.75
                            46 2.75
  25  0.333  0.333  0.408-  23 2.75  20 2.75   6 2.75  34 2.75  35 2.75  22 2.75  32 2.75  46 2.75
                            33 2.75
  26  0.250  0.000  0.592-  27 2.75  16 2.75   1 2.75  14 2.75  30 2.75  45 2.75  21 2.75  10 2.75
                            38 2.75
  27  0.167  0.167  0.500-  39 2.75  26 2.75  30 2.75  31 2.75  33 2.75  38 2.75  16 2.75  29 2.75
                            46 2.75  32 2.75   6 2.75  14 2.75
  28  0.000  0.750  0.592-   3 2.75  15 2.75  10 2.75   5 2.75  41 2.75  47 2.75   1 2.75  48 2.75
                            11 2.75
  29  0.917  0.167  0.500-  44 2.75  10 2.75   7 2.75   3 2.75  31 2.75  38 2.75   2 2.75  27 2.75
                            12 2.75  36 2.75  39 2.75  30 2.75
  30  0.000  0.250  0.592-  31 2.75  27 2.75  26 2.75   5 2.75  10 2.75  42 2.75   7 2.75  14 2.75
                            29 2.75
  31  0.917  0.417  0.500-  36 2.75  30 2.75  42 2.75  29 2.75   9 2.75  11 2.75  27 2.75   2 2.75
                            33 2.75   8 2.75  32 2.75   5 2.75
  32  0.083  0.333  0.408-  33 2.75   8 2.75   6 2.75  34 2.75  39 2.75  36 2.75  25 2.75  27 2.75
                            31 2.75
  33  0.167  0.417  0.500-  32 2.75  14 2.75   5 2.75  15 2.75  27 2.75  11 2.75  46 2.75  23 2.75
                            31 2.75  34 2.75  25 2.75  47 2.75
  34  0.083  0.583  0.408-  15 2.75  13 2.75  25 2.75  32 2.75  40 2.75  35 2.75   8 2.75  33 2.75
                            11 2.75
  35  0.333  0.583  0.408-  43 2.75  22 2.75  25 2.75  37 2.75  13 2.75   4 2.75  34 2.75  23 2.75
                            15 2.75
  36  0.833  0.333  0.408-  31 2.75   8 2.75   4 2.75  39 2.75  44 2.75  22 2.75  32 2.75  29 2.75
                             2 2.75
  37  0.333  0.833  0.408-  16 2.75   6 2.75   4 2.75  35 2.75  39 2.75  13 2.75  17 2.75  43 2.75
                            38 2.75
  38  0.167  0.917  0.500-  13 2.75   1 2.75  10 2.75  15 2.75  27 2.75  29 2.75  43 2.75  16 2.75
                             3 2.75  39 2.75  26 2.75  37 2.75
  39  0.083  0.083  0.408-  27 2.75  13 2.75  32 2.75  36 2.75  37 2.75   6 2.75  44 2.75  38 2.75
                            29 2.75
  40  0.833  0.833  0.408-   3 2.75   8 2.75  20 2.75  34 2.75  44 2.75  17 2.75  13 2.75  11 2.75
                            19 2.75
  41  0.750  0.000  0.592-  12 2.75   3 2.75   7 2.75  24 2.75  28 2.75  48 2.75  21 2.75  10 2.75
                            19 2.75
  42  0.750  0.500  0.592-   9 2.75  31 2.75  30 2.75   7 2.75  45 2.75  48 2.75   5 2.75  18 2.75
                             2 2.75
  43  0.417  0.667  0.500-  35 2.75  18 2.75   1 2.75   2 2.75  23 2.75  16 2.75  38 2.75  15 2.75
                             9 2.75  37 2.75   4 2.75  45 2.75
  44  0.833  0.083  0.408-  29 2.75  22 2.75  13 2.75  36 2.75  40 2.75  39 2.75  20 2.75   3 2.75
                            12 2.75
  45  0.500  0.750  0.592-  16 2.75   9 2.75  18 2.75  21 2.75  26 2.75  42 2.75   1 2.75  48 2.75
                            43 2.75
  46  0.417  0.167  0.500-   6 2.75  21 2.75  14 2.75  19 2.75  16 2.75  23 2.75  33 2.75  27 2.75
                            12 2.75  25 2.75  24 2.75  20 2.75
  47  0.250  0.500  0.592-  15 2.75  23 2.75   1 2.75  14 2.75  24 2.75  28 2.75  18 2.75   5 2.75
                            33 2.75
  48  0.750  0.750  0.592-  19 2.75  11 2.75   5 2.75  21 2.75  41 2.75  42 2.75  28 2.75  45 2.75
                             9 2.75
 
  LATTYP: Found a hexagonal cell.
 ALAT       =    11.0025815153
 C/A-ratio  =     2.2260035120
  
  Lattice vectors:
  
 A1 = (   5.5012907576,  -9.5285150994,   0.0000000000)
 A2 = ( -11.0025815153,   0.0000000000,   0.0000000000)
 A3 = (   0.0000000000,   0.0000000000, -24.4917850943)


Analysis of symmetry for initial positions (statically):
=====================================================================
 Subroutine PRICEL returns:
 Original cell was already a primitive cell.
 

 Routine SETGRP: Setting up the symmetry group for a 
 hexagonal supercell.


 Subroutine GETGRP returns: Found  1 space group operations
 (whereof  1 operations were pure point group operations)
 out of a pool of 24 trial point group operations.


The static configuration has the point symmetry C_1 .


Analysis of symmetry for dynamics (positions and initial velocities):
=====================================================================
 Subroutine PRICEL returns:
 Original cell was already a primitive cell.
 

 Routine SETGRP: Setting up the symmetry group for a 
 hexagonal supercell.


 Subroutine GETGRP returns: Found  1 space group operations
 (whereof  1 operations were pure point group operations)
 out of a pool of 24 trial point group operations.


The dynamic configuration has the point symmetry C_1 .


Analysis of constrained symmetry for selective dynamics:
=====================================================================
 Subroutine PRICEL returns:
 Original cell was already a primitive cell.
 

 Routine SETGRP: Setting up the symmetry group for a 
 hexagonal supercell.


 Subroutine GETGRP returns: Found  1 space group operations
 (whereof  1 operations were pure point group operations)
 out of a pool of 24 trial point group operations.


The constrained configuration has the point symmetry C_1 .
 
 
 KPOINTS: Automatic mesh                          

Automatic generation of k-mesh.
Space group operators:
 irot       det(A)        alpha          n_x          n_y          n_z        tau_x        tau_y        tau_z
    1     1.000000     0.000000     1.000000     0.000000     0.000000     0.000000     0.000000     0.000000
 
 Subroutine IBZKPT returns following result:
 ===========================================
 
 Found      6 irreducible k-points:
 
 Following reciprocal coordinates:
            Coordinates               Weight
  0.250000  0.250000  0.000000     16.000000
  0.000000  0.250000  0.000000     16.000000
 -0.250000  0.000000  0.000000     16.000000
 -0.250000  0.250000  0.000000     16.000000
  0.500000 -0.250000  0.000000     16.000000
 -0.250000  0.500000  0.000000     16.000000
 
 Following cartesian coordinates:
            Coordinates               Weight
  0.022722  0.013119  0.000000     16.000000
  0.000000  0.026237  0.000000     16.000000
 -0.022722  0.013119  0.000000     16.000000
 -0.022722  0.039356  0.000000     16.000000
  0.045444 -0.052474  0.000000     16.000000
 -0.022722  0.065593  0.000000     16.000000
 


--------------------------------------------------------------------------------------------------------




 Dimension of arrays:
   k-points           NKPTS =      6   k-points in BZ     NKDIM =      6   number of bands    NBANDS=    306
   number of dos      NEDOS =    301   number of ions     NIONS =     48
   non local maximal  LDIM  =      6   non local SUM 2l+1 LMDIM =     18
   total plane-waves  NPLWV = 349920
   max r-space proj   IRMAX =   2009   max aug-charges    IRDMAX=   8532
   dimension x,y,z NGX =    54 NGY =   54 NGZ =  120
   dimension x,y,z NGXF=   108 NGYF=  108 NGZF=  240
   support grid    NGXF=   108 NGYF=  108 NGZF=  240
   ions per type =              24  24
 NGX,Y,Z   is equivalent  to a cutoff of   8.16,  8.16,  8.15 a.u.
 NGXF,Y,Z  is equivalent  to a cutoff of  16.32, 16.32, 16.29 a.u.


 I would recommend the setting:
   dimension x,y,z NGX =    54 NGY =   54 NGZ =  120
 SYSTEM =  unknown system                          
 POSCAR =  Au Pd                                   

 Startparameter for this run:
   NWRITE =      1    write-flag & timer
   PREC   = normal    normal or accurate (medium, high low for compatibility)
   ISTART =      0    job   : 0-new  1-cont  2-samecut
   ICHARG =      2    charge: 1-file 2-atom 10-const
   ISPIN  =      1    spin polarized calculation?
   LNONCOLLINEAR =      F non collinear calculations
   LSORBIT =      F    spin-orbit coupling
   INIWAV =      1    electr: 0-lowe 1-rand  2-diag
   LASPH  =      F    aspherical Exc in radial PAW
   METAGGA=      F    non-selfconsistent MetaGGA calc.

 Electronic Relaxation 1
   ENCUT  =  400.0 eV  29.40 Ry    5.42 a.u.  17.94 17.94 39.94*2*pi/ulx,y,z
   ENINI  =  400.0     initial cutoff
   ENAUG  =  416.2 eV  augmentation charge cutoff
   NELM   =    500;   NELMIN=  2; NELMDL= -5     # of ELM steps 
   EDIFF  = 0.1E-05   stopping-criterion for ELM
   LREAL  =      T    real-space projection
   NLSPLINE    = F    spline interpolate recip. space projectors
   LCOMPAT=      F    compatible to vasp.4.4
   GGA_COMPAT  = T    GGA compatible to vasp.4.4-vasp.4.6
   LMAXPAW     = -100 max onsite density
   LMAXMIX     =    2 max onsite mixed and CHGCAR
   VOSKOWN=      1    Vosko Wilk Nusair interpolation
   ROPT   =   -0.00050  -0.00050
 Ionic relaxation
   EDIFFG = -.2E-01   stopping-criterion for IOM
   NSW    =    500    number of steps for IOM
   NBLOCK =      1;   KBLOCK =    500    inner block; outer block 
   IBRION =      2    ionic relax: 0-MD 1-quasi-New 2-CG
   NFREE  =      2    steps in history (QN), initial steepest desc. (CG)
   ISIF   =      0    stress and relaxation
   IWAVPR =     11    prediction:  0-non 1-charg 2-wave 3-comb
   ISYM   =      2    0-nonsym 1-usesym 2-fastsym
   LCORR  =      T    Harris-Foulkes like correction to forces

   POTIM  = 0.3500    time-step for ionic-motion
   TEIN   =    0.0    initial temperature
   TEBEG  =    0.0;   TEEND  =   0.0 temperature during run
   SMASS  =  -3.00    Nose mass-parameter (am)
   estimated Nose-frequenzy (Omega)   =  0.10E-29 period in steps =****** mass=  -0.277E-26a.u.
   SCALEE = 1.0000    scale energy and forces
   NPACO  =    256;   APACO  = 16.0  distance and # of slots for P.C.
   PSTRESS=    0.0 pullay stress

  Mass of Ions in am
   POMASS = 196.97106.42
  Ionic Valenz
   ZVAL   =  11.00 10.00
  Atomic Wigner-Seitz radii
   RWIGS  =  -1.00 -1.00
  virtual crystal weights 
   VCA    =   1.00  1.00
   NELECT =     504.0000    total number of electrons
   NUPDOWN=      -1.0000    fix difference up-down

 DOS related values:
   EMIN   =  10.00;   EMAX   =-10.00  energy-range for DOS
   EFERMI =   0.00
   ISMEAR =     0;   SIGMA  =   0.10  broadening in eV -4-tet -1-fermi 0-gaus

 Electronic relaxation 2 (details)
   IALGO  =     68    algorithm
   LDIAG  =      T    sub-space diagonalisation (order eigenvalues)
   LSUBROT=      F    optimize rotation matrix (better conditioning)
   TURBO    =      0    0=normal 1=particle mesh
   IRESTART =      0    0=no restart 2=restart with 2 vectors
   NREBOOT  =      0    no. of reboots
   NMIN     =      0    reboot dimension
   EREF     =   0.00    reference energy to select bands
   IMIX   =      4    mixing-type and parameters
     AMIX     =   0.40;   BMIX     =  1.00
     AMIX_MAG =   1.60;   BMIX_MAG =  1.00
     AMIN     =   0.10
     WC   =   100.;   INIMIX=   1;  MIXPRE=   1;  MAXMIX= -45

 Intra band minimization:
   WEIMIN = 0.0010     energy-eigenvalue tresh-hold
   EBREAK =  0.82E-09  absolut break condition
   DEPER  =   0.30     relativ break condition  

   TIME   =   0.40     timestep for ELM

  volume/ion in A,a.u.               =      53.49       360.99
  Fermi-wavevector in a.u.,A,eV,Ry     =   0.951418  1.797920 12.315955  0.905197
  Thomas-Fermi vector in A             =   2.079887
 
 Write flags
   LWAVE  =      F    write WAVECAR
   LCHARG =      F    write CHGCAR
   LVTOT  =      F    write LOCPOT, total local potential
   LVHAR  =      F    write LOCPOT, Hartree potential only
   LELF   =      F    write electronic localiz. function (ELF)
   LORBIT =      0    0 simple, 1 ext, 2 COOP (PROOUT)


 Dipole corrections
   LMONO  =      F    monopole corrections only (constant potential shift)
   LDIPOL =      T    correct potential (dipole corrections)
   IDIPOL =      3    1-x, 2-y, 3-z, 4-all directions 
   EPSILON=  1.0000000 bulk dielectric constant

 Exchange correlation treatment:
   GGA     =    PE    GGA type
   LEXCH   =     8    internal setting for exchange type
   VOSKOWN=      1    Vosko Wilk Nusair interpolation
   LHFCALC =     F    Hartree Fock is set to
   LHFONE  =     F    Hartree Fock one center treatment
   AEXX    =    0.0000 exact exchange contribution

 Linear response parameters
   LEPSILON=     F    determine dielectric tensor
   LRPA    =     F    only Hartree local field effects (RPA)
   LNABLA  =     F    use nabla operator in PAW spheres
   LVEL    =     F    velocity operator in full k-point grid
   LINTERFAST=   F  fast interpolation
   KINTER  =     0    interpolate to denser k-point grid
   CSHIFT  =0.1000    complex shift for real part using Kramers Kronig
   OMEGAMAX=  -1.0    maximum frequency
   DEG_THRESHOLD= 0.2000000E-02 threshold for treating states as degnerate
   RTIME   =    0.100 relaxation time in fs

 Orbital magnetization related:
   ORBITALMAG=     F  switch on orbital magnetization
   LCHIMAG   =     F  perturbation theory with respect to B field
   DQ        =  0.001000  dq finite difference perturbation B field



--------------------------------------------------------------------------------------------------------


 conjugate gradient relaxation of ions
   using selective dynamics as specified on POSCAR
   WARNING: If single coordinates had been selected the selection of coordinates
            is made according to the corresponding   d i r e c t   coordinates!
            Don't support selection of single cartesian coordinates -- sorry ...
  !
 charge density and potential will be updated during run
 non-spin polarized calculation
 RMM-DIIS sequential band-by-band and
  variant of blocked Davidson during initial phase
 perform sub-space diagonalisation
    before iterative eigenvector-optimisation
 modified Broyden-mixing scheme, WC =      100.0
 initial mixing is a Kerker type mixing with AMIX =  0.4000 and BMIX =      1.0000
 Hartree-type preconditioning will be used
 using additional bands           54
 real space projection scheme for non local part
 use partial core corrections
 calculate Harris-corrections to forces 
   (improved forces if not selfconsistent)
 use gradient corrections 
 use of overlap-Matrix (Vanderbilt PP)
 Gauss-broadening in eV      SIGMA  =   0.10


--------------------------------------------------------------------------------------------------------


  energy-cutoff  :      400.00
  volume of cell :     2567.68
      direct lattice vectors                 reciprocal lattice vectors
    11.002581515  0.000000000  0.000000000     0.090887761 -0.052474073  0.000000000
     5.501290758  9.528515099  0.000000000     0.000000000  0.104948147  0.000000000
     0.000000000  0.000000000 24.491785094     0.000000000  0.000000000  0.040830017

  length of vectors
    11.002581515 11.002581515 24.491785094     0.104948147  0.104948147  0.040830017


 
 k-points in units of 2pi/SCALE and weight: Automatic mesh                          
   0.02272194  0.01311852  0.00000000       0.167
   0.00000000  0.02623704  0.00000000       0.167
  -0.02272194  0.01311852  0.00000000       0.167
  -0.02272194  0.03935555  0.00000000       0.167
   0.04544388 -0.05247407  0.00000000       0.167
  -0.02272194  0.06559259  0.00000000       0.167
 
 k-points in reciprocal lattice and weights: Automatic mesh                          
   0.25000000  0.25000000  0.00000000       0.167
   0.00000000  0.25000000  0.00000000       0.167
  -0.25000000  0.00000000  0.00000000       0.167
  -0.25000000  0.25000000  0.00000000       0.167
   0.50000000 -0.25000000  0.00000000       0.167
  -0.25000000  0.50000000  0.00000000       0.167
 
 position of ions in fractional coordinates (direct lattice) 
   0.25000000  0.75000000  0.59169983
   0.66666667  0.41666667  0.50000000
   0.91666667  0.91666667  0.50000000
   0.58333333  0.58333333  0.40830017
   0.00000000  0.50000000  0.59169983
   0.33333333  0.08333333  0.40830017
   0.75000000  0.25000000  0.59169983
   0.83333333  0.58333333  0.40830017
   0.66666667  0.66666667  0.50000000
   0.00000000  0.00000000  0.59169983
   0.91666667  0.66666667  0.50000000
   0.66666667  0.16666667  0.50000000
   0.08333333  0.83333333  0.40830017
   0.25000000  0.25000000  0.59169983
   0.16666667  0.66666667  0.50000000
   0.41666667  0.91666667  0.50000000
   0.58333333  0.83333333  0.40830017
   0.50000000  0.50000000  0.59169983
   0.66666667  0.91666667  0.50000000
   0.58333333  0.08333333  0.40830017
   0.50000000  0.00000000  0.59169983
   0.58333333  0.33333333  0.40830017
   0.41666667  0.41666667  0.50000000
   0.50000000  0.25000000  0.59169983
   0.33333333  0.33333333  0.40830017
   0.25000000  0.00000000  0.59169983
   0.16666667  0.16666667  0.50000000
   0.00000000  0.75000000  0.59169983
   0.91666667  0.16666667  0.50000000
   0.00000000  0.25000000  0.59169983
   0.91666667  0.41666667  0.50000000
   0.08333333  0.33333333  0.40830017
   0.16666667  0.41666667  0.50000000
   0.08333333  0.58333333  0.40830017
   0.33333333  0.58333333  0.40830017
   0.83333333  0.33333333  0.40830017
   0.33333333  0.83333333  0.40830017
   0.16666667  0.91666667  0.50000000
   0.08333333  0.08333333  0.40830017
   0.83333333  0.83333333  0.40830017
   0.75000000  0.00000000  0.59169983
   0.75000000  0.50000000  0.59169983
   0.41666667  0.66666667  0.50000000
   0.83333333  0.08333333  0.40830017
   0.50000000  0.75000000  0.59169983
   0.41666667  0.16666667  0.50000000
   0.25000000  0.50000000  0.59169983
   0.75000000  0.75000000  0.59169983
 
 position of ions in cartesian coordinates  (Angst):
   6.87661345  7.14638632 14.49178509
   9.62725883  3.97021462 12.24589255
  15.12854958  8.73447217 12.24589255
   9.62725883  5.55830047 10.00000000
   2.75064538  4.76425755 14.49178509
   4.12596807  0.79404292 10.00000000
   9.62725883  2.38212877 14.49178509
  12.37790420  5.55830047 10.00000000
  11.00258152  6.35234340 12.24589255
   0.00000000  0.00000000 14.49178509
  13.75322689  6.35234340 12.24589255
   8.25193614  1.58808585 12.24589255
   5.50129076  7.94042925 10.00000000
   4.12596807  2.38212877 14.49178509
   5.50129076  6.35234340 12.24589255
   9.62725883  8.73447217 12.24589255
  11.00258152  7.94042925 10.00000000
   8.25193614  4.76425755 14.49178509
  12.37790420  8.73447217 12.24589255
   6.87661345  0.79404292 10.00000000
   5.50129076  0.00000000 14.49178509
   8.25193614  3.17617170 10.00000000
   6.87661345  3.97021462 12.24589255
   6.87661345  2.38212877 14.49178509
   5.50129076  3.17617170 10.00000000
   2.75064538  0.00000000 14.49178509
   2.75064538  1.58808585 12.24589255
   4.12596807  7.14638632 14.49178509
  11.00258152  1.58808585 12.24589255
   1.37532269  2.38212877 14.49178509
  12.37790420  3.97021462 12.24589255
   2.75064538  3.17617170 10.00000000
   4.12596807  3.97021462 12.24589255
   4.12596807  5.55830047 10.00000000
   6.87661345  5.55830047 10.00000000
  11.00258152  3.17617170 10.00000000
   8.25193614  7.94042925 10.00000000
   6.87661345  8.73447217 12.24589255
   1.37532269  0.79404292 10.00000000
  13.75322689  7.94042925 10.00000000
   8.25193614  0.00000000 14.49178509
  11.00258152  4.76425755 14.49178509
   8.25193614  6.35234340 12.24589255
   9.62725883  0.79404292 10.00000000
   9.62725883  7.14638632 14.49178509
   5.50129076  1.58808585 12.24589255
   5.50129076  4.76425755 14.49178509
  12.37790420  7.14638632 14.49178509
 


--------------------------------------------------------------------------------------------------------


 k-point  1 :   0.2500 0.2500 0.0000  plane waves:   46635
 k-point  2 :   0.0000 0.2500 0.0000  plane waves:   46635
 k-point  3 :  -0.2500 0.0000 0.0000  plane waves:   46635
 k-point  4 :  -0.2500 0.2500 0.0000  plane waves:   46644
 k-point  5 :   0.5000-0.2500 0.0000  plane waves:   46644
 k-point  6 :  -0.2500 0.5000 0.0000  plane waves:   46644

 maximum and minimum number of plane-waves per node :      7818     7732

 maximum number of plane-waves:     46644
 maximum index in each direction: 
   IXMAX=   18   IYMAX=   18   IZMAX=   39
   IXMIN=  -18   IYMIN=  -18   IZMIN=  -39

 WARNING: aliasing errors must be expected set NGX to  74 to avoid them
 WARNING: aliasing errors must be expected set NGY to  74 to avoid them
 WARNING: aliasing errors must be expected set NGZ to 158 to avoid them
 aliasing errors are usually negligible using standard VASP settings
 and one can safely disregard these warnings

 real space projection operators:
  total allocation   :      12803.06 KBytes
  max/ min on nodes  :       2145.66       2127.94


 parallel 3D FFT for wavefunctions:
    minimum data exchange during FFTs selected (reduces bandwidth)
 parallel 3D FFT for charge:
    minimum data exchange during FFTs selected (reduces bandwidth)


 total amount of memory used by VASP on root node    84353. kBytes
========================================================================

   base      :      30000. kBytes
   nonlr-proj:       4285. kBytes
   fftplans  :       4447. kBytes
   grid      :       6721. kBytes
   one-center:        124. kBytes
   wavefun   :      38776. kBytes
 
     INWAV:  cpu time    0.0000: real time    0.0000
 Broyden mixing: mesh for mixing (old mesh)
   NGX = 35   NGY = 35   NGZ = 79
  (NGX  =108   NGY  =108   NGZ  =240)
  gives a total of  96775 points

 initial charge density was supplied:
 charge density of overlapping atoms calculated
 number of electron     504.0000000 magnetization 
 keeping initial charge density in first step


--------------------------------------------------------------------------------------------------------


 Maximum index for non-local projection operator          355
 Maximum index for augmentation-charges          437 (set IRDMAX)


--------------------------------------------------------------------------------------------------------


 First call to EWALD:  gamma=   0.129
 Maximum number of real-space cells 4x 4x 2
 Maximum number of reciprocal cells 2x 2x 5

 FEWALD executed in parallel
    FEWALD:  cpu time    0.0023: real time    0.0029


----------------------------------------- Iteration    1(   1)  ---------------------------------------


    POTLOK:  cpu time    0.0551: real time    0.0552
    SETDIJ:  cpu time    0.0065: real time    0.0065
     EDDAV:  cpu time    9.3545: real time    9.3607
       DOS:  cpu time    0.0014: real time    0.0014
    --------------------------------------------
      LOOP:  cpu time    9.4215: real time    9.4305

 eigenvalue-minimisations  :  3672
 total energy-change (2. order) : 0.3200287E+04  (-0.1897589E+05)
 number of electron     504.0000000 magnetization 
 augmentation part      504.0000000 magnetization 

 DIPCOR: dipole corrections for dipol
 direction  3 min pos     1,
 dipolmoment           0.000000      0.000000     -0.000001 electrons x Angstroem
 Tr[quadrupol]    -10339.531857

 energy correction for charged system         0.000000 eV
 dipol+quadrupol energy correction           -0.000000 eV
 added-field ion interaction          0.000000 eV  (added to PSCEN)


 Free energy of the ion-electron system (eV)
  ---------------------------------------------------
  alpha Z        PSCENC =       805.86936440
  Ewald energy   TEWEN  =    200402.67088931
  -Hartree energ DENC   =   -242818.05458939
  -exchange      EXHF   =         0.00000000
  -V(xc)+E(xc)   XCENC  =      -327.56437375
  PAW double counting   =     40340.05962942   -38292.62782345
  entropy T*S    EENTRO =        -0.13805135
  eigenvalues    EBANDS =      1430.28628412
  atomic energy  EATOM  =     41659.78587232
  Solvation  Ediel_sol  =         0.00000000
  ---------------------------------------------------
  free energy    TOTEN  =      3200.28720165 eV

  energy without entropy =     3200.42525299  energy(sigma->0) =     3200.35622732


--------------------------------------------------------------------------------------------------------




----------------------------------------- Iteration    1(   2)  ---------------------------------------


     EDDAV:  cpu time   11.6657: real time   11.6997
       DOS:  cpu time    0.0016: real time    0.0016
    --------------------------------------------
      LOOP:  cpu time   11.6680: real time   11.7040

 eigenvalue-minimisations  :  4392
 total energy-change (2. order) :-0.3184311E+04  (-0.2933112E+04)
 number of electron     504.0000000 magnetization 
 augmentation part      504.0000000 magnetization 

 DIPCOR: dipole corrections for dipol
 direction  3 min pos     1,
 dipolmoment           0.000000      0.000000     -0.000001 electrons x Angstroem
 Tr[quadrupol]    -10339.531857

 energy correction for charged system         0.000000 eV
 dipol+quadrupol energy correction           -0.000000 eV
 added-field ion interaction          0.000000 eV  (added to PSCEN)


 Free energy of the ion-electron system (eV)
  ---------------------------------------------------
  alpha Z        PSCENC =       805.86936440
  Ewald energy   TEWEN  =    200402.67088931
  -Hartree energ DENC   =   -242818.05458939
  -exchange      EXHF   =         0.00000000
  -V(xc)+E(xc)   XCENC  =      -327.56437375
  PAW double counting   =     40340.05962942   -38292.62782345
  entropy T*S    EENTRO =        -0.11825737
  eigenvalues    EBANDS =     -1754.04488672
  atomic energy  EATOM  =     41659.78587232
  Solvation  Ediel_sol  =         0.00000000
  ---------------------------------------------------
  free energy    TOTEN  =        15.97582478 eV

  energy without entropy =       16.09408215  energy(sigma->0) =       16.03495346


--------------------------------------------------------------------------------------------------------




----------------------------------------- Iteration    1(   3)  ---------------------------------------


     EDDAV:  cpu time   10.6505: real time   10.7195
       DOS:  cpu time    0.0017: real time    0.0017
    --------------------------------------------
      LOOP:  cpu time   10.6536: real time   10.7251

 eigenvalue-minimisations  :  4116
 total energy-change (2. order) :-0.2161203E+03  (-0.2003891E+03)
 number of electron     504.0000000 magnetization 
 augmentation part      504.0000000 magnetization 

 DIPCOR: dipole corrections for dipol
 direction  3 min pos     1,
 dipolmoment           0.000000      0.000000     -0.000001 electrons x Angstroem
 Tr[quadrupol]    -10339.531857

 energy correction for charged system         0.000000 eV
 dipol+quadrupol energy correction           -0.000000 eV
 added-field ion interaction          0.000000 eV  (added to PSCEN)


 Free energy of the ion-electron system (eV)
  ---------------------------------------------------
  alpha Z        PSCENC =       805.86936440
  Ewald energy   TEWEN  =    200402.67088931
  -Hartree energ DENC   =   -242818.05458939
  -exchange      EXHF   =         0.00000000
  -V(xc)+E(xc)   XCENC  =      -327.56437375
  PAW double counting   =     40340.05962942   -38292.62782345
  entropy T*S    EENTRO =        -0.21024268
  eigenvalues    EBANDS =     -1970.07319764
  atomic energy  EATOM  =     41659.78587232
  Solvation  Ediel_sol  =         0.00000000
  ---------------------------------------------------
  free energy    TOTEN  =      -200.14447145 eV

  energy without entropy =     -199.93422877  energy(sigma->0) =     -200.03935011


--------------------------------------------------------------------------------------------------------




----------------------------------------- Iteration    1(   4)  ---------------------------------------


     EDDAV:  cpu time   10.9622: real time   10.9694
       DOS:  cpu time    0.0016: real time    0.0016
    --------------------------------------------
      LOOP:  cpu time   10.9652: real time   10.9756

 eigenvalue-minimisations  :  4236
 total energy-change (2. order) :-0.5886704E+01  (-0.5820984E+01)
 number of electron     504.0000000 magnetization 
 augmentation part      504.0000000 magnetization 

 DIPCOR: dipole corrections for dipol
 direction  3 min pos     1,
 dipolmoment           0.000000      0.000000     -0.000001 electrons x Angstroem
 Tr[quadrupol]    -10339.531857

 energy correction for charged system         0.000000 eV
 dipol+quadrupol energy correction           -0.000000 eV
 added-field ion interaction          0.000000 eV  (added to PSCEN)


 Free energy of the ion-electron system (eV)
  ---------------------------------------------------
  alpha Z        PSCENC =       805.86936440
  Ewald energy   TEWEN  =    200402.67088931
  -Hartree energ DENC   =   -242818.05458939
  -exchange      EXHF   =         0.00000000
  -V(xc)+E(xc)   XCENC  =      -327.56437375
  PAW double counting   =     40340.05962942   -38292.62782345
  entropy T*S    EENTRO =        -0.21719440
  eigenvalues    EBANDS =     -1975.95294954
  atomic energy  EATOM  =     41659.78587232
  Solvation  Ediel_sol  =         0.00000000
  ---------------------------------------------------
  free energy    TOTEN  =      -206.03117507 eV

  energy without entropy =     -205.81398067  energy(sigma->0) =     -205.92257787


--------------------------------------------------------------------------------------------------------




----------------------------------------- Iteration    1(   5)  ---------------------------------------


     EDDAV:  cpu time   11.2679: real time   11.2738
       DOS:  cpu time    0.0018: real time    0.0018
    CHARGE:  cpu time    0.3014: real time    0.3016
    MIXING:  cpu time    0.0023: real time    0.0024
    --------------------------------------------
      LOOP:  cpu time   11.5749: real time   11.5825

 eigenvalue-minimisations  :  4416
 total energy-change (2. order) :-0.1974654E+00  (-0.1968515E+00)
 number of electron     503.9998406 magnetization 
 augmentation part      191.3342794 magnetization 

 DIPCOR: dipole corrections for dipol
 direction  3 min pos     1,
 dipolmoment           0.000000      0.000000     -0.000001 electrons x Angstroem
 Tr[quadrupol]    -10339.531857

 energy correction for charged system         0.000000 eV
 dipol+quadrupol energy correction           -0.000000 eV
 added-field ion interaction          0.000000 eV  (added to PSCEN)


 Broyden mixing:
  rms(total) = 0.62540E+01    rms(broyden)= 0.62539E+01
  rms(prec ) = 0.63815E+01
  weight for this iteration     100.00

 Free energy of the ion-electron system (eV)
  ---------------------------------------------------
  alpha Z        PSCENC =       805.86936440
  Ewald energy   TEWEN  =    200402.67088931
  -Hartree energ DENC   =   -242818.05458939
  -exchange      EXHF   =         0.00000000
  -V(xc)+E(xc)   XCENC  =      -327.56437375
  PAW double counting   =     40340.05962942   -38292.62782345
  entropy T*S    EENTRO =        -0.21731243
  eigenvalues    EBANDS =     -1976.15029695
  atomic energy  EATOM  =     41659.78587232
  Solvation  Ediel_sol  =         0.00000000
  ---------------------------------------------------
  free energy    TOTEN  =      -206.22864051 eV

  energy without entropy =     -206.01132808  energy(sigma->0) =     -206.11998429


--------------------------------------------------------------------------------------------------------




----------------------------------------- Iteration    1(   6)  ---------------------------------------


    POTLOK:  cpu time    0.0506: real time    0.0509
    SETDIJ:  cpu time    0.0060: real time    0.0062
    EDDIAG:  cpu time    1.6505: real time    1.6519
  RMM-DIIS:  cpu time    4.5256: real time    4.5281
    ORTHCH:  cpu time    0.4141: real time    0.4143
       DOS:  cpu time    0.0016: real time    0.0016
    CHARGE:  cpu time    0.3049: real time    0.3050
    MIXING:  cpu time    0.0021: real time    0.0021
    --------------------------------------------
      LOOP:  cpu time    6.9562: real time    6.9649

 eigenvalue-minimisations  :  3679
 total energy-change (2. order) : 0.5495853E+01  (-0.9377767E+01)
 number of electron     503.9998420 magnetization 
 augmentation part      191.6714074 magnetization 

 DIPCOR: dipole corrections for dipol
 direction  3 min pos     1,
 dipolmoment           0.000000      0.000000     -0.345503 electrons x Angstroem
 Tr[quadrupol]    -10340.218200

 energy correction for charged system         0.000000 eV
 dipol+quadrupol energy correction           -0.004206 eV
 added-field ion interaction          0.054686 eV  (added to PSCEN)


 Broyden mixing:
  rms(total) = 0.56842E+01    rms(broyden)= 0.56840E+01
  rms(prec ) = 0.59687E+01
  weight for this iteration     100.00

 eigenvalues of (default mixing * dielectric matrix)
  average eigenvalue GAMMA=   0.6871
  0.6871

 Free energy of the ion-electron system (eV)
  ---------------------------------------------------
  alpha Z        PSCENC =       805.91984368
  Ewald energy   TEWEN  =    200402.67088931
  -Hartree energ DENC   =   -242543.60959915
  -exchange      EXHF   =         0.00000000
  -V(xc)+E(xc)   XCENC  =      -339.97511245
  PAW double counting   =     43930.14896573   -41941.89801664
  entropy T*S    EENTRO =        -0.28494167
  eigenvalues    EBANDS =     -2173.49068837
  atomic energy  EATOM  =     41659.78587232
  Solvation  Ediel_sol  =         0.00000000
  ---------------------------------------------------
  free energy    TOTEN  =      -200.73278723 eV

  energy without entropy =     -200.44784556  energy(sigma->0) =     -200.59031640


--------------------------------------------------------------------------------------------------------




----------------------------------------- Iteration    1(   7)  ---------------------------------------


    POTLOK:  cpu time    0.0506: real time    0.0506
    SETDIJ:  cpu time    0.0060: real time    0.0060
    EDDIAG:  cpu time    1.6544: real time    1.6564
  RMM-DIIS:  cpu time    4.5235: real time    4.5254
    ORTHCH:  cpu time    0.4136: real time    0.4138
       DOS:  cpu time    0.0016: real time    0.0016
    CHARGE:  cpu time    0.3021: real time    0.3021
    MIXING:  cpu time    0.0021: real time    0.0021
    --------------------------------------------
      LOOP:  cpu time    6.9547: real time    6.9602

 eigenvalue-minimisations  :  3683
 total energy-change (2. order) :-0.7823052E+01  (-0.5924530E+01)
 number of electron     503.9998375 magnetization 
 augmentation part      195.4571236 magnetization 

 DIPCOR: dipole corrections for dipol
 direction  3 min pos     1,
 dipolmoment           0.000000      0.000000      0.892227 electrons x Angstroem
 Tr[quadrupol]    -10339.131883

 energy correction for charged system         0.000000 eV
 dipol+quadrupol energy correction           -0.028051 eV
 added-field ion interaction         -0.141220 eV  (added to PSCEN)


 Broyden mixing:
  rms(total) = 0.45882E+01    rms(broyden)= 0.45880E+01
  rms(prec ) = 0.51906E+01
  weight for this iteration     100.00

 eigenvalues of (default mixing * dielectric matrix)
  average eigenvalue GAMMA=   0.8937
  1.4429  0.3445

 Free energy of the ion-electron system (eV)
  ---------------------------------------------------
  alpha Z        PSCENC =       805.70009255
  Ewald energy   TEWEN  =    200402.67088931
  -Hartree energ DENC   =   -242413.12794161
  -exchange      EXHF   =         0.00000000
  -V(xc)+E(xc)   XCENC  =      -342.10820925
  PAW double counting   =     45255.02816286   -43290.40898832
  entropy T*S    EENTRO =        -0.23409673
  eigenvalues    EBANDS =     -2285.86162067
  atomic energy  EATOM  =     41659.78587232
  Solvation  Ediel_sol  =         0.00000000
  ---------------------------------------------------
  free energy    TOTEN  =      -208.55583954 eV

  energy without entropy =     -208.32174281  energy(sigma->0) =     -208.43879117


--------------------------------------------------------------------------------------------------------




----------------------------------------- Iteration    1(   8)  ---------------------------------------


    POTLOK:  cpu time    0.0496: real time    0.0496
    SETDIJ:  cpu time    0.0060: real time    0.0060
    EDDIAG:  cpu time    1.6427: real time    1.6478
  RMM-DIIS:  cpu time    4.3318: real time    4.3979
    ORTHCH:  cpu time    0.4162: real time    0.4200
       DOS:  cpu time    0.0017: real time    0.0017
    CHARGE:  cpu time    0.4131: real time    0.4152
    MIXING:  cpu time    0.0042: real time    0.0042
    --------------------------------------------
      LOOP:  cpu time    6.8660: real time    6.9448

 eigenvalue-minimisations  :  3678
 total energy-change (2. order) :-0.1906938E+02  (-0.8764429E+01)
 number of electron     503.9998362 magnetization 
 augmentation part      195.5681305 magnetization 

 DIPCOR: dipole corrections for dipol
 direction  3 min pos     1,
 dipolmoment           0.000000      0.000000     -1.938922 electrons x Angstroem
 Tr[quadrupol]    -10340.882479

 energy correction for charged system         0.000000 eV
 dipol+quadrupol energy correction           -0.132472 eV
 added-field ion interaction          0.306890 eV  (added to PSCEN)


 Broyden mixing:
  rms(total) = 0.46847E+01    rms(broyden)= 0.46844E+01
  rms(prec ) = 0.57596E+01
  weight for this iteration     100.00

 eigenvalues of (default mixing * dielectric matrix)
  average eigenvalue GAMMA=   0.8741
  1.9683  0.3769  0.2770

 Free energy of the ion-electron system (eV)
  ---------------------------------------------------
  alpha Z        PSCENC =       806.04378208
  Ewald energy   TEWEN  =    200402.67088931
  -Hartree energ DENC   =   -242395.91636599
  -exchange      EXHF   =         0.00000000
  -V(xc)+E(xc)   XCENC  =      -344.39006174
  PAW double counting   =     47059.46418427   -45122.43874795
  entropy T*S    EENTRO =        -0.25523962
  eigenvalues    EBANDS =     -2292.58953203
  atomic energy  EATOM  =     41659.78587232
  Solvation  Ediel_sol  =         0.00000000
  ---------------------------------------------------
  free energy    TOTEN  =      -227.62521934 eV

  energy without entropy =     -227.36997972  energy(sigma->0) =     -227.49759953


--------------------------------------------------------------------------------------------------------




----------------------------------------- Iteration    1(   9)  ---------------------------------------


    POTLOK:  cpu time    0.0658: real time    0.0661
    SETDIJ:  cpu time    0.0078: real time    0.0078
    EDDIAG:  cpu time    2.0284: real time    2.0395
  RMM-DIIS:  cpu time    4.4718: real time    4.4778
    ORTHCH:  cpu time    0.4171: real time    0.4171
       DOS:  cpu time    0.0016: real time    0.0016
    CHARGE:  cpu time    0.3062: real time    0.3065
    MIXING:  cpu time    0.0025: real time    0.0025
    --------------------------------------------
      LOOP:  cpu time    7.3020: real time    7.3215

 eigenvalue-minimisations  :  3681
 total energy-change (2. order) : 0.1555538E+02  (-0.5855457E+01)
 number of electron     503.9998337 magnetization 
 augmentation part      198.5359213 magnetization 

 DIPCOR: dipole corrections for dipol
 direction  3 min pos     1,
 dipolmoment           0.000000      0.000000      0.809824 electrons x Angstroem
 Tr[quadrupol]    -10341.908479

 energy correction for charged system         0.000000 eV
 dipol+quadrupol energy correction           -0.023109 eV
 added-field ion interaction         -0.128178 eV  (added to PSCEN)


 Broyden mixing:
  rms(total) = 0.35956E+01    rms(broyden)= 0.35953E+01
  rms(prec ) = 0.40885E+01
  weight for this iteration     100.00

 eigenvalues of (default mixing * dielectric matrix)
  average eigenvalue GAMMA=   0.8043
  2.2286  0.3477  0.3477  0.2933

 Free energy of the ion-electron system (eV)
  ---------------------------------------------------
  alpha Z        PSCENC =       805.71807745
  Ewald energy   TEWEN  =    200402.67088931
  -Hartree energ DENC   =   -242383.42818132
  -exchange      EXHF   =         0.00000000
  -V(xc)+E(xc)   XCENC  =      -346.12486908
  PAW double counting   =     48349.12164810   -46432.86390201
  entropy T*S    EENTRO =        -0.23121132
  eigenvalues    EBANDS =     -2266.71815925
  atomic energy  EATOM  =     41659.78587232
  Solvation  Ediel_sol  =         0.00000000
  ---------------------------------------------------
  free energy    TOTEN  =      -212.06983580 eV

  energy without entropy =     -211.83862449  energy(sigma->0) =     -211.95423014


--------------------------------------------------------------------------------------------------------




----------------------------------------- Iteration    1(  10)  ---------------------------------------


    POTLOK:  cpu time    0.0503: real time    0.0514
    SETDIJ:  cpu time    0.0065: real time    0.0065
    EDDIAG:  cpu time    1.6538: real time    1.6546
  RMM-DIIS:  cpu time    4.5319: real time    4.5337
    ORTHCH:  cpu time    0.4044: real time    0.4045
       DOS:  cpu time    0.0017: real time    0.0017
    CHARGE:  cpu time    0.3026: real time    0.3030
    MIXING:  cpu time    0.0026: real time    0.0026
    --------------------------------------------
      LOOP:  cpu time    6.9546: real time    6.9622

 eigenvalue-minimisations  :  3681
 total energy-change (2. order) : 0.1445663E+02  (-0.2576737E+01)
 number of electron     503.9998333 magnetization 
 augmentation part      199.4933425 magnetization 

 DIPCOR: dipole corrections for dipol
 direction  3 min pos     1,
 dipolmoment           0.000000      0.000000     -0.406839 electrons x Angstroem
 Tr[quadrupol]    -10341.019862

 energy correction for charged system         0.000000 eV
 dipol+quadrupol energy correction           -0.005832 eV
 added-field ion interaction          0.064394 eV  (added to PSCEN)


 Broyden mixing:
  rms(total) = 0.23184E+01    rms(broyden)= 0.23181E+01
  rms(prec ) = 0.26428E+01
  weight for this iteration     100.00

 eigenvalues of (default mixing * dielectric matrix)
  average eigenvalue GAMMA=   0.7487
  2.3038  0.4122  0.4122  0.3910  0.2241

 Free energy of the ion-electron system (eV)
  ---------------------------------------------------
  alpha Z        PSCENC =       805.92792572
  Ewald energy   TEWEN  =    200402.67088931
  -Hartree energ DENC   =   -242359.97486824
  -exchange      EXHF   =         0.00000000
  -V(xc)+E(xc)   XCENC  =      -346.18519305
  PAW double counting   =     49066.08088870   -47157.92863079
  entropy T*S    EENTRO =        -0.18372385
  eigenvalues    EBANDS =     -2267.80636933
  atomic energy  EATOM  =     41659.78587232
  Solvation  Ediel_sol  =         0.00000000
  ---------------------------------------------------
  free energy    TOTEN  =      -197.61320921 eV

  energy without entropy =     -197.42948536  energy(sigma->0) =     -197.52134728


--------------------------------------------------------------------------------------------------------




----------------------------------------- Iteration    1(  11)  ---------------------------------------


    POTLOK:  cpu time    0.0500: real time    0.0500
    SETDIJ:  cpu time    0.0061: real time    0.0061
    EDDIAG:  cpu time    1.6490: real time    1.6494
  RMM-DIIS:  cpu time    4.5188: real time    4.5222
    ORTHCH:  cpu time    0.4043: real time    0.4045
       DOS:  cpu time    0.0017: real time    0.0017
    CHARGE:  cpu time    0.3027: real time    0.3028
    MIXING:  cpu time    0.0027: real time    0.0027
    --------------------------------------------
      LOOP:  cpu time    6.9362: real time    6.9432

 eigenvalue-minimisations  :  3681
 total energy-change (2. order) : 0.6060156E+01  (-0.1428237E+01)
 number of electron     503.9998342 magnetization 
 augmentation part      198.9437158 magnetization 

 DIPCOR: dipole corrections for dipol
 direction  3 min pos     1,
 dipolmoment           0.000000      0.000000     -0.013328 electrons x Angstroem
 Tr[quadrupol]    -10341.780814

 energy correction for charged system         0.000000 eV
 dipol+quadrupol energy correction           -0.000006 eV
 added-field ion interaction          0.002110 eV  (added to PSCEN)


 Broyden mixing:
  rms(total) = 0.12527E+01    rms(broyden)= 0.12524E+01
  rms(prec ) = 0.13994E+01
  weight for this iteration     100.00

 eigenvalues of (default mixing * dielectric matrix)
  average eigenvalue GAMMA=   0.6999
  2.2296  0.5299  0.5299  0.3415  0.3415  0.2270

 Free energy of the ion-electron system (eV)
  ---------------------------------------------------
  alpha Z        PSCENC =       805.87146759
  Ewald energy   TEWEN  =    200402.67088931
  -Hartree energ DENC   =   -242413.31636939
  -exchange      EXHF   =         0.00000000
  -V(xc)+E(xc)   XCENC  =      -345.62026882
  PAW double counting   =     49300.47518948   -47391.26269112
  entropy T*S    EENTRO =        -0.21685323
  eigenvalues    EBANDS =     -2209.94028943
  atomic energy  EATOM  =     41659.78587232
  Solvation  Ediel_sol  =         0.00000000
  ---------------------------------------------------
  free energy    TOTEN  =      -191.55305330 eV

  energy without entropy =     -191.33620006  energy(sigma->0) =     -191.44462668


--------------------------------------------------------------------------------------------------------




----------------------------------------- Iteration    1(  12)  ---------------------------------------


    POTLOK:  cpu time    0.0502: real time    0.0512
    SETDIJ:  cpu time    0.0056: real time    0.0061
    EDDIAG:  cpu time    1.6511: real time    1.6526
  RMM-DIIS:  cpu time    4.5234: real time    4.5263
    ORTHCH:  cpu time    0.4042: real time    0.4047
       DOS:  cpu time    0.0016: real time    0.0016
    CHARGE:  cpu time    0.3009: real time    0.3009
    MIXING:  cpu time    0.0027: real time    0.0027
    --------------------------------------------
      LOOP:  cpu time    6.9406: real time    6.9508

 eigenvalue-minimisations  :  3680
 total energy-change (2. order) : 0.2592516E+01  (-0.5023482E+00)
 number of electron     503.9998357 magnetization 
 augmentation part      197.9468287 magnetization 

 DIPCOR: dipole corrections for dipol
 direction  3 min pos     1,
 dipolmoment           0.000000      0.000000     -0.045963 electrons x Angstroem
 Tr[quadrupol]    -10341.654022

 energy correction for charged system         0.000000 eV
 dipol+quadrupol energy correction           -0.000074 eV
 added-field ion interaction          0.007275 eV  (added to PSCEN)


 Broyden mixing:
  rms(total) = 0.86529E+00    rms(broyden)= 0.86510E+00
  rms(prec ) = 0.95119E+00
  weight for this iteration     100.00

 eigenvalues of (default mixing * dielectric matrix)
  average eigenvalue GAMMA=   0.6613
  2.2402  0.4909  0.4909  0.4672  0.3577  0.3577  0.2247

 Free energy of the ion-electron system (eV)
  ---------------------------------------------------
  alpha Z        PSCENC =       805.87656472
  Ewald energy   TEWEN  =    200402.67088931
  -Hartree energ DENC   =   -242441.59926690
  -exchange      EXHF   =         0.00000000
  -V(xc)+E(xc)   XCENC  =      -344.66611057
  PAW double counting   =     49297.34650916   -47383.58924449
  entropy T*S    EENTRO =        -0.20956464
  eigenvalues    EBANDS =     -2184.57618599
  atomic energy  EATOM  =     41659.78587232
  Solvation  Ediel_sol  =         0.00000000
  ---------------------------------------------------
  free energy    TOTEN  =      -188.96053708 eV

  energy without entropy =     -188.75097243  energy(sigma->0) =     -188.85575476


--------------------------------------------------------------------------------------------------------




----------------------------------------- Iteration    1(  13)  ---------------------------------------


    POTLOK:  cpu time    0.0496: real time    0.0497
    SETDIJ:  cpu time    0.0061: real time    0.0061
    EDDIAG:  cpu time    1.6560: real time    1.6566
  RMM-DIIS:  cpu time    4.4438: real time    4.4464
    ORTHCH:  cpu time    0.4034: real time    0.4059
       DOS:  cpu time    0.0020: real time    0.0020
    CHARGE:  cpu time    0.3013: real time    0.3207
    MIXING:  cpu time    0.0028: real time    0.0028
    --------------------------------------------
      LOOP:  cpu time    6.8658: real time    6.8930

 eigenvalue-minimisations  :  3682
 total energy-change (2. order) : 0.4042949E+00  (-0.1602768E+00)
 number of electron     503.9998361 magnetization 
 augmentation part      197.4567559 magnetization 

 DIPCOR: dipole corrections for dipol
 direction  3 min pos     1,
 dipolmoment           0.000000      0.000000     -0.026356 electrons x Angstroem
 Tr[quadrupol]    -10342.337585

 energy correction for charged system         0.000000 eV
 dipol+quadrupol energy correction           -0.000024 eV
 added-field ion interaction          0.004172 eV  (added to PSCEN)


 Broyden mixing:
  rms(total) = 0.65715E+00    rms(broyden)= 0.65700E+00
  rms(prec ) = 0.70763E+00
  weight for this iteration     100.00

 eigenvalues of (default mixing * dielectric matrix)
  average eigenvalue GAMMA=   0.6850
  2.2405  0.6853  0.6853  0.7279  0.3230  0.3230  0.2288  0.2659

 Free energy of the ion-electron system (eV)
  ---------------------------------------------------
  alpha Z        PSCENC =       805.87351146
  Ewald energy   TEWEN  =    200402.67088931
  -Hartree energ DENC   =   -242476.65105773
  -exchange      EXHF   =         0.00000000
  -V(xc)+E(xc)   XCENC  =      -344.32945209
  PAW double counting   =     49341.60407243   -47425.98193308
  entropy T*S    EENTRO =        -0.24367726
  eigenvalues    EBANDS =     -2151.28446751
  atomic energy  EATOM  =     41659.78587232
  Solvation  Ediel_sol  =         0.00000000
  ---------------------------------------------------
  free energy    TOTEN  =      -188.55624215 eV

  energy without entropy =     -188.31256489  energy(sigma->0) =     -188.43440352


--------------------------------------------------------------------------------------------------------




----------------------------------------- Iteration    1(  14)  ---------------------------------------


    POTLOK:  cpu time    0.0487: real time    0.0501
    SETDIJ:  cpu time    0.0060: real time    0.0061
    EDDIAG:  cpu time    1.6345: real time    1.6700
  RMM-DIIS:  cpu time    4.5268: real time    4.5312
    ORTHCH:  cpu time    0.4044: real time    0.4045
       DOS:  cpu time    0.0016: real time    0.0016
    CHARGE:  cpu time    0.3017: real time    0.3017
    MIXING:  cpu time    0.0029: real time    0.0029
    --------------------------------------------
      LOOP:  cpu time    6.9276: real time    6.9707

 eigenvalue-minimisations  :  3680
 total energy-change (2. order) :-0.1437555E+00  (-0.7824477E-01)
 number of electron     503.9998358 magnetization 
 augmentation part      197.3961400 magnetization 

 DIPCOR: dipole corrections for dipol
 direction  3 min pos     1,
 dipolmoment           0.000000      0.000000     -0.031713 electrons x Angstroem
 Tr[quadrupol]    -10342.465655

 energy correction for charged system         0.000000 eV
 dipol+quadrupol energy correction           -0.000035 eV
 added-field ion interaction          0.005020 eV  (added to PSCEN)


 Broyden mixing:
  rms(total) = 0.75329E+00    rms(broyden)= 0.75313E+00
  rms(prec ) = 0.83654E+00
  weight for this iteration     100.00

 eigenvalues of (default mixing * dielectric matrix)
  average eigenvalue GAMMA=   0.6905
  2.2415  0.8743  0.8743  0.7523  0.3577  0.3577  0.2681  0.2681  0.2201

 Free energy of the ion-electron system (eV)
  ---------------------------------------------------
  alpha Z        PSCENC =       805.87434835
  Ewald energy   TEWEN  =    200402.67088931
  -Hartree energ DENC   =   -242483.96321857
  -exchange      EXHF   =         0.00000000
  -V(xc)+E(xc)   XCENC  =      -344.17674406
  PAW double counting   =     49360.90957624   -47444.41201527
  entropy T*S    EENTRO =        -0.24075472
  eigenvalues    EBANDS =     -2145.14795124
  atomic energy  EATOM  =     41659.78587232
  Solvation  Ediel_sol  =         0.00000000
  ---------------------------------------------------
  free energy    TOTEN  =      -188.69999765 eV

  energy without entropy =     -188.45924292  energy(sigma->0) =     -188.57962028


--------------------------------------------------------------------------------------------------------




----------------------------------------- Iteration    1(  15)  ---------------------------------------


    POTLOK:  cpu time    0.0496: real time    0.0498
    SETDIJ:  cpu time    0.0060: real time    0.0060
    EDDIAG:  cpu time    1.6520: real time    1.6523
  RMM-DIIS:  cpu time    4.5088: real time    4.5112
    ORTHCH:  cpu time    0.4039: real time    0.4041
       DOS:  cpu time    0.0017: real time    0.0017
    CHARGE:  cpu time    0.2994: real time    0.2994
    MIXING:  cpu time    0.0032: real time    0.0032
    --------------------------------------------
      LOOP:  cpu time    6.9255: real time    6.9330

 eigenvalue-minimisations  :  3681
 total energy-change (2. order) : 0.7840659E-01  (-0.6613050E-01)
 number of electron     503.9998358 magnetization 
 augmentation part      197.4885964 magnetization 

 DIPCOR: dipole corrections for dipol
 direction  3 min pos     1,
 dipolmoment           0.000000      0.000000     -0.034531 electrons x Angstroem
 Tr[quadrupol]    -10342.636159

 energy correction for charged system         0.000000 eV
 dipol+quadrupol energy correction           -0.000042 eV
 added-field ion interaction          0.005466 eV  (added to PSCEN)


 Broyden mixing:
  rms(total) = 0.58682E+00    rms(broyden)= 0.58673E+00
  rms(prec ) = 0.66175E+00
  weight for this iteration     100.00

 eigenvalues of (default mixing * dielectric matrix)
  average eigenvalue GAMMA=   0.6978
  2.1835  1.1034  1.1034  0.6829  0.4158  0.4158  0.3063  0.3063  0.2261  0.2346

 Free energy of the ion-electron system (eV)
  ---------------------------------------------------
  alpha Z        PSCENC =       805.87478782
  Ewald energy   TEWEN  =    200402.67088931
  -Hartree energ DENC   =   -242490.95736203
  -exchange      EXHF   =         0.00000000
  -V(xc)+E(xc)   XCENC  =      -344.07476129
  PAW double counting   =     49372.50025745   -47455.31750757
  entropy T*S    EENTRO =        -0.25058255
  eigenvalues    EBANDS =     -2138.85318452
  atomic energy  EATOM  =     41659.78587232
  Solvation  Ediel_sol  =         0.00000000
  ---------------------------------------------------
  free energy    TOTEN  =      -188.62159106 eV

  energy without entropy =     -188.37100851  energy(sigma->0) =     -188.49629978


--------------------------------------------------------------------------------------------------------




----------------------------------------- Iteration    1(  16)  ---------------------------------------


    POTLOK:  cpu time    0.0500: real time    0.0500
    SETDIJ:  cpu time    0.0061: real time    0.0061
    EDDIAG:  cpu time    1.6518: real time    1.6525
  RMM-DIIS:  cpu time    4.4097: real time    4.4114
    ORTHCH:  cpu time    0.4051: real time    0.4068
       DOS:  cpu time    0.0017: real time    0.0017
    CHARGE:  cpu time    0.3007: real time    0.3009
    MIXING:  cpu time    0.0035: real time    0.0035
    --------------------------------------------
      LOOP:  cpu time    6.8295: real time    6.8360

 eigenvalue-minimisations  :  3680
 total energy-change (2. order) : 0.1757886E+00  (-0.4027775E-01)
 number of electron     503.9998360 magnetization 
 augmentation part      197.3946403 magnetization 

 DIPCOR: dipole corrections for dipol
 direction  3 min pos     1,
 dipolmoment           0.000000      0.000000     -0.032246 electrons x Angstroem
 Tr[quadrupol]    -10342.935442

 energy correction for charged system         0.000000 eV
 dipol+quadrupol energy correction           -0.000037 eV
 added-field ion interaction          0.005104 eV  (added to PSCEN)


 Broyden mixing:
  rms(total) = 0.45363E+00    rms(broyden)= 0.45355E+00
  rms(prec ) = 0.51695E+00
  weight for this iteration     100.00

 eigenvalues of (default mixing * dielectric matrix)
  average eigenvalue GAMMA=   0.6860
  2.1323  1.2656  1.2656  0.5322  0.4840  0.4840  0.3198  0.3198  0.2776  0.2200
  0.2448

 Free energy of the ion-electron system (eV)
  ---------------------------------------------------
  alpha Z        PSCENC =       805.87443153
  Ewald energy   TEWEN  =    200402.67088931
  -Hartree energ DENC   =   -242509.07125723
  -exchange      EXHF   =         0.00000000
  -V(xc)+E(xc)   XCENC  =      -343.79854696
  PAW double counting   =     49370.80744949   -47451.75766276
  entropy T*S    EENTRO =        -0.24503800
  eigenvalues    EBANDS =     -2122.71194014
  atomic energy  EATOM  =     41659.78587232
  Solvation  Ediel_sol  =         0.00000000
  ---------------------------------------------------
  free energy    TOTEN  =      -188.44580244 eV

  energy without entropy =     -188.20076444  energy(sigma->0) =     -188.32328344


--------------------------------------------------------------------------------------------------------




----------------------------------------- Iteration    1(  17)  ---------------------------------------


    POTLOK:  cpu time    0.0501: real time    0.0501
    SETDIJ:  cpu time    0.0061: real time    0.0061
    EDDIAG:  cpu time    1.6574: real time    1.6595
  RMM-DIIS:  cpu time    4.9434: real time    4.9692
    ORTHCH:  cpu time    0.4790: real time    0.4816
       DOS:  cpu time    0.0016: real time    0.0016
    CHARGE:  cpu time    0.3211: real time    0.3231
    MIXING:  cpu time    0.0037: real time    0.0037
    --------------------------------------------
      LOOP:  cpu time    7.4632: real time    7.4973

 eigenvalue-minimisations  :  3679
 total energy-change (2. order) : 0.1432193E+00  (-0.1418157E-01)
 number of electron     503.9998362 magnetization 
 augmentation part      197.3159815 magnetization 

 DIPCOR: dipole corrections for dipol
 direction  3 min pos     1,
 dipolmoment           0.000000      0.000000     -0.022375 electrons x Angstroem
 Tr[quadrupol]    -10343.135203

 energy correction for charged system         0.000000 eV
 dipol+quadrupol energy correction           -0.000018 eV
 added-field ion interaction          0.003542 eV  (added to PSCEN)


 Broyden mixing:
  rms(total) = 0.30114E+00    rms(broyden)= 0.30111E+00
  rms(prec ) = 0.34105E+00
  weight for this iteration     100.00

 eigenvalues of (default mixing * dielectric matrix)
  average eigenvalue GAMMA=   0.7238
  1.9857  1.8708  1.4604  0.5856  0.5856  0.4365  0.3710  0.3710  0.2901  0.2901
  0.2194  0.2194

 Free energy of the ion-electron system (eV)
  ---------------------------------------------------
  alpha Z        PSCENC =       805.87288815
  Ewald energy   TEWEN  =    200402.67088931
  -Hartree energ DENC   =   -242519.91402449
  -exchange      EXHF   =         0.00000000
  -V(xc)+E(xc)   XCENC  =      -343.64919305
  PAW double counting   =     49375.27118113   -47455.21470374
  entropy T*S    EENTRO =        -0.25431629
  eigenvalues    EBANDS =     -2112.87117645
  atomic energy  EATOM  =     41659.78587232
  Solvation  Ediel_sol  =         0.00000000
  ---------------------------------------------------
  free energy    TOTEN  =      -188.30258310 eV

  energy without entropy =     -188.04826681  energy(sigma->0) =     -188.17542496


--------------------------------------------------------------------------------------------------------




----------------------------------------- Iteration    1(  18)  ---------------------------------------


    POTLOK:  cpu time    0.0509: real time    0.0509
    SETDIJ:  cpu time    0.0065: real time    0.0065
    EDDIAG:  cpu time    1.6377: real time    1.6384
  RMM-DIIS:  cpu time    4.3725: real time    4.3746
    ORTHCH:  cpu time    0.3869: real time    0.3941
       DOS:  cpu time    0.0016: real time    0.0016
    CHARGE:  cpu time    0.3003: real time    0.3005
    MIXING:  cpu time    0.0036: real time    0.0036
    --------------------------------------------
      LOOP:  cpu time    6.7610: real time    6.7742

 eigenvalue-minimisations  :  3681
 total energy-change (2. order) : 0.8939068E-01  (-0.8252244E-02)
 number of electron     503.9998363 magnetization 
 augmentation part      197.2411774 magnetization 

 DIPCOR: dipole corrections for dipol
 direction  3 min pos     1,
 dipolmoment           0.000000      0.000000     -0.033203 electrons x Angstroem
 Tr[quadrupol]    -10343.496016

 energy correction for charged system         0.000000 eV
 dipol+quadrupol energy correction           -0.000039 eV
 added-field ion interaction          0.005255 eV  (added to PSCEN)


 Broyden mixing:
  rms(total) = 0.17681E+00    rms(broyden)= 0.17678E+00
  rms(prec ) = 0.20339E+00
  weight for this iteration     100.00

 eigenvalues of (default mixing * dielectric matrix)
  average eigenvalue GAMMA=   0.7019
  2.0222  2.0222  1.4207  0.5926  0.5926  0.3838  0.3838  0.3880  0.3272  0.3272
  0.2173  0.2237  0.2237

 Free energy of the ion-electron system (eV)
  ---------------------------------------------------
  alpha Z        PSCENC =       805.87458080
  Ewald energy   TEWEN  =    200402.67088931
  -Hartree energ DENC   =   -242536.67487732
  -exchange      EXHF   =         0.00000000
  -V(xc)+E(xc)   XCENC  =      -343.48074534
  PAW double counting   =     49396.61448789   -47475.34146774
  entropy T*S    EENTRO =        -0.24924011
  eigenvalues    EBANDS =     -2097.41269224
  atomic energy  EATOM  =     41659.78587232
  Solvation  Ediel_sol  =         0.00000000
  ---------------------------------------------------
  free energy    TOTEN  =      -188.21319243 eV

  energy without entropy =     -187.96395232  energy(sigma->0) =     -188.08857237


--------------------------------------------------------------------------------------------------------




----------------------------------------- Iteration    1(  19)  ---------------------------------------


    POTLOK:  cpu time    0.0499: real time    0.0499
    SETDIJ:  cpu time    0.0060: real time    0.0060
    EDDIAG:  cpu time    1.6341: real time    1.6357
  RMM-DIIS:  cpu time    4.3847: real time    4.4556
    ORTHCH:  cpu time    0.3891: real time    0.3891
       DOS:  cpu time    0.0016: real time    0.0016
    CHARGE:  cpu time    0.2983: real time    0.2983
    MIXING:  cpu time    0.0038: real time    0.0038
    --------------------------------------------
      LOOP:  cpu time    6.7683: real time    6.8435

 eigenvalue-minimisations  :  3681
 total energy-change (2. order) : 0.2468777E-01  (-0.1517309E-02)
 number of electron     503.9998363 magnetization 
 augmentation part      197.2196332 magnetization 

 DIPCOR: dipole corrections for dipol
 direction  3 min pos     1,
 dipolmoment           0.000000      0.000000     -0.028710 electrons x Angstroem
 Tr[quadrupol]    -10343.596665

 energy correction for charged system         0.000000 eV
 dipol+quadrupol energy correction           -0.000029 eV
 added-field ion interaction          0.004544 eV  (added to PSCEN)


 Broyden mixing:
  rms(total) = 0.10389E+00    rms(broyden)= 0.10387E+00
  rms(prec ) = 0.11785E+00
  weight for this iteration     100.00

 eigenvalues of (default mixing * dielectric matrix)
  average eigenvalue GAMMA=   0.7050
  2.1008  2.1008  1.4015  0.6542  0.6542  0.4598  0.4598  0.3589  0.3589  0.3141
  0.3141  0.2582  0.2231  0.2113

 Free energy of the ion-electron system (eV)
  ---------------------------------------------------
  alpha Z        PSCENC =       805.87387941
  Ewald energy   TEWEN  =    200402.67088931
  -Hartree energ DENC   =   -242541.04354166
  -exchange      EXHF   =         0.00000000
  -V(xc)+E(xc)   XCENC  =      -343.44996379
  PAW double counting   =     49402.51011371   -47481.02610258
  entropy T*S    EENTRO =        -0.25615725
  eigenvalues    EBANDS =     -2093.25349413
  atomic energy  EATOM  =     41659.78587232
  Solvation  Ediel_sol  =         0.00000000
  ---------------------------------------------------
  free energy    TOTEN  =      -188.18850465 eV

  energy without entropy =     -187.93234740  energy(sigma->0) =     -188.06042603


--------------------------------------------------------------------------------------------------------




----------------------------------------- Iteration    1(  20)  ---------------------------------------


    POTLOK:  cpu time    0.0497: real time    0.0497
    SETDIJ:  cpu time    0.0061: real time    0.0061
    EDDIAG:  cpu time    1.6376: real time    1.6398
  RMM-DIIS:  cpu time    4.4947: real time    4.5054
    ORTHCH:  cpu time    0.3899: real time    0.3901
       DOS:  cpu time    0.0016: real time    0.0016
    CHARGE:  cpu time    0.3004: real time    0.3004
    MIXING:  cpu time    0.0040: real time    0.0040
    --------------------------------------------
      LOOP:  cpu time    6.8849: real time    6.8995

 eigenvalue-minimisations  :  3682
 total energy-change (2. order) : 0.5808477E-02  (-0.7973345E-03)
 number of electron     503.9998363 magnetization 
 augmentation part      197.1780317 magnetization 

 DIPCOR: dipole corrections for dipol
 direction  3 min pos     1,
 dipolmoment           0.000000      0.000000     -0.016941 electrons x Angstroem
 Tr[quadrupol]    -10343.728080

 energy correction for charged system         0.000000 eV
 dipol+quadrupol energy correction           -0.000010 eV
 added-field ion interaction          0.002681 eV  (added to PSCEN)


 Broyden mixing:
  rms(total) = 0.88558E-01    rms(broyden)= 0.88548E-01
  rms(prec ) = 0.10010E+00
  weight for this iteration     100.00

 eigenvalues of (default mixing * dielectric matrix)
  average eigenvalue GAMMA=   0.6973
  2.1169  2.1169  1.4257  0.7266  0.7266  0.4990  0.4990  0.4324  0.3520  0.3520
  0.2857  0.2857  0.2281  0.2164  0.1972

 Free energy of the ion-electron system (eV)
  ---------------------------------------------------
  alpha Z        PSCENC =       805.87203550
  Ewald energy   TEWEN  =    200402.67088931
  -Hartree energ DENC   =   -242546.92520094
  -exchange      EXHF   =         0.00000000
  -V(xc)+E(xc)   XCENC  =      -343.40575623
  PAW double counting   =     49408.21789089   -47486.47323512
  entropy T*S    EENTRO =        -0.25619594
  eigenvalues    EBANDS =     -2087.66899596
  atomic energy  EATOM  =     41659.78587232
  Solvation  Ediel_sol  =         0.00000000
  ---------------------------------------------------
  free energy    TOTEN  =      -188.18269618 eV

  energy without entropy =     -187.92650023  energy(sigma->0) =     -188.05459821


--------------------------------------------------------------------------------------------------------




----------------------------------------- Iteration    1(  21)  ---------------------------------------


    POTLOK:  cpu time    0.0506: real time    0.0514
    SETDIJ:  cpu time    0.0056: real time    0.0061
    EDDIAG:  cpu time    1.6415: real time    1.6424
  RMM-DIIS:  cpu time    4.5077: real time    4.5097
    ORTHCH:  cpu time    0.3888: real time    0.3889
       DOS:  cpu time    0.0017: real time    0.0017
    CHARGE:  cpu time    0.2974: real time    0.2976
    MIXING:  cpu time    0.0041: real time    0.0041
    --------------------------------------------
      LOOP:  cpu time    6.8981: real time    6.9060

 eigenvalue-minimisations  :  3681
 total energy-change (2. order) : 0.4667339E-02  (-0.2487087E-03)
 number of electron     503.9998363 magnetization 
 augmentation part      197.1543319 magnetization 

 DIPCOR: dipole corrections for dipol
 direction  3 min pos     1,
 dipolmoment           0.000000      0.000000     -0.013543 electrons x Angstroem
 Tr[quadrupol]    -10343.812342

 energy correction for charged system         0.000000 eV
 dipol+quadrupol energy correction           -0.000006 eV
 added-field ion interaction          0.002144 eV  (added to PSCEN)


 Broyden mixing:
  rms(total) = 0.66900E-01    rms(broyden)= 0.66898E-01
  rms(prec ) = 0.75264E-01
  weight for this iteration     100.00

 eigenvalues of (default mixing * dielectric matrix)
  average eigenvalue GAMMA=   0.7090
  2.0947  2.0947  1.4475  0.8850  0.8850  0.5670  0.5670  0.5295  0.3667  0.3667
  0.3110  0.3110  0.2588  0.2347  0.2206  0.2047

 Free energy of the ion-electron system (eV)
  ---------------------------------------------------
  alpha Z        PSCENC =       805.87150140
  Ewald energy   TEWEN  =    200402.67088931
  -Hartree energ DENC   =   -242550.61345940
  -exchange      EXHF   =         0.00000000
  -V(xc)+E(xc)   XCENC  =      -343.38074567
  PAW double counting   =     49411.30872845   -47489.44529305
  entropy T*S    EENTRO =        -0.25718703
  eigenvalues    EBANDS =     -2084.11833517
  atomic energy  EATOM  =     41659.78587232
  Solvation  Ediel_sol  =         0.00000000
  ---------------------------------------------------
  free energy    TOTEN  =      -188.17802884 eV

  energy without entropy =     -187.92084181  energy(sigma->0) =     -188.04943532


--------------------------------------------------------------------------------------------------------




----------------------------------------- Iteration    1(  22)  ---------------------------------------


    POTLOK:  cpu time    0.0500: real time    0.0501
    SETDIJ:  cpu time    0.0060: real time    0.0060
    EDDIAG:  cpu time    1.6295: real time    1.6309
  RMM-DIIS:  cpu time    4.4519: real time    4.4543
    ORTHCH:  cpu time    0.3894: real time    0.3895
       DOS:  cpu time    0.0016: real time    0.0016
    CHARGE:  cpu time    0.2997: real time    0.2997
    MIXING:  cpu time    0.0043: real time    0.0043
    --------------------------------------------
      LOOP:  cpu time    6.8333: real time    6.8388

 eigenvalue-minimisations  :  3681
 total energy-change (2. order) : 0.3463651E-02  (-0.2782335E-03)
 number of electron     503.9998363 magnetization 
 augmentation part      197.1290059 magnetization 

 DIPCOR: dipole corrections for dipol
 direction  3 min pos     1,
 dipolmoment           0.000000      0.000000     -0.014711 electrons x Angstroem
 Tr[quadrupol]    -10343.938437

 energy correction for charged system         0.000000 eV
 dipol+quadrupol energy correction           -0.000008 eV
 added-field ion interaction          0.002328 eV  (added to PSCEN)


 Broyden mixing:
  rms(total) = 0.49281E-01    rms(broyden)= 0.49276E-01
  rms(prec ) = 0.55577E-01
  weight for this iteration     100.00

 eigenvalues of (default mixing * dielectric matrix)
  average eigenvalue GAMMA=   0.7255
  2.2577  1.8496  1.8496  0.9680  0.9680  0.6146  0.6146  0.6030  0.3714  0.3714
  0.3442  0.3442  0.2668  0.2668  0.2218  0.2218  0.2011

 Free energy of the ion-electron system (eV)
  ---------------------------------------------------
  alpha Z        PSCENC =       805.87168507
  Ewald energy   TEWEN  =    200402.67088931
  -Hartree energ DENC   =   -242555.84480284
  -exchange      EXHF   =         0.00000000
  -V(xc)+E(xc)   XCENC  =      -343.34921447
  PAW double counting   =     49415.03327347   -47493.05769678
  entropy T*S    EENTRO =        -0.25713789
  eigenvalues    EBANDS =     -2079.02743337
  atomic energy  EATOM  =     41659.78587232
  Solvation  Ediel_sol  =         0.00000000
  ---------------------------------------------------
  free energy    TOTEN  =      -188.17456519 eV

  energy without entropy =     -187.91742729  energy(sigma->0) =     -188.04599624


--------------------------------------------------------------------------------------------------------




----------------------------------------- Iteration    1(  23)  ---------------------------------------


    POTLOK:  cpu time    0.0500: real time    0.0500
    SETDIJ:  cpu time    0.0061: real time    0.0061
    EDDIAG:  cpu time    1.6386: real time    1.6416
  RMM-DIIS:  cpu time    4.5033: real time    4.5065
[...]
    275       1.7935      0.00000
    276       1.8363      0.00000
    277       2.1498      0.00000
    278       2.1950      0.00000
    279       2.3335      0.00000
    280       2.4158      0.00000
    281       2.4518      0.00000
    282       2.5369      0.00000
    283       2.7031      0.00000
    284       2.9708      0.00000
    285       3.1609      0.00000
    286       3.2475      0.00000
    287       3.5420      0.00000
    288       3.6528      0.00000
    289       3.7134      0.00000
    290       3.8737      0.00000
    291       4.1423      0.00000
    292       4.2028      0.00000
    293       4.4762      0.00000
    294       4.5647      0.00000
    295       4.6069      0.00000
    296       4.6370      0.00000
    297       4.7777      0.00000
    298       4.8232      0.00000
    299       4.8724      0.00000
    300       4.9547      0.00000
    301       4.9917      0.00000
    302       5.0276      0.00000
    303       5.0626      0.00000
    304       5.1052      0.00000
    305       5.1321      0.00000
    306       5.2349      0.00000


--------------------------------------------------------------------------------------------------------


 soft charge-density along one line, spin component           1
         0         1         2         3         4         5         6         7         8         9
 total charge-density along one line
 
 pseudopotential strength for first ion, spin component:           1
 -8.017  -0.002  -0.008  -0.002   0.000  -8.164  -0.001  -0.008
 -0.002  -7.939  -0.000   0.006  -0.003  -0.001  -8.088  -0.000
 -0.008  -0.000  -7.931  -0.001  -0.004  -0.008  -0.000  -8.080
 -0.002   0.006  -0.001  -7.934  -0.001  -0.002   0.006  -0.001
  0.000  -0.003  -0.004  -0.001  -8.016   0.000  -0.003  -0.004
 -8.164  -0.001  -0.008  -0.002   0.000  -8.295  -0.001  -0.008
 -0.001  -8.088  -0.000   0.006  -0.003  -0.001  -8.221  -0.000
 -0.008  -0.000  -8.080  -0.001  -0.004  -0.008  -0.000  -8.213
 -0.002   0.006  -0.001  -8.083  -0.001  -0.002   0.006  -0.001
  0.000  -0.003  -0.004  -0.001  -8.163   0.000  -0.003  -0.003
 -0.004  -0.000  -0.025   0.001  -0.002  -0.004  -0.000  -0.025
 -0.006  -0.000  -0.036   0.001  -0.003  -0.006  -0.000  -0.036
 -0.002   0.005   0.000  -0.000   0.001  -0.002   0.005   0.000
 -0.000  -0.001   0.007  -0.002  -0.000  -0.000  -0.001   0.007
 -0.001  -0.000   0.001   0.005  -0.002  -0.001  -0.000   0.001
 -0.002   0.005   0.000  -0.000   0.001  -0.002   0.005   0.000
 -0.000  -0.001   0.008  -0.002  -0.000  -0.000  -0.001   0.008
 -0.001  -0.000   0.001   0.005  -0.002  -0.001  -0.000   0.001
 total augmentation occupancy for first ion, spin component:           1
  4.351   0.006   0.218   0.000   0.243  -2.546  -0.012  -0.236  -0.037  -0.231   0.242  -0.091  -0.006   0.019   0.023  -0.001
  0.006   4.070   0.057   0.071  -0.016  -0.012  -1.812  -0.058  -0.051  -0.027  -0.006   0.016   0.145   0.016   0.021  -0.002
  0.218   0.057   4.337   0.040   0.119  -0.236  -0.058  -2.229  -0.038  -0.129   0.974  -0.119   0.012   0.211   0.012  -0.000
  0.000   0.071   0.040   4.145   0.012  -0.036  -0.051  -0.038  -1.870  -0.011  -0.040   0.027   0.021   0.010   0.162  -0.001
  0.243  -0.016   0.119   0.012   4.082  -0.231  -0.028  -0.129  -0.011  -2.278   0.124  -0.050   0.031   0.008  -0.003  -0.000
 -2.546  -0.012  -0.236  -0.036  -0.231   2.619   0.016   0.247   0.064   0.220  -0.215   0.086   0.006  -0.019  -0.022  -0.000
 -0.012  -1.812  -0.058  -0.051  -0.028   0.016   1.525   0.059   0.034   0.060   0.007  -0.014  -0.136  -0.013  -0.020   0.005
 -0.236  -0.058  -2.229  -0.038  -0.129   0.247   0.059   2.066   0.034   0.135  -0.909   0.135  -0.010  -0.220  -0.010   0.000
 -0.037  -0.051  -0.038  -1.870  -0.011   0.064   0.034   0.034   1.567   0.010   0.032  -0.023  -0.020  -0.005  -0.151   0.001
 -0.231  -0.027  -0.129  -0.011  -2.278   0.220   0.060   0.135   0.010   2.355  -0.112   0.048  -0.029  -0.008   0.004   0.001
  0.242  -0.006   0.974  -0.040   0.124  -0.215   0.007  -0.909   0.032  -0.112   2.388  -0.482  -0.001  -0.116   0.004   0.000
 -0.091   0.016  -0.119   0.027  -0.050   0.086  -0.014   0.135  -0.023   0.048  -0.482   0.135   0.002   0.051   0.002  -0.000
 -0.006   0.145   0.012   0.021   0.031   0.006  -0.136  -0.010  -0.020  -0.029  -0.001   0.002   0.195   0.000  -0.010  -0.006
  0.019   0.016   0.211   0.010   0.008  -0.019  -0.013  -0.220  -0.005  -0.008  -0.116   0.051   0.000   0.091   0.001  -0.000
  0.023   0.021   0.012   0.162  -0.003  -0.022  -0.020  -0.010  -0.151   0.004   0.004   0.002  -0.010   0.001   0.184   0.001
 -0.001  -0.002  -0.000  -0.001  -0.000  -0.000   0.005   0.000   0.001   0.001   0.000  -0.000  -0.006  -0.000   0.001   0.000
 -0.000  -0.001   0.002  -0.003  -0.000   0.001   0.001   0.005   0.001   0.000   0.008  -0.002  -0.000  -0.003  -0.000   0.000
 -0.001  -0.001  -0.000  -0.002  -0.001   0.001   0.001   0.001   0.005   0.000  -0.000  -0.000   0.001  -0.000  -0.005  -0.000


------------------------ aborting loop because EDIFF is reached ----------------------------------------


    CHARGE:  cpu time    0.3009: real time    0.3012
    FORLOC:  cpu time    0.0186: real time    0.0186
    FORNL :  cpu time    1.5740: real time    1.6372
    FORCOR:  cpu time    0.0674: real time    0.0675
    FORHAR:  cpu time    0.0289: real time    0.0289
    MIXING:  cpu time    0.0030: real time    0.0030
    OFIELD:  cpu time    0.0000: real time    0.0000

 VOLUME and BASIS-vectors are now :
 -----------------------------------------------------------------------------
  energy-cutoff  :      400.00
  volume of cell :     2567.68
      direct lattice vectors                 reciprocal lattice vectors
    11.002581515  0.000000000  0.000000000     0.090887761 -0.052474073  0.000000000
     5.501290758  9.528515099  0.000000000     0.000000000  0.104948147  0.000000000
     0.000000000  0.000000000 24.491785094     0.000000000  0.000000000  0.040830017

  length of vectors
    11.002581515 11.002581515 24.491785094     0.104948147  0.104948147  0.040830017


 FORCES acting on ions
    electron-ion (+dipol)            ewald-force                    non-local-force                 convergence-correction
 -----------------------------------------------------------------------------------------------
   0.311E+01 -.579E+01 -.224E+04   -.290E+01 0.585E+01 0.224E+04   -.219E+00 -.588E-01 0.229E+00   0.802E-02 -.526E-02 0.207E-01
   0.101E+02 0.787E+01 -.367E+02   -.902E+01 -.798E+01 0.367E+02   -.108E+01 0.107E+00 -.397E-01   0.104E-01 0.185E-02 -.762E-02
   -.916E+01 -.637E+01 0.881E+01   0.952E+01 0.690E+01 -.876E+01   -.362E+00 -.547E+00 -.573E-01   -.102E-01 0.111E-01 -.323E-02
   0.153E+02 0.312E+01 0.222E+04   -.162E+02 -.282E+01 -.222E+04   0.598E+00 -.244E+00 0.181E+00   0.370E-02 -.460E-02 -.906E-02
   -.150E+01 0.594E+01 -.224E+04   0.126E+01 -.571E+01 0.224E+04   0.249E+00 -.256E+00 0.261E+00   -.895E-02 0.315E-01 0.361E-01
   0.161E+02 -.171E+02 0.223E+04   -.171E+02 0.179E+02 -.223E+04   0.648E+00 -.506E+00 -.354E+00   0.126E-02 -.919E-02 -.264E-01
   -.207E+02 0.127E+01 -.231E+04   0.215E+02 -.148E+01 0.231E+04   -.803E+00 0.201E+00 -.126E+00   0.112E-02 0.580E-02 -.451E-02
   -.158E+02 0.153E+02 0.223E+04   0.166E+02 -.160E+02 -.223E+04   -.562E+00 0.482E+00 -.115E+00   -.438E-02 0.529E-02 -.140E-01
   0.329E+01 0.366E+01 -.567E+02   -.363E+01 -.418E+01 0.585E+02   0.336E+00 0.510E+00 -.175E+01   0.474E-02 0.166E-02 -.331E-02
   -.143E+02 -.727E+00 -.223E+04   0.145E+02 0.901E+00 0.223E+04   -.156E+00 -.166E+00 0.233E+00   -.138E-01 -.691E-02 0.241E-01
   -.368E+01 0.812E+01 0.119E+02   0.395E+01 -.865E+01 -.120E+02   -.261E+00 0.510E+00 0.115E-01   -.115E-01 0.275E-01 0.180E-01
   -.811E+00 -.108E+02 -.466E+02   0.103E+01 0.105E+02 0.467E+02   -.240E+00 0.329E+00 -.531E-01   0.186E-01 -.105E-01 -.175E-01
   -.569E+01 -.289E+01 0.224E+04   0.598E+01 0.305E+01 -.224E+04   -.167E+00 -.990E-01 -.152E+00   -.103E-01 0.450E-02 -.141E-01
   0.184E+02 -.412E+01 -.220E+04   -.189E+02 0.422E+01 0.220E+04   0.545E+00 -.101E+00 0.618E+00   0.891E-02 -.177E-02 0.184E-01
   -.806E+01 -.113E+01 0.256E+02   0.846E+01 0.632E+00 -.256E+02   -.407E+00 0.482E+00 -.414E-01   0.447E-02 0.117E-01 -.934E-02
   0.117E+01 -.672E+01 -.511E+01   -.245E+01 0.688E+01 0.567E+01   0.127E+01 -.149E+00 -.548E+00   0.188E-02 -.150E-01 -.631E-02
   0.422E+00 0.678E+00 0.222E+04   -.368E+00 -.732E+00 -.222E+04   -.469E-01 0.208E-01 0.168E+00   0.816E-02 -.548E-02 -.104E-01
   0.319E+01 -.111E+02 -.226E+04   -.295E+01 0.119E+02 0.226E+04   -.263E+00 -.820E+00 -.498E-01   0.140E-01 0.543E-02 0.114E-01
   0.384E+01 -.102E+02 -.386E+02   -.368E+01 0.105E+02 0.392E+02   -.167E+00 -.279E+00 -.627E+00   0.186E-01 -.122E-01 -.560E-02
   -.101E+02 -.708E+01 0.222E+04   0.104E+02 0.710E+01 -.222E+04   -.190E+00 0.181E-01 0.131E+00   0.172E-01 -.883E-02 -.157E-01
   0.139E+02 0.505E+01 -.229E+04   -.137E+02 -.575E+01 0.229E+04   -.112E+00 0.723E+00 0.124E+00   0.430E-02 -.180E-01 0.237E-01
   -.252E+01 0.130E+01 0.223E+04   0.253E+01 -.132E+01 -.223E+04   0.268E-01 0.591E-02 0.313E+00   0.119E-01 -.485E-02 -.110E-01
   -.566E+01 0.458E+01 0.145E+02   0.463E+01 -.445E+01 -.149E+02   0.102E+01 -.148E+00 0.456E+00   0.112E-01 0.125E-01 -.151E-01
   0.113E+02 -.683E+01 -.228E+04   -.114E+02 0.675E+01 0.228E+04   0.933E-01 0.848E-01 -.890E-02   0.120E-01 -.243E-03 0.594E-02
   0.132E+02 -.145E+02 0.203E+04   -.136E+02 0.148E+02 -.203E+04   0.248E+00 -.924E-01 -.169E+01   0.921E-02 0.345E-02 -.241E-01
   0.772E+01 -.758E+01 -.196E+04   -.785E+01 0.773E+01 0.196E+04   0.129E+00 -.116E+00 0.168E+01   0.456E-02 -.276E-01 -.783E-02
   -.336E+00 -.793E+00 0.581E+02   -.220E+00 0.116E+01 -.582E+02   0.567E+00 -.373E+00 0.562E-01   -.119E-01 -.512E-02 -.121E-01
   -.594E+00 0.808E+01 -.200E+04   0.321E+00 -.802E+01 0.200E+04   0.285E+00 -.604E-01 0.138E+01   -.130E-01 0.141E-02 0.214E-01
   0.387E+01 0.279E+00 0.576E+02   -.300E+01 -.108E+00 -.584E+02   -.852E+00 -.179E+00 0.855E+00   -.212E-01 0.796E-02 -.161E-01
   -.822E+01 0.387E+00 -.191E+04   0.812E+01 -.511E+00 0.191E+04   0.122E+00 0.112E+00 0.168E+01   -.192E-01 0.104E-01 -.260E-01
   -.246E+01 0.568E+01 0.391E+02   0.268E+01 -.668E+01 -.392E+02   -.198E+00 0.989E+00 0.122E+00   -.266E-01 0.780E-02 -.575E-02
   -.109E+00 0.128E+01 0.204E+04   0.157E+00 -.127E+01 -.204E+04   -.567E-01 0.115E-01 -.213E+01   -.126E-01 0.383E-02 -.293E-01
   -.185E+01 0.327E+01 0.539E+02   0.168E+01 -.383E+01 -.547E+02   0.172E+00 0.536E+00 0.832E+00   0.935E-02 0.235E-01 -.125E-01
   -.758E+01 0.132E+02 0.204E+04   0.760E+01 -.136E+02 -.204E+04   0.293E-01 0.201E+00 -.156E+01   -.189E-02 0.132E-01 -.205E-01
   0.790E+01 -.234E+01 0.203E+04   -.792E+01 0.257E+01 -.203E+04   -.357E-01 -.170E+00 -.161E+01   0.269E-02 0.221E-02 -.109E-01
   -.107E+02 0.205E+02 0.203E+04   0.111E+02 -.211E+02 -.203E+04   -.221E+00 0.285E+00 -.166E+01   -.746E-02 -.369E-02 -.103E-01
   0.188E+02 0.186E+01 0.203E+04   -.191E+02 -.203E+01 -.203E+04   0.157E+00 0.113E+00 -.158E+01   -.187E-03 -.476E-02 -.131E-01
   0.244E+01 0.181E+01 0.251E+02   -.185E+01 -.122E+01 -.255E+02   -.577E+00 -.592E+00 0.360E+00   -.923E-02 -.665E-02 0.242E-03
   0.647E+01 -.755E+01 0.204E+04   -.662E+01 0.777E+01 -.203E+04   0.802E-01 -.817E-01 -.196E+01   -.152E-01 0.112E-02 -.196E-01
   -.135E+02 -.156E+01 0.203E+04   0.137E+02 0.161E+01 -.203E+04   -.214E-01 -.128E-01 -.104E+01   0.200E-02 0.546E-02 -.103E-01
   -.644E+01 0.142E+02 -.203E+04   0.635E+01 -.145E+02 0.202E+04   0.834E-01 0.366E+00 0.123E+01   0.180E-02 -.140E-01 0.413E-02
   -.155E+02 0.109E+01 -.202E+04   0.157E+02 -.106E+01 0.201E+04   -.174E+00 -.426E-01 0.162E+01   -.104E-01 0.146E-01 -.196E-02
   0.751E+01 0.267E+01 0.414E+01   -.766E+01 -.220E+01 -.447E+01   0.158E+00 -.482E+00 0.330E+00   -.402E-02 0.319E-02 -.386E-02
   -.129E+02 -.331E+01 0.203E+04   0.135E+02 0.339E+01 -.203E+04   -.398E+00 -.282E-01 -.153E+01   -.153E-02 -.423E-03 -.780E-02
   0.271E+01 -.231E+01 -.201E+04   -.273E+01 0.223E+01 0.201E+04   0.108E-01 0.874E-01 0.159E+01   0.544E-02 -.880E-02 0.981E-02
   -.537E+00 -.432E+01 -.235E+02   0.890E-01 0.491E+01 0.231E+02   0.433E+00 -.590E+00 0.439E+00   0.153E-01 -.455E-02 0.177E-02
   0.130E+02 -.550E+01 -.196E+04   -.133E+02 0.549E+01 0.196E+04   0.257E+00 -.144E-01 0.130E+01   0.757E-02 0.141E-01 0.200E-01
   -.471E+01 0.952E+01 -.204E+04   0.482E+01 -.946E+01 0.203E+04   -.102E+00 -.616E-01 0.138E+01   -.346E-03 -.252E-02 0.889E-02
 -----------------------------------------------------------------------------------------------
   0.117E+00 0.411E-01 0.126E+01   0.533E-13 0.393E-12 -.136E-11   -.141E+00 -.946E-01 -.113E+01   0.419E-02 0.500E-01 -.181E+00
 
 
 POSITION                                       TOTAL-FORCE (eV/Angst)
 -----------------------------------------------------------------------------------
      6.87822      7.15403     14.93661         0.002537      0.002899     -0.006309
      9.67049      3.94408     12.49583        -0.003940     -0.000828      0.001154
     15.14909      8.74773     12.44928        -0.005580     -0.009293     -0.010540
      9.62726      5.55830     10.00000        -0.265605      0.056799     -0.220117
      2.73894      4.76940     14.92024         0.000856      0.002868     -0.006917
      4.12597      0.79404     10.00000        -0.284535      0.273156     -0.160174
      9.65337      2.37813     15.05988        -0.001060      0.002668      0.005633
     12.37790      5.55830     10.00000         0.277509     -0.244493     -0.272978
     10.99658      6.33020     12.53155         0.002201     -0.010312      0.002598
      0.00318      0.00263     14.93297         0.001401      0.001548     -0.001406
     13.76806      6.32212     12.44416        -0.002319      0.000730     -0.018614
      8.27237      1.58174     12.50503         0.000597     -0.000832      0.005897
      5.50129      7.94043     10.00000         0.107411      0.071342     -0.278148
      4.10175      2.38496     14.88789         0.003037     -0.005366      0.007618
      5.51338      6.33611     12.42694        -0.001260     -0.003473     -0.002617
      9.58587      8.73607     12.46386        -0.005209     -0.006024      0.008304
     11.00258      7.94043     10.00000         0.016330     -0.038630     -0.284896
      8.26262      4.78301     14.99210        -0.000311      0.000360     -0.002437
     12.37543      8.73519     12.50736         0.006069     -0.002172     -0.005273
      6.87661      0.79404     10.00000         0.164392      0.026040     -0.172522
      5.49472     -0.02203     15.00688        -0.003929      0.000898     -0.008689
      8.25194      3.17617     10.00000         0.048054     -0.019739     -0.250179
      6.85168      3.95873     12.43253         0.004735     -0.000684      0.007020
      6.87117      2.38090     15.03349        -0.003921      0.004059      0.003608
      5.50129      3.17617     10.00000        -0.184782      0.215350      0.231701
      2.74171      0.01133     14.79706         0.004389      0.004309      0.007152
      2.74475      1.60233     12.38410        -0.000128     -0.007475      0.004854
      4.11721      7.14898     14.85337        -0.001243     -0.002299     -0.013965
     11.04477      1.57783     12.38245        -0.003016      0.000236      0.000098
      1.36613      2.37731     14.73777        -0.002195     -0.001254      0.011032
     12.40335      3.93758     12.40765        -0.007755      0.000106      0.000328
      2.75065      3.17617     10.00000        -0.020791      0.018878      0.191123
      4.10324      3.92778     12.38734         0.007865     -0.000689     -0.007535
      4.12597      5.55830     10.00000         0.043606     -0.197126      0.125070
      6.87661      5.55830     10.00000        -0.048587      0.054858      0.153318
     11.00258      3.17617     10.00000         0.153607     -0.313523      0.206403
      8.25194      7.94043     10.00000        -0.179544     -0.061135      0.231842
      6.88578      8.75351     12.42544         0.002968     -0.012016     -0.011136
      1.37532      0.79404     10.00000        -0.089393      0.139780      0.192513
     13.75323      7.94043     10.00000         0.114010      0.040171      0.169959
      8.25343     -0.01711     14.91330        -0.000015     -0.004004     -0.002795
     11.01638      4.76440     14.87735         0.001620     -0.003433      0.003000
      8.23903      6.34973     12.45542         0.004945     -0.008912     -0.006282
      9.62726      0.79404     10.00000         0.151181      0.049413      0.184692
      9.62918      7.15011     14.86761        -0.002432      0.003160      0.002370
      5.48244      1.59446     12.48052         0.001100     -0.008083     -0.005180
      5.48998      4.76925     14.81650        -0.005170     -0.003027     -0.005052
     12.38445      7.14606     14.89251         0.002300     -0.004805     -0.003527
 -----------------------------------------------------------------------------------
    total drift:                               -0.020705     -0.003439     -0.048957


--------------------------------------------------------------------------------------------------------



  FREE ENERGIE OF THE ION-ELECTRON SYSTEM (eV)
  ---------------------------------------------------
  free  energy   TOTEN  =      -191.73743248 eV

  energy  without entropy=     -191.50029471  energy(sigma->0) =     -191.61886359
 
 d Force = 0.4234913E-03[ 0.265E-03, 0.582E-03]  d Energy = 0.4348048E-03-0.113E-04
 d Force =-0.6004109E+01[-0.599E+01,-0.601E+01]  d Ewald  =-0.6004110E+01 0.867E-06


--------------------------------------------------------------------------------------------------------


    POTLOK:  cpu time    0.0574: real time    0.0582


--------------------------------------------------------------------------------------------------------


 stress matrix after NEB project (eV)
      0.00000      0.00000      0.00000
      0.00000      0.00000      0.00000
      0.00000      0.00000      0.00000
  FORCES: max atom, RMS     0.018772    0.007658
  FORCE total and by dimension    0.053058    0.018614
  Stress total and by dimension    0.000000    0.000000
 Conjugate gradient step on ions:
 trial-energy change:   -0.000435  1 .order   -0.000423   -0.000582   -0.000265
  (g-gl).g = 0.217E-03      g.g   = 0.249E-03  gl.gl    = 0.875E-03
 g(Force)  = 0.249E-03   g(Stress)= 0.000E+00 ortho     = 0.444E-04
 gamma     =   0.24819
 trial     =   2.24215
 opt step  =   3.63214  (harmonic =   4.11389) maximal distance =0.00547443
 next E    =  -191.737517   (d E  =  -0.00052)


--------------------------------------------------------------------------------------------------------


  
 reached required accuracy - stopping structural energy minimisation
     LOOP+:  cpu time   59.1740: real time   59.9368
    4ORBIT:  cpu time    0.0000: real time    0.0000

 total amount of memory used by VASP on root node    84353. kBytes
========================================================================

   base      :      30000. kBytes
   nonlr-proj:       4285. kBytes
   fftplans  :       4447. kBytes
   grid      :       6721. kBytes
   one-center:        124. kBytes
   wavefun   :      38776. kBytes
 
  
  
 General timing and accounting informations for this job:
 ========================================================
  
                  Total CPU time used (sec):     1752.461
                            User time (sec):     1683.730
                          System time (sec):       68.730
                         Elapsed time (sec):     1764.323
  
                   Maximum memory used (kb):      764848.
                   Average memory used (kb):           0.
  
                          Minor page faults:       709461
                          Major page faults:            0
                 Voluntary context switches:         8373
