unknown system                          
           1
    11.002582    0.000000    0.000000
     5.501291    9.528515    0.000000
     0.000000    0.000000   26.191785
   Au   O    Pd
  24   8  24
Direct configuration=     1
   0.25284690  0.99332421  0.56633984
   0.67050757  0.16869456  0.47336952
   0.98955574  0.24665338  0.57491040
   0.08333333  0.33333333  0.38179910
   0.08333333  0.58333333  0.38179910
   0.00723972  0.49226409  0.56955789
   0.72263084  0.26626560  0.56727993
   0.92309429  0.16393158  0.47897498
   0.75680606  0.99514139  0.55674711
   0.83333333  0.33333333  0.38179910
   0.41996346  0.41855175  0.47551712
   0.33333333  0.08333333  0.38179910
   0.83333333  0.08333333  0.38179910
   0.50517361  0.73212175  0.56293952
   0.17031270  0.41731106  0.47893779
   0.25810674  0.24166943  0.57029684
   0.26924042  0.49013165  0.57577052
   0.53304417  0.51556350  0.61748112
   0.42104931  0.66673702  0.46934858
   0.24080755  0.75734879  0.55833655
   0.58333333  0.08333333  0.38179910
   0.42185824  0.16466135  0.47737293
   0.50810202  0.98844877  0.56836031
   0.83333333  0.83333333  0.38179910
   0.74679866  0.09849778  0.63034344
   0.55857378  0.36241168  0.66576338
   0.87923353  0.69610371  0.61532181
   0.32923717  0.32016673  0.63231858
   0.03872989  0.85121162  0.63633394
   0.31721741  0.62443916  0.62437981
   0.11099740  0.06734612  0.62907586
   0.52823024  0.04311191  0.64028229
   0.75310381  0.73857876  0.55679955
   0.16965259  0.91673693  0.47212012
   0.67159381  0.66347814  0.47041898
   0.16854163  0.66596914  0.47350103
   0.33333333  0.58333333  0.38179910
   0.33333333  0.33333333  0.38179910
   0.16925939  0.16681110  0.47772755
   0.00085188  0.75660209  0.58123482
   0.92774391  0.91060616  0.47346378
   0.08333333  0.83333333  0.38179910
   0.92149113  0.66620094  0.47299044
   0.67125076  0.91269442  0.47189025
   0.92154001  0.41573553  0.47690201
   0.94381458  0.05121090  0.63341961
   0.58333333  0.33333333  0.38179910
   0.33333333  0.83333333  0.38179910
   0.08333333  0.08333333  0.38179910
   0.58333333  0.83333333  0.38179910
   0.75253638  0.49345962  0.56287458
   0.58333333  0.58333333  0.38179910
   0.67007836  0.41738840  0.47522093
   0.42006716  0.91717306  0.47704447
   0.53320302  0.21327022  0.64384137
   0.83333333  0.58333333  0.38179910
Direct configuration=     2
   0.25273679  0.99333394  0.56637889
   0.67020880  0.16868091  0.47336788
   0.98968365  0.24695712  0.57506288
   0.08333333  0.33333333  0.38179910
   0.08333333  0.58333333  0.38179910
   0.00688602  0.49273415  0.56947451
   0.72254375  0.26635561  0.56714743
   0.92330160  0.16379020  0.47901804
   0.75643795  0.99544809  0.55696812
   0.83333333  0.33333333  0.38179910
   0.42008585  0.41846011  0.47552554
   0.33333333  0.08333333  0.38179910
   0.83333333  0.08333333  0.38179910
   0.50487700  0.73249434  0.56295204
   0.17032851  0.41730695  0.47878188
   0.25791876  0.24141995  0.57031937
   0.26889687  0.49071703  0.57590021
   0.53335389  0.51514634  0.61743386
   0.42085948  0.66670709  0.46933769
   0.24088502  0.75710420  0.55835224
   0.58333333  0.08333333  0.38179910
   0.42182941  0.16476140  0.47731963
   0.50846120  0.98805670  0.56830617
   0.83333333  0.83333333  0.38179910
   0.74715731  0.09794258  0.63043705
   0.55829460  0.36315883  0.66559886
   0.87936368  0.69566150  0.61532970
   0.32896966  0.32086618  0.63235573
   0.03884538  0.85127105  0.63638253
   0.31728283  0.62416174  0.62430853
   0.11066176  0.06800667  0.62897477
   0.52833861  0.04352494  0.64006316
   0.75334993  0.73879572  0.55704668
   0.16945030  0.91689221  0.47206105
   0.67163737  0.66342621  0.47046135
   0.16836178  0.66594021  0.47349625
   0.33333333  0.58333333  0.38179910
   0.33333333  0.33333333  0.38179910
   0.16933642  0.16676229  0.47773639
   0.00105320  0.75640539  0.58134971
   0.92768807  0.91069131  0.47353403
   0.08333333  0.83333333  0.38179910
   0.92150658  0.66621144  0.47304552
   0.67118768  0.91270439  0.47192225
   0.92138375  0.41577874  0.47676394
   0.94447824  0.05067997  0.63315849
   0.58333333  0.33333333  0.38179910
   0.33333333  0.83333333  0.38179910
   0.08333333  0.08333333  0.38179910
   0.58333333  0.83333333  0.38179910
   0.75256671  0.49361266  0.56282836
   0.58333333  0.58333333  0.38179910
   0.67014351  0.41738978  0.47506145
   0.41984785  0.91714415  0.47705924
   0.53273158  0.21195905  0.64389120
   0.83333333  0.58333333  0.38179910
Direct configuration=     3
   0.25268425  0.99333859  0.56639752
   0.67006625  0.16867439  0.47336710
   0.98974467  0.24710205  0.57513563
   0.08333333  0.33333333  0.38179910
   0.08333333  0.58333333  0.38179910
   0.00671725  0.49295844  0.56943472
   0.72250220  0.26639856  0.56708421
   0.92340051  0.16372274  0.47903859
   0.75626231  0.99559443  0.55707358
   0.83333333  0.33333333  0.38179910
   0.42014425  0.41841638  0.47552955
   0.33333333  0.08333333  0.38179910
   0.83333333  0.08333333  0.38179910
   0.50473547  0.73267212  0.56295801
   0.17033606  0.41730499  0.47870749
   0.25782907  0.24130091  0.57033012
   0.26873294  0.49099634  0.57596209
   0.53350167  0.51494729  0.61741131
   0.42076890  0.66669281  0.46933250
   0.24092199  0.75698749  0.55835973
   0.58333333  0.08333333  0.38179910
   0.42181566  0.16480914  0.47729421
   0.50863258  0.98786962  0.56828033
   0.83333333  0.83333333  0.38179910
   0.74732844  0.09767766  0.63048171
   0.55816140  0.36351533  0.66552036
   0.87942579  0.69545050  0.61533346
   0.32884201  0.32119992  0.63237345
   0.03890048  0.85129941  0.63640571
   0.31731405  0.62402937  0.62427451
   0.11050161  0.06832185  0.62892653
   0.52839032  0.04372201  0.63995861
   0.75346737  0.73889924  0.55716460
   0.16935377  0.91696629  0.47203287
   0.67165816  0.66340143  0.47048156
   0.16827597  0.66592641  0.47349398
   0.33333333  0.58333333  0.38179910
   0.33333333  0.33333333  0.38179910
   0.16937317  0.16673900  0.47774061
   0.00114926  0.75631154  0.58140452
   0.92766143  0.91073194  0.47356755
   0.08333333  0.83333333  0.38179910
   0.92151396  0.66621645  0.47307180
   0.67115757  0.91270914  0.47193751
   0.92130920  0.41579936  0.47669806
   0.94479490  0.05042664  0.63303390
   0.58333333  0.33333333  0.38179910
   0.33333333  0.83333333  0.38179910
   0.08333333  0.08333333  0.38179910
   0.58333333  0.83333333  0.38179910
   0.75258117  0.49368567  0.56280630
   0.58333333  0.58333333  0.38179910
   0.67017459  0.41739044  0.47498535
   0.41974321  0.91713035  0.47706629
   0.53250663  0.21133343  0.64391497
   0.83333333  0.58333333  0.38179910
Direct configuration=     4
   0.25261988  0.99328245  0.56641878
   0.66985926  0.16861486  0.47337255
   0.98977712  0.24755692  0.57529094
   0.08333333  0.33333333  0.38179910
   0.08333333  0.58333333  0.38179910
   0.00647592  0.49333737  0.56930664
   0.72243064  0.26649270  0.56694322
   0.92353954  0.16362238  0.47909778
   0.75592171  0.99590043  0.55728833
   0.83333333  0.33333333  0.38179910
   0.42022906  0.41836198  0.47554424
   0.33333333  0.08333333  0.38179910
   0.83333333  0.08333333  0.38179910
   0.50448839  0.73296920  0.56298376
   0.17034213  0.41728067  0.47855849
   0.25760836  0.24118325  0.57035997
   0.26829341  0.49152267  0.57609231
   0.53378101  0.51466885  0.61729275
   0.42057564  0.66666648  0.46932381
   0.24099415  0.75681509  0.55834200
   0.58333333  0.08333333  0.38179910
   0.42173399  0.16488757  0.47724517
   0.50888804  0.98747318  0.56813650
   0.83333333  0.83333333  0.38179910
   0.74777278  0.09702412  0.63058898
   0.55782880  0.36341295  0.66530281
   0.87967369  0.69492679  0.61543534
   0.32851499  0.32181480  0.63238919
   0.03917869  0.85115274  0.63648034
   0.31746843  0.62371765  0.62421772
   0.11026722  0.06904005  0.62882380
   0.52842638  0.04336213  0.63978370
   0.75356019  0.73918606  0.55736179
   0.16916101  0.91707496  0.47197976
   0.67167701  0.66339200  0.47054306
   0.16810006  0.66590275  0.47349028
   0.33333333  0.58333333  0.38179910
   0.33333333  0.33333333  0.38179910
   0.16943915  0.16671262  0.47774657
   0.00136695  0.75612491  0.58152258
   0.92753971  0.91083954  0.47366273
   0.08333333  0.83333333  0.38179910
   0.92148556  0.66625539  0.47313344
   0.67110158  0.91270086  0.47199906
   0.92117479  0.41583019  0.47654977
   0.94511408  0.05010482  0.63274877
   0.58333333  0.33333333  0.38179910
   0.33333333  0.83333333  0.38179910
   0.08333333  0.08333333  0.38179910
   0.58333333  0.83333333  0.38179910
   0.75255863  0.49388775  0.56273830
   0.58333333  0.58333333  0.38179910
   0.67025023  0.41736250  0.47480644
   0.41952799  0.91709891  0.47707680
   0.53224095  0.21165464  0.64405014
   0.83333333  0.58333333  0.38179910
Direct configuration=     5
   0.25246143  0.99314425  0.56647111
   0.66934972  0.16846831  0.47338597
   0.98985701  0.24867668  0.57567326
   0.08333333  0.33333333  0.38179910
   0.08333333  0.58333333  0.38179910
   0.00588180  0.49427018  0.56899132
   0.72225449  0.26672445  0.56659613
   0.92388180  0.16337533  0.47924350
   0.75508325  0.99665371  0.55781698
   0.83333333  0.33333333  0.38179910
   0.42043785  0.41822807  0.47558039
   0.33333333  0.08333333  0.38179910
   0.83333333  0.08333333  0.38179910
   0.50388015  0.73370052  0.56304715
   0.17035709  0.41722078  0.47819169
   0.25706503  0.24089358  0.57043347
   0.26721138  0.49281834  0.57641288
   0.53446867  0.51398341  0.61700087
   0.42009990  0.66660166  0.46930242
   0.24117179  0.75639068  0.55829838
   0.58333333  0.08333333  0.38179910
   0.42153293  0.16508064  0.47712446
   0.50951692  0.98649727  0.56778243
   0.83333333  0.83333333  0.38179910
   0.74886665  0.09541527  0.63085304
   0.55701005  0.36316093  0.66476726
   0.88028395  0.69363756  0.61568612
   0.32770995  0.32332849  0.63242794
   0.03986356  0.85079169  0.63666407
   0.31784848  0.62295028  0.62407791
   0.10969022  0.07080807  0.62857092
   0.52851514  0.04247621  0.63935312
   0.75378871  0.73989213  0.55784721
   0.16868647  0.91734246  0.47184903
   0.67172343  0.66336879  0.47069444
   0.16766701  0.66584450  0.47348117
   0.33333333  0.58333333  0.38179910
   0.33333333  0.33333333  0.38179910
   0.16960159  0.16664768  0.47776125
   0.00190285  0.75566547  0.58181322
   0.92724009  0.91110443  0.47389704
   0.08333333  0.83333333  0.38179910
   0.92141566  0.66635124  0.47328517
   0.67096372  0.91268048  0.47215059
   0.92084393  0.41590608  0.47618473
   0.94589984  0.04931257  0.63204684
   0.58333333  0.33333333  0.38179910
   0.33333333  0.83333333  0.38179910
   0.08333333  0.08333333  0.38179910
   0.58333333  0.83333333  0.38179910
   0.75250313  0.49438521  0.56257091
   0.58333333  0.58333333  0.38179910
   0.67043642  0.41729374  0.47436601
   0.41899818  0.91702149  0.47710266
   0.53158690  0.21244536  0.64438289
   0.83333333  0.58333333  0.38179910
Direct configuration=     6
   0.25248709  0.99302142  0.56643694
   0.66948290  0.16828584  0.47341345
   0.98950267  0.24950968  0.57581566
   0.08333333  0.33333333  0.38179910
   0.08333333  0.58333333  0.38179910
   0.00603468  0.49433063  0.56873365
   0.72233421  0.26683407  0.56641208
   0.92375123  0.16344882  0.47934577
   0.75492869  0.99682113  0.55795815
   0.83333333  0.33333333  0.38179910
   0.42036021  0.41831194  0.47561295
   0.33333333  0.08333333  0.38179910
   0.83333333  0.08333333  0.38179910
   0.50389292  0.73363370  0.56309787
   0.17032576  0.41714353  0.47809892
   0.25693081  0.24113711  0.57047018
   0.26655314  0.49293610  0.57651959
   0.53472265  0.51411402  0.61667361
   0.42000332  0.66659530  0.46930232
   0.24116758  0.75648202  0.55817962
   0.58333333  0.08333333  0.38179910
   0.42132447  0.16506582  0.47710276
   0.50925107  0.98655659  0.56755761
   0.83333333  0.83333333  0.38179910
   0.74920050  0.09476175  0.63103160
   0.55688611  0.36272689  0.66475533
   0.88084128  0.69299665  0.61598532
   0.32744888  0.32361875  0.63237390
   0.04050723  0.85031645  0.63680017
   0.31817953  0.62265100  0.62410194
   0.10959700  0.07147726  0.62845363
   0.52838869  0.04252837  0.63930282
   0.75353083  0.74025487  0.55790375
   0.16861015  0.91723946  0.47183186
   0.67161190  0.66351516  0.47078701
   0.16751178  0.66585737  0.47347867
   0.33333333  0.58333333  0.38179910
   0.33333333  0.33333333  0.38179910
   0.16955635  0.16670135  0.47776134
   0.00194706  0.75562590  0.58196293
   0.92693524  0.91124320  0.47405803
   0.08333333  0.83333333  0.38179910
   0.92123845  0.66646964  0.47334833
   0.67093956  0.91263986  0.47227880
   0.92084153  0.41588669  0.47605345
   0.94564123  0.04946729  0.63178223
   0.58333333  0.33333333  0.38179910
   0.33333333  0.83333333  0.38179910
   0.08333333  0.08333333  0.38179910
   0.58333333  0.83333333  0.38179910
   0.75238650  0.49465257  0.56241682
   0.58333333  0.58333333  0.38179910
   0.67047751  0.41721283  0.47418009
   0.41885520  0.91695649  0.47707020
   0.53138490  0.21231826  0.64428804
   0.83333333  0.58333333  0.38179910
Direct configuration=     7
   0.25252878  0.99282189  0.56638143
   0.66969925  0.16798942  0.47345808
   0.98892706  0.25086285  0.57604698
   0.08333333  0.33333333  0.38179910
   0.08333333  0.58333333  0.38179910
   0.00628303  0.49442883  0.56831507
   0.72246373  0.26701214  0.56611309
   0.92353913  0.16356820  0.47951191
   0.75467760  0.99709310  0.55818748
   0.83333333  0.33333333  0.38179910
   0.42023410  0.41844819  0.47566583
   0.33333333  0.08333333  0.38179910
   0.83333333  0.08333333  0.38179910
   0.50391366  0.73352515  0.56318026
   0.17027487  0.41701805  0.47794821
   0.25671276  0.24153270  0.57052980
   0.26548386  0.49312739  0.57669293
   0.53513522  0.51432619  0.61614201
   0.41984643  0.66658496  0.46930216
   0.24116074  0.75663039  0.55798670
   0.58333333  0.08333333  0.38179910
   0.42098582  0.16504175  0.47706750
   0.50881922  0.98665295  0.56719240
   0.83333333  0.83333333  0.38179910
   0.74974282  0.09370012  0.63132167
   0.55668478  0.36202182  0.66473595
   0.88174664  0.69195552  0.61647135
   0.32702478  0.32409028  0.63228611
   0.04155285  0.84954444  0.63702126
   0.31871731  0.62216482  0.62414099
   0.10944558  0.07256434  0.62826308
   0.52818327  0.04261310  0.63922109
   0.75311191  0.74084412  0.55799558
   0.16848618  0.91707213  0.47180397
   0.67143073  0.66375293  0.47093738
   0.16725962  0.66587827  0.47347461
   0.33333333  0.58333333  0.38179910
   0.33333333  0.33333333  0.38179910
   0.16948285  0.16678853  0.47776149
   0.00201887  0.75556163  0.58220612
   0.92644003  0.91146862  0.47431954
   0.08333333  0.83333333  0.38179910
   0.92095058  0.66666197  0.47345092
   0.67090032  0.91257389  0.47248707
   0.92083763  0.41585519  0.47584020
   0.94522113  0.04971862  0.63135239
   0.58333333  0.33333333  0.38179910
   0.33333333  0.83333333  0.38179910
   0.08333333  0.08333333  0.38179910
   0.58333333  0.83333333  0.38179910
   0.75219704  0.49508688  0.56216650
   0.58333333  0.58333333  0.38179910
   0.67054426  0.41708139  0.47387806
   0.41862294  0.91685089  0.47701746
   0.53105675  0.21211179  0.64413396
   0.83333333  0.58333333  0.38179910
Direct configuration=     8
   0.25242996  0.99297529  0.56631948
   0.66980261  0.16780459  0.47347614
   0.98835790  0.25185367  0.57625447
   0.08333333  0.33333333  0.38179910
   0.08333333  0.58333333  0.38179910
   0.00632998  0.49474163  0.56795797
   0.72264197  0.26714262  0.56590279
   0.92341106  0.16365919  0.47965619
   0.75464133  0.99719168  0.55836211
   0.83333333  0.33333333  0.38179910
   0.42010338  0.41848487  0.47571713
   0.33333333  0.08333333  0.38179910
   0.83333333  0.08333333  0.38179910
   0.50397903  0.73353916  0.56319749
   0.17022141  0.41695926  0.47784643
   0.25667962  0.24173484  0.57051582
   0.26466929  0.49340777  0.57683406
   0.53532869  0.51383826  0.61594470
   0.41988714  0.66653516  0.46930098
   0.24107408  0.75660292  0.55790447
   0.58333333  0.08333333  0.38179910
   0.42083758  0.16498413  0.47704139
   0.50816536  0.98725481  0.56704848
   0.83333333  0.83333333  0.38179910
   0.74964383  0.09296163  0.63155954
   0.55661782  0.36201933  0.66456918
   0.88229122  0.69126011  0.61663138
   0.32693973  0.32396343  0.63223189
   0.04221131  0.84951078  0.63713548
   0.31923433  0.62179060  0.62410271
   0.10900296  0.07324028  0.62803884
   0.52779582  0.04269372  0.63909110
   0.75339081  0.74088407  0.55827052
   0.16833323  0.91698302  0.47177861
   0.67120787  0.66395079  0.47100017
   0.16702190  0.66592781  0.47346274
   0.33333333  0.58333333  0.38179910
   0.33333333  0.33333333  0.38179910
   0.16925044  0.16683633  0.47777217
   0.00175480  0.75568165  0.58252974
   0.92612527  0.91154128  0.47452534
   0.08333333  0.83333333  0.38179910
   0.92068650  0.66681787  0.47349601
   0.67080528  0.91262525  0.47262008
   0.92088996  0.41581904  0.47568419
   0.94553214  0.04953054  0.63112642
   0.58333333  0.33333333  0.38179910
   0.33333333  0.83333333  0.38179910
   0.08333333  0.08333333  0.38179910
   0.58333333  0.83333333  0.38179910
   0.75217395  0.49541630  0.56188751
   0.58333333  0.58333333  0.38179910
   0.67049305  0.41706434  0.47365969
   0.41849230  0.91674023  0.47691500
   0.53096786  0.21185279  0.64391544
   0.83333333  0.58333333  0.38179910
Direct configuration=     9
   0.25223343  0.99328037  0.56619626
   0.67000814  0.16743703  0.47351208
   0.98722601  0.25382410  0.57666712
   0.08333333  0.33333333  0.38179910
   0.08333333  0.58333333  0.38179910
   0.00642336  0.49536370  0.56724782
   0.72299643  0.26740209  0.56548456
   0.92315636  0.16384015  0.47994311
   0.75456921  0.99738773  0.55870939
   0.83333333  0.33333333  0.38179910
   0.41984343  0.41855782  0.47581915
   0.33333333  0.08333333  0.38179910
   0.83333333  0.08333333  0.38179910
   0.50410903  0.73356704  0.56323175
   0.17011510  0.41684237  0.47764402
   0.25661373  0.24213684  0.57048803
   0.26304936  0.49396535  0.57711471
   0.53571342  0.51286793  0.61555232
   0.41996811  0.66643610  0.46929864
   0.24090175  0.75654829  0.55774095
   0.58333333  0.08333333  0.38179910
   0.42054278  0.16486953  0.47698946
   0.50686503  0.98845171  0.56676227
   0.83333333  0.83333333  0.38179910
   0.74944697  0.09149301  0.63203258
   0.55648465  0.36201438  0.66423751
   0.88337422  0.68987716  0.61694964
   0.32677059  0.32371118  0.63212406
   0.04352079  0.84944385  0.63736262
   0.32026252  0.62104640  0.62402660
   0.10812273  0.07458450  0.62759290
   0.52702530  0.04285405  0.63883259
   0.75394546  0.74096352  0.55881730
   0.16802906  0.91680582  0.47172818
   0.67076467  0.66434428  0.47112502
   0.16654913  0.66602633  0.47343915
   0.33333333  0.58333333  0.38179910
   0.33333333  0.33333333  0.38179910
   0.16878825  0.16693139  0.47779342
   0.00122965  0.75592034  0.58317333
   0.92549931  0.91168580  0.47493461
   0.08333333  0.83333333  0.38179910
   0.92016133  0.66712789  0.47358568
   0.67061627  0.91272741  0.47288459
   0.92099403  0.41574714  0.47537393
   0.94615065  0.04915651  0.63067705
   0.58333333  0.33333333  0.38179910
   0.33333333  0.83333333  0.38179910
   0.08333333  0.08333333  0.38179910
   0.58333333  0.83333333  0.38179910
   0.75212804  0.49607141  0.56133269
   0.58333333  0.58333333  0.38179910
   0.67039120  0.41703043  0.47322540
   0.41823251  0.91652015  0.47671125
   0.53079108  0.21133773  0.64348087
   0.83333333  0.58333333  0.38179910
Direct configuration=    10
   0.25184039  0.99389051  0.56594984
   0.67041922  0.16670191  0.47358395
   0.98496222  0.25776497  0.57749241
   0.08333333  0.33333333  0.38179910
   0.08333333  0.58333333  0.38179910
   0.00661013  0.49660782  0.56582753
   0.72370536  0.26792104  0.56464811
   0.92264698  0.16420206  0.48051695
   0.75442498  0.99777982  0.55940395
   0.83333333  0.33333333  0.38179910
   0.41932351  0.41870372  0.47602318
   0.33333333  0.08333333  0.38179910
   0.83333333  0.08333333  0.38179910
   0.50436903  0.73362278  0.56330026
   0.16990249  0.41660857  0.47723920
   0.25648195  0.24294084  0.57043244
   0.25980949  0.49508053  0.57767602
   0.53648290  0.51092727  0.61476756
   0.42013003  0.66623800  0.46929396
   0.24055709  0.75643902  0.55741390
   0.58333333  0.08333333  0.38179910
   0.41995318  0.16464034  0.47688560
   0.50426438  0.99084553  0.56618984
   0.83333333  0.83333333  0.38179910
   0.74905326  0.08855576  0.63297867
   0.55621831  0.36200446  0.66357418
   0.88554022  0.68711125  0.61758616
   0.32643231  0.32320668  0.63190840
   0.04613976  0.84931000  0.63781689
   0.32231891  0.61955800  0.62387437
   0.10636226  0.07727295  0.62670101
   0.52548425  0.04317472  0.63831557
   0.75505477  0.74112243  0.55991085
   0.16742073  0.91645141  0.47162731
   0.66987826  0.66513125  0.47137473
   0.16560359  0.66622337  0.47339196
   0.33333333  0.58333333  0.38179910
   0.33333333  0.33333333  0.38179910
   0.16786386  0.16712151  0.47783593
   0.00017935  0.75639771  0.58446051
   0.92424739  0.91197482  0.47575315
   0.08333333  0.83333333  0.38179910
   0.91911100  0.66774794  0.47376503
   0.67023824  0.91293172  0.47341362
   0.92120216  0.41560334  0.47475343
   0.94738766  0.04840844  0.62977829
   0.58333333  0.33333333  0.38179910
   0.33333333  0.83333333  0.38179910
   0.08333333  0.08333333  0.38179910
   0.58333333  0.83333333  0.38179910
   0.75203621  0.49738162  0.56022305
   0.58333333  0.58333333  0.38179910
   0.67018750  0.41696262  0.47235684
   0.41771291  0.91607999  0.47630376
   0.53043751  0.21030759  0.64261171
   0.83333333  0.58333333  0.38179910
Direct configuration=    11
   0.25213644  0.99343093  0.56613545
   0.67010959  0.16725562  0.47352981
   0.98666737  0.25479659  0.57687078
   0.08333333  0.33333333  0.38179910
   0.08333333  0.58333333  0.38179910
   0.00646945  0.49567071  0.56689734
   0.72317137  0.26753015  0.56527815
   0.92303066  0.16392946  0.48008471
   0.75453362  0.99748449  0.55888078
   0.83333333  0.33333333  0.38179910
   0.41971513  0.41859383  0.47586950
   0.33333333  0.08333333  0.38179910
   0.83333333  0.08333333  0.38179910
   0.50417319  0.73358079  0.56324865
   0.17006264  0.41678467  0.47754413
   0.25658121  0.24233524  0.57047431
   0.26224986  0.49424054  0.57725322
   0.53590331  0.51238903  0.61535866
   0.42000806  0.66638722  0.46929749
   0.24081670  0.75652132  0.55766024
   0.58333333  0.08333333  0.38179910
   0.42039729  0.16481297  0.47696383
   0.50622327  0.98904244  0.56662101
   0.83333333  0.83333333  0.38179910
   0.74934982  0.09076818  0.63226605
   0.55641892  0.36201193  0.66407382
   0.88390872  0.68919462  0.61710672
   0.32668711  0.32358669  0.63207084
   0.04416707  0.84941082  0.63747472
   0.32076998  0.62067911  0.62398903
   0.10768830  0.07524793  0.62737281
   0.52664501  0.04293318  0.63870501
   0.75421920  0.74100274  0.55908716
   0.16787894  0.91671836  0.47170329
   0.67054593  0.66453848  0.47118664
   0.16631580  0.66607496  0.47342750
   0.33333333  0.58333333  0.38179910
   0.33333333  0.33333333  0.38179910
   0.16856013  0.16697830  0.47780391
   0.00097047  0.75603814  0.58349097
   0.92519037  0.91175712  0.47513660
   0.08333333  0.83333333  0.38179910
   0.91990214  0.66728090  0.47362994
   0.67052298  0.91277783  0.47301514
   0.92104539  0.41571165  0.47522081
   0.94645590  0.04897191  0.63045526
   0.58333333  0.33333333  0.38179910
   0.33333333  0.83333333  0.38179910
   0.08333333  0.08333333  0.38179910
   0.58333333  0.83333333  0.38179910
   0.75210537  0.49639473  0.56105886
   0.58333333  0.58333333  0.38179910
   0.67034093  0.41701370  0.47301107
   0.41810428  0.91641153  0.47661070
   0.53070383  0.21108352  0.64326639
   0.83333333  0.58333333  0.38179910
Direct configuration=    12
   0.25191319  0.99368058  0.56601995
   0.66996076  0.16722002  0.47352791
   0.98620213  0.25559200  0.57709627
   0.08333333  0.33333333  0.38179910
   0.08333333  0.58333333  0.38179910
   0.00648382  0.49597098  0.56653839
   0.72339195  0.26756286  0.56513453
   0.92303580  0.16389788  0.48021907
   0.75446322  0.99763259  0.55908690
   0.83333333  0.33333333  0.38179910
   0.41963724  0.41852662  0.47592267
   0.33333333  0.08333333  0.38179910
   0.83333333  0.08333333  0.38179910
   0.50413599  0.73378190  0.56325132
   0.17004507  0.41676532  0.47740750
   0.25639957  0.24245244  0.57038661
   0.26159279  0.49477899  0.57742163
   0.53613503  0.51172534  0.61521646
   0.41999585  0.66630545  0.46930379
   0.24070879  0.75641872  0.55767342
   0.58333333  0.08333333  0.38179910
   0.42034383  0.16480228  0.47689972
   0.50589308  0.98943533  0.56649757
   0.83333333  0.83333333  0.38179910
   0.74952921  0.08989677  0.63248963
   0.55641024  0.36182884  0.66379915
   0.88429972  0.68853804  0.61727168
   0.32670513  0.32326795  0.63206843
   0.04485029  0.84952826  0.63753847
   0.32116405  0.62039970  0.62386813
   0.10738768  0.07576460  0.62712412
   0.52608639  0.04270402  0.63856123
   0.75429012  0.74120103  0.55938142
   0.16762690  0.91675440  0.47166245
   0.67042412  0.66469530  0.47121459
   0.16606753  0.66612410  0.47339530
   0.33333333  0.58333333  0.38179910
   0.33333333  0.33333333  0.38179910
   0.16832303  0.16692962  0.47782050
   0.00078626  0.75634353  0.58389542
   0.92507167  0.91171422  0.47529415
   0.08333333  0.83333333  0.38179910
   0.91963471  0.66742303  0.47361564
   0.67038317  0.91283095  0.47314283
   0.92100305  0.41574412  0.47505377
   0.94595428  0.04903394  0.63034307
   0.58333333  0.33333333  0.38179910
   0.33333333  0.83333333  0.38179910
   0.08333333  0.08333333  0.38179910
   0.58333333  0.83333333  0.38179910
   0.75201578  0.49673215  0.56075358
   0.58333333  0.58333333  0.38179910
   0.67020851  0.41704978  0.47280994
   0.41793835  0.91637860  0.47649191
   0.53100948  0.21129129  0.64308814
   0.83333333  0.58333333  0.38179910
Direct configuration=    13
   0.25156682  0.99406790  0.56584076
   0.66972986  0.16716479  0.47352495
   0.98548031  0.25682606  0.57744613
   0.08333333  0.33333333  0.38179910
   0.08333333  0.58333333  0.38179910
   0.00650612  0.49643683  0.56598148
   0.72373416  0.26761359  0.56491170
   0.92304378  0.16384890  0.48042752
   0.75435401  0.99786236  0.55940668
   0.83333333  0.33333333  0.38179910
   0.41951639  0.41842234  0.47600516
   0.33333333  0.08333333  0.38179910
   0.83333333  0.08333333  0.38179910
   0.50407827  0.73409393  0.56325546
   0.17001781  0.41673529  0.47719553
   0.25611776  0.24263428  0.57025054
   0.26057335  0.49561437  0.57768290
   0.53649455  0.51069564  0.61499583
   0.41997689  0.66617859  0.46931357
   0.24054138  0.75625954  0.55769385
   0.58333333  0.08333333  0.38179910
   0.42026088  0.16478568  0.47680026
   0.50538079  0.99004491  0.56630605
   0.83333333  0.83333333  0.38179910
   0.74980754  0.08854479  0.63283650
   0.55639677  0.36154479  0.66337300
   0.88490635  0.68751937  0.61752761
   0.32673308  0.32277344  0.63206470
   0.04591029  0.84971045  0.63763739
   0.32177545  0.61996620  0.62368055
   0.10692128  0.07656620  0.62673828
   0.52521969  0.04234849  0.63833815
   0.75440015  0.74150868  0.55983796
   0.16723586  0.91681031  0.47159910
   0.67023513  0.66493861  0.47125795
   0.16568235  0.66620035  0.47334534
   0.33333333  0.58333333  0.38179910
   0.33333333  0.33333333  0.38179910
   0.16795515  0.16685408  0.47784624
   0.00050047  0.75681734  0.58452293
   0.92488750  0.91164766  0.47553858
   0.08333333  0.83333333  0.38179910
   0.91921980  0.66764354  0.47359346
   0.67016625  0.91291337  0.47334094
   0.92093736  0.41579449  0.47479461
   0.94517601  0.04913017  0.63016901
   0.58333333  0.33333333  0.38179910
   0.33333333  0.83333333  0.38179910
   0.08333333  0.08333333  0.38179910
   0.58333333  0.83333333  0.38179910
   0.75187678  0.49725567  0.56027994
   0.58333333  0.58333333  0.38179910
   0.67000306  0.41710575  0.47249790
   0.41768090  0.91632750  0.47630762
   0.53148369  0.21161365  0.64281160
   0.83333333  0.58333333  0.38179910
Direct configuration=    14
   0.25121111  0.99425496  0.56563182
   0.66940611  0.16723478  0.47351981
   0.98508408  0.25742075  0.57773504
   0.08333333  0.33333333  0.38179910
   0.08333333  0.58333333  0.38179910
   0.00648905  0.49676972  0.56560313
   0.72403492  0.26757412  0.56478608
   0.92307617  0.16370318  0.48055039
   0.75419381  0.99807197  0.55959042
   0.83333333  0.33333333  0.38179910
   0.41945691  0.41831748  0.47606784
   0.33333333  0.08333333  0.38179910
   0.83333333  0.08333333  0.38179910
   0.50384274  0.73446370  0.56326344
   0.17005180  0.41671669  0.47699532
   0.25577230  0.24276673  0.57009542
   0.26008411  0.49622479  0.57793980
   0.53690817  0.51028493  0.61472696
   0.41978339  0.66611296  0.46934787
   0.24040829  0.75630845  0.55775676
   0.58333333  0.08333333  0.38179910
   0.42020556  0.16483793  0.47667681
   0.50550882  0.99004701  0.56616196
   0.83333333  0.83333333  0.38179910
   0.74999092  0.08748678  0.63316512
   0.55667866  0.36140645  0.66317249
   0.88521338  0.68683658  0.61775968
   0.32693600  0.32238558  0.63206148
   0.04673604  0.85007353  0.63769877
   0.32198886  0.61982352  0.62351814
   0.10641087  0.07689281  0.62646459
   0.52452019  0.04259287  0.63822193
   0.75405490  0.74203753  0.56011749
   0.16694827  0.91689562  0.47154605
   0.67022283  0.66508568  0.47124310
   0.16546635  0.66624944  0.47328890
   0.33333333  0.58333333  0.38179910
   0.33333333  0.33333333  0.38179910
   0.16777629  0.16675844  0.47785231
   0.00036329  0.75726063  0.58502464
   0.92493623  0.91151811  0.47564614
   0.08333333  0.83333333  0.38179910
   0.91891167  0.66778822  0.47350797
   0.67001371  0.91292235  0.47348469
   0.92074493  0.41589764  0.47458434