<?xml version="1.0" encoding="ISO-8859-1"?>
<modeling>
 <generator>
  <i name="program" type="string">vasp </i>
  <i name="version" type="string">5.4.1  </i>
  <i name="subversion" type="string">24Jun15 (build Mar 14 2019 10:18:33) complex                          parallel </i>
  <i name="platform" type="string">INTEL-19.0.2+OPENMPI-3.1.3 </i>
  <i name="date" type="string">2023 01 24 </i>
  <i name="time" type="string">11:01:54 </i>
 </generator>
 <incar>
  <i type="int" name="ISTART">     0</i>
  <i type="string" name="PREC">normal</i>
  <i type="string" name="ALGO"> Fast</i>
  <i type="int" name="NELM">   500</i>
  <i type="int" name="IBRION">     2</i>
  <i type="int" name="NFREE">     2</i>
  <i name="EDIFF">      0.00000100</i>
  <i name="EDIFFG">     -0.02000000</i>
  <i type="int" name="NSW">   500</i>
  <i type="int" name="ISIF">     0</i>
  <i type="int" name="ISYM">     2</i>
  <i name="ENCUT">    400.00000000</i>
  <i name="POTIM">      0.35000000</i>
  <i type="string" name="LREAL"> Auto</i>
  <i type="logical" name="LPLANE"> T  </i>
  <i type="int" name="ISMEAR">     0</i>
  <i name="SIGMA">      0.10000000</i>
  <i type="int" name="NWRITE">     1</i>
  <i type="logical" name="LWAVE"> F  </i>
  <i type="logical" name="LCHARG"> F  </i>
  <i type="logical" name="LVTOT"> F  </i>
  <i type="logical" name="LORBIT"> F  </i>
  <i type="logical" name="LAECHG"> F  </i>
  <v type="int" name="KPOINT_BSE">    -1     0     0     0</v>
  <i type="int" name="NELM">   500</i>
  <i type="string" name="GGA"> PE          ! optPBE-vdW XC-functional</i>
  <i type="int" name="VOSKOWN">     1</i>
  <i type="logical" name="LDIPOL"> T  </i>
  <i type="logical" name="LMONO"> F  </i>
  <i type="int" name="IDIPOL">     3</i>
  <v name="DIPOL">      0.00000000      0.00000000      0.50000000</v>
 </incar>
 <kpoints>
  <generation param="Monkhorst-Pack">
   <v type="int" name="divisions">       2        2        1 </v>
   <v name="usershift">      0.00000000       0.00000000       0.00000000 </v>
   <v name="genvec1">      0.50000000       0.00000000       0.00000000 </v>
   <v name="genvec2">      0.00000000       0.50000000       0.00000000 </v>
   <v name="genvec3">      0.00000000       0.00000000       1.00000000 </v>
   <v name="shift">      0.50000000       0.50000000       0.00000000 </v>
  </generation>
  <varray name="kpointlist" >
   <v>       0.25000000       0.25000000       0.00000000 </v>
   <v>       0.00000000       0.25000000       0.00000000 </v>
   <v>      -0.25000000       0.00000000       0.00000000 </v>
   <v>      -0.25000000       0.25000000       0.00000000 </v>
   <v>       0.50000000      -0.25000000       0.00000000 </v>
   <v>      -0.25000000       0.50000000       0.00000000 </v>
  </varray>
  <varray name="weights" >
   <v>       0.16666667 </v>
   <v>       0.16666667 </v>
   <v>       0.16666667 </v>
   <v>       0.16666667 </v>
   <v>       0.16666667 </v>
   <v>       0.16666667 </v>
  </varray>
 </kpoints>
 <parameters>
  <separator name="general" >
   <i type="string" name="SYSTEM">unknown system</i>
   <i type="logical" name="LCOMPAT"> F  </i>
  </separator>
  <separator name="electronic" >
   <i type="string" name="PREC">normal</i>
   <i name="ENMAX">    400.00000000</i>
   <i name="ENAUG">    605.39200000</i>
   <i name="EDIFF">      0.00000100</i>
   <i type="int" name="IALGO">    68</i>
   <i type="int" name="IWAVPR">    11</i>
   <i type="int" name="NBANDS">   336</i>
   <i name="NELECT">    552.00000000</i>
   <i type="int" name="TURBO">     0</i>
   <i type="int" name="IRESTART">     0</i>
   <i type="int" name="NREBOOT">     0</i>
   <i type="int" name="NMIN">     0</i>
   <i name="EREF">      0.00000000</i>
   <separator name="electronic smearing" >
    <i type="int" name="ISMEAR">     0</i>
    <i name="SIGMA">      0.10000000</i>
    <i name="KSPACING">      0.50000000</i>
    <i type="logical" name="KGAMMA"> T  </i>
   </separator>
   <separator name="electronic projectors" >
    <i type="logical" name="LREAL"> T  </i>
    <v name="ROPT">     -0.00050000     -0.00050000     -0.00050000</v>
    <i type="int" name="LMAXPAW">  -100</i>
    <i type="int" name="LMAXMIX">     2</i>
    <i type="logical" name="NLSPLINE"> F  </i>
   </separator>
   <separator name="electronic startup" >
    <i type="int" name="ISTART">     0</i>
    <i type="int" name="ICHARG">     2</i>
    <i type="int" name="INIWAV">     1</i>
   </separator>
   <separator name="electronic spin" >
    <i type="int" name="ISPIN">     1</i>
    <i type="logical" name="LNONCOLLINEAR"> F  </i>
    <v name="MAGMOM">      1.00000000      1.00000000      1.00000000      1.00000000      1.00000000      1.00000000      1.00000000      1.00000000      1.00000000      1.00000000      1.00000000      1.00000000      1.00000000      1.00000000      1.00000000      1.00000000      1.00000000      1.00000000      1.00000000      1.00000000
      1.00000000      1.00000000      1.00000000      1.00000000      1.00000000      1.00000000      1.00000000      1.00000000      1.00000000      1.00000000      1.00000000      1.00000000      1.00000000      1.00000000      1.00000000      1.00000000      1.00000000      1.00000000      1.00000000      1.00000000
      1.00000000      1.00000000      1.00000000      1.00000000      1.00000000      1.00000000      1.00000000      1.00000000      1.00000000      1.00000000      1.00000000      1.00000000      1.00000000      1.00000000      1.00000000      1.00000000</v>
    <i name="NUPDOWN">     -1.00000000</i>
    <i type="logical" name="LSORBIT"> F  </i>
    <v name="SAXIS">      0.00000000      0.00000000      1.00000000</v>
    <i type="logical" name="LSPIRAL"> F  </i>
    <v name="QSPIRAL">      0.00000000      0.00000000      0.00000000</v>
    <i type="logical" name="LZEROZ"> F  </i>
   </separator>
   <separator name="electronic exchange-correlation" >
    <i type="logical" name="LASPH"> F  </i>
    <i type="logical" name="LMETAGGA"> F  </i>
   </separator>
   <separator name="electronic convergence" >
    <i type="int" name="NELM">   500</i>
    <i type="int" name="NELMDL">    -5</i>
    <i type="int" name="NELMIN">     2</i>
    <i name="ENINI">    400.00000000</i>
    <separator name="electronic convergence detail" >
     <i type="logical" name="LDIAG"> T  </i>
     <i type="logical" name="LSUBROT"> F  </i>
     <i name="WEIMIN">      0.00100000</i>
     <i name="EBREAK">      0.00000000</i>
     <i name="DEPER">      0.30000000</i>
     <i type="int" name="NRMM">     4</i>
     <i name="TIME">      0.40000000</i>
    </separator>
   </separator>
   <separator name="electronic mixer" >
    <i name="AMIX">      0.40000000</i>
    <i name="BMIX">      1.00000000</i>
    <i name="AMIN">      0.10000000</i>
    <i name="AMIX_MAG">      1.60000000</i>
    <i name="BMIX_MAG">      1.00000000</i>
    <separator name="electronic mixer details" >
     <i type="int" name="IMIX">     4</i>
     <i type="logical" name="MIXFIRST"> F  </i>
     <i type="int" name="MAXMIX">   -45</i>
     <i name="WC">    100.00000000</i>
     <i type="int" name="INIMIX">     1</i>
     <i type="int" name="MIXPRE">     1</i>
     <i type="int" name="MREMOVE">     5</i>
    </separator>
   </separator>
   <separator name="electronic dipolcorrection" >
    <i type="logical" name="LDIPOL"> T  </i>
    <i type="logical" name="LMONO"> F  </i>
    <i type="int" name="IDIPOL">     3</i>
    <i name="EPSILON">      1.00000000</i>
    <v name="DIPOL">      0.00000000      0.00000000      0.50000000</v>
    <i name="EFIELD">      0.00000000</i>
   </separator>
  </separator>
  <separator name="grids" >
   <i type="int" name="NGX">    54</i>
   <i type="int" name="NGY">    54</i>
   <i type="int" name="NGZ">   128</i>
   <i type="int" name="NGXF">   108</i>
   <i type="int" name="NGYF">   108</i>
   <i type="int" name="NGZF">   256</i>
   <i type="logical" name="ADDGRID"> F  </i>
  </separator>
  <separator name="ionic" >
   <i type="int" name="NSW">   500</i>
   <i type="int" name="IBRION">     2</i>
   <i type="int" name="ISIF">     0</i>
   <i name="PSTRESS">      0.00000000</i>
   <i name="EDIFFG">     -0.02000000</i>
   <i type="int" name="NFREE">     2</i>
   <i name="POTIM">      0.35000000</i>
   <i name="SMASS">     -3.00000000</i>
   <i name="SCALEE">      1.00000000</i>
  </separator>
  <separator name="ionic md" >
   <i name="TEBEG">      0.00010000</i>
   <i name="TEEND">      0.00010000</i>
   <i type="int" name="NBLOCK">     1</i>
   <i type="int" name="KBLOCK">   500</i>
   <i type="int" name="NPACO">   256</i>
   <i name="APACO">     16.00000000</i>
  </separator>
  <separator name="symmetry" >
   <i type="int" name="ISYM">     2</i>
   <i name="SYMPREC">      0.00001000</i>
  </separator>
  <separator name="dos" >
   <i type="logical" name="LORBIT"> F  </i>
   <v name="RWIGS">     -1.00000000     -1.00000000     -1.00000000</v>
   <i type="int" name="NEDOS">   301</i>
   <i name="EMIN">     10.00000000</i>
   <i name="EMAX">    -10.00000000</i>
   <i name="EFERMI">      0.00000000</i>
  </separator>
  <separator name="writing" >
   <i type="int" name="NWRITE">     1</i>
   <i type="logical" name="LWAVE"> F  </i>
   <i type="logical" name="LCHARG"> F  </i>
   <i type="logical" name="LPARD"> F  </i>
   <i type="logical" name="LVTOT"> F  </i>
   <i type="logical" name="LVHAR"> F  </i>
   <i type="logical" name="LELF"> F  </i>
   <i type="logical" name="LOPTICS"> F  </i>
   <v name="STM">      0.00000000      0.00000000      0.00000000      0.00000000      0.00000000      0.00000000      0.00000000</v>
  </separator>
  <separator name="performance" >
   <i type="int" name="NPAR">     6</i>
   <i type="int" name="NSIM">     4</i>
   <i type="int" name="NBLK">    -1</i>
   <i type="logical" name="LPLANE"> T  </i>
   <i type="logical" name="LSCALAPACK"> T  </i>
   <i type="logical" name="LSCAAWARE"> F  </i>
   <i type="logical" name="LSCALU"> F  </i>
   <i type="logical" name="LASYNC"> F  </i>
   <i type="logical" name="LORBITALREAL"> F  </i>
  </separator>
  <separator name="miscellaneous" >
   <i type="int" name="IDIOT">     3</i>
   <i type="logical" name="LMUSIC"> F  </i>
   <v name="POMASS">    196.96600000     16.00000000    106.42000000</v>
   <v name="DARWINR">      0.00000000      0.00000000      0.00000000</v>
   <v name="DARWINV">      1.00000000      1.00000000      1.00000000</v>
   <i type="logical" name="LCORR"> T  </i>
  </separator>
  <i type="logical" name="GGA_COMPAT"> T  </i>
  <i type="logical" name="LBERRY"> F  </i>
  <i type="int" name="ICORELEVEL">     0</i>
  <i type="logical" name="LDAU"> F  </i>
  <i type="int" name="I_CONSTRAINED_M">     0</i>
  <separator name="electronic exchange-correlation" >
   <i type="string" name="GGA">PE</i>
   <i type="int" name="VOSKOWN">     1</i>
   <i type="logical" name="LHFCALC"> F  </i>
   <i type="string" name="PRECFOCK"></i>
   <i type="logical" name="LSYMGRAD"> F  </i>
   <i type="logical" name="LHFONE"> F  </i>
   <i type="logical" name="LRHFCALC"> F  </i>
   <i type="logical" name="LTHOMAS"> F  </i>
   <i type="logical" name="LMODELHF"> F  </i>
   <i name="ENCUT4O">     -1.00000000</i>
   <i type="int" name="EXXOEP">     0</i>
   <i type="int" name="FOURORBIT">     0</i>
   <i name="AEXX">      0.00000000</i>
   <i name="HFALPHA">      0.00000000</i>
   <i name="MCALPHA">      0.00000000</i>
   <i name="ALDAX">      1.00000000</i>
   <i name="AGGAX">      1.00000000</i>
   <i name="ALDAC">      1.00000000</i>
   <i name="AGGAC">      1.00000000</i>
   <i type="int" name="NKREDX">     1</i>
   <i type="int" name="NKREDY">     1</i>
   <i type="int" name="NKREDZ">     1</i>
   <i type="logical" name="SHIFTRED"> F  </i>
   <i type="logical" name="ODDONLY"> F  </i>
   <i type="logical" name="EVENONLY"> F  </i>
   <i type="int" name="LMAXFOCK">     0</i>
   <i type="int" name="NMAXFOCKAE">     0</i>
   <i type="logical" name="LFOCKAEDFT"> F  </i>
   <i name="HFSCREEN">      0.00000000</i>
   <i name="HFSCREENC">      0.00000000</i>
   <i type="int" name="NBANDSGWLOW">     0</i>
  </separator>
  <separator name="vdW DFT" >
   <i type="logical" name="LUSE_VDW"> F  </i>
   <i name="Zab_VDW">     -0.84910000</i>
   <i name="PARAM1">      0.12340000</i>
   <i name="PARAM2">      1.00000000</i>
   <i name="PARAM3">      0.00000000</i>
  </separator>
  <separator name="model GW" >
   <i type="int" name="MODEL_GW">     0</i>
   <i name="MODEL_EPS0">     29.42037089</i>
   <i name="MODEL_ALPHA">      1.00000000</i>
  </separator>
  <separator name="linear response parameters" >
   <i type="logical" name="LEPSILON"> F  </i>
   <i type="logical" name="LRPA"> F  </i>
   <i type="logical" name="LNABLA"> F  </i>
   <i type="logical" name="LVEL"> F  </i>
   <i type="int" name="KINTER">     0</i>
   <i name="CSHIFT">      0.10000000</i>
   <i name="OMEGAMAX">     -1.00000000</i>
   <i name="DEG_THRESHOLD">      0.00200000</i>
  </separator>
  <separator name="orbital magnetization" >
   <i type="logical" name="NUCIND"> F  </i>
   <v name="MAGPOS">      0.00000000      0.00000000      0.00000000</v>
   <i type="logical" name="LNICSALL"> T  </i>
   <i type="logical" name="ORBITALMAG"> F  </i>
   <i type="logical" name="LMAGBLOCH"> F  </i>
   <i type="logical" name="LCHIMAG"> F  </i>
   <i type="logical" name="LGAUGE"> T  </i>
   <i type="int" name="MAGATOM">     0</i>
   <v name="MAGDIPOL">      0.00000000      0.00000000      0.00000000</v>
   <v name="AVECCONST">      0.00000000      0.00000000      0.00000000</v>
  </separator>
  <separator name="response functions" >
   <i type="logical" name="LADDER"> F  </i>
   <i type="logical" name="LFXC"> F  </i>
   <i type="logical" name="LHARTREE"> T  </i>
   <i type="int" name="IBSE">     0</i>
   <v type="int" name="KPOINT">    -1     0     0     0</v>
   <i type="logical" name="LTCTE"> F  </i>
   <i type="logical" name="LTETE"> F  </i>
   <i type="logical" name="LTRIPLET"> F  </i>
   <i type="logical" name="LFXCEPS"> F  </i>
   <i type="logical" name="LFXHEG"> F  </i>
   <i type="int" name="NATURALO">     0</i>
   <i type="logical" name="L2ORDER"> F  </i>
   <i type="logical" name="LUSEW"> F  </i>
   <i name="ENCUTGW">     -2.00000000</i>
   <i name="ENCUTGWSOFT">     -2.00000000</i>
   <i name="ENCUTLF">     -1.00000000</i>
   <i type="int" name="LMAXMP2">    -1</i>
   <i name="SCISSOR">      0.00000000</i>
   <i type="int" name="NOMEGA">     0</i>
   <i type="int" name="NOMEGAR">     0</i>
   <i type="int" name="NBANDSGW">    -1</i>
   <i type="int" name="NBANDSO">    -1</i>
   <i type="int" name="NBANDSV">    -1</i>
   <i type="int" name="NELM">   500</i>
   <i type="int" name="NELMHF">     1</i>
   <i type="int" name="DIM">     3</i>
   <i type="int" name="ANTIRES">     0</i>
   <i name="OMEGAMAX">    -30.00000000</i>
   <i name="OMEGAMIN">    -30.00000000</i>
   <i name="OMEGATL">   -200.00000000</i>
   <i type="int" name="OMEGAGRID">     0</i>
   <i name="CSHIFT">     -0.10000000</i>
   <i type="logical" name="SELFENERGY"> F  </i>
   <i type="logical" name="LSPECTRAL"> F  </i>
   <i type="logical" name="LSPECTRALGW"> F  </i>
   <i type="logical" name="LSINGLES"> F  </i>
   <i type="logical" name="LFERMIGW"> F  </i>
   <i type="logical" name="ODDONLYGW"> F  </i>
   <i type="logical" name="EVENONLYGW"> F  </i>
   <i type="int" name="NKREDLFX">     1</i>
   <i type="int" name="NKREDLFY">     1</i>
   <i type="int" name="NKREDLFZ">     1</i>
   <i type="int" name="MAXMEM">  1800</i>
   <i type="int" name="TELESCOPE">     0</i>
   <i type="int" name="TAUPAR">     1</i>
   <i type="int" name="OMEGAPAR">    -1</i>
   <i name="LAMBDA">      1.00000000</i>
  </separator>
  <separator name="External order field" >
   <i name="OFIELD_KAPPA">      0.00000000</i>
   <v name="OFIELD_K">      0.00000000      0.00000000      0.00000000</v>
   <i name="OFIELD_Q6_NEAR">      0.00000000</i>
   <i name="OFIELD_Q6_FAR">      0.00000000</i>
   <i name="OFIELD_A">      0.00000000</i>
  </separator>
 </parameters>
 <atominfo>
  <atoms>      56 </atoms>
  <types>       3 </types>
  <array name="atoms" >
   <dimension dim="1">ion</dimension>
   <field type="string">element</field>
   <field type="int">atomtype</field>
   <set>
    <rc><c>Au</c><c>   1</c></rc>
    <rc><c>Au</c><c>   1</c></rc>
    <rc><c>Au</c><c>   1</c></rc>
    <rc><c>Au</c><c>   1</c></rc>
    <rc><c>Au</c><c>   1</c></rc>
    <rc><c>Au</c><c>   1</c></rc>
    <rc><c>Au</c><c>   1</c></rc>
    <rc><c>Au</c><c>   1</c></rc>
    <rc><c>Au</c><c>   1</c></rc>
    <rc><c>Au</c><c>   1</c></rc>
    <rc><c>Au</c><c>   1</c></rc>
    <rc><c>Au</c><c>   1</c></rc>
    <rc><c>Au</c><c>   1</c></rc>
    <rc><c>Au</c><c>   1</c></rc>
    <rc><c>Au</c><c>   1</c></rc>
    <rc><c>Au</c><c>   1</c></rc>
    <rc><c>Au</c><c>   1</c></rc>
    <rc><c>Au</c><c>   1</c></rc>
    <rc><c>Au</c><c>   1</c></rc>
    <rc><c>Au</c><c>   1</c></rc>
    <rc><c>Au</c><c>   1</c></rc>
    <rc><c>Au</c><c>   1</c></rc>
    <rc><c>Au</c><c>   1</c></rc>
    <rc><c>Au</c><c>   1</c></rc>
    <rc><c>O </c><c>   2</c></rc>
    <rc><c>O </c><c>   2</c></rc>
    <rc><c>O </c><c>   2</c></rc>
    <rc><c>O </c><c>   2</c></rc>
    <rc><c>O </c><c>   2</c></rc>
    <rc><c>O </c><c>   2</c></rc>
    <rc><c>O </c><c>   2</c></rc>
    <rc><c>O </c><c>   2</c></rc>
    <rc><c>Pd</c><c>   3</c></rc>
    <rc><c>Pd</c><c>   3</c></rc>
    <rc><c>Pd</c><c>   3</c></rc>
    <rc><c>Pd</c><c>   3</c></rc>
    <rc><c>Pd</c><c>   3</c></rc>
    <rc><c>Pd</c><c>   3</c></rc>
    <rc><c>Pd</c><c>   3</c></rc>
    <rc><c>Pd</c><c>   3</c></rc>
    <rc><c>Pd</c><c>   3</c></rc>
    <rc><c>Pd</c><c>   3</c></rc>
    <rc><c>Pd</c><c>   3</c></rc>
    <rc><c>Pd</c><c>   3</c></rc>
    <rc><c>Pd</c><c>   3</c></rc>
    <rc><c>Pd</c><c>   3</c></rc>
    <rc><c>Pd</c><c>   3</c></rc>
    <rc><c>Pd</c><c>   3</c></rc>
    <rc><c>Pd</c><c>   3</c></rc>
    <rc><c>Pd</c><c>   3</c></rc>
    <rc><c>Pd</c><c>   3</c></rc>
    <rc><c>Pd</c><c>   3</c></rc>
    <rc><c>Pd</c><c>   3</c></rc>
    <rc><c>Pd</c><c>   3</c></rc>
    <rc><c>Pd</c><c>   3</c></rc>
    <rc><c>Pd</c><c>   3</c></rc>
   </set>
  </array>
  <array name="atomtypes" >
   <dimension dim="1">type</dimension>
   <field type="int">atomspertype</field>
   <field type="string">element</field>
   <field>mass</field>
   <field>valence</field>
   <field type="string">pseudopotential</field>
   <set>
    <rc><c>  24</c><c>Au</c><c>    196.96600000</c><c>     11.00000000</c><c>  PAW_PBE Au 04Oct2007                  </c></rc>
    <rc><c>   8</c><c>O </c><c>     16.00000000</c><c>      6.00000000</c><c>  PAW_PBE O 08Apr2002                   </c></rc>
    <rc><c>  24</c><c>Pd</c><c>    106.42000000</c><c>     10.00000000</c><c>  PAW_PBE Pd 04Jan2005                  </c></rc>
   </set>
  </array>
 </atominfo>
 <structure name="initialpos" >
  <crystal>
   <varray name="basis" >
    <v>      11.00258152       0.00000000       0.00000000 </v>
    <v>       5.50129076       9.52851510       0.00000000 </v>
    <v>       0.00000000       0.00000000      26.19178509 </v>
   </varray>
   <i name="volume">   2745.90128299 </i>
   <varray name="rec_basis" >
    <v>       0.09088776      -0.05247407       0.00000000 </v>
    <v>       0.00000000       0.10494815       0.00000000 </v>
    <v>       0.00000000       0.00000000       0.03817991 </v>
   </varray>
  </crystal>
  <varray name="positions" >
   <v>       0.33333333       0.83333333       0.38179910 </v>
   <v>       0.41189535       0.41207306       0.46888429 </v>
   <v>       0.48671633       0.50708946       0.55613677 </v>
   <v>       0.92040243       0.15927039       0.47349075 </v>
   <v>       0.02110873       0.03723546       0.62934086 </v>
   <v>       0.83333333       0.83333333       0.38179910 </v>
   <v>       0.74325389       0.50780391       0.55901458 </v>
   <v>       0.66853737       0.66513373       0.47105111 </v>
   <v>       0.01181019       0.26856051       0.59535829 </v>
   <v>       0.76651649       0.71014806       0.59814840 </v>
   <v>       0.08333333       0.58333333       0.38179910 </v>
   <v>       0.00502006       0.50596130       0.56271613 </v>
   <v>       0.74883791       0.25447999       0.56947375 </v>
   <v>       0.08333333       0.83333333       0.38179910 </v>
   <v>       0.16968592       0.90809959       0.49366349 </v>
   <v>       0.02389368       0.75277848       0.56410271 </v>
   <v>       0.75262237       0.99606362       0.56159786 </v>
   <v>       0.33333333       0.08333333       0.38179910 </v>
   <v>       0.16517810       0.16197474       0.48314829 </v>
   <v>       0.83333333       0.08333333       0.38179910 </v>
   <v>       0.49441885       0.00457239       0.55914113 </v>
   <v>       0.47666582       0.75741503       0.55893340 </v>
   <v>       0.16367497       0.41499632       0.47266030 </v>
   <v>       0.66615244       0.40989820       0.47255383 </v>
   <v>       0.35220352       0.30882864       0.61561369 </v>
   <v>       0.36701959       0.56166946       0.62763239 </v>
   <v>       0.09270044       0.81670941       0.62863678 </v>
   <v>       0.84049705       0.83867744       0.61732236 </v>
   <v>       0.81209018       0.09476061       0.62584614 </v>
   <v>       0.55446445       0.83896405       0.61639008 </v>
   <v>       0.81655075       0.38285332       0.62594885 </v>
   <v>       0.24311238       0.95504102       0.64971306 </v>
   <v>       0.41260871       0.66880219       0.46980116 </v>
   <v>       0.58333333       0.58333333       0.38179910 </v>
   <v>       0.33333333       0.58333333       0.38179910 </v>
   <v>       0.58333333       0.33333333       0.38179910 </v>
   <v>       0.41820833       0.16197140       0.47203976 </v>
   <v>       0.58333333       0.08333333       0.38179910 </v>
   <v>       0.17308275       0.66360925       0.47854122 </v>
   <v>       0.30188278       0.75357502       0.63483413 </v>
   <v>       0.25114569       0.25548970       0.56537309 </v>
   <v>       0.33333333       0.33333333       0.38179910 </v>
   <v>       0.58333333       0.83333333       0.38179910 </v>
   <v>       0.41565252       0.91577035       0.46922421 </v>
   <v>       0.24517556       0.00997181       0.57578389 </v>
   <v>       0.66873076       0.16031428       0.47663216 </v>
   <v>       0.92219596       0.91107638       0.47336253 </v>
   <v>       0.83333333       0.33333333       0.38179910 </v>
   <v>       0.91953872       0.66815743       0.47467485 </v>
   <v>       0.83333333       0.58333333       0.38179910 </v>
   <v>       0.91724254       0.41282261       0.47045264 </v>
   <v>       0.08333333       0.33333333       0.38179910 </v>
   <v>       0.67134480       0.91197664       0.47201282 </v>
   <v>       0.23913178       0.50636550       0.59517591 </v>
   <v>       0.49997206       0.24922867       0.56150858 </v>
   <v>       0.08333333       0.08333333       0.38179910 </v>
  </varray>
  <varray name="selective"  type="logical" >
   <v type="logical" >  F  F  F </v>
   <v type="logical" >  T  T  T </v>
   <v type="logical" >  T  T  T </v>
   <v type="logical" >  T  T  T </v>
   <v type="logical" >  T  T  T </v>
   <v type="logical" >  F  F  F </v>
   <v type="logical" >  T  T  T </v>
   <v type="logical" >  T  T  T </v>
   <v type="logical" >  T  T  T </v>
   <v type="logical" >  T  T  T </v>
   <v type="logical" >  F  F  F </v>
   <v type="logical" >  T  T  T </v>
   <v type="logical" >  T  T  T </v>
   <v type="logical" >  F  F  F </v>
   <v type="logical" >  T  T  T </v>
   <v type="logical" >  T  T  T </v>
   <v type="logical" >  T  T  T </v>
   <v type="logical" >  F  F  F </v>
   <v type="logical" >  T  T  T </v>
   <v type="logical" >  F  F  F </v>
   <v type="logical" >  T  T  T </v>
   <v type="logical" >  T  T  T </v>
   <v type="logical" >  T  T  T </v>
   <v type="logical" >  T  T  T </v>
   <v type="logical" >  T  T  T </v>
   <v type="logical" >  T  T  T </v>
   <v type="logical" >  T  T  T </v>
   <v type="logical" >  T  T  T </v>
   <v type="logical" >  T  T  T </v>
   <v type="logical" >  T  T  T </v>
   <v type="logical" >  T  T  T </v>
   <v type="logical" >  T  T  T </v>
   <v type="logical" >  T  T  T </v>
   <v type="logical" >  F  F  F </v>
   <v type="logical" >  F  F  F </v>
   <v type="logical" >  F  F  F </v>
   <v type="logical" >  T  T  T </v>
   <v type="logical" >  F  F  F </v>
   <v type="logical" >  T  T  T </v>
   <v type="logical" >  T  T  T </v>
   <v type="logical" >  T  T  T </v>
   <v type="logical" >  F  F  F </v>
   <v type="logical" >  F  F  F </v>
   <v type="logical" >  T  T  T </v>
   <v type="logical" >  T  T  T </v>
   <v type="logical" >  T  T  T </v>
   <v type="logical" >  T  T  T </v>
   <v type="logical" >  F  F  F </v>
   <v type="logical" >  T  T  T </v>
   <v type="logical" >  F  F  F </v>
   <v type="logical" >  T  T  T </v>
   <v type="logical" >  F  F  F </v>
   <v type="logical" >  T  T  T </v>
   <v type="logical" >  T  T  T </v>
   <v type="logical" >  T  T  T </v>
   <v type="logical" >  F  F  F </v>
  </varray>
  <nose>
   <v>      -3.00000000       0.00000000       0.00010000       0.00010000 </v>
  </nose>
 </structure>
 <calculation>
  <scstep>
   <time name="dav">    8.54    8.57</time>
   <time name="total">    8.60    8.63</time>
   <dipole>
    <v name="dipole">      0.00000000       0.00000000       0.00008961 </v>
    <i name="Tr[quadrupol]"> -11005.90166973 </i>
    <i name="Echarged">      0.00000000 </i>
    <i name="Edipol_quadrupol">      0.00000000 </i>
    <i name="Eion">      0.00000000 </i>
   </dipole>
   <energy>
    <i name="alphaZ">    862.57718369 </i>
    <i name="ewald"> 232173.42684210 </i>
    <i name="hartreedc">-277809.86658206 </i>
    <i name="XCdc">   -117.61459470 </i>
    <i name="pawpsdc">  43112.45544455 </i>
    <i name="pawaedc"> -41079.41300390 </i>
    <i name="eentropy">     -0.14112632 </i>
    <i name="bandstr">   1342.65719661 </i>
    <i name="atom">  45117.89144060 </i>
    <i name="e_fr_energy">   3601.97280057 </i>
    <i name="e_wo_entrp">   3602.11392689 </i>
    <i name="e_0_energy">   3602.04336373 </i>
   </energy>
  </scstep>
  <scstep>
   <time name="dav">   10.03   10.06</time>
   <time name="total">   10.03   10.06</time>
   <dipole>
    <v name="dipole">      0.00000000       0.00000000       0.00008961 </v>
    <i name="Tr[quadrupol]"> -11005.90166973 </i>
    <i name="Echarged">      0.00000000 </i>
    <i name="Edipol_quadrupol">      0.00000000 </i>
    <i name="Eion">      0.00000000 </i>
   </dipole>
   <energy>
    <i name="e_fr_energy">     50.32547323 </i>
    <i name="e_wo_entrp">     50.47204340 </i>
    <i name="e_0_energy">     50.39875832 </i>
   </energy>
  </scstep>
  <scstep>
   <time name="dav">    9.93   10.11</time>
   <time name="total">    9.94   10.12</time>
   <dipole>
    <v name="dipole">      0.00000000       0.00000000       0.00008961 </v>
    <i name="Tr[quadrupol]"> -11005.90166973 </i>
    <i name="Echarged">      0.00000000 </i>
    <i name="Edipol_quadrupol">      0.00000000 </i>
    <i name="Eion">      0.00000000 </i>
   </dipole>
   <energy>
    <i name="e_fr_energy">   -251.99503300 </i>
    <i name="e_wo_entrp">   -251.76062065 </i>
    <i name="e_0_energy">   -251.87782683 </i>
   </energy>
  </scstep>
  <scstep>
   <time name="dav">    9.79    9.81</time>
   <time name="total">    9.79    9.82</time>
   <dipole>
    <v name="dipole">      0.00000000       0.00000000       0.00008961 </v>
    <i name="Tr[quadrupol]"> -11005.90166973 </i>
    <i name="Echarged">      0.00000000 </i>
    <i name="Edipol_quadrupol">      0.00000000 </i>
    <i name="Eion">      0.00000000 </i>
   </dipole>
   <energy>
    <i name="e_fr_energy">   -262.79620756 </i>
    <i name="e_wo_entrp">   -262.54405724 </i>
    <i name="e_0_energy">   -262.67013240 </i>
   </energy>
  </scstep>
  <scstep>
   <time name="dav">    9.92    9.95</time>
   <time name="total">   10.18   10.21</time>
   <dipole>
    <v name="dipole">      0.00000000       0.00000000       0.00008961 </v>
    <i name="Tr[quadrupol]"> -11005.90166973 </i>
    <i name="Echarged">      0.00000000 </i>
    <i name="Edipol_quadrupol">      0.00000000 </i>
    <i name="Eion">      0.00000000 </i>
   </dipole>
   <energy>
    <i name="e_fr_energy">   -263.09812150 </i>
    <i name="e_wo_entrp">   -262.84458177 </i>
    <i name="e_0_energy">   -262.97135163 </i>
   </energy>
  </scstep>
  <scstep>
   <time name="diag">    1.56    1.56</time>
   <time name="diis">    4.10    4.11</time>
   <time name="orth">    0.44    0.44</time>
   <time name="total">    6.41    6.42</time>
   <dipole>
    <v name="dipole">      0.00000000       0.00000000      -0.51646139 </v>
    <i name="Tr[quadrupol]"> -11001.70117211 </i>
    <i name="Echarged">      0.00000000 </i>
    <i name="Edipol_quadrupol">      0.00000000 </i>
    <i name="Eion">      0.00000000 </i>
   </dipole>
   <energy>
    <i name="e_fr_energy">   -251.53619759 </i>
    <i name="e_wo_entrp">   -251.23694269 </i>
    <i name="e_0_energy">   -251.38657014 </i>
   </energy>
  </scstep>
  <scstep>
   <time name="diag">    1.55    1.56</time>
   <time name="diis">    4.12    4.13</time>
   <time name="orth">    0.43    0.44</time>
   <time name="total">    6.41    6.43</time>
   <dipole>
    <v name="dipole">      0.00000000       0.00000000       2.09277689 </v>
    <i name="Tr[quadrupol]"> -11005.65121186 </i>
    <i name="Echarged">      0.00000000 </i>
    <i name="Edipol_quadrupol">      0.00000000 </i>
    <i name="Eion">      0.00000000 </i>
   </dipole>
   <energy>
    <i name="e_fr_energy">   -269.10337949 </i>
    <i name="e_wo_entrp">   -268.92698975 </i>
    <i name="e_0_energy">   -269.01518462 </i>
   </energy>
  </scstep>
  <scstep>
   <time name="diag">    1.55    1.55</time>
   <time name="diis">    3.94    4.15</time>
   <time name="orth">    0.44    0.44</time>
   <time name="total">    6.23    6.45</time>
   <dipole>
    <v name="dipole">      0.00000000       0.00000000      -2.70786969 </v>
    <i name="Tr[quadrupol]"> -11006.11156197 </i>
    <i name="Echarged">      0.00000000 </i>
    <i name="Edipol_quadrupol">      0.00000000 </i>
    <i name="Eion">      0.00000000 </i>
   </dipole>
   <energy>
    <i name="e_fr_energy">   -300.21837288 </i>
    <i name="e_wo_entrp">   -299.89225421 </i>
    <i name="e_0_energy">   -300.05531354 </i>
   </energy>
  </scstep>
  <scstep>
   <time name="diag">    1.56    1.56</time>
   <time name="diis">    4.08    4.13</time>
   <time name="orth">    0.43    0.44</time>
   <time name="total">    6.37    6.44</time>
   <dipole>
    <v name="dipole">      0.00000000       0.00000000      -1.53471888 </v>
    <i name="Tr[quadrupol]"> -11008.20026850 </i>
    <i name="Echarged">      0.00000000 </i>
    <i name="Edipol_quadrupol">      0.00000000 </i>
    <i name="Eion">      0.00000000 </i>
   </dipole>
   <energy>
    <i name="e_fr_energy">   -292.07234908 </i>
    <i name="e_wo_entrp">   -291.85840773 </i>
    <i name="e_0_energy">   -291.96537840 </i>
   </energy>
  </scstep>
  <scstep>
   <time name="diag">    1.55    1.56</time>
   <time name="diis">    4.07    4.08</time>
   <time name="orth">    0.43    0.44</time>
   <time name="total">    6.36    6.38</time>
   <dipole>
    <v name="dipole">      0.00000000       0.00000000      -1.04610343 </v>
    <i name="Tr[quadrupol]"> -11008.53921340 </i>
    <i name="Echarged">      0.00000000 </i>
    <i name="Edipol_quadrupol">      0.00000000 </i>
    <i name="Eion">      0.00000000 </i>
   </dipole>
   <energy>
    <i name="e_fr_energy">   -273.14433164 </i>
    <i name="e_wo_entrp">   -272.93147983 </i>
    <i name="e_0_energy">   -273.03790574 </i>
   </energy>
  </scstep>
  <scstep>
   <time name="diag">    1.55    1.56</time>
   <time name="diis">    4.09    4.10</time>
   <time name="orth">    0.43    0.43</time>
   <time name="total">    6.39    6.41</time>
   <dipole>
    <v name="dipole">      0.00000000       0.00000000      -0.65428041 </v>
    <i name="Tr[quadrupol]"> -11007.79583092 </i>
    <i name="Echarged">      0.00000000 </i>
    <i name="Edipol_quadrupol">      0.00000000 </i>
    <i name="Eion">      0.00000000 </i>
   </dipole>
   <energy>
    <i name="e_fr_energy">   -249.71645496 </i>
    <i name="e_wo_entrp">   -249.39958905 </i>
    <i name="e_0_energy">   -249.55802200 </i>
   </energy>
  </scstep>
  <scstep>
   <time name="diag">    1.55    1.55</time>
   <time name="diis">    4.15    4.17</time>
   <time name="orth">    0.43    0.43</time>
   <time name="total">    6.44    6.46</time>
   <dipole>
    <v name="dipole">      0.00000000       0.00000000      -0.12669408 </v>
    <i name="Tr[quadrupol]"> -11005.38507056 </i>
    <i name="Echarged">      0.00000000 </i>
    <i name="Edipol_quadrupol">      0.00000000 </i>
    <i name="Eion">      0.00000000 </i>
   </dipole>
   <energy>
    <i name="e_fr_energy">   -241.22865946 </i>
    <i name="e_wo_entrp">   -241.07271028 </i>
    <i name="e_0_energy">   -241.15068487 </i>
   </energy>
  </scstep>
  <scstep>
   <time name="diag">    1.55    1.56</time>
   <time name="diis">    4.06    4.07</time>
   <time name="orth">    0.43    0.43</time>
   <time name="total">    6.35    6.37</time>
   <dipole>
    <v name="dipole">      0.00000000       0.00000000       0.46888812 </v>
    <i name="Tr[quadrupol]"> -11005.76107218 </i>
    <i name="Echarged">      0.00000000 </i>
    <i name="Edipol_quadrupol">      0.00000000 </i>
    <i name="Eion">      0.00000000 </i>
   </dipole>
   <energy>
    <i name="e_fr_energy">   -235.13060108 </i>
    <i name="e_wo_entrp">   -234.98804689 </i>
    <i name="e_0_energy">   -235.05932399 </i>
   </energy>
  </scstep>
  <scstep>
   <time name="diag">    1.54    1.54</time>
   <time name="diis">    3.96    4.15</time>
   <time name="orth">    0.43    0.43</time>
   <time name="total">    6.23    6.43</time>
   <dipole>
    <v name="dipole">      0.00000000       0.00000000       0.43946880 </v>
    <i name="Tr[quadrupol]"> -11006.95523147 </i>
    <i name="Echarged">      0.00000000 </i>
    <i name="Edipol_quadrupol">      0.00000000 </i>
    <i name="Eion">      0.00000000 </i>
   </dipole>
   <energy>
    <i name="e_fr_energy">   -233.04979177 </i>
    <i name="e_wo_entrp">   -232.85293132 </i>
    <i name="e_0_energy">   -232.95136155 </i>
   </energy>
  </scstep>
  <scstep>
   <time name="diag">    1.55    1.55</time>
   <time name="diis">    4.14    4.15</time>
   <time name="orth">    0.43    0.44</time>
   <time name="total">    6.42    6.46</time>
   <dipole>
    <v name="dipole">      0.00000000       0.00000000       0.31270677 </v>
    <i name="Tr[quadrupol]"> -11006.59422692 </i>
    <i name="Echarged">      0.00000000 </i>
    <i name="Edipol_quadrupol">      0.00000000 </i>
    <i name="Eion">      0.00000000 </i>
   </dipole>
   <energy>
    <i name="e_fr_energy">   -231.43596654 </i>
    <i name="e_wo_entrp">   -231.20918553 </i>
    <i name="e_0_energy">   -231.32257604 </i>
   </energy>
  </scstep>
  <scstep>
   <time name="diag">    1.55    1.55</time>
   <time name="diis">    4.08    4.09</time>
   <time name="orth">    0.42    0.43</time>
   <time name="total">    6.35    6.37</time>
   <dipole>
    <v name="dipole">      0.00000000       0.00000000       0.22302332 </v>
    <i name="Tr[quadrupol]"> -11006.86603567 </i>
    <i name="Echarged">      0.00000000 </i>
    <i name="Edipol_quadrupol">      0.00000000 </i>
    <i name="Eion">      0.00000000 </i>
   </dipole>
   <energy>
    <i name="e_fr_energy">   -231.16663751 </i>
    <i name="e_wo_entrp">   -230.90040770 </i>
    <i name="e_0_energy">   -231.03352261 </i>
   </energy>
  </scstep>
  <scstep>
   <time name="diag">    1.55    1.55</time>
   <time name="diis">    4.16    4.17</time>
   <time name="orth">    0.42    0.43</time>
   <time name="total">    6.44    6.46</time>
   <dipole>
    <v name="dipole">      0.00000000       0.00000000       0.15264396 </v>
    <i name="Tr[quadrupol]"> -11006.71738993 </i>
    <i name="Echarged">      0.00000000 </i>
    <i name="Edipol_quadrupol">      0.00000000 </i>
    <i name="Eion">      0.00000000 </i>
   </dipole>
   <energy>
    <i name="e_fr_energy">   -230.56424901 </i>
    <i name="e_wo_entrp">   -230.28644929 </i>
    <i name="e_0_energy">   -230.42534915 </i>
   </energy>
  </scstep>
  <scstep>
   <time name="diag">    1.55    1.55</time>
   <time name="diis">    4.16    4.17</time>
   <time name="orth">    0.42    0.43</time>
   <time name="total">    6.43    6.46</time>
   <dipole>
    <v name="dipole">      0.00000000       0.00000000       0.20665155 </v>
    <i name="Tr[quadrupol]"> -11006.82254917 </i>
    <i name="Echarged">      0.00000000 </i>
    <i name="Edipol_quadrupol">      0.00000000 </i>
    <i name="Eion">      0.00000000 </i>
   </dipole>
   <energy>
    <i name="e_fr_energy">   -230.18628972 </i>
    <i name="e_wo_entrp">   -229.91068360 </i>
    <i name="e_0_energy">   -230.04848666 </i>
   </energy>
  </scstep>
  <scstep>
   <time name="diag">    1.54    1.55</time>
   <time name="diis">    4.18    4.21</time>
   <time name="orth">    0.42    0.43</time>
   <time name="total">    6.46    6.50</time>
   <dipole>
    <v name="dipole">      0.00000000       0.00000000       0.27128851 </v>
    <i name="Tr[quadrupol]"> -11006.90130427 </i>
    <i name="Echarged">      0.00000000 </i>
    <i name="Edipol_quadrupol">      0.00000000 </i>
    <i name="Eion">      0.00000000 </i>
   </dipole>
   <energy>
    <i name="e_fr_energy">   -229.76967575 </i>
    <i name="e_wo_entrp">   -229.50949170 </i>
    <i name="e_0_energy">   -229.63958373 </i>
   </energy>
  </scstep>
  <scstep>
   <time name="diag">    1.56    1.56</time>
   <time name="diis">    4.01    4.14</time>
   <time name="orth">    0.42    0.46</time>
   <time name="total">    6.29    6.47</time>
   <dipole>
    <v name="dipole">      0.00000000       0.00000000       0.29181362 </v>
    <i name="Tr[quadrupol]"> -11007.06231507 </i>
    <i name="Echarged">      0.00000000 </i>
    <i name="Edipol_quadrupol">      0.00000000 </i>
    <i name="Eion">      0.00000000 </i>
   </dipole>
   <energy>
    <i name="e_fr_energy">   -229.65732090 </i>
    <i name="e_wo_entrp">   -229.38591286 </i>
    <i name="e_0_energy">   -229.52161688 </i>
   </energy>
  </scstep>
  <scstep>
   <time name="diag">    1.55    1.56</time>
   <time name="diis">    4.12    4.13</time>
   <time name="orth">    0.43    0.43</time>
   <time name="total">    6.40    6.42</time>
   <dipole>
    <v name="dipole">      0.00000000       0.00000000       0.32082903 </v>
    <i name="Tr[quadrupol]"> -11007.10601911 </i>
    <i name="Echarged">      0.00000000 </i>
    <i name="Edipol_quadrupol">      0.00000000 </i>
    <i name="Eion">      0.00000000 </i>
   </dipole>
   <energy>
    <i name="e_fr_energy">   -229.56176162 </i>
    <i name="e_wo_entrp">   -229.30380323 </i>
    <i name="e_0_energy">   -229.43278242 </i>
   </energy>
  </scstep>
  <scstep>
   <time name="diag">    1.54    1.55</time>
   <time name="diis">    4.14    4.15</time>
   <time name="orth">    0.42    0.43</time>
   <time name="total">    6.41    6.43</time>
   <dipole>
    <v name="dipole">      0.00000000       0.00000000       0.34239238 </v>
    <i name="Tr[quadrupol]"> -11007.30316853 </i>
    <i name="Echarged">      0.00000000 </i>
    <i name="Edipol_quadrupol">      0.00000000 </i>
    <i name="Eion">      0.00000000 </i>
   </dipole>
   <energy>
    <i name="e_fr_energy">   -229.55269464 </i>
    <i name="e_wo_entrp">   -229.28726838 </i>
    <i name="e_0_energy">   -229.41998151 </i>
   </energy>
  </scstep>
  <scstep>
   <time name="diag">    1.55    1.55</time>
   <time name="diis">    4.17    4.18</time>
   <time name="orth">    0.42    0.43</time>
   <time name="total">    6.45    6.47</time>
   <dipole>
    <v name="dipole">      0.00000000       0.00000000       0.36724240 </v>
    <i name="Tr[quadrupol]"> -11007.38666214 </i>
    <i name="Echarged">      0.00000000 </i>
    <i name="Edipol_quadrupol">      0.00000000 </i>
    <i name="Eion">      0.00000000 </i>
   </dipole>
   <energy>
    <i name="e_fr_energy">   -229.50405088 </i>
    <i name="e_wo_entrp">   -229.24699387 </i>
    <i name="e_0_energy">   -229.37552238 </i>
   </energy>
  </scstep>
  <scstep>
   <time name="diag">    1.55    1.55</time>
   <time name="diis">    4.15    4.16</time>
   <time name="orth">    0.42    0.43</time>
   <time name="total">    6.42    6.44</time>
   <dipole>
    <v name="dipole">      0.00000000       0.00000000       0.38659261 </v>
    <i name="Tr[quadrupol]"> -11007.52578822 </i>
    <i name="Echarged">      0.00000000 </i>
    <i name="Edipol_quadrupol">      0.00000000 </i>
    <i name="Eion">      0.00000000 </i>
   </dipole>
   <energy>
    <i name="e_fr_energy">   -229.48389739 </i>
    <i name="e_wo_entrp">   -229.22950068 </i>
    <i name="e_0_energy">   -229.35669904 </i>
   </energy>
  </scstep>
  <scstep>
   <time name="diag">    1.54    1.55</time>
   <time name="diis">    4.14    4.15</time>
   <time name="orth">    0.43    0.43</time>
   <time name="total">    6.42    6.44</time>
   <dipole>
    <v name="dipole">      0.00000000       0.00000000       0.40118985 </v>
    <i name="Tr[quadrupol]"> -11007.63956894 </i>
    <i name="Echarged">      0.00000000 </i>
    <i name="Edipol_quadrupol">      0.00000000 </i>
    <i name="Eion">      0.00000000 </i>
   </dipole>
   <energy>
    <i name="e_fr_energy">   -229.47181818 </i>
    <i name="e_wo_entrp">   -229.21805082 </i>
    <i name="e_0_energy">   -229.34493450 </i>
   </energy>
  </scstep>
  <scstep>
   <time name="diag">    1.56    1.57</time>
   <time name="diis">    4.08    4.09</time>
   <time name="orth">    0.42    0.43</time>
   <time name="total">    6.36    6.42</time>
   <dipole>
    <v name="dipole">      0.00000000       0.00000000       0.41244729 </v>
    <i name="Tr[quadrupol]"> -11007.74165727 </i>
    <i name="Echarged">      0.00000000 </i>
    <i name="Edipol_quadrupol">      0.00000000 </i>
    <i name="Eion">      0.00000000 </i>
   </dipole>
   <energy>
    <i name="e_fr_energy">   -229.46751885 </i>
    <i name="e_wo_entrp">   -229.21646876 </i>
    <i name="e_0_energy">   -229.34199380 </i>
   </energy>
  </scstep>
  <scstep>
   <time name="diag">    1.52    1.66</time>
   <time name="diis">    4.08    4.10</time>
   <time name="orth">    0.43    0.43</time>
   <time name="total">    6.34    6.51</time>
   <dipole>
    <v name="dipole">      0.00000000       0.00000000       0.41730754 </v>
    <i name="Tr[quadrupol]"> -11007.87187822 </i>
    <i name="Echarged">      0.00000000 </i>
    <i name="Edipol_quadrupol">      0.00000000 </i>
    <i name="Eion">      0.00000000 </i>
   </dipole>
   <energy>
    <i name="e_fr_energy">   -229.46712024 </i>
    <i name="e_wo_entrp">   -229.21435410 </i>
    <i name="e_0_energy">   -229.34073717 </i>
   </energy>
  </scstep>
  <scstep>
   <time name="diag">    1.54    1.55</time>
   <time name="diis">    4.12    4.19</time>
   <time name="orth">    0.43    0.43</time>
   <time name="total">    6.40    6.47</time>
   <dipole>
    <v name="dipole">      0.00000000       0.00000000       0.42753367 </v>
    <i name="Tr[quadrupol]"> -11007.98601160 </i>
    <i name="Echarged">      0.00000000 </i>
    <i name="Edipol_quadrupol">      0.00000000 </i>
    <i name="Eion">      0.00000000 </i>
   </dipole>
   <energy>
    <i name="e_fr_energy">   -229.46591827 </i>
    <i name="e_wo_entrp">   -229.21500074 </i>
    <i name="e_0_energy">   -229.34045950 </i>
   </energy>
  </scstep>
  <scstep>
   <time name="diag">    1.54    1.55</time>
   <time name="diis">    4.13    4.14</time>
   <time name="orth">    0.43    0.43</time>
   <time name="total">    6.40    6.42</time>
   <dipole>
    <v name="dipole">      0.00000000       0.00000000       0.43275985 </v>
    <i name="Tr[quadrupol]"> -11008.02853122 </i>
    <i name="Echarged">      0.00000000 </i>
    <i name="Edipol_quadrupol">      0.00000000 </i>
    <i name="Eion">      0.00000000 </i>
   </dipole>
   <energy>
    <i name="e_fr_energy">   -229.46580404 </i>
    <i name="e_wo_entrp">   -229.21516950 </i>
    <i name="e_0_energy">   -229.34048677 </i>
   </energy>
  </scstep>
  <scstep>
   <time name="diag">    1.54    1.55</time>
   <time name="diis">    4.07    4.08</time>
   <time name="orth">    0.42    0.43</time>
   <time name="total">    6.34    6.37</time>
   <dipole>
    <v name="dipole">      0.00000000       0.00000000       0.43961118 </v>
    <i name="Tr[quadrupol]"> -11008.08678144 </i>
    <i name="Echarged">      0.00000000 </i>
    <i name="Edipol_quadrupol">      0.00000000 </i>
    <i name="Eion">      0.00000000 </i>
   </dipole>
   <energy>
    <i name="e_fr_energy">   -229.46597048 </i>
    <i name="e_wo_entrp">   -229.21597346 </i>
    <i name="e_0_energy">   -229.34097197 </i>
   </energy>
  </scstep>
  <scstep>
   <time name="diag">    1.54    1.55</time>
   <time name="diis">    4.08    4.09</time>
   <time name="orth">    0.42    0.43</time>
   <time name="total">    6.36    6.38</time>
   <dipole>
    <v name="dipole">      0.00000000       0.00000000       0.44191920 </v>
    <i name="Tr[quadrupol]"> -11008.12887129 </i>
    <i name="Echarged">      0.00000000 </i>
    <i name="Edipol_quadrupol">      0.00000000 </i>
    <i name="Eion">      0.00000000 </i>
   </dipole>
   <energy>
    <i name="e_fr_energy">   -229.46601089 </i>
    <i name="e_wo_entrp">   -229.21571282 </i>
    <i name="e_0_energy">   -229.34086186 </i>
   </energy>
  </scstep>
  <scstep>
   <time name="diag">    1.55    1.55</time>
   <time name="diis">    4.15    4.16</time>
   <time name="orth">    0.42    0.43</time>
   <time name="total">    6.43    6.45</time>
   <dipole>
    <v name="dipole">      0.00000000       0.00000000       0.44702029 </v>
    <i name="Tr[quadrupol]"> -11008.20790289 </i>
    <i name="Echarged">      0.00000000 </i>
    <i name="Edipol_quadrupol">      0.00000000 </i>
    <i name="Eion">      0.00000000 </i>
   </dipole>
   <energy>
    <i name="e_fr_energy">   -229.46627740 </i>
    <i name="e_wo_entrp">   -229.21582082 </i>
    <i name="e_0_energy">   -229.34104911 </i>
   </energy>
  </scstep>
  <scstep>
   <time name="diag">    1.54    1.61</time>
   <time name="diis">    4.04    4.18</time>
   <time name="orth">    0.42    0.43</time>
   <time name="total">    6.31    6.53</time>
   <dipole>
    <v name="dipole">      0.00000000       0.00000000       0.45197657 </v>
    <i name="Tr[quadrupol]"> -11008.27482184 </i>
    <i name="Echarged">      0.00000000 </i>
    <i name="Edipol_quadrupol">      0.00000000 </i>
    <i name="Eion">      0.00000000 </i>
   </dipole>
   <energy>
    <i name="e_fr_energy">   -229.46656719 </i>
    <i name="e_wo_entrp">   -229.21587307 </i>
    <i name="e_0_energy">   -229.34122013 </i>
   </energy>
  </scstep>
  <scstep>
   <time name="diag">    1.54    1.55</time>
   <time name="diis">    3.83    3.84</time>
   <time name="orth">    0.42    0.43</time>
   <time name="total">    6.11    6.13</time>
   <dipole>
    <v name="dipole">      0.00000000       0.00000000       0.45451322 </v>
    <i name="Tr[quadrupol]"> -11008.29977890 </i>
    <i name="Echarged">      0.00000000 </i>
    <i name="Edipol_quadrupol">      0.00000000 </i>
    <i name="Eion">      0.00000000 </i>
   </dipole>
   <energy>
    <i name="e_fr_energy">   -229.46669390 </i>
    <i name="e_wo_entrp">   -229.21600049 </i>
    <i name="e_0_energy">   -229.34134719 </i>
   </energy>
  </scstep>
  <scstep>
   <time name="diag">    1.55    1.55</time>
   <time name="diis">    3.47    3.48</time>
   <time name="orth">    0.43    0.43</time>
   <time name="total">    5.76    5.78</time>
   <dipole>
    <v name="dipole">      0.00000000       0.00000000       0.45764047 </v>
    <i name="Tr[quadrupol]"> -11008.33347251 </i>
    <i name="Echarged">      0.00000000 </i>
    <i name="Edipol_quadrupol">      0.00000000 </i>
    <i name="Eion">      0.00000000 </i>
   </dipole>
   <energy>
    <i name="e_fr_energy">   -229.46685348 </i>
    <i name="e_wo_entrp">   -229.21606416 </i>
    <i name="e_0_energy">   -229.34145882 </i>
   </energy>
  </scstep>
  <scstep>
   <time name="diag">    1.54    1.55</time>
   <time name="diis">    3.89    3.90</time>
   <time name="orth">    0.42    0.43</time>
   <time name="total">    6.17    6.19</time>
   <dipole>
    <v name="dipole">      0.00000000       0.00000000       0.46376235 </v>
    <i name="Tr[quadrupol]"> -11008.39687873 </i>
    <i name="Echarged">      0.00000000 </i>
    <i name="Edipol_quadrupol">      0.00000000 </i>
    <i name="Eion">      0.00000000 </i>
   </dipole>
   <energy>
    <i name="e_fr_energy">   -229.46714974 </i>
    <i name="e_wo_entrp">   -229.21631300 </i>
    <i name="e_0_energy">   -229.34173137 </i>
   </energy>
  </scstep>
  <scstep>
   <time name="diag">    1.55    1.55</time>
   <time name="diis">    3.53    3.54</time>
   <time name="orth">    0.43    0.43</time>
   <time name="total">    5.81    5.83</time>
   <dipole>
    <v name="dipole">      0.00000000       0.00000000       0.46928542 </v>
    <i name="Tr[quadrupol]"> -11008.45074274 </i>
    <i name="Echarged">      0.00000000 </i>
    <i name="Edipol_quadrupol">      0.00000000 </i>
    <i name="Eion">      0.00000000 </i>
   </dipole>
   <energy>
    <i name="e_fr_energy">   -229.46737559 </i>
    <i name="e_wo_entrp">   -229.21654826 </i>
    <i name="e_0_energy">   -229.34196192 </i>
   </energy>
  </scstep>
  <scstep>
   <time name="diag">    1.54    1.56</time>
   <time name="diis">    3.20    3.24</time>
   <time name="orth">    0.43    0.43</time>
   <time name="total">    5.48    5.54</time>
   <dipole>
    <v name="dipole">      0.00000000       0.00000000       0.47348660 </v>
    <i name="Tr[quadrupol]"> -11008.48741770 </i>
    <i name="Echarged">      0.00000000 </i>
    <i name="Edipol_quadrupol">      0.00000000 </i>
    <i name="Eion">      0.00000000 </i>
   </dipole>
   <energy>
    <i name="e_fr_energy">   -229.46750875 </i>
    <i name="e_wo_entrp">   -229.21669387 </i>
    <i name="e_0_energy">   -229.34210131 </i>
   </energy>
  </scstep>
  <scstep>
   <time name="diag">    1.55    1.55</time>
   <time name="diis">    2.98    2.99</time>
   <time name="orth">    0.42    0.43</time>
   <time name="total">    5.27    5.29</time>
   <dipole>
    <v name="dipole">      0.00000000       0.00000000       0.47695677 </v>
    <i name="Tr[quadrupol]"> -11008.51620356 </i>
    <i name="Echarged">      0.00000000 </i>
    <i name="Edipol_quadrupol">      0.00000000 </i>
    <i name="Eion">      0.00000000 </i>
   </dipole>
   <energy>
    <i name="e_fr_energy">   -229.46759641 </i>
    <i name="e_wo_entrp">   -229.21676554 </i>
    <i name="e_0_energy">   -229.34218097 </i>
   </energy>
  </scstep>
  <scstep>
   <time name="diag">    1.52    1.65</time>
   <time name="diis">    2.81    2.82</time>
   <time name="orth">    0.43    0.43</time>
   <time name="total">    5.06    5.23</time>
   <dipole>
    <v name="dipole">      0.00000000       0.00000000       0.47930777 </v>
    <i name="Tr[quadrupol]"> -11008.53396070 </i>
    <i name="Echarged">      0.00000000 </i>
    <i name="Edipol_quadrupol">      0.00000000 </i>
    <i name="Eion">      0.00000000 </i>
   </dipole>
   <energy>
    <i name="e_fr_energy">   -229.46763914 </i>
    <i name="e_wo_entrp">   -229.21683945 </i>
    <i name="e_0_energy">   -229.34223930 </i>
   </energy>
  </scstep>
  <scstep>
   <time name="diag">    1.55    1.55</time>
   <time name="diis">    2.74    2.75</time>
   <time name="orth">    0.43    0.43</time>
   <time name="total">    5.02    5.04</time>
   <dipole>
    <v name="dipole">      0.00000000       0.00000000       0.48174094 </v>
    <i name="Tr[quadrupol]"> -11008.55209013 </i>
    <i name="Echarged">      0.00000000 </i>
    <i name="Edipol_quadrupol">      0.00000000 </i>
    <i name="Eion">      0.00000000 </i>
   </dipole>
   <energy>
    <i name="e_fr_energy">   -229.46767449 </i>
    <i name="e_wo_entrp">   -229.21686886 </i>
    <i name="e_0_energy">   -229.34227168 </i>
   </energy>
  </scstep>
  <scstep>
   <time name="diag">    1.54    1.55</time>
   <time name="diis">    2.52    2.53</time>
   <time name="orth">    0.42    0.43</time>
   <time name="total">    4.80    4.82</time>
   <dipole>
    <v name="dipole">      0.00000000       0.00000000       0.48266864 </v>
    <i name="Tr[quadrupol]"> -11008.55856466 </i>
    <i name="Echarged">      0.00000000 </i>
    <i name="Edipol_quadrupol">      0.00000000 </i>
    <i name="Eion">      0.00000000 </i>
   </dipole>
   <energy>
    <i name="e_fr_energy">   -229.46768793 </i>
    <i name="e_wo_entrp">   -229.21686654 </i>
    <i name="e_0_energy">   -229.34227724 </i>
   </energy>
  </scstep>
  <scstep>
   <time name="diag">    1.55    1.55</time>
   <time name="diis">    2.51    2.52</time>
   <time name="orth">    0.43    0.43</time>
   <time name="total">    4.80    4.81</time>
   <dipole>
    <v name="dipole">      0.00000000       0.00000000       0.48402644 </v>
    <i name="Tr[quadrupol]"> -11008.56657360 </i>
    <i name="Echarged">      0.00000000 </i>
    <i name="Edipol_quadrupol">      0.00000000 </i>
    <i name="Eion">      0.00000000 </i>
   </dipole>
   <energy>
    <i name="e_fr_energy">   -229.46770695 </i>
    <i name="e_wo_entrp">   -229.21687402 </i>
    <i name="e_0_energy">   -229.34229048 </i>
   </energy>
  </scstep>
  <scstep>
   <time name="diag">    1.54    1.55</time>
   <time name="diis">    2.49    2.50</time>
   <time name="orth">    0.43    0.43</time>
   <time name="total">    4.77    4.79</time>
   <dipole>
    <v name="dipole">      0.00000000       0.00000000       0.48558024 </v>
    <i name="Tr[quadrupol]"> -11008.57425537 </i>
    <i name="Echarged">      0.00000000 </i>
    <i name="Edipol_quadrupol">      0.00000000 </i>
    <i name="Eion">      0.00000000 </i>
   </dipole>
   <energy>
    <i name="e_fr_energy">   -229.46772749 </i>
    <i name="e_wo_entrp">   -229.21690781 </i>
    <i name="e_0_energy">   -229.34231765 </i>
   </energy>
  </scstep>
  <scstep>
   <time name="diag">    1.56    1.57</time>
   <time name="diis">    2.27    2.28</time>
   <time name="orth">    0.42    0.43</time>
   <time name="total">    4.57    4.58</time>
   <dipole>
    <v name="dipole">      0.00000000       0.00000000       0.48638112 </v>
    <i name="Tr[quadrupol]"> -11008.57822807 </i>
    <i name="Echarged">      0.00000000 </i>
    <i name="Edipol_quadrupol">      0.00000000 </i>
    <i name="Eion">      0.00000000 </i>
   </dipole>
   <energy>
    <i name="e_fr_energy">   -229.46773704 </i>
    <i name="e_wo_entrp">   -229.21690786 </i>
    <i name="e_0_energy">   -229.34232245 </i>
   </energy>
  </scstep>
  <scstep>
   <time name="diag">    1.54    1.55</time>
   <time name="diis">    2.22    2.22</time>
   <time name="orth">    0.42    0.43</time>
   <time name="total">    4.50    4.52</time>
   <dipole>
    <v name="dipole">      0.00000000       0.00000000       0.48704762 </v>
    <i name="Tr[quadrupol]"> -11008.58135604 </i>
    <i name="Echarged">      0.00000000 </i>
    <i name="Edipol_quadrupol">      0.00000000 </i>
    <i name="Eion">      0.00000000 </i>
   </dipole>
   <energy>
    <i name="e_fr_energy">   -229.46774491 </i>
    <i name="e_wo_entrp">   -229.21690760 </i>
    <i name="e_0_energy">   -229.34232625 </i>
   </energy>
  </scstep>
  <scstep>
   <time name="diag">    1.55    1.55</time>
   <time name="diis">    2.38    2.39</time>
   <time name="orth">    0.42    0.43</time>
   <time name="total">    4.68    4.69</time>
   <dipole>
    <v name="dipole">      0.00000000       0.00000000       0.48807192 </v>
    <i name="Tr[quadrupol]"> -11008.58562995 </i>
    <i name="Echarged">      0.00000000 </i>
    <i name="Edipol_quadrupol">      0.00000000 </i>
    <i name="Eion">      0.00000000 </i>
   </dipole>
   <energy>
    <i name="e_fr_energy">   -229.46775558 </i>
    <i name="e_wo_entrp">   -229.21691109 </i>
    <i name="e_0_energy">   -229.34233333 </i>
   </energy>
  </scstep>
  <scstep>
   <time name="diag">    1.54    1.57</time>
   <time name="diis">    1.89    2.08</time>
   <time name="orth">    0.43    0.43</time>
   <time name="total">    4.17    4.40</time>
   <dipole>
    <v name="dipole">      0.00000000       0.00000000       0.48875287 </v>
    <i name="Tr[quadrupol]"> -11008.58817344 </i>
    <i name="Echarged">      0.00000000 </i>
    <i name="Edipol_quadrupol">      0.00000000 </i>
    <i name="Eion">      0.00000000 </i>
   </dipole>
   <energy>
    <i name="e_fr_energy">   -229.46776059 </i>
    <i name="e_wo_entrp">   -229.21691982 </i>
    <i name="e_0_energy">   -229.34234021 </i>
   </energy>
  </scstep>
  <scstep>
   <time name="diag">    1.55    1.56</time>
   <time name="diis">    2.02    2.02</time>
   <time name="orth">    0.43    0.43</time>
   <time name="total">    4.31    4.32</time>
   <dipole>
    <v name="dipole">      0.00000000       0.00000000       0.48914968 </v>
    <i name="Tr[quadrupol]"> -11008.58988478 </i>
    <i name="Echarged">      0.00000000 </i>
    <i name="Edipol_quadrupol">      0.00000000 </i>
    <i name="Eion">      0.00000000 </i>
   </dipole>
   <energy>
    <i name="e_fr_energy">   -229.46776227 </i>
    <i name="e_wo_entrp">   -229.21691924 </i>
    <i name="e_0_energy">   -229.34234075 </i>
   </energy>
  </scstep>
  <scstep>
   <time name="diag">    1.54    1.55</time>
   <time name="diis">    1.78    1.80</time>
   <time name="orth">    0.43    0.43</time>
   <time name="total">    3.80    3.83</time>
   <dipole>
    <v name="dipole">      0.00000000       0.00000000       0.48922803 </v>
    <i name="Tr[quadrupol]"> -11008.59025964 </i>
    <i name="Echarged">      0.00000000 </i>
    <i name="Edipol_quadrupol">      0.00000000 </i>
    <i name="Eion">      0.00000000 </i>
   </dipole>
   <energy>
    <i name="alphaZ">    866.40309127 </i>
    <i name="ewald"> 232173.42684210 </i>
    <i name="hartreedc">-277471.65018700 </i>
    <i name="XCdc">   -129.69583793 </i>
    <i name="pawpsdc">  51844.30031702 </i>
    <i name="pawaedc"> -49934.23480482 </i>
    <i name="eentropy">     -0.25084356 </i>
    <i name="bandstr">  -2695.65778044 </i>
    <i name="atom">  45117.89144060 </i>
    <i name="e_fr_energy">   -229.46776275 </i>
    <i name="e_wo_entrp">   -229.21691919 </i>
    <i name="e_0_energy">   -229.34234097 </i>
   </energy>
  </scstep>
  <structure>
   <crystal>
    <varray name="basis" >
     <v>      11.00258152       0.00000000       0.00000000 </v>
     <v>       5.50129076       9.52851510       0.00000000 </v>
     <v>       0.00000000       0.00000000      26.19178509 </v>
    </varray>
    <i name="volume">   2745.90128299 </i>
    <varray name="rec_basis" >
     <v>       0.09088776      -0.05247407       0.00000000 </v>
     <v>       0.00000000       0.10494815       0.00000000 </v>
     <v>       0.00000000       0.00000000       0.03817991 </v>
    </varray>
   </crystal>
   <varray name="positions" >
    <v>       0.33333333       0.83333333       0.38179910 </v>
    <v>       0.41189535       0.41207306       0.46888429 </v>
    <v>       0.48671633       0.50708946       0.55613677 </v>
    <v>       0.92040243       0.15927039       0.47349075 </v>
    <v>       0.02110873       0.03723546       0.62934086 </v>
    <v>       0.83333333       0.83333333       0.38179910 </v>
    <v>       0.74325389       0.50780391       0.55901458 </v>
    <v>       0.66853737       0.66513373       0.47105111 </v>
    <v>       0.01181019       0.26856051       0.59535829 </v>
    <v>       0.76651649       0.71014806       0.59814840 </v>
    <v>       0.08333333       0.58333333       0.38179910 </v>
    <v>       0.00502006       0.50596130       0.56271613 </v>
    <v>       0.74883791       0.25447999       0.56947375 </v>
    <v>       0.08333333       0.83333333       0.38179910 </v>
    <v>       0.16968592       0.90809959       0.49366349 </v>
    <v>       0.02389368       0.75277848       0.56410271 </v>
    <v>       0.75262237       0.99606362       0.56159786 </v>
    <v>       0.33333333       0.08333333       0.38179910 </v>
    <v>       0.16517810       0.16197474       0.48314829 </v>
    <v>       0.83333333       0.08333333       0.38179910 </v>
    <v>       0.49441885       0.00457239       0.55914113 </v>
    <v>       0.47666582       0.75741503       0.55893340 </v>
    <v>       0.16367497       0.41499632       0.47266030 </v>
    <v>       0.66615244       0.40989820       0.47255383 </v>
    <v>       0.35220352       0.30882864       0.61561369 </v>
    <v>       0.36701959       0.56166946       0.62763239 </v>
    <v>       0.09270044       0.81670941       0.62863678 </v>
    <v>       0.84049705       0.83867744       0.61732236 </v>
    <v>       0.81209018       0.09476061       0.62584614 </v>
    <v>       0.55446445       0.83896405       0.61639008 </v>
    <v>       0.81655075       0.38285332       0.62594885 </v>
    <v>       0.24311238       0.95504102       0.64971306 </v>
    <v>       0.41260871       0.66880219       0.46980116 </v>
    <v>       0.58333333       0.58333333       0.38179910 </v>
    <v>       0.33333333       0.58333333       0.38179910 </v>
    <v>       0.58333333       0.33333333       0.38179910 </v>
    <v>       0.41820833       0.16197140       0.47203976 </v>
    <v>       0.58333333       0.08333333       0.38179910 </v>
    <v>       0.17308275       0.66360925       0.47854122 </v>
    <v>       0.30188278       0.75357502       0.63483413 </v>
    <v>       0.25114569       0.25548970       0.56537309 </v>
    <v>       0.33333333       0.33333333       0.38179910 </v>
    <v>       0.58333333       0.83333333       0.38179910 </v>
    <v>       0.41565252       0.91577035       0.46922421 </v>
    <v>       0.24517556       0.00997181       0.57578389 </v>
    <v>       0.66873076       0.16031428       0.47663216 </v>
    <v>       0.92219596       0.91107638       0.47336253 </v>
    <v>       0.83333333       0.33333333       0.38179910 </v>
    <v>       0.91953872       0.66815743       0.47467485 </v>
    <v>       0.83333333       0.58333333       0.38179910 </v>
    <v>       0.91724254       0.41282261       0.47045264 </v>
    <v>       0.08333333       0.33333333       0.38179910 </v>
    <v>       0.67134480       0.91197664       0.47201282 </v>
    <v>       0.23913178       0.50636550       0.59517591 </v>
    <v>       0.49997206       0.24922867       0.56150858 </v>
    <v>       0.08333333       0.08333333       0.38179910 </v>
   </varray>
  </structure>
  <varray name="forces" >
   <v>      -0.25498140      -0.01894953      -0.42436252 </v>
   <v>       0.31117373       0.00584198       0.21445246 </v>
   <v>      -0.56079244      -0.27691513       0.53100074 </v>
   <v>       0.06156466      -0.00541757       0.26345710 </v>
   <v>      -0.29684748      -0.29334547       0.70858623 </v>
   <v>      -0.40084630      -0.05606264      -0.24767252 </v>
   <v>      -0.18143107       0.12832097       0.15300351 </v>
   <v>       0.12653495       0.18285926       0.07850288 </v>
   <v>       0.21680800      -0.31301141       0.25324762 </v>
   <v>      -0.13290155       0.11714469       0.19189559 </v>
   <v>       0.04092764      -0.19856363      -0.20173649 </v>
   <v>       0.18531061       0.07337774      -0.06136540 </v>
   <v>       0.01362890       0.05751682      -0.13978532 </v>
   <v>       0.44833623      -0.08686072       0.00910633 </v>
   <v>      -0.14678319      -0.00252881      -0.13687319 </v>
   <v>      -0.00288138      -0.20981603      -0.30379056 </v>
   <v>      -0.15139206       0.09349122       0.05216409 </v>
   <v>      -0.06403856       0.35747055      -0.35173518 </v>
   <v>       0.07620178       0.04849141      -0.14123267 </v>
   <v>      -0.20742275       0.37808008      -0.30169501 </v>
   <v>       0.13942083      -0.24169668       0.07420797 </v>
   <v>      -0.03581521      -0.21561991      -0.20614266 </v>
   <v>       0.15458760      -0.16920395      -0.01195728 </v>
   <v>       0.09218202      -0.02055902      -0.30616869 </v>
   <v>      -0.04258401      -0.09262514      -0.06961411 </v>
   <v>       0.09541117      -0.51652103       0.08531242 </v>
   <v>       0.42803664      -0.03573486       0.42758926 </v>
   <v>      -0.01321373      -0.02612220       0.05439489 </v>
   <v>       1.05817950      -0.04214112      -0.20298442 </v>
   <v>       0.17717381       0.12597362       0.09619889 </v>
   <v>      -0.25687480       0.07765883      -0.13125896 </v>
   <v>      -1.13257737      -0.00342343      -0.75172078 </v>
   <v>       0.01101073       0.01568528      -0.00668056 </v>
   <v>       0.04425692      -0.27206940      -0.09340661 </v>
   <v>       0.04181035      -0.02850397       0.06442802 </v>
   <v>      -0.02028883      -0.08128925      -0.08391120 </v>
   <v>      -0.06874202      -0.09509190      -0.04496663 </v>
   <v>       0.04451382       0.15866819       0.24549231 </v>
   <v>      -0.16110925      -0.00366313      -0.10142593 </v>
   <v>       0.31050120       1.23175122       0.14736615 </v>
   <v>      -0.05263800      -0.15195276       0.04618828 </v>
   <v>      -0.04764768      -0.20060333      -0.23988170 </v>
   <v>       0.20127107      -0.14195195       0.04299072 </v>
   <v>      -0.02558769       0.05682974       0.23545388 </v>
   <v>       0.04896052       0.31005316       0.03465719 </v>
   <v>       0.03222157       0.01123871      -0.06500298 </v>
   <v>      -0.00089217       0.02448348      -0.03081086 </v>
   <v>       0.03081341       0.07518774       0.00368844 </v>
   <v>      -0.08082703       0.08016597       0.18029688 </v>
   <v>      -0.07010035      -0.05478350       0.13752916 </v>
   <v>       0.13163184       0.02388425       0.03847727 </v>
   <v>      -0.20927409      -0.21182998       0.09694749 </v>
   <v>      -0.02380205       0.09067149       0.11014297 </v>
   <v>      -0.27720896      -0.10802096      -0.21723993 </v>
   <v>       0.21122214       0.21147078      -0.08710754 </v>
   <v>       0.18580975       0.23856123       0.38375098 </v>
  </varray>
  <energy>
   <i name="e_fr_energy">   -229.46776275 </i>
   <i name="e_wo_entrp">   -229.34234097 </i>
   <i name="e_0_energy">     -0.25084356 </i>
  </energy>
  <time name="totalsc">  315.14  317.84</time>
 </calculation>
 <calculation>
  <scstep>
   <time name="dav">    8.82    8.85</time>
   <time name="total">    9.13    9.16</time>
   <dipole>
    <v name="dipole">      0.00000000       0.00000000       0.48930755 </v>
    <i name="Tr[quadrupol]"> -11005.25340261 </i>
    <i name="Echarged">      0.00000000 </i>
    <i name="Edipol_quadrupol">      0.00000000 </i>
    <i name="Eion">      0.00000000 </i>
   </dipole>
   <energy>
    <i name="alphaZ">    866.38978891 </i>
    <i name="ewald"> 232121.15282600 </i>
    <i name="hartreedc">-277418.46688951 </i>
    <i name="XCdc">   -129.69137442 </i>
    <i name="pawpsdc">  51844.29863557 </i>
    <i name="pawaedc"> -49934.23314002 </i>
    <i name="eentropy">     -0.25324822 </i>
    <i name="bandstr">  -2696.65108240 </i>
    <i name="atom">  45117.89144060 </i>
    <i name="e_fr_energy">   -229.56304348 </i>
    <i name="e_wo_entrp">   -229.30979527 </i>
    <i name="e_0_energy">   -229.43641937 </i>
   </energy>
  </scstep>
  <scstep>
   <time name="diag">    1.55    1.56</time>
   <time name="diis">    4.08    4.09</time>
   <time name="orth">    0.42    0.42</time>
   <time name="total">    6.36    6.38</time>
   <dipole>
    <v name="dipole">      0.00000000       0.00000000       0.50510172 </v>
    <i name="Tr[quadrupol]"> -11005.29313491 </i>
    <i name="Echarged">      0.00000000 </i>
    <i name="Edipol_quadrupol">      0.00000000 </i>
    <i name="Eion">      0.00000000 </i>
   </dipole>
   <energy>
    <i name="e_fr_energy">   -229.71540383 </i>
    <i name="e_wo_entrp">   -229.46762975 </i>
    <i name="e_0_energy">   -229.59151679 </i>
   </energy>
  </scstep>
  <scstep>
   <time name="diag">    1.54    1.54</time>
   <time name="diis">    4.09    4.11</time>
   <time name="orth">    0.42    0.43</time>
   <time name="total">    6.36    6.38</time>
   <dipole>
    <v name="dipole">      0.00000000       0.00000000       0.41938192 </v>
    <i name="Tr[quadrupol]"> -11005.26870759 </i>
    <i name="Echarged">      0.00000000 </i>
    <i name="Edipol_quadrupol">      0.00000000 </i>
    <i name="Eion">      0.00000000 </i>
   </dipole>
   <energy>
    <i name="e_fr_energy">   -229.75473187 </i>
    <i name="e_wo_entrp">   -229.48933829 </i>
    <i name="e_0_energy">   -229.62203508 </i>
   </energy>
  </scstep>
  <scstep>
   <time name="diag">    1.55    1.55</time>
   <time name="diis">    3.91    4.15</time>
   <time name="orth">    0.42    0.42</time>
   <time name="total">    6.19    6.43</time>
   <dipole>
    <v name="dipole">      0.00000000       0.00000000       0.52735357 </v>
    <i name="Tr[quadrupol]"> -11005.32596328 </i>
    <i name="Echarged">      0.00000000 </i>
    <i name="Edipol_quadrupol">      0.00000000 </i>
    <i name="Eion">      0.00000000 </i>
   </dipole>
   <energy>
    <i name="e_fr_energy">   -229.71616558 </i>
    <i name="e_wo_entrp">   -229.47304889 </i>
    <i name="e_0_energy">   -229.59460723 </i>
   </energy>
  </scstep>
  <scstep>
   <time name="diag">    1.55    1.55</time>
   <time name="diis">    4.06    4.07</time>
   <time name="orth">    0.42    0.42</time>
   <time name="total">    6.34    6.36</time>
   <dipole>
    <v name="dipole">      0.00000000       0.00000000       0.46058049 </v>
    <i name="Tr[quadrupol]"> -11005.30982097 </i>
    <i name="Echarged">      0.00000000 </i>
    <i name="Edipol_quadrupol">      0.00000000 </i>
    <i name="Eion">      0.00000000 </i>
   </dipole>
   <energy>
    <i name="e_fr_energy">   -229.69667705 </i>
    <i name="e_wo_entrp">   -229.43808209 </i>
    <i name="e_0_energy">   -229.56737957 </i>
   </energy>
  </scstep>
  <scstep>
   <time name="diag">    1.54    1.55</time>
   <time name="diis">    4.17    4.18</time>
   <time name="orth">    0.42    0.42</time>
   <time name="total">    6.44    6.46</time>
   <dipole>
    <v name="dipole">      0.00000000       0.00000000       0.48271261 </v>
    <i name="Tr[quadrupol]"> -11005.31275275 </i>
    <i name="Echarged">      0.00000000 </i>
    <i name="Edipol_quadrupol">      0.00000000 </i>
    <i name="Eion">      0.00000000 </i>
   </dipole>
   <energy>
    <i name="e_fr_energy">   -229.68786774 </i>
    <i name="e_wo_entrp">   -229.43841605 </i>
    <i name="e_0_energy">   -229.56314190 </i>
   </energy>
  </scstep>
  <scstep>
   <time name="diag">    1.54    1.54</time>
   <time name="diis">    4.13    4.14</time>
   <time name="orth">    0.42    0.42</time>
   <time name="total">    6.40    6.42</time>
   <dipole>
    <v name="dipole">      0.00000000       0.00000000       0.47825093 </v>
    <i name="Tr[quadrupol]"> -11005.36493838 </i>
    <i name="Echarged">      0.00000000 </i>
    <i name="Edipol_quadrupol">      0.00000000 </i>
    <i name="Eion">      0.00000000 </i>
   </dipole>
   <energy>
    <i name="e_fr_energy">   -229.68167441 </i>
    <i name="e_wo_entrp">   -229.42748889 </i>
    <i name="e_0_energy">   -229.55458165 </i>
   </energy>
  </scstep>
  <scstep>
   <time name="diag">    1.55    1.55</time>
   <time name="diis">    4.11    4.12</time>
   <time name="orth">    0.43    0.43</time>
   <time name="total">    6.39    6.41</time>
   <dipole>
    <v name="dipole">      0.00000000       0.00000000       0.48037636 </v>
    <i name="Tr[quadrupol]"> -11005.33526831 </i>
    <i name="Echarged">      0.00000000 </i>
    <i name="Edipol_quadrupol">      0.00000000 </i>
    <i name="Eion">      0.00000000 </i>
   </dipole>
   <energy>
    <i name="e_fr_energy">   -229.68119741 </i>
    <i name="e_wo_entrp">   -229.43064019 </i>
    <i name="e_0_energy">   -229.55591880 </i>
   </energy>
  </scstep>
  <scstep>
   <time name="diag">    1.54    1.55</time>
   <time name="diis">    4.04    4.10</time>
   <time name="orth">    0.42    0.43</time>
   <time name="total">    6.31    6.39</time>
   <dipole>
    <v name="dipole">      0.00000000       0.00000000       0.48082846 </v>
    <i name="Tr[quadrupol]"> -11005.35107441 </i>
    <i name="Echarged">      0.00000000 </i>
    <i name="Edipol_quadrupol">      0.00000000 </i>
    <i name="Eion">      0.00000000 </i>
   </dipole>
   <energy>
    <i name="e_fr_energy">   -229.68082956 </i>
    <i name="e_wo_entrp">   -229.42857396 </i>
    <i name="e_0_energy">   -229.55470176 </i>
   </energy>
  </scstep>
  <scstep>
   <time name="diag">    1.56    1.56</time>
   <time name="diis">    4.11    4.16</time>
   <time name="orth">    0.42    0.49</time>
   <time name="total">    6.40    6.58</time>
   <dipole>
    <v name="dipole">      0.00000000       0.00000000       0.47975715 </v>
    <i name="Tr[quadrupol]"> -11005.34583026 </i>
    <i name="Echarged">      0.00000000 </i>
    <i name="Edipol_quadrupol">      0.00000000 </i>
    <i name="Eion">      0.00000000 </i>
   </dipole>
   <energy>
    <i name="e_fr_energy">   -229.68077763 </i>
    <i name="e_wo_entrp">   -229.42881106 </i>
    <i name="e_0_energy">   -229.55479434 </i>
   </energy>
  </scstep>
  <scstep>
   <time name="diag">    1.54    1.55</time>
   <time name="diis">    4.05    4.06</time>
   <time name="orth">    0.42    0.43</time>
   <time name="total">    6.31    6.35</time>
   <dipole>
    <v name="dipole">      0.00000000       0.00000000       0.47881844 </v>
    <i name="Tr[quadrupol]"> -11005.35069222 </i>
    <i name="Echarged">      0.00000000 </i>
    <i name="Edipol_quadrupol">      0.00000000 </i>
    <i name="Eion">      0.00000000 </i>
   </dipole>
   <energy>
    <i name="e_fr_energy">   -229.68074445 </i>
    <i name="e_wo_entrp">   -229.42831585 </i>
    <i name="e_0_energy">   -229.55453015 </i>
   </energy>
  </scstep>
  <scstep>
   <time name="diag">    1.55    1.55</time>
   <time name="diis">    4.14    4.15</time>
   <time name="orth">    0.42    0.43</time>
   <time name="total">    6.42    6.44</time>
   <dipole>
    <v name="dipole">      0.00000000       0.00000000       0.47873144 </v>
    <i name="Tr[quadrupol]"> -11005.35053626 </i>
    <i name="Echarged">      0.00000000 </i>
    <i name="Edipol_quadrupol">      0.00000000 </i>
    <i name="Eion">      0.00000000 </i>
   </dipole>
   <energy>
    <i name="e_fr_energy">   -229.68076496 </i>
    <i name="e_wo_entrp">   -229.42828604 </i>
    <i name="e_0_energy">   -229.55452550 </i>
   </energy>
  </scstep>
  <scstep>
   <time name="diag">    1.55    1.55</time>
   <time name="diis">    4.09    4.10</time>
   <time name="orth">    0.43    0.43</time>
   <time name="total">    6.37    6.39</time>
   <dipole>
    <v name="dipole">      0.00000000       0.00000000       0.47824606 </v>
    <i name="Tr[quadrupol]"> -11005.35251832 </i>
    <i name="Echarged">      0.00000000 </i>
    <i name="Edipol_quadrupol">      0.00000000 </i>
    <i name="Eion">      0.00000000 </i>
   </dipole>
   <energy>
    <i name="e_fr_energy">   -229.68078208 </i>
    <i name="e_wo_entrp">   -229.42828167 </i>
    <i name="e_0_energy">   -229.55453187 </i>
   </energy>
  </scstep>
  <scstep>
   <time name="diag">    1.55    1.56</time>
   <time name="diis">    2.77    2.78</time>
   <time name="orth">    0.43    0.43</time>
   <time name="total">    5.06    5.08</time>
   <dipole>
    <v name="dipole">      0.00000000       0.00000000       0.47818124 </v>
    <i name="Tr[quadrupol]"> -11005.35389014 </i>
    <i name="Echarged">      0.00000000 </i>
    <i name="Edipol_quadrupol">      0.00000000 </i>
    <i name="Eion">      0.00000000 </i>
   </dipole>
   <energy>
    <i name="e_fr_energy">   -229.68079637 </i>
    <i name="e_wo_entrp">   -229.42829117 </i>
    <i name="e_0_energy">   -229.55454377 </i>
   </energy>
  </scstep>
  <scstep>
   <time name="diag">    1.55    1.56</time>
   <time name="diis">    2.53    2.54</time>
   <time name="orth">    0.42    0.43</time>
   <time name="total">    4.81    4.83</time>
   <dipole>
    <v name="dipole">      0.00000000       0.00000000       0.47806596 </v>
    <i name="Tr[quadrupol]"> -11005.35530658 </i>
    <i name="Echarged">      0.00000000 </i>
    <i name="Edipol_quadrupol">      0.00000000 </i>
    <i name="Eion">      0.00000000 </i>
   </dipole>
   <energy>
    <i name="e_fr_energy">   -229.68081130 </i>
    <i name="e_wo_entrp">   -229.42830532 </i>
    <i name="e_0_energy">   -229.55455831 </i>
   </energy>
  </scstep>
  <scstep>
   <time name="diag">    1.55    1.56</time>
   <time name="diis">    2.52    2.52</time>
   <time name="orth">    0.42    0.43</time>
   <time name="total">    4.80    4.82</time>
   <dipole>
    <v name="dipole">      0.00000000       0.00000000       0.47795460 </v>
    <i name="Tr[quadrupol]"> -11005.35714133 </i>
    <i name="Echarged">      0.00000000 </i>
    <i name="Edipol_quadrupol">      0.00000000 </i>
    <i name="Eion">      0.00000000 </i>
   </dipole>
   <energy>
    <i name="e_fr_energy">   -229.68083337 </i>
    <i name="e_wo_entrp">   -229.42834759 </i>
    <i name="e_0_energy">   -229.55459048 </i>
   </energy>
  </scstep>
  <scstep>
   <time name="diag">    1.55    1.56</time>
   <time name="diis">    2.52    2.53</time>
   <time name="orth">    0.43    0.43</time>
   <time name="total">    4.80    4.82</time>
   <dipole>
    <v name="dipole">      0.00000000       0.00000000       0.47782631 </v>
    <i name="Tr[quadrupol]"> -11005.35884343 </i>
    <i name="Echarged">      0.00000000 </i>
    <i name="Edipol_quadrupol">      0.00000000 </i>
    <i name="Eion">      0.00000000 </i>
   </dipole>
   <energy>
    <i name="e_fr_energy">   -229.68085400 </i>
    <i name="e_wo_entrp">   -229.42837024 </i>
    <i name="e_0_energy">   -229.55461212 </i>
   </energy>
  </scstep>
  <scstep>
   <time name="diag">    1.52    1.68</time>
   <time name="diis">    2.47    2.47</time>
   <time name="orth">    0.43    0.43</time>
   <time name="total">    4.71    4.89</time>
   <dipole>
    <v name="dipole">      0.00000000       0.00000000       0.47770413 </v>
    <i name="Tr[quadrupol]"> -11005.36010732 </i>
    <i name="Echarged">      0.00000000 </i>
    <i name="Edipol_quadrupol">      0.00000000 </i>
    <i name="Eion">      0.00000000 </i>
   </dipole>
   <energy>
    <i name="e_fr_energy">   -229.68086801 </i>
    <i name="e_wo_entrp">   -229.42839204 </i>
    <i name="e_0_energy">   -229.55463003 </i>
   </energy>
  </scstep>
  <scstep>
   <time name="diag">    1.54    1.55</time>
   <time name="diis">    2.47    2.48</time>
   <time name="orth">    0.42    0.43</time>
   <time name="total">    4.74    4.76</time>
   <dipole>
    <v name="dipole">      0.00000000       0.00000000       0.47756292 </v>
    <i name="Tr[quadrupol]"> -11005.36124828 </i>
    <i name="Echarged">      0.00000000 </i>
    <i name="Edipol_quadrupol">      0.00000000 </i>
    <i name="Eion">      0.00000000 </i>
   </dipole>
   <energy>
    <i name="e_fr_energy">   -229.68088112 </i>
    <i name="e_wo_entrp">   -229.42839815 </i>
    <i name="e_0_energy">   -229.55463964 </i>
   </energy>
  </scstep>
  <scstep>
   <time name="diag">    1.55    1.56</time>
   <time name="diis">    2.47    2.53</time>
   <time name="orth">    0.43    0.43</time>
   <time name="total">    4.76    4.83</time>
   <dipole>
    <v name="dipole">      0.00000000       0.00000000       0.47733729 </v>
    <i name="Tr[quadrupol]"> -11005.36314280 </i>
    <i name="Echarged">      0.00000000 </i>
    <i name="Edipol_quadrupol">      0.00000000 </i>
    <i name="Eion">      0.00000000 </i>
   </dipole>
[...]
       <r>   -19.2921    22.3497    11.8840 </r>
       <r>   -19.1985    30.0005    14.6932 </r>
       <r>   -19.1048    12.6227    15.8751 </r>
       <r>   -19.0112     1.3035    15.9972 </r>
       <r>   -18.9176     0.0299    16.0000 </r>
       <r>   -18.8239     0.0001    16.0000 </r>
       <r>   -18.7303     0.0000    16.0000 </r>
       <r>   -18.6367     0.0000    16.0000 </r>
       <r>   -18.5430     0.0000    16.0000 </r>
       <r>   -18.4494     0.0000    16.0000 </r>
       <r>   -18.3557     0.0000    16.0000 </r>
       <r>   -18.2621     0.0000    16.0000 </r>
       <r>   -18.1685     0.0000    16.0000 </r>
       <r>   -18.0748     0.0000    16.0000 </r>
       <r>   -17.9812     0.0000    16.0000 </r>
       <r>   -17.8876     0.0000    16.0000 </r>
       <r>   -17.7939     0.0000    16.0000 </r>
       <r>   -17.7003     0.0000    16.0000 </r>
       <r>   -17.6066     0.0000    16.0000 </r>
       <r>   -17.5130     0.0000    16.0000 </r>
       <r>   -17.4194     0.0000    16.0000 </r>
       <r>   -17.3257     0.0000    16.0000 </r>
       <r>   -17.2321     0.0000    16.0000 </r>
       <r>   -17.1384     0.0000    16.0000 </r>
       <r>   -17.0448     0.0000    16.0000 </r>
       <r>   -16.9512     0.0000    16.0000 </r>
       <r>   -16.8575     0.0000    16.0000 </r>
       <r>   -16.7639     0.0000    16.0000 </r>
       <r>   -16.6703     0.0000    16.0000 </r>
       <r>   -16.5766     0.0000    16.0000 </r>
       <r>   -16.4830     0.0000    16.0000 </r>
       <r>   -16.3893     0.0000    16.0000 </r>
       <r>   -16.2957     0.0000    16.0000 </r>
       <r>   -16.2021     0.0000    16.0000 </r>
       <r>   -16.1084     0.0000    16.0000 </r>
       <r>   -16.0148     0.0000    16.0000 </r>
       <r>   -15.9212     0.0000    16.0000 </r>
       <r>   -15.8275     0.0000    16.0000 </r>
       <r>   -15.7339     0.0000    16.0000 </r>
       <r>   -15.6402     0.0000    16.0000 </r>
       <r>   -15.5466     0.0000    16.0000 </r>
       <r>   -15.4530     0.0000    16.0000 </r>
       <r>   -15.3593     0.0000    16.0000 </r>
       <r>   -15.2657     0.0000    16.0000 </r>
       <r>   -15.1721     0.0000    16.0000 </r>
       <r>   -15.0784     0.0000    16.0000 </r>
       <r>   -14.9848     0.0000    16.0000 </r>
       <r>   -14.8911     0.0000    16.0000 </r>
       <r>   -14.7975     0.0000    16.0000 </r>
       <r>   -14.7039     0.0000    16.0000 </r>
       <r>   -14.6102     0.0000    16.0000 </r>
       <r>   -14.5166     0.0000    16.0000 </r>
       <r>   -14.4229     0.0000    16.0000 </r>
       <r>   -14.3293     0.0000    16.0000 </r>
       <r>   -14.2357     0.0000    16.0000 </r>
       <r>   -14.1420     0.0000    16.0000 </r>
       <r>   -14.0484     0.0000    16.0000 </r>
       <r>   -13.9548     0.0000    16.0000 </r>
       <r>   -13.8611     0.0000    16.0000 </r>
       <r>   -13.7675     0.0000    16.0000 </r>
       <r>   -13.6738     0.0000    16.0000 </r>
       <r>   -13.5802     0.0000    16.0000 </r>
       <r>   -13.4866     0.0000    16.0000 </r>
       <r>   -13.3929     0.0000    16.0000 </r>
       <r>   -13.2993     0.0000    16.0000 </r>
       <r>   -13.2057     0.0000    16.0000 </r>
       <r>   -13.1120     0.0000    16.0000 </r>
       <r>   -13.0184     0.0000    16.0000 </r>
       <r>   -12.9247     0.0000    16.0000 </r>
       <r>   -12.8311     0.0000    16.0000 </r>
       <r>   -12.7375     0.0000    16.0000 </r>
       <r>   -12.6438     0.0000    16.0000 </r>
       <r>   -12.5502     0.0000    16.0000 </r>
       <r>   -12.4566     0.0000    16.0000 </r>
       <r>   -12.3629     0.0000    16.0000 </r>
       <r>   -12.2693     0.0000    16.0000 </r>
       <r>   -12.1756     0.0000    16.0000 </r>
       <r>   -12.0820     0.0000    16.0000 </r>
       <r>   -11.9884     0.0000    16.0000 </r>
       <r>   -11.8947     0.0000    16.0000 </r>
       <r>   -11.8011     0.0000    16.0000 </r>
       <r>   -11.7074     0.0000    16.0000 </r>
       <r>   -11.6138     0.0000    16.0000 </r>
       <r>   -11.5202     0.0000    16.0000 </r>
       <r>   -11.4265     0.0000    16.0000 </r>
       <r>   -11.3329     0.0000    16.0000 </r>
       <r>   -11.2393     0.0000    16.0000 </r>
       <r>   -11.1456     0.0000    16.0000 </r>
       <r>   -11.0520     0.0000    16.0000 </r>
       <r>   -10.9583     0.0000    16.0000 </r>
       <r>   -10.8647     0.0000    16.0000 </r>
       <r>   -10.7711     0.0000    16.0000 </r>
       <r>   -10.6774     0.0000    16.0000 </r>
       <r>   -10.5838     0.0000    16.0000 </r>
       <r>   -10.4902     0.0000    16.0000 </r>
       <r>   -10.3965     0.0000    16.0000 </r>
       <r>   -10.3029     0.0000    16.0000 </r>
       <r>   -10.2092     0.0000    16.0000 </r>
       <r>   -10.1156     0.0000    16.0000 </r>
       <r>   -10.0220     0.0000    16.0000 </r>
       <r>    -9.9283     0.0000    16.0000 </r>
       <r>    -9.8347     0.0000    16.0000 </r>
       <r>    -9.7411     0.0000    16.0000 </r>
       <r>    -9.6474     0.0000    16.0000 </r>
       <r>    -9.5538     0.0000    16.0000 </r>
       <r>    -9.4601     0.0000    16.0000 </r>
       <r>    -9.3665     0.0000    16.0000 </r>
       <r>    -9.2729     0.0000    16.0000 </r>
       <r>    -9.1792     0.0034    16.0003 </r>
       <r>    -9.0856     0.1929    16.0184 </r>
       <r>    -8.9920     2.1933    16.2238 </r>
       <r>    -8.8983     5.7807    16.7651 </r>
       <r>    -8.8047     6.2849    17.3536 </r>
       <r>    -8.7110     5.2592    17.8460 </r>
       <r>    -8.6174     1.8141    18.0159 </r>
       <r>    -8.5238     3.1035    18.3065 </r>
       <r>    -8.4301     9.5254    19.1984 </r>
       <r>    -8.3365    12.2678    20.3472 </r>
       <r>    -8.2428    12.3207    21.5009 </r>
       <r>    -8.1492    12.4997    22.6713 </r>
       <r>    -8.0556    14.4295    24.0224 </r>
       <r>    -7.9619    19.7947    25.8760 </r>
       <r>    -7.8683    19.4948    27.7014 </r>
       <r>    -7.7747    19.5100    29.5283 </r>
       <r>    -7.6810    30.9688    32.4282 </r>
       <r>    -7.5874    35.0864    35.7136 </r>
       <r>    -7.4937    29.8817    38.5116 </r>
       <r>    -7.4001    29.3648    41.2613 </r>
       <r>    -7.3065    35.5933    44.5942 </r>
       <r>    -7.2128    37.8130    48.1349 </r>
       <r>    -7.1192    44.8022    52.3301 </r>
       <r>    -7.0256    58.8834    57.8438 </r>
       <r>    -6.9319    66.2457    64.0469 </r>
       <r>    -6.8383    69.4417    70.5493 </r>
       <r>    -6.7446    69.8274    77.0878 </r>
       <r>    -6.6510    67.0024    83.3618 </r>
       <r>    -6.5574    67.0759    89.6426 </r>
       <r>    -6.4637    73.0703    96.4848 </r>
       <r>    -6.3701    81.8708   104.1510 </r>
       <r>    -6.2765    85.4164   112.1492 </r>
       <r>    -6.1828    89.0202   120.4848 </r>
       <r>    -6.0892    89.5143   128.8668 </r>
       <r>    -5.9955    85.9479   136.9147 </r>
       <r>    -5.9019    82.2359   144.6151 </r>
       <r>    -5.8083    81.1633   152.2151 </r>
       <r>    -5.7146    80.9307   159.7933 </r>
       <r>    -5.6210    76.9842   167.0019 </r>
       <r>    -5.5273    79.2138   174.4193 </r>
       <r>    -5.4337    84.3276   182.3156 </r>
       <r>    -5.3401    82.9902   190.0866 </r>
       <r>    -5.2464    83.5500   197.9101 </r>
       <r>    -5.1528    85.5446   205.9203 </r>
       <r>    -5.0592    83.0209   213.6942 </r>
       <r>    -4.9655    82.8869   221.4556 </r>
       <r>    -4.8719    85.0076   229.4155 </r>
       <r>    -4.7782    88.4599   237.6987 </r>
       <r>    -4.6846    90.1816   246.1431 </r>
       <r>    -4.5910    88.5530   254.4350 </r>
       <r>    -4.4973    90.2097   262.8821 </r>
       <r>    -4.4037    94.6691   271.7467 </r>
       <r>    -4.3101    96.2877   280.7629 </r>
       <r>    -4.2164    98.4611   289.9826 </r>
       <r>    -4.1228   100.1433   299.3598 </r>
       <r>    -4.0291    97.0740   308.4496 </r>
       <r>    -3.9355    94.5770   317.3056 </r>
       <r>    -3.8419    93.5221   326.0628 </r>
       <r>    -3.7482    91.4633   334.6272 </r>
       <r>    -3.6546    92.5758   343.2959 </r>
       <r>    -3.5610   100.0104   352.6606 </r>
       <r>    -3.4673   102.3220   362.2418 </r>
       <r>    -3.3737    97.1533   371.3391 </r>
       <r>    -3.2800    91.1282   379.8721 </r>
       <r>    -3.1864    90.3722   388.3344 </r>
       <r>    -3.0928    91.9838   396.9476 </r>
       <r>    -2.9991    90.9191   405.4610 </r>
       <r>    -2.9055    94.4880   414.3087 </r>
       <r>    -2.8118    97.6522   423.4526 </r>
       <r>    -2.7182    92.4757   432.1119 </r>
       <r>    -2.6246    88.3812   440.3877 </r>
       <r>    -2.5309    89.8452   448.8006 </r>
       <r>    -2.4373    95.4790   457.7411 </r>
       <r>    -2.3437    99.2714   467.0366 </r>
       <r>    -2.2500    98.1970   476.2316 </r>
       <r>    -2.1564   102.8038   485.8579 </r>
       <r>    -2.0627   104.7973   495.6709 </r>
       <r>    -1.9691   105.2241   505.5239 </r>
       <r>    -1.8755   105.2110   515.3756 </r>
       <r>    -1.7818    99.1035   524.6555 </r>
       <r>    -1.6882    82.6890   532.3983 </r>
       <r>    -1.5946    73.3936   539.2707 </r>
       <r>    -1.5009    67.6515   545.6055 </r>
       <r>    -1.4073    57.0378   550.9464 </r>
       <r>    -1.3136    46.0367   555.2572 </r>
       <r>    -1.2200    36.6036   558.6846 </r>
       <r>    -1.1264    26.2778   561.1452 </r>
       <r>    -1.0327    20.4432   563.0595 </r>
       <r>    -0.9391    17.7206   564.7188 </r>
       <r>    -0.8455    17.0313   566.3136 </r>
       <r>    -0.7518    19.6756   568.1560 </r>
       <r>    -0.6582    22.7103   570.2825 </r>
       <r>    -0.5645    21.1734   572.2652 </r>
       <r>    -0.4709    25.3161   574.6357 </r>
       <r>    -0.3773    27.2597   577.1882 </r>
       <r>    -0.2836    22.6329   579.3075 </r>
       <r>    -0.1900    16.3434   580.8379 </r>
       <r>    -0.0963    12.7755   582.0342 </r>
       <r>    -0.0027    11.2266   583.0854 </r>
       <r>     0.0909    11.3926   584.1522 </r>
       <r>     0.1846     9.3010   585.0231 </r>
       <r>     0.2782    10.9079   586.0445 </r>
       <r>     0.3718    12.9004   587.2525 </r>
       <r>     0.4655    14.3614   588.5973 </r>
       <r>     0.5591    18.9336   590.3702 </r>
       <r>     0.6528    21.1144   592.3473 </r>
       <r>     0.7464    19.9951   594.2196 </r>
       <r>     0.8400    17.4280   595.8515 </r>
       <r>     0.9337    15.3182   597.2859 </r>
       <r>     1.0273    13.4682   598.5470 </r>
       <r>     1.1209    11.1249   599.5887 </r>
       <r>     1.2146    11.1718   600.6348 </r>
       <r>     1.3082    12.1786   601.7752 </r>
       <r>     1.4019    13.2941   603.0200 </r>
       <r>     1.4955    11.8736   604.1318 </r>
       <r>     1.5891    11.9656   605.2523 </r>
       <r>     1.6828    15.2505   606.6803 </r>
       <r>     1.7764    17.2876   608.2991 </r>
       <r>     1.8700    19.2782   610.1042 </r>
       <r>     1.9637    19.0559   611.8886 </r>
       <r>     2.0573    17.5657   613.5334 </r>
       <r>     2.1510    17.4898   615.1711 </r>
       <r>     2.2446    16.2366   616.6915 </r>
       <r>     2.3382    16.0324   618.1927 </r>
       <r>     2.4319    15.9517   619.6864 </r>
       <r>     2.5255    12.7828   620.8834 </r>
       <r>     2.6192    10.9555   621.9092 </r>
       <r>     2.7128    11.5146   622.9874 </r>
       <r>     2.8064    12.4235   624.1507 </r>
       <r>     2.9001    14.0610   625.4674 </r>
       <r>     2.9937    14.8878   626.8614 </r>
       <r>     3.0873    16.6941   628.4246 </r>
       <r>     3.1810    14.8017   629.8106 </r>
       <r>     3.2746    15.7479   631.2852 </r>
       <r>     3.3683    17.3085   632.9060 </r>
       <r>     3.4619    17.1432   634.5112 </r>
       <r>     3.5555    15.0885   635.9241 </r>
       <r>     3.6492    15.4897   637.3745 </r>
       <r>     3.7428    16.9752   638.9640 </r>
       <r>     3.8364    18.9855   640.7418 </r>
       <r>     3.9301    17.5741   642.3874 </r>
       <r>     4.0237    18.6130   644.1303 </r>
       <r>     4.1174    22.3516   646.2232 </r>
       <r>     4.2110    23.8267   648.4543 </r>
       <r>     4.3046    19.7983   650.3082 </r>
       <r>     4.3983    18.5533   652.0455 </r>
       <r>     4.4919    19.0108   653.8256 </r>
       <r>     4.5855    21.6472   655.8526 </r>
       <r>     4.6792    25.4582   658.2364 </r>
       <r>     4.7728    28.8512   660.9380 </r>
       <r>     4.8665    28.3220   663.5900 </r>
       <r>     4.9601    24.5995   665.8935 </r>
       <r>     5.0537    24.4709   668.1849 </r>
       <r>     5.1474    25.0165   670.5274 </r>
       <r>     5.2410    13.2986   671.7726 </r>
       <r>     5.3347     2.3176   671.9896 </r>
       <r>     5.4283     0.1094   671.9999 </r>
       <r>     5.5219     0.0013   672.0000 </r>
       <r>     5.6156     0.0000   672.0000 </r>
       <r>     5.7092     0.0000   672.0000 </r>
       <r>     5.8028     0.0000   672.0000 </r>
       <r>     5.8965     0.0000   672.0000 </r>
       <r>     5.9901     0.0000   672.0000 </r>
       <r>     6.0838     0.0000   672.0000 </r>
       <r>     6.1774     0.0000   672.0000 </r>
       <r>     6.2710     0.0000   672.0000 </r>
       <r>     6.3647     0.0000   672.0000 </r>
       <r>     6.4583     0.0000   672.0000 </r>
      </set>
     </set>
    </array>
   </total>
  </dos>
 </calculation>
 <structure name="finalpos" >
  <crystal>
   <varray name="basis" >
    <v>      11.00258152       0.00000000       0.00000000 </v>
    <v>       5.50129076       9.52851510       0.00000000 </v>
    <v>       0.00000000       0.00000000      26.19178509 </v>
   </varray>
   <i name="volume">   2745.90128299 </i>
   <varray name="rec_basis" >
    <v>       0.09088776      -0.05247407       0.00000000 </v>
    <v>       0.00000000       0.10494815       0.00000000 </v>
    <v>       0.00000000       0.00000000       0.03817991 </v>
   </varray>
  </crystal>
  <varray name="positions" >
   <v>       0.33333333       0.83333333       0.38179910 </v>
   <v>       0.41479384       0.41522308       0.47002023 </v>
   <v>       0.44511628       0.52438762       0.56103820 </v>
   <v>       0.91465954       0.16611943       0.47666296 </v>
   <v>      -0.00274018       0.03546165       0.63106724 </v>
   <v>       0.83333333       0.83333333       0.38179910 </v>
   <v>       0.73018741       0.52845624       0.55996751 </v>
   <v>       0.66544482       0.67476373       0.47136799 </v>
   <v>      -0.00262085       0.26233044       0.57007088 </v>
   <v>       0.77431975       0.71717107       0.60045873 </v>
   <v>       0.08333333       0.58333333       0.38179910 </v>
   <v>       0.02015830       0.51201738       0.56777439 </v>
   <v>       0.71854445       0.27992571       0.56963722 </v>
   <v>       0.08333333       0.83333333       0.38179910 </v>
   <v>       0.16410784       0.91165698       0.48441399 </v>
   <v>       0.03179671       0.76868949       0.56077923 </v>
   <v>       0.74408124       0.00930457       0.56362597 </v>
   <v>       0.33333333       0.08333333       0.38179910 </v>
   <v>       0.16356999       0.16576487       0.47774600 </v>
   <v>       0.83333333       0.08333333       0.38179910 </v>
   <v>       0.49246671       0.00258029       0.56141750 </v>
   <v>       0.47075721       0.75858415       0.56088141 </v>
   <v>       0.16640423       0.41679084       0.47396865 </v>
   <v>       0.66477742       0.41816577       0.47209901 </v>
   <v>       0.34535200       0.30067004       0.61715127 </v>
   <v>       0.40561681       0.53329400       0.64175307 </v>
   <v>       0.13823779       0.70455348       0.63342707 </v>
   <v>       0.85398730       0.84445191       0.61544451 </v>
   <v>       0.79368888       0.11594854       0.62566074 </v>
   <v>       0.55788853       0.84022528       0.61733660 </v>
   <v>       0.81189329       0.37450332       0.61618126 </v>
   <v>       0.20411349       0.94363882       0.64193267 </v>
   <v>       0.41338813       0.66870088       0.47199442 </v>
   <v>       0.58333333       0.58333333       0.38179910 </v>
   <v>       0.33333333       0.58333333       0.38179910 </v>
   <v>       0.58333333       0.33333333       0.38179910 </v>
   <v>       0.41679113       0.16313153       0.47226238 </v>
   <v>       0.58333333       0.08333333       0.38179910 </v>
   <v>       0.17047414       0.66520797       0.47484999 </v>
   <v>       0.30425888       0.74013369       0.63897037 </v>
   <v>       0.24562022       0.25056433       0.56548856 </v>
   <v>       0.33333333       0.33333333       0.38179910 </v>
   <v>       0.58333333       0.83333333       0.38179910 </v>
   <v>       0.41281162       0.91864193       0.47151676 </v>
   <v>       0.22992396       0.00552868       0.57178169 </v>
   <v>       0.66467791       0.16714459       0.47637185 </v>
   <v>       0.91590376       0.91571940       0.47397557 </v>
   <v>       0.83333333       0.33333333       0.38179910 </v>
   <v>       0.91685795       0.67066047       0.47706316 </v>
   <v>       0.83333333       0.58333333       0.38179910 </v>
   <v>       0.91592853       0.42081441       0.47212218 </v>
   <v>       0.08333333       0.33333333       0.38179910 </v>
   <v>       0.66883924       0.91908439       0.47452140 </v>
   <v>       0.23905838       0.50123714       0.62264486 </v>
   <v>       0.48604876       0.25683147       0.56110591 </v>
   <v>       0.08333333       0.08333333       0.38179910 </v>
  </varray>
  <varray name="selective"  type="logical" >
   <v type="logical" >  F  F  F </v>
   <v type="logical" >  T  T  T </v>
   <v type="logical" >  T  T  T </v>
   <v type="logical" >  T  T  T </v>
   <v type="logical" >  T  T  T </v>
   <v type="logical" >  F  F  F </v>
   <v type="logical" >  T  T  T </v>
   <v type="logical" >  T  T  T </v>
   <v type="logical" >  T  T  T </v>
   <v type="logical" >  T  T  T </v>
   <v type="logical" >  F  F  F </v>
   <v type="logical" >  T  T  T </v>
   <v type="logical" >  T  T  T </v>
   <v type="logical" >  F  F  F </v>
   <v type="logical" >  T  T  T </v>
   <v type="logical" >  T  T  T </v>
   <v type="logical" >  T  T  T </v>
   <v type="logical" >  F  F  F </v>
   <v type="logical" >  T  T  T </v>
   <v type="logical" >  F  F  F </v>
   <v type="logical" >  T  T  T </v>
   <v type="logical" >  T  T  T </v>
   <v type="logical" >  T  T  T </v>
   <v type="logical" >  T  T  T </v>
   <v type="logical" >  T  T  T </v>
   <v type="logical" >  T  T  T </v>
   <v type="logical" >  T  T  T </v>
   <v type="logical" >  T  T  T </v>
   <v type="logical" >  T  T  T </v>
   <v type="logical" >  T  T  T </v>
   <v type="logical" >  T  T  T </v>
   <v type="logical" >  T  T  T </v>
   <v type="logical" >  T  T  T </v>
   <v type="logical" >  F  F  F </v>
   <v type="logical" >  F  F  F </v>
   <v type="logical" >  F  F  F </v>
   <v type="logical" >  T  T  T </v>
   <v type="logical" >  F  F  F </v>
   <v type="logical" >  T  T  T </v>
   <v type="logical" >  T  T  T </v>
   <v type="logical" >  T  T  T </v>
   <v type="logical" >  F  F  F </v>
   <v type="logical" >  F  F  F </v>
   <v type="logical" >  T  T  T </v>
   <v type="logical" >  T  T  T </v>
   <v type="logical" >  T  T  T </v>
   <v type="logical" >  T  T  T </v>
   <v type="logical" >  F  F  F </v>
   <v type="logical" >  T  T  T </v>
   <v type="logical" >  F  F  F </v>
   <v type="logical" >  T  T  T </v>
   <v type="logical" >  F  F  F </v>
   <v type="logical" >  T  T  T </v>
   <v type="logical" >  T  T  T </v>
   <v type="logical" >  T  T  T </v>
   <v type="logical" >  F  F  F </v>
  </varray>
  <nose>
   <v>      -3.00000000       0.00000000       0.00010000       0.00010000 </v>
  </nose>
 </structure>
</modeling>
