unknown system                          
           1
    11.002582    0.000000    0.000000
     5.501291    9.528515    0.000000
     0.000000    0.000000   26.191785
   Au   O    Pd
  24   8  24
Direct configuration=     1
   0.33333333  0.83333333  0.38179910
   0.41189535  0.41207306  0.46888429
   0.48671633  0.50708946  0.55613677
   0.92040243  0.15927039  0.47349075
   0.02110873  0.03723546  0.62934086
   0.83333333  0.83333333  0.38179910
   0.74325389  0.50780391  0.55901458
   0.66853737  0.66513373  0.47105111
   0.01181019  0.26856051  0.59535829
   0.76651649  0.71014806  0.59814840
   0.08333333  0.58333333  0.38179910
   0.00502006  0.50596130  0.56271613
   0.74883791  0.25447999  0.56947375
   0.08333333  0.83333333  0.38179910
   0.16968592  0.90809959  0.49366349
   0.02389368  0.75277848  0.56410271
   0.75262237  0.99606362  0.56159786
   0.33333333  0.08333333  0.38179910
   0.16517810  0.16197474  0.48314829
   0.83333333  0.08333333  0.38179910
   0.49441885  0.00457239  0.55914113
   0.47666582  0.75741503  0.55893340
   0.16367497  0.41499632  0.47266030
   0.66615244  0.40989820  0.47255383
   0.35220352  0.30882864  0.61561369
   0.36701959  0.56166946  0.62763239
   0.09270044  0.81670941  0.62863678
   0.84049705  0.83867744  0.61732236
   0.81209018  0.09476061  0.62584614
   0.55446445  0.83896405  0.61639008
   0.81655075  0.38285332  0.62594885
   0.24311238  0.95504102  0.64971306
   0.41260871  0.66880219  0.46980116
   0.58333333  0.58333333  0.38179910
   0.33333333  0.58333333  0.38179910
   0.58333333  0.33333333  0.38179910
   0.41820833  0.16197140  0.47203976
   0.58333333  0.08333333  0.38179910
   0.17308275  0.66360925  0.47854122
   0.30188278  0.75357502  0.63483413
   0.25114569  0.25548970  0.56537309
   0.33333333  0.33333333  0.38179910
   0.58333333  0.83333333  0.38179910
   0.41565252  0.91577035  0.46922421
   0.24517556  0.00997181  0.57578389
   0.66873076  0.16031428  0.47663216
   0.92219596  0.91107638  0.47336253
   0.83333333  0.33333333  0.38179910
   0.91953872  0.66815743  0.47467485
   0.83333333  0.58333333  0.38179910
   0.91724254  0.41282261  0.47045264
   0.08333333  0.33333333  0.38179910
   0.67134480  0.91197664  0.47201282
   0.23913178  0.50636550  0.59517591
   0.49997206  0.24922867  0.56150858
   0.08333333  0.08333333  0.38179910
Direct configuration=     2
   0.33333333  0.83333333  0.38179910
   0.41284007  0.41209376  0.46916079
   0.48548581  0.50610805  0.55682141
   0.92060098  0.15925119  0.47383043
   0.02071745  0.03619582  0.63025446
   0.83333333  0.83333333  0.38179910
   0.74246964  0.50825869  0.55921185
   0.66860171  0.66578180  0.47115232
   0.01303030  0.26745117  0.59568481
   0.76590100  0.71056323  0.59839582
   0.08333333  0.58333333  0.38179910
   0.00545880  0.50622135  0.56263701
   0.74877782  0.25468383  0.56929352
   0.08333333  0.83333333  0.38179910
   0.16923989  0.90809063  0.49348701
   0.02425664  0.75203488  0.56371103
   0.75199204  0.99639496  0.56166512
   0.33333333  0.08333333  0.38179910
   0.16532605  0.16214659  0.48296620
   0.83333333  0.08333333  0.38179910
   0.49527506  0.00371580  0.55923681
   0.47693798  0.75665085  0.55866761
   0.16444928  0.41439665  0.47264488
   0.66647180  0.40982534  0.47215908
   0.35223695  0.30850036  0.61552393
   0.36822773  0.55983886  0.62774238
   0.09407752  0.81658276  0.62918809
   0.84050278  0.83858486  0.61739249
   0.81541269  0.09461126  0.62558442
   0.55478501  0.83941051  0.61651411
   0.81562472  0.38312855  0.62577961
   0.23964226  0.95502888  0.64874384
   0.41261471  0.66885778  0.46979255
   0.58333333  0.58333333  0.38179910
   0.33333333  0.58333333  0.38179910
   0.58333333  0.33333333  0.38179910
   0.41816584  0.16163439  0.47198178
   0.58333333  0.08333333  0.38179910
   0.17259475  0.66359626  0.47841044
   0.30065307  0.75794045  0.63502414
   0.25125340  0.25495117  0.56543265
   0.33333333  0.33333333  0.38179910
   0.58333333  0.83333333  0.38179910
   0.41547328  0.91597176  0.46952779
   0.24477640  0.01107067  0.57582858
   0.66880974  0.16035411  0.47654835
   0.92214983  0.91116315  0.47332281
   0.83333333  0.33333333  0.38179910
   0.91914858  0.66844154  0.47490731
   0.83333333  0.58333333  0.38179910
   0.91760423  0.41290726  0.47050225
   0.08333333  0.33333333  0.38179910
   0.67111107  0.91229799  0.47215483
   0.23847237  0.50598266  0.59489581
   0.50024563  0.24997814  0.56139627
   0.08333333  0.08333333  0.38179910
Direct configuration=     3
   0.33333333  0.83333333  0.38179910
   0.41365237  0.41211157  0.46939853
   0.48442778  0.50526421  0.55741007
   0.92077171  0.15923469  0.47412250
   0.02038101  0.03530191  0.63104000
   0.83333333  0.83333333  0.38179910
   0.74179532  0.50864972  0.55938147
   0.66865702  0.66633903  0.47123935
   0.01407938  0.26649734  0.59596556
   0.76537178  0.71092020  0.59860855
   0.08333333  0.58333333  0.38179910
   0.00583603  0.50644496  0.56256898
   0.74872615  0.25485910  0.56913856
   0.08333333  0.83333333  0.38179910
   0.16885637  0.90808292  0.49333528
   0.02456872  0.75139551  0.56337425
   0.75145006  0.99667985  0.56172295
   0.33333333  0.08333333  0.38179910
   0.16545327  0.16229436  0.48280963
   0.83333333  0.08333333  0.38179910
   0.49601126  0.00297928  0.55931908
   0.47717199  0.75599380  0.55843908
   0.16511504  0.41388104  0.47263162
   0.66674640  0.40976269  0.47181966
   0.35226570  0.30821811  0.61544676
   0.36926652  0.55826487  0.62783696
   0.09526157  0.81647387  0.62966211
   0.84050771  0.83850526  0.61745280
   0.81826946  0.09448285  0.62535939
   0.55506064  0.83979438  0.61662076
   0.81482849  0.38336520  0.62563410
   0.23665857  0.95501845  0.64791049
   0.41261987  0.66890558  0.46978515
   0.58333333  0.58333333  0.38179910
   0.33333333  0.58333333  0.38179910
   0.58333333  0.33333333  0.38179910
   0.41812932  0.16134462  0.47193193
   0.58333333  0.08333333  0.38179910
   0.17217516  0.66358510  0.47829800
   0.29959575  0.76169395  0.63518751
   0.25134601  0.25448812  0.56548385
   0.33333333  0.33333333  0.38179910
   0.58333333  0.83333333  0.38179910
   0.41531916  0.91614494  0.46978881
   0.24443320  0.01201549  0.57586700
   0.66887765  0.16038836  0.47647629
   0.92211018  0.91123776  0.47328865
   0.83333333  0.33333333  0.38179910
   0.91881313  0.66868583  0.47510719
   0.83333333  0.58333333  0.38179910
   0.91791522  0.41298004  0.47054491
   0.08333333  0.33333333  0.38179910
   0.67091011  0.91257429  0.47227694
   0.23790539  0.50565349  0.59465498
   0.50048084  0.25062255  0.56129970
   0.08333333  0.08333333  0.38179910
Direct configuration=     4
   0.33333333  0.83333333  0.38179910
   0.41456740  0.41218278  0.46966102
   0.48306742  0.50464317  0.55822890
   0.92099358  0.15927986  0.47456148
   0.02045234  0.03454716  0.63216399
   0.83333333  0.83333333  0.38179910
   0.74085294  0.50916261  0.55958224
   0.66875939  0.66692979  0.47136878
   0.01467360  0.26559895  0.59655282
   0.76526251  0.71095887  0.59890458
   0.08333333  0.58333333  0.38179910
   0.00580219  0.50658222  0.56252118
   0.74875177  0.25521767  0.56882677
   0.08333333  0.83333333  0.38179910
   0.16843647  0.90806892  0.49311884
   0.02480074  0.75110927  0.56314313
   0.75101065  0.99682446  0.56184374
   0.33333333  0.08333333  0.38179910
   0.16561966  0.16239072  0.48255740
   0.83333333  0.08333333  0.38179910
   0.49691605  0.00223862  0.55945306
   0.47735341  0.75508212  0.55817545
   0.16611425  0.41336804  0.47260454
   0.66708374  0.41001113  0.47149177
   0.35229718  0.30784960  0.61524631
   0.36947595  0.55942528  0.62805678
   0.09639748  0.81580750  0.63029239
   0.84065129  0.83848908  0.61748188
   0.82148708  0.09463232  0.62506598
   0.55505450  0.84039168  0.61680467
   0.81409650  0.38338565  0.62530482
   0.23135586  0.95818089  0.64732769
   0.41270548  0.66873720  0.46985240
   0.58333333  0.58333333  0.38179910
   0.33333333  0.58333333  0.38179910
   0.58333333  0.33333333  0.38179910
   0.41823903  0.16102391  0.47190131
   0.58333333  0.08333333  0.38179910
   0.17186076  0.66332692  0.47801779
   0.30109236  0.75960790  0.63499209
   0.25189483  0.25368787  0.56552779
   0.33333333  0.33333333  0.38179910
   0.58333333  0.83333333  0.38179910
   0.41497565  0.91637705  0.47013034
   0.24411620  0.01335315  0.57546261
   0.66903140  0.16039152  0.47635329
   0.92189199  0.91145771  0.47323223
   0.83333333  0.33333333  0.38179910
   0.91843640  0.66891808  0.47534263
   0.83333333  0.58333333  0.38179910
   0.91824507  0.41321168  0.47064259
   0.08333333  0.33333333  0.38179910
   0.67063460  0.91304786  0.47239383
   0.23748240  0.50526560  0.59450254
   0.50051015  0.25108935  0.56121494
   0.08333333  0.08333333  0.38179910
Direct configuration=     5
   0.33333333  0.83333333  0.38179910
   0.41526473  0.41223705  0.46986106
   0.48203070  0.50416988  0.55885293
   0.92116266  0.15931429  0.47489602
   0.02050671  0.03397198  0.63302056
   0.83333333  0.83333333  0.38179910
   0.74013477  0.50955348  0.55973525
   0.66883740  0.66738000  0.47146742
   0.01512645  0.26491430  0.59700036
   0.76517924  0.71098835  0.59913018
   0.08333333  0.58333333  0.38179910
   0.00577639  0.50668683  0.56248475
   0.74877129  0.25549093  0.56858916
   0.08333333  0.83333333  0.38179910
   0.16811646  0.90805825  0.49295391
   0.02497756  0.75089113  0.56296700
   0.75067579  0.99693466  0.56193579
   0.33333333  0.08333333  0.38179910
   0.16574647  0.16246415  0.48236518
   0.83333333  0.08333333  0.38179910
   0.49760557  0.00167418  0.55955517
   0.47749167  0.75438734  0.55797455
   0.16687574  0.41297710  0.47258390
   0.66734083  0.41020047  0.47124188
   0.35232117  0.30756877  0.61509355
   0.36963555  0.56030961  0.62822431
   0.09726315  0.81529967  0.63077273
   0.84076071  0.83847675  0.61750404
   0.82393918  0.09474623  0.62484237
   0.55504981  0.84084687  0.61694482
   0.81353865  0.38340123  0.62505388
   0.22731473  0.96059094  0.64688355
   0.41277071  0.66860889  0.46990366
   0.58333333  0.58333333  0.38179910
   0.33333333  0.58333333  0.38179910
   0.58333333  0.33333333  0.38179910
   0.41832264  0.16077950  0.47187798
   0.58333333  0.08333333  0.38179910
   0.17162117  0.66313016  0.47780424
   0.30223292  0.75801815  0.63484317
   0.25231308  0.25307801  0.56556127
   0.33333333  0.33333333  0.38179910
   0.58333333  0.83333333  0.38179910
   0.41471386  0.91655393  0.47039062
   0.24387461  0.01437257  0.57515443
   0.66914857  0.16039392  0.47625956
   0.92172571  0.91162534  0.47318923
   0.83333333  0.33333333  0.38179910
   0.91814930  0.66909507  0.47552205
   0.83333333  0.58333333  0.38179910
   0.91849644  0.41338820  0.47071703
   0.08333333  0.33333333  0.38179910
   0.67042464  0.91340877  0.47248290
   0.23716004  0.50497000  0.59438637
   0.50053249  0.25144509  0.56115034
   0.08333333  0.08333333  0.38179910
Direct configuration=     6
   0.33333333  0.83333333  0.38179910
   0.41537831  0.41226587  0.46985937
   0.48219625  0.50448204  0.55888464
   0.92116327  0.15951414  0.47509291
   0.02177712  0.03376904  0.63334584
   0.83333333  0.83333333  0.38179910
   0.73970297  0.50991894  0.55971288
   0.66886129  0.66740476  0.47151842
   0.01456997  0.26506069  0.59743454
   0.76570340  0.71056080  0.59928804
   0.08333333  0.58333333  0.38179910
   0.00529575  0.50621873  0.56252291
   0.74890348  0.25553890  0.56833525
   0.08333333  0.83333333  0.38179910
   0.16812782  0.90794851  0.49284811
   0.02486441  0.75151803  0.56315628
   0.75100027  0.99685419  0.56205744
   0.33333333  0.08333333  0.38179910
   0.16574347  0.16249696  0.48216575
   0.83333333  0.08333333  0.38179910
   0.49785623  0.00155369  0.55967899
   0.47717076  0.75446273  0.55803087
   0.16723718  0.41306338  0.47259706
   0.66744784  0.41066044  0.47133394
   0.35246867  0.30736215  0.61502235
   0.36909638  0.56090701  0.62855645
   0.09763139  0.81414974  0.63098585
   0.84103281  0.83861240  0.61746115
   0.82266835  0.09575969  0.62470659
   0.55469562  0.84102446  0.61700335
   0.81351794  0.38304909  0.62488173
   0.22697287  0.96107292  0.64698878
   0.41286698  0.66823456  0.47001279
   0.58333333  0.58333333  0.38179910
   0.33333333  0.58333333  0.38179910
   0.58333333  0.33333333  0.38179910
   0.41862119  0.16080794  0.47192568
   0.58333333  0.08333333  0.38179910
   0.17175931  0.66286572  0.47755199
   0.30238126  0.75747504  0.63464635
   0.25262844  0.25285555  0.56550224
   0.33333333  0.33333333  0.38179910
   0.58333333  0.83333333  0.38179910
   0.41446953  0.91656405  0.47046449
   0.24393074  0.01429920  0.57470952
   0.66927225  0.16041504  0.47620876
   0.92142836  0.91183318  0.47316400
   0.83333333  0.33333333  0.38179910
   0.91817546  0.66906925  0.47554321
   0.83333333  0.58333333  0.38179910
   0.91854079  0.41361724  0.47080611
   0.08333333  0.33333333  0.38179910
   0.67032858  0.91364406  0.47243564
   0.23731398  0.50511450  0.59453216
   0.50043963  0.25087552  0.56114549
   0.08333333  0.08333333  0.38179910
Direct configuration=     7
   0.33333333  0.83333333  0.38179910
   0.41547695  0.41229090  0.46985790
   0.48234001  0.50475311  0.55891217
   0.92116381  0.15968769  0.47526389
   0.02288033  0.03359281  0.63362830
   0.83333333  0.83333333  0.38179910
   0.73932799  0.51023630  0.55969347
   0.66888203  0.66742626  0.47156271
   0.01408673  0.26518781  0.59781157
   0.76615858  0.71018952  0.59942513
   0.08333333  0.58333333  0.38179910
   0.00487837  0.50581224  0.56255605
   0.74901827  0.25558055  0.56811475
   0.08333333  0.83333333  0.38179910
   0.16813769  0.90785320  0.49275624
   0.02476615  0.75206242  0.56332065
   0.75128204  0.99678432  0.56216307
   0.33333333  0.08333333  0.38179910
   0.16574087  0.16252544  0.48199256
   0.83333333  0.08333333  0.38179910
   0.49807390  0.00144905  0.55978651
   0.47689209  0.75452820  0.55807977
   0.16755105  0.41313831  0.47260849
   0.66754078  0.41105989  0.47141389
   0.35259675  0.30718273  0.61496052
   0.36862817  0.56142578  0.62884487
   0.09795117  0.81315115  0.63117092
   0.84126910  0.83873021  0.61742390
   0.82156478  0.09663977  0.62458868
   0.55438805  0.84117868  0.61705417
   0.81349996  0.38274328  0.62473225
   0.22667599  0.96149147  0.64708017
   0.41295059  0.66790949  0.47010755
   0.58333333  0.58333333  0.38179910
   0.33333333  0.58333333  0.38179910
   0.58333333  0.33333333  0.38179910
   0.41888045  0.16083263  0.47196710
   0.58333333  0.08333333  0.38179910
   0.17187927  0.66263608  0.47733294
   0.30251008  0.75700340  0.63447544
   0.25290229  0.25266238  0.56545098
   0.33333333  0.33333333  0.38179910
   0.58333333  0.83333333  0.38179910
   0.41425736  0.91657284  0.47052865
   0.24397948  0.01423548  0.57432316
   0.66937964  0.16043337  0.47616465
   0.92117014  0.91201366  0.47314208
   0.83333333  0.33333333  0.38179910
   0.91819818  0.66904683  0.47556157
   0.83333333  0.58333333  0.38179910
   0.91857930  0.41381614  0.47088346
   0.08333333  0.33333333  0.38179910
   0.67024516  0.91384838  0.47239459
   0.23744766  0.50523999  0.59465876
   0.50035900  0.25038091  0.56114127
   0.08333333  0.08333333  0.38179910
Direct configuration=     8
   0.33333333  0.83333333  0.38179910
   0.41570232  0.41224266  0.46986088
   0.48251597  0.50492966  0.55897057
   0.92114714  0.15993208  0.47546800
   0.02183894  0.03405436  0.63381759
   0.83333333  0.83333333  0.38179910
   0.73886816  0.51073443  0.55967501
   0.66882753  0.66759202  0.47160042
   0.01405592  0.26513990  0.59827826
   0.76650148  0.70988646  0.59965974
   0.08333333  0.58333333  0.38179910
   0.00463737  0.50514395  0.56259027
   0.74915302  0.25558579  0.56780812
   0.08333333  0.83333333  0.38179910
   0.16811352  0.90765391  0.49259727
   0.02493014  0.75252412  0.56344194
   0.75162803  0.99686982  0.56230589
   0.33333333  0.08333333  0.38179910
   0.16574476  0.16265430  0.48172762
   0.83333333  0.08333333  0.38179910
   0.49843181  0.00116927  0.55994538
   0.47653197  0.75483083  0.55818668
   0.16782239  0.41323930  0.47265924
   0.66764853  0.41147318  0.47151220
   0.35272305  0.30701139  0.61492610
   0.36824627  0.56137867  0.62920084
   0.09833640  0.81188420  0.63146102
   0.84160541  0.83882531  0.61741596
   0.82134074  0.09740286  0.62449093
   0.55412776  0.84121834  0.61708184
   0.81311138  0.38248428  0.62460801
   0.22773413  0.96118853  0.64711629
   0.41301685  0.66757360  0.47021291
   0.58333333  0.58333333  0.38179910
   0.33333333  0.58333333  0.38179910
   0.58333333  0.33333333  0.38179910
   0.41920958  0.16083534  0.47202011
   0.58333333  0.08333333  0.38179910
   0.17184057  0.66255497  0.47710519
   0.30207910  0.75763676  0.63435062
   0.25286664  0.25254972  0.56536450
   0.33333333  0.33333333  0.38179910
   0.58333333  0.83333333  0.38179910
   0.41405501  0.91655398  0.47059595
   0.24389059  0.01410316  0.57393598
   0.66953202  0.16053753  0.47612414
   0.92091726  0.91216840  0.47312283
   0.83333333  0.33333333  0.38179910
   0.91829626  0.66903264  0.47560523
   0.83333333  0.58333333  0.38179910
   0.91870463  0.41406569  0.47097311
   0.08333333  0.33333333  0.38179910
   0.67015751  0.91405882  0.47235143
   0.23754322  0.50540901  0.59482303
   0.50042887  0.24983950  0.56110226
   0.08333333  0.08333333  0.38179910
Direct configuration=     9
   0.33333333  0.83333333  0.38179910
   0.41597093  0.41218517  0.46986444
   0.48272569  0.50514007  0.55904019
   0.92112729  0.16022336  0.47571127
   0.02059775  0.03460447  0.63404320
   0.83333333  0.83333333  0.38179910
   0.73832010  0.51132815  0.55965300
   0.66876257  0.66778959  0.47164537
   0.01401918  0.26508280  0.59883448
   0.76691016  0.70952525  0.59993938
   0.08333333  0.58333333  0.38179910
   0.00435013  0.50434745  0.56263105
   0.74931361  0.25559204  0.56744265
   0.08333333  0.83333333  0.38179910
   0.16808472  0.90741638  0.49240781
   0.02512559  0.75307439  0.56358651
   0.75204041  0.99697173  0.56247611
   0.33333333  0.08333333  0.38179910
   0.16574941  0.16280787  0.48141185
   0.83333333  0.08333333  0.38179910
   0.49885840  0.00083581  0.56013474
   0.47610276  0.75519151  0.55831409
   0.16814580  0.41335967  0.47271972
   0.66777696  0.41196577  0.47162936
   0.35287358  0.30680718  0.61488508
   0.36779110  0.56132251  0.62962510
   0.09879554  0.81037418  0.63180678
   0.84200625  0.83893867  0.61740650
   0.82107371  0.09831236  0.62437443
   0.55381752  0.84126561  0.61711482
   0.81264824  0.38217558  0.62445993
   0.22899529  0.96082746  0.64715935
   0.41309583  0.66717327  0.47033848
   0.58333333  0.58333333  0.38179910
   0.33333333  0.58333333  0.38179910
   0.58333333  0.33333333  0.38179910
   0.41960186  0.16083856  0.47208329
   0.58333333  0.08333333  0.38179910
   0.17179444  0.66245830  0.47683375
   0.30156543  0.75839163  0.63420185
   0.25282414  0.25241545  0.56526143
   0.33333333  0.33333333  0.38179910
   0.58333333  0.83333333  0.38179910
   0.41381385  0.91653149  0.47067617
   0.24378465  0.01394547  0.57347451
   0.66971364  0.16066167  0.47607587
   0.92061586  0.91235283  0.47309988
   0.83333333  0.33333333  0.38179910
   0.91841315  0.66901572  0.47565726
   0.83333333  0.58333333  0.38179910
   0.91885401  0.41436311  0.47107996
   0.08333333  0.33333333  0.38179910
   0.67005304  0.91430963  0.47229999
   0.23765713  0.50561045  0.59501881
   0.50051214  0.24919421  0.56105575
   0.08333333  0.08333333  0.38179910
Direct configuration=    10
   0.33333333  0.83333333  0.38179910
   0.41630466  0.41207509  0.46989750
   0.48255509  0.50502771  0.55927068
   0.92118069  0.16038770  0.47583472
   0.02089416  0.03423542  0.63419927
   0.83333333  0.83333333  0.38179910
   0.73802522  0.51182525  0.55972662
   0.66860872  0.66820384  0.47165065
   0.01472485  0.26470930  0.59923612
   0.76690466  0.70960393  0.60023373
   0.08333333  0.58333333  0.38179910
   0.00456451  0.50380290  0.56266587
   0.74932897  0.25574121  0.56712384
   0.08333333  0.83333333  0.38179910
   0.16794037  0.90723831  0.49219213
   0.02579961  0.75288708  0.56349256
   0.75212525  0.99723075  0.56253068
   0.33333333  0.08333333  0.38179910
   0.16580995  0.16299082  0.48110688
   0.83333333  0.08333333  0.38179910
   0.49925248  0.00051324  0.56026288
   0.47589719  0.75549819  0.55839684
   0.16825035  0.41340709  0.47280180
   0.66788373  0.41211054  0.47163162
   0.35284828  0.30674729  0.61483988
   0.36762261  0.56129118  0.62985340
   0.09889476  0.80973065  0.63214932
   0.84229598  0.83885130  0.61747237
   0.82085020  0.09899937  0.62437969
   0.55387446  0.84105037  0.61714817
   0.81178724  0.38216101  0.62439138
   0.22918316  0.96086420  0.64683492
   0.41308711  0.66712154  0.47039520
   0.58333333  0.58333333  0.38179910
   0.33333333  0.58333333  0.38179910
   0.58333333  0.33333333  0.38179910
   0.41980388  0.16074985  0.47211261
   0.58333333  0.08333333  0.38179910
   0.17151293  0.66266148  0.47673331
   0.30118332  0.75882819  0.63420363
   0.25246361  0.25243418  0.56519916
   0.33333333  0.33333333  0.38179910
   0.58333333  0.83333333  0.38179910
   0.41376004  0.91652409  0.47073034
   0.24315684  0.01396759  0.57345511
   0.66986897  0.16084726  0.47606209
   0.92051857  0.91240087  0.47311501
   0.83333333  0.33333333  0.38179910
   0.91855198  0.66905926  0.47577111
   0.83333333  0.58333333  0.38179910
   0.91903077  0.41458335  0.47112608
   0.08333333  0.33333333  0.38179910
   0.67000375  0.91442626  0.47230528
   0.23755415  0.50558913  0.59515391
   0.50069783  0.24905627  0.56100117
   0.08333333  0.08333333  0.38179910
Direct configuration=    11
   0.33333333  0.83333333  0.38179910
   0.41694586  0.41186361  0.46996102
   0.48222731  0.50481181  0.55971354
   0.92128329  0.16070346  0.47607189
   0.02146366  0.03352637  0.63449914
   0.83333333  0.83333333  0.38179910
   0.73745865  0.51278034  0.55986807
   0.66831312  0.66899975  0.47166080
   0.01608066  0.26399169  0.60000780
   0.76689409  0.70975511  0.60079927
   0.08333333  0.58333333  0.38179910
   0.00497642  0.50275664  0.56273276
   0.74935848  0.25602782  0.56651131
   0.08333333  0.83333333  0.38179910
   0.16766303  0.90689616  0.49177775
   0.02709462  0.75252718  0.56331206
   0.75228827  0.99772840  0.56263553
   0.33333333  0.08333333  0.38179910
   0.16592626  0.16334232  0.48052094
   0.83333333  0.08333333  0.38179910
   0.50000965 -0.00010652  0.56050909
   0.47550224  0.75608741  0.55855583
   0.16845123  0.41349819  0.47295950
   0.66808886  0.41238870  0.47163596
   0.35279967  0.30663224  0.61475303
   0.36729889  0.56123097  0.63029204
   0.09908540  0.80849420  0.63280744
   0.84285265  0.83868343  0.61759892
   0.82042076  0.10031935  0.62438979
   0.55398384  0.84063684  0.61721226
   0.81013299  0.38213302  0.62425966
   0.22954412  0.96093479  0.64621160
   0.41307037  0.66702216  0.47050417
   0.58333333  0.58333333  0.38179910
   0.33333333  0.58333333  0.38179910
   0.58333333  0.33333333  0.38179910
   0.42019202  0.16057942  0.47216893
   0.58333333  0.08333333  0.38179910
   0.17097207  0.66305188  0.47654035
   0.30044917  0.75966696  0.63420706
   0.25177092  0.25247019  0.56507951
   0.33333333  0.33333333  0.38179910
   0.58333333  0.83333333  0.38179910
   0.41365667  0.91650988  0.47083443
   0.24195061  0.01401008  0.57341782
   0.67016741  0.16120385  0.47603562
   0.92033164  0.91249317  0.47314408
   0.83333333  0.33333333  0.38179910
   0.91881870  0.66914292  0.47598984
   0.83333333  0.58333333  0.38179910
   0.91937039  0.41500650  0.47121470
   0.08333333  0.33333333  0.38179910
   0.66990903  0.91465035  0.47231544
   0.23735631  0.50554815  0.59541349
   0.50105459  0.24879124  0.56089631
   0.08333333  0.08333333  0.38179910
Direct configuration=    12
   0.33333333  0.83333333  0.38179910
   0.41714606  0.41190265  0.47001611
   0.48178498  0.50481068  0.56007861
   0.92152961  0.16078895  0.47613107
   0.02135929  0.03320917  0.63457947
   0.83333333  0.83333333  0.38179910
   0.73728424  0.51327270  0.56003102
   0.66820655  0.66941113  0.47167518
   0.01605434  0.26410250  0.60060086
   0.76724540  0.70978287  0.60116713
   0.08333333  0.58333333  0.38179910
   0.00497545  0.50265766  0.56286150
   0.74955844  0.25631105  0.56625283
   0.08333333  0.83333333  0.38179910
   0.16750198  0.90698272  0.49147723
   0.02786978  0.75218937  0.56319958
   0.75261833  0.99774146  0.56275917
   0.33333333  0.08333333  0.38179910
   0.16610670  0.16332064  0.48017023
   0.83333333  0.08333333  0.38179910
   0.50011818 -0.00010445  0.56059724
   0.47525778  0.75617841  0.55857511
   0.16869751  0.41356963  0.47302482
   0.66822455  0.41262350  0.47159068
   0.35274510  0.30644051  0.61460203
   0.36703750  0.56164720  0.63050840
   0.09883250  0.80812395  0.63325514
   0.84322260  0.83853512  0.61763095
   0.82066859  0.10093595  0.62444821
   0.55415325  0.84026568  0.61737403
   0.80947214  0.38180566  0.62403744
   0.22930676  0.96132261  0.64593297
   0.41308287  0.66706372  0.47060032
   0.58333333  0.58333333  0.38179910
   0.33333333  0.58333333  0.38179910
   0.58333333  0.33333333  0.38179910
   0.42036331  0.16042687  0.47220315
   0.58333333  0.08333333  0.38179910
   0.17088326  0.66310204  0.47640927
   0.30077997  0.75871724  0.63421686
   0.25184934  0.25218122  0.56501832
   0.33333333  0.33333333  0.38179910
   0.58333333  0.83333333  0.38179910
   0.41358543  0.91661108  0.47089998
   0.24119016  0.01426555  0.57322825
   0.67039210  0.16129148  0.47600538
   0.92017836  0.91263505  0.47317949
   0.83333333  0.33333333  0.38179910
   0.91890856  0.66921917  0.47618104
   0.83333333  0.58333333  0.38179910
   0.91937035  0.41536294  0.47123781
   0.08333333  0.33333333  0.38179910
   0.66994021  0.91481323  0.47237349
   0.23711192  0.50536642  0.59562717
   0.50091883  0.24891121  0.56088962
   0.08333333  0.08333333  0.38179910
Direct configuration=    13
   0.33333333  0.83333333  0.38179910
   0.41735118  0.41194266  0.47007255
   0.48133174  0.50480953  0.56045268
   0.92178200  0.16087656  0.47619172
   0.02125235  0.03288415  0.63466179
   0.83333333  0.83333333  0.38179910
   0.73710554  0.51377718  0.56019797
   0.66809734  0.66983265  0.47168991
   0.01602737  0.26421605  0.60120853
   0.76760535  0.70981131  0.60154405
   0.08333333  0.58333333  0.38179910
   0.00497445  0.50255624  0.56299342
   0.74976333  0.25660127  0.56598798
   0.08333333  0.83333333  0.38179910
   0.16733695  0.90707140  0.49116930
   0.02866403  0.75184325  0.56308433
   0.75295652  0.99775484  0.56288586
   0.33333333  0.08333333  0.38179910
   0.16629159  0.16329843  0.47981088
   0.83333333  0.08333333  0.38179910
   0.50022940 -0.00010233  0.56068756
   0.47500730  0.75627166  0.55859487
   0.16894986  0.41364283  0.47309176
   0.66836358  0.41286409  0.47154430
   0.35268919  0.30624407  0.61444732
   0.36676966  0.56207369  0.63073008
   0.09857336  0.80774458  0.63371388
   0.84360166  0.83838315  0.61766377
   0.82092252  0.10156774  0.62450807
   0.55432683  0.83988539  0.61753979
   0.80879502  0.38147022  0.62380975
   0.22906354  0.96171999  0.64564747
   0.41309569  0.66710630  0.47069884
   0.58333333  0.58333333  0.38179910
   0.33333333  0.58333333  0.38179910
   0.58333333  0.33333333  0.38179910
   0.42053883  0.16027057  0.47223822
   0.58333333  0.08333333  0.38179910
   0.17079227  0.66315344  0.47627496
   0.30111891  0.75774413  0.63422690
   0.25192969  0.25188513  0.56495562
   0.33333333  0.33333333  0.38179910
   0.58333333  0.83333333  0.38179910
   0.41351245  0.91671476  0.47096715
   0.24041098  0.01452731  0.57303400
   0.67062232  0.16138127  0.47597440
   0.92002130  0.91278043  0.47321576
   0.83333333  0.33333333  0.38179910
   0.91900064  0.66929730  0.47637696
   0.83333333  0.58333333  0.38179910
   0.91937032  0.41572817  0.47126149
   0.08333333  0.33333333  0.38179910
   0.66997215  0.91498011  0.47243296
   0.23686152  0.50518022  0.59584611
   0.50077973  0.24903414  0.56088278
   0.08333333  0.08333333  0.38179910
Direct configuration=    14
   0.33333333  0.83333333  0.38179910
   0.41740192  0.41215169  0.47015046
   0.48096343  0.50493028  0.56071267
   0.92209406  0.16094759  0.47613201
   0.02149337  0.03244381  0.63462945
   0.83333333  0.83333333  0.38179910
   0.73692296  0.51444311  0.56028960
   0.66813432  0.66999593  0.47175052
   0.01544417  0.26476448  0.60183905
   0.76806625  0.70968563  0.60191815
   0.08333333  0.58333333  0.38179910
   0.00474129  0.50284298  0.56322383
   0.75003096  0.25677649  0.56587355
   0.08333333  0.83333333  0.38179910
   0.16726107  0.90743487  0.49082267
   0.02923628  0.75165164  0.56307579
   0.75345357  0.99762776  0.56306227
   0.33333333  0.08333333  0.38179910
   0.16652033  0.16321191  0.47951274
   0.83333333  0.08333333  0.38179910
   0.50006705 -0.00002923  0.56077819
   0.47474855  0.75622601  0.55858686
   0.16922260  0.41369681  0.47313275
   0.66844361  0.41324985  0.47151339
   0.35271307  0.30577950  0.61434391
   0.36681424  0.56132874  0.63098842
   0.09826160  0.80772405  0.63414076
   0.84410861  0.83834334  0.61767348
   0.82096485  0.10214403  0.62456440
   0.55460851  0.83946085  0.61774023
   0.80842062  0.38082468  0.62358812
   0.22881021  0.96129084  0.64549994
   0.41317726  0.66713362  0.47083618
   0.58333333  0.58333333  0.38179910
   0.33333333  0.58333333  0.38179910
   0.58333333  0.33333333  0.38179910
   0.42066533  0.16020485  0.47224517
   0.58333333  0.08333333  0.38179910
   0.17111763  0.66297027  0.47608915
   0.30083949  0.75818054  0.63429495
   0.25215368  0.25130628  0.56487479
   0.33333333  0.33333333  0.38179910
   0.58333333  0.83333333  0.38179910
   0.41350305  0.91686033  0.47102585
   0.23978470  0.01494529  0.57262176