 vasp.5.4.1 24Jun15 (build Mar 14 2019 10:18:33) complex                        
  
 executed on INTEL-19.0.2+OPENMPI date 2022.07.15  15:33:07
 running on   36 total cores
 distrk:  each k-point on   36 cores,    1 groups
 distr:  one band on NCORES_PER_BAND=   6 cores,    6 groups


--------------------------------------------------------------------------------------------------------


 INCAR:
 POTCAR:    PAW_PBE Au 04Oct2007                  
 POTCAR:    PAW_PBE Pd 04Jan2005                  
 POTCAR:    PAW_PBE Au 04Oct2007                  
  local pseudopotential read in
  partial core-charges read in
  partial kinetic energy density read in
  atomic valenz-charges read in
  non local Contribution for L=           2  read in
    real space projection operators read in
  non local Contribution for L=           2  read in
    real space projection operators read in
  non local Contribution for L=           0  read in
    real space projection operators read in
  non local Contribution for L=           0  read in
    real space projection operators read in
  non local Contribution for L=           1  read in
    real space projection operators read in
  non local Contribution for L=           1  read in
    real space projection operators read in
    PAW grid and wavefunctions read in
 
   number of l-projection  operators is LMAX  =           6
   number of lm-projection operators is LMMAX =          18
 
 POTCAR:    PAW_PBE Pd 04Jan2005                  
  local pseudopotential read in
  partial core-charges read in
  partial kinetic energy density read in
  atomic valenz-charges read in
  non local Contribution for L=           2  read in
    real space projection operators read in
  non local Contribution for L=           2  read in
    real space projection operators read in
  non local Contribution for L=           0  read in
    real space projection operators read in
  non local Contribution for L=           0  read in
    real space projection operators read in
  non local Contribution for L=           1  read in
    real space projection operators read in
  non local Contribution for L=           1  read in
    real space projection operators read in
    PAW grid and wavefunctions read in
 
   number of l-projection  operators is LMAX  =           6
   number of lm-projection operators is LMMAX =          18
 
 Optimization of the real space projectors (new method)

 maximal supplied QI-value         = 15.12
 optimisation between [QCUT,QGAM] = [ 10.13, 20.41] = [ 28.73,116.64] Ry 
 Optimized for a Real-space Cutoff    1.51 Angstroem

   l    n(q)    QCUT    max X(q) W(low)/X(q) W(high)/X(q)  e(spline) 
   2      8    10.129    60.898    0.46E-03    0.46E-03    0.14E-06
   2      8    10.129    58.894    0.47E-03    0.47E-03    0.14E-06
   0      9    10.129   109.617    0.16E-03    0.11E-03    0.54E-07
   0      9    10.129    75.026    0.15E-03    0.11E-03    0.52E-07
   1      9    10.129    16.344    0.96E-04    0.15E-03    0.14E-06
   1      9    10.129    10.160    0.81E-04    0.12E-03    0.11E-06
 Optimization of the real space projectors (new method)

 maximal supplied QI-value         = 14.36
 optimisation between [QCUT,QGAM] = [ 10.20, 20.39] = [ 29.12,116.47] Ry 
 Optimized for a Real-space Cutoff    1.51 Angstroem

   l    n(q)    QCUT    max X(q) W(low)/X(q) W(high)/X(q)  e(spline) 
   2      8    10.197    59.108    0.26E-03    0.14E-03    0.96E-07
   2      8    10.197    58.101    0.27E-03    0.14E-03    0.98E-07
   0      9    10.197   102.235    0.54E-04    0.60E-05    0.72E-07
   0      9    10.197    58.388    0.52E-04    0.60E-05    0.68E-07
   1      9    10.197    22.191    0.18E-03    0.25E-03    0.79E-07
   1      9    10.197    15.590    0.15E-03    0.21E-03    0.69E-07
  PAW_PBE Au 04Oct2007                  :
 energy of atom  1       EATOM= -926.0867
 kinetic energy error for atom=    0.0062 (will be added to EATOM!!)
  PAW_PBE Pd 04Jan2005                  :
 energy of atom  2       EATOM= -809.7530
 kinetic energy error for atom=    0.0091 (will be added to EATOM!!)
 
 
 POSCAR: Au Pd                                   
  positions in cartesian coordinates
  No initial velocities read in
 exchange correlation table for  LEXCH =        8
   RHO(1)=    0.500       N(1)  =     2000
   RHO(2)=  100.500       N(2)  =     4000

 VTST: version 3.2, (02/03/18)

 CHAIN: initializing optimizer
 
 OPT: Using VASP Conjugate-Gradient optimizer
 CHAIN: Read ICHAIN            0
 
 POSCAR: Au Pd                                   
  positions in cartesian coordinates
  No initial velocities read in
 


--------------------------------------------------------------------------------------------------------


 ion  position               nearest neighbor table
   1  0.083  0.083  0.408-  42 2.75  28 2.75   7 2.75  44 2.75  46 2.75  18 2.75  25 2.75   6 2.75
                            15 2.75
   2  0.500  0.500  0.592-  20 2.75  31 2.75  26 2.75  12 2.75  33 2.75  47 2.75  37 2.75  17 2.75
                             3 2.75
   3  0.417  0.417  0.500-  13 2.75  47 2.75  37 2.75  20 2.75   8 2.75  38 2.75   5 2.75  40 2.75
                            31 2.75  39 2.75  34 2.75   2 2.75
   4  0.500  0.000  0.592-   5 2.75  36 2.75  26 2.75  10 2.75  47 2.75  48 2.75   9 2.75  41 2.75
                            27 2.75
   5  0.417  0.167  0.500-  18 2.75   4 2.75  10 2.75   3 2.75  27 2.75  36 2.75  40 2.75   8 2.75
                            42 2.75  13 2.75  35 2.75  47 2.75
   6  0.167  0.917  0.500-  44 2.75  33 2.75  16 2.75  15 2.75  38 2.75  42 2.75  20 2.75  23 2.75
                            27 2.75   1 2.75   7 2.75  41 2.75
   7  0.333  0.833  0.408-  27 2.75  11 2.75  18 2.75   1 2.75  39 2.75  30 2.75  44 2.75  20 2.75
                             6 2.75
   8  0.667  0.167  0.500-  35 2.75   9 2.75  47 2.75  31 2.75   3 2.75  36 2.75  23 2.75  15 2.75
                             5 2.75  34 2.75  25 2.75  12 2.75
   9  0.750  0.000  0.592-   8 2.75  23 2.75  12 2.75  43 2.75  47 2.75  48 2.75   4 2.75  16 2.75
                            36 2.75
  10  0.250  0.250  0.592-  40 2.75   5 2.75  21 2.75  37 2.75   4 2.75  41 2.75  14 2.75  47 2.75
                            42 2.75
  11  0.583  0.583  0.408-  22 2.75   7 2.75  28 2.75  30 2.75  34 2.75  32 2.75  39 2.75  31 2.75
                            20 2.75
  12  0.750  0.250  0.592-  31 2.75  15 2.75   2 2.75  16 2.75  17 2.75   9 2.75  14 2.75  47 2.75
                             8 2.75
  13  0.333  0.333  0.408-   3 2.75  18 2.75  19 2.75  35 2.75  39 2.75  34 2.75  46 2.75   5 2.75
                            40 2.75
  14  0.000  0.250  0.592-  45 2.75  42 2.75  21 2.75  41 2.75  16 2.75  17 2.75  10 2.75  12 2.75
                            15 2.75
  15  0.917  0.167  0.500-  25 2.75  16 2.75  12 2.75  23 2.75   6 2.75  31 2.75  45 2.75  42 2.75
                             8 2.75  28 2.75  14 2.75   1 2.75
  16  0.000  0.000  0.592-  15 2.75   6 2.75  14 2.75  12 2.75  33 2.75  43 2.75  41 2.75   9 2.75
                            23 2.75
  17  0.750  0.500  0.592-  22 2.75  45 2.75  12 2.75  26 2.75  14 2.75  48 2.75   2 2.75  21 2.75
                            31 2.75
  18  0.333  0.083  0.408-   5 2.75   7 2.75  13 2.75  30 2.75  46 2.75  35 2.75   1 2.75  27 2.75
                            42 2.75
  19  0.083  0.583  0.408-  38 2.75  29 2.75  13 2.75  44 2.75  46 2.75  32 2.75  39 2.75  40 2.75
                            24 2.75
  20  0.417  0.667  0.500-  39 2.75   2 2.75  33 2.75  27 2.75  31 2.75   3 2.75   6 2.75  38 2.75
                            22 2.75   7 2.75  26 2.75  11 2.75
  21  0.000  0.500  0.592-  24 2.75  40 2.75  10 2.75  14 2.75  43 2.75  48 2.75  37 2.75  17 2.75
                            45 2.75
  22  0.667  0.667  0.500-  11 2.75  17 2.75  26 2.75  27 2.75  31 2.75  36 2.75  45 2.75  24 2.75
                            20 2.75  30 2.75  32 2.75  48 2.75
  23  0.917  0.917  0.500-  29 2.75  43 2.75   9 2.75  24 2.75   8 2.75  38 2.75  15 2.75   6 2.75
                            36 2.75  25 2.75  16 2.75  44 2.75
  24  0.917  0.667  0.500-  32 2.75  21 2.75  48 2.75  36 2.75  40 2.75  45 2.75  23 2.75  38 2.75
                            22 2.75  29 2.75  19 2.75  43 2.75
  25  0.833  0.083  0.408-  15 2.75  28 2.75  29 2.75  34 2.75  44 2.75  35 2.75   1 2.75  23 2.75
                             8 2.75
  26  0.500  0.750  0.592-  27 2.75  22 2.75  17 2.75   2 2.75   4 2.75  41 2.75  33 2.75  48 2.75
                            20 2.75
  27  0.417  0.917  0.500-   7 2.75  26 2.75  41 2.75  22 2.75   5 2.75  20 2.75  42 2.75   6 2.75
                            36 2.75  18 2.75  30 2.75   4 2.75
  28  0.833  0.333  0.408-  45 2.75  11 2.75  25 2.75  32 2.75   1 2.75  34 2.75  46 2.75  15 2.75
                            31 2.75
  29  0.833  0.833  0.408-  23 2.75  19 2.75  25 2.75  32 2.75  35 2.75  30 2.75  44 2.75  24 2.75
                            36 2.75
  30  0.583  0.833  0.408-  36 2.75  18 2.75  32 2.75  35 2.75  11 2.75  29 2.75   7 2.75  22 2.75
                            27 2.75
  31  0.667  0.417  0.500-  34 2.75  12 2.75   2 2.75  15 2.75  20 2.75  22 2.75   8 2.75   3 2.75
                            45 2.75  11 2.75  17 2.75  28 2.75
  32  0.833  0.583  0.408-  24 2.75  28 2.75  29 2.75  30 2.75  46 2.75  19 2.75  11 2.75  45 2.75
                            22 2.75
  33  0.250  0.750  0.592-   6 2.75  20 2.75  16 2.75   2 2.75  37 2.75  41 2.75  26 2.75  43 2.75
                            38 2.75
  34  0.583  0.333  0.408-  31 2.75  25 2.75  11 2.75  35 2.75  39 2.75  28 2.75  13 2.75   8 2.75
                             3 2.75
  35  0.583  0.083  0.408-   8 2.75  13 2.75  29 2.75  30 2.75  34 2.75  25 2.75  18 2.75  36 2.75
                             5 2.75
  36  0.667  0.917  0.500-  30 2.75  48 2.75   4 2.75  22 2.75  24 2.75   5 2.75   8 2.75  23 2.75
                            27 2.75  35 2.75  29 2.75   9 2.75
  37  0.250  0.500  0.592-  38 2.75   3 2.75  33 2.75  10 2.75  43 2.75  47 2.75   2 2.75  21 2.75
                            40 2.75
  38  0.167  0.667  0.500-  19 2.75  37 2.75  43 2.75  23 2.75   6 2.75  40 2.75   3 2.75  24 2.75
                            20 2.75  44 2.75  39 2.75  33 2.75
  39  0.333  0.583  0.408-  20 2.75  13 2.75   7 2.75  34 2.75  44 2.75  19 2.75  11 2.75   3 2.75
                            38 2.75
  40  0.167  0.417  0.500-  46 2.75  10 2.75  21 2.75  24 2.75  38 2.75  42 2.75   5 2.75  45 2.75
                             3 2.75  19 2.75  13 2.75  37 2.75
  41  0.250  0.000  0.592-  42 2.75  27 2.75  26 2.75  10 2.75  33 2.75  14 2.75   4 2.75  16 2.75
                             6 2.75
  42  0.167  0.167  0.500-   1 2.75  41 2.75  14 2.75  27 2.75  40 2.75   6 2.75  45 2.75   5 2.75
                            15 2.75  46 2.75  18 2.75  10 2.75
  43  0.000  0.750  0.592-  23 2.75  38 2.75  21 2.75   9 2.75  37 2.75  16 2.75  33 2.75  48 2.75
                            24 2.75
  44  0.083  0.833  0.408-   6 2.75   1 2.75  19 2.75  25 2.75  39 2.75  29 2.75   7 2.75  38 2.75
                            23 2.75
  45  0.917  0.417  0.500-  28 2.75  14 2.75  17 2.75  22 2.75  24 2.75  15 2.75  42 2.75  40 2.75
                            31 2.75  32 2.75  21 2.75  46 2.75
  46  0.083  0.333  0.408-  40 2.75  18 2.75  19 2.75  32 2.75   1 2.75  13 2.75  28 2.75  42 2.75
                            45 2.75
  47  0.500  0.250  0.592-   3 2.75   8 2.75   4 2.75   2 2.75   9 2.75  37 2.75  12 2.75  10 2.75
                             5 2.75
  48  0.750  0.750  0.592-  36 2.75  24 2.75  17 2.75  21 2.75   4 2.75   9 2.75  26 2.75  43 2.75
                            22 2.75
 
  LATTYP: Found a hexagonal cell.
 ALAT       =    11.0025815153
 C/A-ratio  =     2.2260035120
  
  Lattice vectors:
  
 A1 = (   5.5012907576,  -9.5285150994,   0.0000000000)
 A2 = ( -11.0025815153,   0.0000000000,   0.0000000000)
 A3 = (   0.0000000000,   0.0000000000, -24.4917850943)


Analysis of symmetry for initial positions (statically):
=====================================================================
 Subroutine PRICEL returns:
 Original cell was already a primitive cell.
 

 Routine SETGRP: Setting up the symmetry group for a 
 hexagonal supercell.


 Subroutine GETGRP returns: Found  1 space group operations
 (whereof  1 operations were pure point group operations)
 out of a pool of 24 trial point group operations.


The static configuration has the point symmetry C_1 .


Analysis of symmetry for dynamics (positions and initial velocities):
=====================================================================
 Subroutine PRICEL returns:
 Original cell was already a primitive cell.
 

 Routine SETGRP: Setting up the symmetry group for a 
 hexagonal supercell.


 Subroutine GETGRP returns: Found  1 space group operations
 (whereof  1 operations were pure point group operations)
 out of a pool of 24 trial point group operations.


The dynamic configuration has the point symmetry C_1 .
 
 
 KPOINTS: Automatic mesh                          

Automatic generation of k-mesh.
Space group operators:
 irot       det(A)        alpha          n_x          n_y          n_z        tau_x        tau_y        tau_z
    1     1.000000     0.000000     1.000000     0.000000     0.000000     0.000000     0.000000     0.000000
 
 Subroutine IBZKPT returns following result:
 ===========================================
 
 Found      6 irreducible k-points:
 
 Following reciprocal coordinates:
            Coordinates               Weight
  0.250000  0.250000  0.000000     16.000000
  0.000000  0.250000  0.000000     16.000000
 -0.250000  0.000000  0.000000     16.000000
 -0.250000  0.250000  0.000000     16.000000
  0.500000 -0.250000  0.000000     16.000000
 -0.250000  0.500000  0.000000     16.000000
 
 Following cartesian coordinates:
            Coordinates               Weight
  0.022722  0.013119  0.000000     16.000000
  0.000000  0.026237  0.000000     16.000000
 -0.022722  0.013119  0.000000     16.000000
 -0.022722  0.039356  0.000000     16.000000
  0.045444 -0.052474  0.000000     16.000000
 -0.022722  0.065593  0.000000     16.000000
 


--------------------------------------------------------------------------------------------------------




 Dimension of arrays:
   k-points           NKPTS =      6   k-points in BZ     NKDIM =      6   number of bands    NBANDS=    306
   number of dos      NEDOS =    301   number of ions     NIONS =     48
   non local maximal  LDIM  =      6   non local SUM 2l+1 LMDIM =     18
   total plane-waves  NPLWV = 349920
   max r-space proj   IRMAX =   2009   max aug-charges    IRDMAX=   8532
   dimension x,y,z NGX =    54 NGY =   54 NGZ =  120
   dimension x,y,z NGXF=   108 NGYF=  108 NGZF=  240
   support grid    NGXF=   108 NGYF=  108 NGZF=  240
   ions per type =              24  24
 NGX,Y,Z   is equivalent  to a cutoff of   8.16,  8.16,  8.15 a.u.
 NGXF,Y,Z  is equivalent  to a cutoff of  16.32, 16.32, 16.29 a.u.


 I would recommend the setting:
   dimension x,y,z NGX =    54 NGY =   54 NGZ =  120
 SYSTEM =  unknown system                          
 POSCAR =  Au Pd                                   

 Startparameter for this run:
   NWRITE =      1    write-flag & timer
   PREC   = normal    normal or accurate (medium, high low for compatibility)
   ISTART =      0    job   : 0-new  1-cont  2-samecut
   ICHARG =      2    charge: 1-file 2-atom 10-const
   ISPIN  =      1    spin polarized calculation?
   LNONCOLLINEAR =      F non collinear calculations
   LSORBIT =      F    spin-orbit coupling
   INIWAV =      1    electr: 0-lowe 1-rand  2-diag
   LASPH  =      F    aspherical Exc in radial PAW
   METAGGA=      F    non-selfconsistent MetaGGA calc.

 Electronic Relaxation 1
   ENCUT  =  400.0 eV  29.40 Ry    5.42 a.u.  17.94 17.94 39.94*2*pi/ulx,y,z
   ENINI  =  400.0     initial cutoff
   ENAUG  =  416.2 eV  augmentation charge cutoff
   NELM   =    500;   NELMIN=  2; NELMDL= -5     # of ELM steps 
   EDIFF  = 0.1E-05   stopping-criterion for ELM
   LREAL  =      T    real-space projection
   NLSPLINE    = F    spline interpolate recip. space projectors
   LCOMPAT=      F    compatible to vasp.4.4
   GGA_COMPAT  = T    GGA compatible to vasp.4.4-vasp.4.6
   LMAXPAW     = -100 max onsite density
   LMAXMIX     =    2 max onsite mixed and CHGCAR
   VOSKOWN=      1    Vosko Wilk Nusair interpolation
   ROPT   =   -0.00050  -0.00050
 Ionic relaxation
   EDIFFG = -.2E-01   stopping-criterion for IOM
   NSW    =    500    number of steps for IOM
   NBLOCK =      1;   KBLOCK =    500    inner block; outer block 
   IBRION =      2    ionic relax: 0-MD 1-quasi-New 2-CG
   NFREE  =      2    steps in history (QN), initial steepest desc. (CG)
   ISIF   =      0    stress and relaxation
   IWAVPR =     11    prediction:  0-non 1-charg 2-wave 3-comb
   ISYM   =      2    0-nonsym 1-usesym 2-fastsym
   LCORR  =      T    Harris-Foulkes like correction to forces

   POTIM  = 0.3500    time-step for ionic-motion
   TEIN   =    0.0    initial temperature
   TEBEG  =    0.0;   TEEND  =   0.0 temperature during run
   SMASS  =  -3.00    Nose mass-parameter (am)
   estimated Nose-frequenzy (Omega)   =  0.10E-29 period in steps =****** mass=  -0.277E-26a.u.
   SCALEE = 1.0000    scale energy and forces
   NPACO  =    256;   APACO  = 16.0  distance and # of slots for P.C.
   PSTRESS=    0.0 pullay stress

  Mass of Ions in am
   POMASS = 196.97106.42
  Ionic Valenz
   ZVAL   =  11.00 10.00
  Atomic Wigner-Seitz radii
   RWIGS  =  -1.00 -1.00
  virtual crystal weights 
   VCA    =   1.00  1.00
   NELECT =     504.0000    total number of electrons
   NUPDOWN=      -1.0000    fix difference up-down

 DOS related values:
   EMIN   =  10.00;   EMAX   =-10.00  energy-range for DOS
   EFERMI =   0.00
   ISMEAR =     0;   SIGMA  =   0.10  broadening in eV -4-tet -1-fermi 0-gaus

 Electronic relaxation 2 (details)
   IALGO  =     68    algorithm
   LDIAG  =      T    sub-space diagonalisation (order eigenvalues)
   LSUBROT=      F    optimize rotation matrix (better conditioning)
   TURBO    =      0    0=normal 1=particle mesh
   IRESTART =      0    0=no restart 2=restart with 2 vectors
   NREBOOT  =      0    no. of reboots
   NMIN     =      0    reboot dimension
   EREF     =   0.00    reference energy to select bands
   IMIX   =      4    mixing-type and parameters
     AMIX     =   0.40;   BMIX     =  1.00
     AMIX_MAG =   1.60;   BMIX_MAG =  1.00
     AMIN     =   0.10
     WC   =   100.;   INIMIX=   1;  MIXPRE=   1;  MAXMIX= -45

 Intra band minimization:
   WEIMIN = 0.0010     energy-eigenvalue tresh-hold
   EBREAK =  0.82E-09  absolut break condition
   DEPER  =   0.30     relativ break condition  

   TIME   =   0.40     timestep for ELM

  volume/ion in A,a.u.               =      53.49       360.99
  Fermi-wavevector in a.u.,A,eV,Ry     =   0.951418  1.797920 12.315955  0.905197
  Thomas-Fermi vector in A             =   2.079887
 
 Write flags
   LWAVE  =      F    write WAVECAR
   LCHARG =      F    write CHGCAR
   LVTOT  =      F    write LOCPOT, total local potential
   LVHAR  =      F    write LOCPOT, Hartree potential only
   LELF   =      F    write electronic localiz. function (ELF)
   LORBIT =      0    0 simple, 1 ext, 2 COOP (PROOUT)


 Dipole corrections
   LMONO  =      F    monopole corrections only (constant potential shift)
   LDIPOL =      T    correct potential (dipole corrections)
   IDIPOL =      3    1-x, 2-y, 3-z, 4-all directions 
   EPSILON=  1.0000000 bulk dielectric constant

 Exchange correlation treatment:
   GGA     =    PE    GGA type
   LEXCH   =     8    internal setting for exchange type
   VOSKOWN=      1    Vosko Wilk Nusair interpolation
   LHFCALC =     F    Hartree Fock is set to
   LHFONE  =     F    Hartree Fock one center treatment
   AEXX    =    0.0000 exact exchange contribution

 Linear response parameters
   LEPSILON=     F    determine dielectric tensor
   LRPA    =     F    only Hartree local field effects (RPA)
   LNABLA  =     F    use nabla operator in PAW spheres
   LVEL    =     F    velocity operator in full k-point grid
   LINTERFAST=   F  fast interpolation
   KINTER  =     0    interpolate to denser k-point grid
   CSHIFT  =0.1000    complex shift for real part using Kramers Kronig
   OMEGAMAX=  -1.0    maximum frequency
   DEG_THRESHOLD= 0.2000000E-02 threshold for treating states as degnerate
   RTIME   =    0.100 relaxation time in fs

 Orbital magnetization related:
   ORBITALMAG=     F  switch on orbital magnetization
   LCHIMAG   =     F  perturbation theory with respect to B field
   DQ        =  0.001000  dq finite difference perturbation B field



--------------------------------------------------------------------------------------------------------


 conjugate gradient relaxation of ions
 charge density and potential will be updated during run
 non-spin polarized calculation
 RMM-DIIS sequential band-by-band and
  variant of blocked Davidson during initial phase
 perform sub-space diagonalisation
    before iterative eigenvector-optimisation
 modified Broyden-mixing scheme, WC =      100.0
 initial mixing is a Kerker type mixing with AMIX =  0.4000 and BMIX =      1.0000
 Hartree-type preconditioning will be used
 using additional bands           54
 real space projection scheme for non local part
 use partial core corrections
 calculate Harris-corrections to forces 
   (improved forces if not selfconsistent)
 use gradient corrections 
 use of overlap-Matrix (Vanderbilt PP)
 Gauss-broadening in eV      SIGMA  =   0.10


--------------------------------------------------------------------------------------------------------


  energy-cutoff  :      400.00
  volume of cell :     2567.68
      direct lattice vectors                 reciprocal lattice vectors
    11.002581515  0.000000000  0.000000000     0.090887761 -0.052474073  0.000000000
     5.501290758  9.528515099  0.000000000     0.000000000  0.104948147  0.000000000
     0.000000000  0.000000000 24.491785094     0.000000000  0.000000000  0.040830017

  length of vectors
    11.002581515 11.002581515 24.491785094     0.104948147  0.104948147  0.040830017


 
 k-points in units of 2pi/SCALE and weight: Automatic mesh                          
   0.02272194  0.01311852  0.00000000       0.167
   0.00000000  0.02623704  0.00000000       0.167
  -0.02272194  0.01311852  0.00000000       0.167
  -0.02272194  0.03935555  0.00000000       0.167
   0.04544388 -0.05247407  0.00000000       0.167
  -0.02272194  0.06559259  0.00000000       0.167
 
 k-points in reciprocal lattice and weights: Automatic mesh                          
   0.25000000  0.25000000  0.00000000       0.167
   0.00000000  0.25000000  0.00000000       0.167
  -0.25000000  0.00000000  0.00000000       0.167
  -0.25000000  0.25000000  0.00000000       0.167
   0.50000000 -0.25000000  0.00000000       0.167
  -0.25000000  0.50000000  0.00000000       0.167
 
 position of ions in fractional coordinates (direct lattice) 
   0.08333333  0.08333333  0.40830017
   0.50000000  0.50000000  0.59169983
   0.41666667  0.41666667  0.50000000
   0.50000000  0.00000000  0.59169983
   0.41666667  0.16666667  0.50000000
   0.16666667  0.91666667  0.50000000
   0.33333333  0.83333333  0.40830017
   0.66666667  0.16666667  0.50000000
   0.75000000  0.00000000  0.59169983
   0.25000000  0.25000000  0.59169983
   0.58333333  0.58333333  0.40830017
   0.75000000  0.25000000  0.59169983
   0.33333333  0.33333333  0.40830017
   0.00000000  0.25000000  0.59169983
   0.91666667  0.16666667  0.50000000
   0.00000000  0.00000000  0.59169983
   0.75000000  0.50000000  0.59169983
   0.33333333  0.08333333  0.40830017
   0.08333333  0.58333333  0.40830017
   0.41666667  0.66666667  0.50000000
   0.00000000  0.50000000  0.59169983
   0.66666667  0.66666667  0.50000000
   0.91666667  0.91666667  0.50000000
   0.91666667  0.66666667  0.50000000
   0.83333333  0.08333333  0.40830017
   0.50000000  0.75000000  0.59169983
   0.41666667  0.91666667  0.50000000
   0.83333333  0.33333333  0.40830017
   0.83333333  0.83333333  0.40830017
   0.58333333  0.83333333  0.40830017
   0.66666667  0.41666667  0.50000000
   0.83333333  0.58333333  0.40830017
   0.25000000  0.75000000  0.59169983
   0.58333333  0.33333333  0.40830017
   0.58333333  0.08333333  0.40830017
   0.66666667  0.91666667  0.50000000
   0.25000000  0.50000000  0.59169983
   0.16666667  0.66666667  0.50000000
   0.33333333  0.58333333  0.40830017
   0.16666667  0.41666667  0.50000000
   0.25000000  0.00000000  0.59169983
   0.16666667  0.16666667  0.50000000
   0.00000000  0.75000000  0.59169983
   0.08333333  0.83333333  0.40830017
   0.91666667  0.41666667  0.50000000
   0.08333333  0.33333333  0.40830017
   0.50000000  0.25000000  0.59169983
   0.75000000  0.75000000  0.59169983
 
 position of ions in cartesian coordinates  (Angst):
   1.37532269  0.79404292 10.00000000
   8.25193614  4.76425755 14.49178509
   6.87661345  3.97021462 12.24589255
   5.50129076  0.00000000 14.49178509
   5.50129076  1.58808585 12.24589255
   6.87661345  8.73447217 12.24589255
   8.25193614  7.94042925 10.00000000
   8.25193614  1.58808585 12.24589255
   8.25193614  0.00000000 14.49178509
   4.12596807  2.38212877 14.49178509
   9.62725883  5.55830047 10.00000000
   9.62725883  2.38212877 14.49178509
   5.50129076  3.17617170 10.00000000
   1.37532269  2.38212877 14.49178509
  11.00258152  1.58808585 12.24589255
   0.00000000  0.00000000 14.49178509
  11.00258152  4.76425755 14.49178509
   4.12596807  0.79404292 10.00000000
   4.12596807  5.55830047 10.00000000
   8.25193614  6.35234340 12.24589255
   2.75064538  4.76425755 14.49178509
  11.00258152  6.35234340 12.24589255
  15.12854958  8.73447217 12.24589255
  13.75322689  6.35234340 12.24589255
   9.62725883  0.79404292 10.00000000
   9.62725883  7.14638632 14.49178509
   9.62725883  8.73447217 12.24589255
  11.00258152  3.17617170 10.00000000
  13.75322689  7.94042925 10.00000000
  11.00258152  7.94042925 10.00000000
   9.62725883  3.97021462 12.24589255
  12.37790420  5.55830047 10.00000000
   6.87661345  7.14638632 14.49178509
   8.25193614  3.17617170 10.00000000
   6.87661345  0.79404292 10.00000000
  12.37790420  8.73447217 12.24589255
   5.50129076  4.76425755 14.49178509
   5.50129076  6.35234340 12.24589255
   6.87661345  5.55830047 10.00000000
   4.12596807  3.97021462 12.24589255
   2.75064538  0.00000000 14.49178509
   2.75064538  1.58808585 12.24589255
   4.12596807  7.14638632 14.49178509
   5.50129076  7.94042925 10.00000000
  12.37790420  3.97021462 12.24589255
   2.75064538  3.17617170 10.00000000
   6.87661345  2.38212877 14.49178509
  12.37790420  7.14638632 14.49178509
 


--------------------------------------------------------------------------------------------------------


 k-point  1 :   0.2500 0.2500 0.0000  plane waves:   46635
 k-point  2 :   0.0000 0.2500 0.0000  plane waves:   46635
 k-point  3 :  -0.2500 0.0000 0.0000  plane waves:   46635
 k-point  4 :  -0.2500 0.2500 0.0000  plane waves:   46644
 k-point  5 :   0.5000-0.2500 0.0000  plane waves:   46644
 k-point  6 :  -0.2500 0.5000 0.0000  plane waves:   46644

 maximum and minimum number of plane-waves per node :      7818     7732

 maximum number of plane-waves:     46644
 maximum index in each direction: 
   IXMAX=   18   IYMAX=   18   IZMAX=   39
   IXMIN=  -18   IYMIN=  -18   IZMIN=  -39

 WARNING: aliasing errors must be expected set NGX to  74 to avoid them
 WARNING: aliasing errors must be expected set NGY to  74 to avoid them
 WARNING: aliasing errors must be expected set NGZ to 158 to avoid them
 aliasing errors are usually negligible using standard VASP settings
 and one can safely disregard these warnings

 real space projection operators:
  total allocation   :      12803.06 KBytes
  max/ min on nodes  :       2145.66       2127.94


 parallel 3D FFT for wavefunctions:
    minimum data exchange during FFTs selected (reduces bandwidth)
 parallel 3D FFT for charge:
    minimum data exchange during FFTs selected (reduces bandwidth)


 total amount of memory used by VASP on root node    84353. kBytes
========================================================================

   base      :      30000. kBytes
   nonlr-proj:       4285. kBytes
   fftplans  :       4447. kBytes
   grid      :       6721. kBytes
   one-center:        124. kBytes
   wavefun   :      38776. kBytes
 
     INWAV:  cpu time    0.0000: real time    0.0000
 Broyden mixing: mesh for mixing (old mesh)
   NGX = 35   NGY = 35   NGZ = 79
  (NGX  =108   NGY  =108   NGZ  =240)
  gives a total of  96775 points

 initial charge density was supplied:
 charge density of overlapping atoms calculated
 number of electron     504.0000000 magnetization 
 keeping initial charge density in first step


--------------------------------------------------------------------------------------------------------


 Maximum index for non-local projection operator          355
 Maximum index for augmentation-charges          437 (set IRDMAX)


--------------------------------------------------------------------------------------------------------


 First call to EWALD:  gamma=   0.129
 Maximum number of real-space cells 4x 4x 2
 Maximum number of reciprocal cells 2x 2x 5

 FEWALD executed in parallel
    FEWALD:  cpu time    0.0022: real time    0.0022


----------------------------------------- Iteration    1(   1)  ---------------------------------------


    POTLOK:  cpu time    0.0470: real time    0.0474
    SETDIJ:  cpu time    0.0058: real time    0.0059
     EDDAV:  cpu time    6.8682: real time    6.8935
       DOS:  cpu time    0.0014: real time    0.0014
    --------------------------------------------
      LOOP:  cpu time    6.9252: real time    6.9545

 eigenvalue-minimisations  :  3672
 total energy-change (2. order) : 0.3200938E+04  (-0.1898118E+05)
 number of electron     504.0000000 magnetization 
 augmentation part      504.0000000 magnetization 

 DIPCOR: dipole corrections for dipol
 direction  3 min pos     1,
 dipolmoment           0.000000      0.000000     -0.000002 electrons x Angstroem
 Tr[quadrupol]    -10277.322112

 energy correction for charged system         0.000000 eV
 dipol+quadrupol energy correction           -0.000000 eV
 added-field ion interaction          0.000001 eV  (added to PSCEN)


 Free energy of the ion-electron system (eV)
  ---------------------------------------------------
  alpha Z        PSCENC =       805.86936534
  Ewald energy   TEWEN  =    200398.69533804
  -Hartree energ DENC   =   -242813.82864942
  -exchange      EXHF   =         0.00000000
  -V(xc)+E(xc)   XCENC  =      -327.56035710
  PAW double counting   =     40340.05962942   -38292.62782345
  entropy T*S    EENTRO =        -0.13902865
  eigenvalues    EBANDS =      1430.68341479
  atomic energy  EATOM  =     41659.78587232
  Solvation  Ediel_sol  =         0.00000000
  ---------------------------------------------------
  free energy    TOTEN  =      3200.93776130 eV

  energy without entropy =     3201.07678994  energy(sigma->0) =     3201.00727562


--------------------------------------------------------------------------------------------------------




----------------------------------------- Iteration    1(   2)  ---------------------------------------


     EDDAV:  cpu time    7.9828: real time    8.0029
       DOS:  cpu time    0.0015: real time    0.0015
    --------------------------------------------
      LOOP:  cpu time    7.9851: real time    8.0087

 eigenvalue-minimisations  :  4380
 total energy-change (2. order) :-0.3184760E+04  (-0.2934179E+04)
 number of electron     504.0000000 magnetization 
 augmentation part      504.0000000 magnetization 

 DIPCOR: dipole corrections for dipol
 direction  3 min pos     1,
 dipolmoment           0.000000      0.000000     -0.000002 electrons x Angstroem
 Tr[quadrupol]    -10277.322112

 energy correction for charged system         0.000000 eV
 dipol+quadrupol energy correction           -0.000000 eV
 added-field ion interaction          0.000001 eV  (added to PSCEN)


 Free energy of the ion-electron system (eV)
  ---------------------------------------------------
  alpha Z        PSCENC =       805.86936534
  Ewald energy   TEWEN  =    200398.69533804
  -Hartree energ DENC   =   -242813.82864942
  -exchange      EXHF   =         0.00000000
  -V(xc)+E(xc)   XCENC  =      -327.56035710
  PAW double counting   =     40340.05962942   -38292.62782345
  entropy T*S    EENTRO =        -0.13836984
  eigenvalues    EBANDS =     -1754.07710113
  atomic energy  EATOM  =     41659.78587232
  Solvation  Ediel_sol  =         0.00000000
  ---------------------------------------------------
  free energy    TOTEN  =        16.17790418 eV

  energy without entropy =       16.31627402  energy(sigma->0) =       16.24708910


--------------------------------------------------------------------------------------------------------




----------------------------------------- Iteration    1(   3)  ---------------------------------------


     EDDAV:  cpu time    7.8927: real time    7.9118
       DOS:  cpu time    0.0015: real time    0.0015
    --------------------------------------------
      LOOP:  cpu time    7.8952: real time    7.9172

 eigenvalue-minimisations  :  4140
 total energy-change (2. order) :-0.2162408E+03  (-0.2011115E+03)
 number of electron     504.0000000 magnetization 
 augmentation part      504.0000000 magnetization 

 DIPCOR: dipole corrections for dipol
 direction  3 min pos     1,
 dipolmoment           0.000000      0.000000     -0.000002 electrons x Angstroem
 Tr[quadrupol]    -10277.322112

 energy correction for charged system         0.000000 eV
 dipol+quadrupol energy correction           -0.000000 eV
 added-field ion interaction          0.000001 eV  (added to PSCEN)


 Free energy of the ion-electron system (eV)
  ---------------------------------------------------
  alpha Z        PSCENC =       805.86936534
  Ewald energy   TEWEN  =    200398.69533804
  -Hartree energ DENC   =   -242813.82864942
  -exchange      EXHF   =         0.00000000
  -V(xc)+E(xc)   XCENC  =      -327.56035710
  PAW double counting   =     40340.05962942   -38292.62782345
  entropy T*S    EENTRO =        -0.20639839
  eigenvalues    EBANDS =     -1970.24984122
  atomic energy  EATOM  =     41659.78587232
  Solvation  Ediel_sol  =         0.00000000
  ---------------------------------------------------
  free energy    TOTEN  =      -200.06286446 eV

  energy without entropy =     -199.85646607  energy(sigma->0) =     -199.95966527


--------------------------------------------------------------------------------------------------------




----------------------------------------- Iteration    1(   4)  ---------------------------------------


     EDDAV:  cpu time    8.0732: real time    8.0955
       DOS:  cpu time    0.0016: real time    0.0016
    --------------------------------------------
      LOOP:  cpu time    8.0758: real time    8.1015

 eigenvalue-minimisations  :  4236
 total energy-change (2. order) :-0.5765749E+01  (-0.5698447E+01)
 number of electron     504.0000000 magnetization 
 augmentation part      504.0000000 magnetization 

 DIPCOR: dipole corrections for dipol
 direction  3 min pos     1,
 dipolmoment           0.000000      0.000000     -0.000002 electrons x Angstroem
 Tr[quadrupol]    -10277.322112

 energy correction for charged system         0.000000 eV
 dipol+quadrupol energy correction           -0.000000 eV
 added-field ion interaction          0.000001 eV  (added to PSCEN)


 Free energy of the ion-electron system (eV)
  ---------------------------------------------------
  alpha Z        PSCENC =       805.86936534
  Ewald energy   TEWEN  =    200398.69533804
  -Hartree energ DENC   =   -242813.82864942
  -exchange      EXHF   =         0.00000000
  -V(xc)+E(xc)   XCENC  =      -327.56035710
  PAW double counting   =     40340.05962942   -38292.62782345
  entropy T*S    EENTRO =        -0.21575273
  eigenvalues    EBANDS =     -1976.00623591
  atomic energy  EATOM  =     41659.78587232
  Solvation  Ediel_sol  =         0.00000000
  ---------------------------------------------------
  free energy    TOTEN  =      -205.82861349 eV

  energy without entropy =     -205.61286076  energy(sigma->0) =     -205.72073712


--------------------------------------------------------------------------------------------------------




----------------------------------------- Iteration    1(   5)  ---------------------------------------


     EDDAV:  cpu time    8.4053: real time    8.4953
       DOS:  cpu time    0.0016: real time    0.0017
    CHARGE:  cpu time    0.2321: real time    0.2378
    MIXING:  cpu time    0.0024: real time    0.0025
    --------------------------------------------
      LOOP:  cpu time    8.6425: real time    8.7416

 eigenvalue-minimisations  :  4500
 total energy-change (2. order) :-0.1794818E+00  (-0.1788733E+00)
 number of electron     503.9998405 magnetization 
 augmentation part      191.3392365 magnetization 

 DIPCOR: dipole corrections for dipol
 direction  3 min pos     1,
 dipolmoment           0.000000      0.000000     -0.000002 electrons x Angstroem
 Tr[quadrupol]    -10277.322112

 energy correction for charged system         0.000000 eV
 dipol+quadrupol energy correction           -0.000000 eV
 added-field ion interaction          0.000001 eV  (added to PSCEN)


 Broyden mixing:
  rms(total) = 0.62547E+01    rms(broyden)= 0.62547E+01
  rms(prec ) = 0.63753E+01
  weight for this iteration     100.00

 Free energy of the ion-electron system (eV)
  ---------------------------------------------------
  alpha Z        PSCENC =       805.86936534
  Ewald energy   TEWEN  =    200398.69533804
  -Hartree energ DENC   =   -242813.82864942
  -exchange      EXHF   =         0.00000000
  -V(xc)+E(xc)   XCENC  =      -327.56035710
  PAW double counting   =     40340.05962942   -38292.62782345
  entropy T*S    EENTRO =        -0.21572408
  eigenvalues    EBANDS =     -1976.18574634
  atomic energy  EATOM  =     41659.78587232
  Solvation  Ediel_sol  =         0.00000000
  ---------------------------------------------------
  free energy    TOTEN  =      -206.00809527 eV

  energy without entropy =     -205.79237119  energy(sigma->0) =     -205.90023323


--------------------------------------------------------------------------------------------------------




----------------------------------------- Iteration    1(   6)  ---------------------------------------


    POTLOK:  cpu time    0.0431: real time    0.0432
    SETDIJ:  cpu time    0.0064: real time    0.0064
    EDDIAG:  cpu time    1.2351: real time    1.2380
  RMM-DIIS:  cpu time    3.4430: real time    3.4514
    ORTHCH:  cpu time    0.2976: real time    0.2983
       DOS:  cpu time    0.0015: real time    0.0015
    CHARGE:  cpu time    0.2386: real time    0.2392
    MIXING:  cpu time    0.0020: real time    0.0020
    --------------------------------------------
      LOOP:  cpu time    5.2681: real time    5.2825

 eigenvalue-minimisations  :  3678
 total energy-change (2. order) : 0.3771783E+01  (-0.9462458E+01)
 number of electron     503.9998426 magnetization 
 augmentation part      191.6586977 magnetization 

 DIPCOR: dipole corrections for dipol
 direction  3 min pos     1,
 dipolmoment           0.000000      0.000000     -1.018830 electrons x Angstroem
 Tr[quadrupol]    -10278.044981

 energy correction for charged system         0.000000 eV
 dipol+quadrupol energy correction           -0.036577 eV
 added-field ion interaction          0.483777 eV  (added to PSCEN)


 Broyden mixing:
  rms(total) = 0.55581E+01    rms(broyden)= 0.55580E+01
  rms(prec ) = 0.58934E+01
  weight for this iteration     100.00

 eigenvalues of (default mixing * dielectric matrix)
  average eigenvalue GAMMA=   0.7305
  0.7305

 Free energy of the ion-electron system (eV)
  ---------------------------------------------------
  alpha Z        PSCENC =       806.31656401
  Ewald energy   TEWEN  =    200398.69533804
  -Hartree energ DENC   =   -242541.61446295
  -exchange      EXHF   =         0.00000000
  -V(xc)+E(xc)   XCENC  =      -339.99790412
  PAW double counting   =     43928.72273591   -41940.42083858
  entropy T*S    EENTRO =        -0.26282307
  eigenvalues    EBANDS =     -2173.46079404
  atomic energy  EATOM  =     41659.78587232
  Solvation  Ediel_sol  =         0.00000000
  ---------------------------------------------------
  free energy    TOTEN  =      -202.23631248 eV

  energy without entropy =     -201.97348941  energy(sigma->0) =     -202.10490094


--------------------------------------------------------------------------------------------------------




----------------------------------------- Iteration    1(   7)  ---------------------------------------


    POTLOK:  cpu time    0.0428: real time    0.0430
    SETDIJ:  cpu time    0.0054: real time    0.0054
    EDDIAG:  cpu time    1.2282: real time    1.2313
  RMM-DIIS:  cpu time    3.3737: real time    3.3819
    ORTHCH:  cpu time    0.3026: real time    0.3034
       DOS:  cpu time    0.0016: real time    0.0016
    CHARGE:  cpu time    0.2557: real time    0.2563
    MIXING:  cpu time    0.0020: real time    0.0021
    --------------------------------------------
      LOOP:  cpu time    5.2128: real time    5.2276

 eigenvalue-minimisations  :  3681
 total energy-change (2. order) :-0.2125261E+02  (-0.6286382E+01)
 number of electron     503.9998386 magnetization 
 augmentation part      193.5754171 magnetization 

 DIPCOR: dipole corrections for dipol
 direction  3 min pos     1,
 dipolmoment           0.000000      0.000000      1.744676 electrons x Angstroem
 Tr[quadrupol]    -10278.018210

 energy correction for charged system         0.000000 eV
 dipol+quadrupol energy correction           -0.107259 eV
 added-field ion interaction         -0.828434 eV  (added to PSCEN)


 Broyden mixing:
  rms(total) = 0.53271E+01    rms(broyden)= 0.53268E+01
  rms(prec ) = 0.65095E+01
  weight for this iteration     100.00

 eigenvalues of (default mixing * dielectric matrix)
  average eigenvalue GAMMA=   0.7823
  1.2571  0.3074

 Free energy of the ion-electron system (eV)
  ---------------------------------------------------
  alpha Z        PSCENC =       804.93367146
  Ewald energy   TEWEN  =    200398.69533804
  -Hartree energ DENC   =   -242443.15560616
  -exchange      EXHF   =         0.00000000
  -V(xc)+E(xc)   XCENC  =      -342.40670272
  PAW double counting   =     45285.13546159   -43321.26264345
  entropy T*S    EENTRO =        -0.26291347
  eigenvalues    EBANDS =     -2264.95139994
  atomic energy  EATOM  =     41659.78587232
  Solvation  Ediel_sol  =         0.00000000
  ---------------------------------------------------
  free energy    TOTEN  =      -223.48892234 eV

  energy without entropy =     -223.22600887  energy(sigma->0) =     -223.35746560


--------------------------------------------------------------------------------------------------------




----------------------------------------- Iteration    1(   8)  ---------------------------------------


    POTLOK:  cpu time    0.0431: real time    0.0433
    SETDIJ:  cpu time    0.0057: real time    0.0064
    EDDIAG:  cpu time    1.2382: real time    1.2419
  RMM-DIIS:  cpu time    3.4037: real time    3.4120
    ORTHCH:  cpu time    0.2972: real time    0.2986
       DOS:  cpu time    0.0016: real time    0.0016
    CHARGE:  cpu time    0.2372: real time    0.2378
    MIXING:  cpu time    0.0019: real time    0.0019
    --------------------------------------------
      LOOP:  cpu time    5.2294: real time    5.2474

 eigenvalue-minimisations  :  3679
 total energy-change (2. order) : 0.9490198E+01  (-0.8694091E+01)
 number of electron     503.9998347 magnetization 
 augmentation part      197.8506816 magnetization 

 DIPCOR: dipole corrections for dipol
 direction  3 min pos     1,
 dipolmoment           0.000000      0.000000     -1.400542 electrons x Angstroem
 Tr[quadrupol]    -10278.662001

 energy correction for charged system         0.000000 eV
 dipol+quadrupol energy correction           -0.069119 eV
 added-field ion interaction          0.665027 eV  (added to PSCEN)


 Broyden mixing:
  rms(total) = 0.38456E+01    rms(broyden)= 0.38451E+01
  rms(prec ) = 0.44336E+01
  weight for this iteration     100.00

 eigenvalues of (default mixing * dielectric matrix)
  average eigenvalue GAMMA=   0.8957
  2.0112  0.4562  0.2198

 Free energy of the ion-electron system (eV)
  ---------------------------------------------------
  alpha Z        PSCENC =       806.46527281
  Ewald energy   TEWEN  =    200398.69533804
  -Hartree energ DENC   =   -242380.98616793
  -exchange      EXHF   =         0.00000000
  -V(xc)+E(xc)   XCENC  =      -344.72587184
  PAW double counting   =     46641.49519864   -44702.35039649
  entropy T*S    EENTRO =        -0.20213779
  eigenvalues    EBANDS =     -2292.17583188
  atomic energy  EATOM  =     41659.78587232
  Solvation  Ediel_sol  =         0.00000000
  ---------------------------------------------------
  free energy    TOTEN  =      -213.99872411 eV

  energy without entropy =     -213.79658632  energy(sigma->0) =     -213.89765521


--------------------------------------------------------------------------------------------------------




----------------------------------------- Iteration    1(   9)  ---------------------------------------


    POTLOK:  cpu time    0.0417: real time    0.0418
    SETDIJ:  cpu time    0.0056: real time    0.0056
    EDDIAG:  cpu time    1.2249: real time    1.2280
  RMM-DIIS:  cpu time    3.4372: real time    3.4474
    ORTHCH:  cpu time    0.2969: real time    0.2976
       DOS:  cpu time    0.0015: real time    0.0015
    CHARGE:  cpu time    0.2376: real time    0.2382
    MIXING:  cpu time    0.0021: real time    0.0021
    --------------------------------------------
      LOOP:  cpu time    5.2483: real time    5.2663

 eigenvalue-minimisations  :  3676
 total energy-change (2. order) : 0.5132592E+01  (-0.4701308E+01)
 number of electron     503.9998335 magnetization 
 augmentation part      198.7866962 magnetization 

 DIPCOR: dipole corrections for dipol
 direction  3 min pos     1,
 dipolmoment           0.000000      0.000000     -0.122377 electrons x Angstroem
 Tr[quadrupol]    -10278.581048

 energy correction for charged system         0.000000 eV
 dipol+quadrupol energy correction           -0.000528 eV
 added-field ion interaction          0.058109 eV  (added to PSCEN)


 Broyden mixing:
  rms(total) = 0.34425E+01    rms(broyden)= 0.34422E+01
  rms(prec ) = 0.37988E+01
  weight for this iteration     100.00

 eigenvalues of (default mixing * dielectric matrix)
  average eigenvalue GAMMA=   0.8142
  2.2448  0.4321  0.2899  0.2899

 Free energy of the ion-electron system (eV)
  ---------------------------------------------------
  alpha Z        PSCENC =       805.92694572
  Ewald energy   TEWEN  =    200398.69533804
  -Hartree energ DENC   =   -242341.33875612
  -exchange      EXHF   =         0.00000000
  -V(xc)+E(xc)   XCENC  =      -346.30581825
  PAW double counting   =     48476.68575739   -46563.41933654
  entropy T*S    EENTRO =        -0.17896995
  eigenvalues    EBANDS =     -2298.71716448
  atomic energy  EATOM  =     41659.78587232
  Solvation  Ediel_sol  =         0.00000000
  ---------------------------------------------------
  free energy    TOTEN  =      -208.86613187 eV

  energy without entropy =     -208.68716192  energy(sigma->0) =     -208.77664690


--------------------------------------------------------------------------------------------------------




----------------------------------------- Iteration    1(  10)  ---------------------------------------


    POTLOK:  cpu time    0.0453: real time    0.0463
    SETDIJ:  cpu time    0.0054: real time    0.0054
    EDDIAG:  cpu time    1.2339: real time    1.2369
  RMM-DIIS:  cpu time    3.4590: real time    3.4704
    ORTHCH:  cpu time    0.2991: real time    0.2998
       DOS:  cpu time    0.0015: real time    0.0015
    CHARGE:  cpu time    0.2365: real time    0.2371
    MIXING:  cpu time    0.0023: real time    0.0023
    --------------------------------------------
      LOOP:  cpu time    5.2838: real time    5.3033

 eigenvalue-minimisations  :  3680
 total energy-change (2. order) : 0.1202932E+02  (-0.1306603E+01)
 number of electron     503.9998336 magnetization 
 augmentation part      199.3535986 magnetization 

 DIPCOR: dipole corrections for dipol
 direction  3 min pos     1,
 dipolmoment           0.000000      0.000000     -0.385548 electrons x Angstroem
 Tr[quadrupol]    -10278.840870

 energy correction for charged system         0.000000 eV
 dipol+quadrupol energy correction           -0.005238 eV
 added-field ion interaction          0.183072 eV  (added to PSCEN)


 Broyden mixing:
  rms(total) = 0.18753E+01    rms(broyden)= 0.18751E+01
  rms(prec ) = 0.21724E+01
  weight for this iteration     100.00

 eigenvalues of (default mixing * dielectric matrix)
  average eigenvalue GAMMA=   0.7709
  2.2515  0.5065  0.5065  0.2353  0.3547

 Free energy of the ion-electron system (eV)
  ---------------------------------------------------
  alpha Z        PSCENC =       806.04719801
  Ewald energy   TEWEN  =    200398.69533804
  -Hartree energ DENC   =   -242358.03434472
  -exchange      EXHF   =         0.00000000
  -V(xc)+E(xc)   XCENC  =      -346.31558297
  PAW double counting   =     49107.78169233   -47201.00840392
  entropy T*S    EENTRO =        -0.19610845
  eigenvalues    EBANDS =     -2263.59247744
  atomic energy  EATOM  =     41659.78587232
  Solvation  Ediel_sol  =         0.00000000
  ---------------------------------------------------
  free energy    TOTEN  =      -196.83681681 eV

  energy without entropy =     -196.64070836  energy(sigma->0) =     -196.73876258


--------------------------------------------------------------------------------------------------------




----------------------------------------- Iteration    1(  11)  ---------------------------------------


    POTLOK:  cpu time    0.0418: real time    0.0420
    SETDIJ:  cpu time    0.0055: real time    0.0055
    EDDIAG:  cpu time    1.2279: real time    1.2313
  RMM-DIIS:  cpu time    3.4225: real time    3.4331
    ORTHCH:  cpu time    0.2965: real time    0.2973
       DOS:  cpu time    0.0015: real time    0.0015
    CHARGE:  cpu time    0.2513: real time    0.2519
    MIXING:  cpu time    0.0023: real time    0.0024
    --------------------------------------------
      LOOP:  cpu time    5.2500: real time    5.2671

 eigenvalue-minimisations  :  3679
 total energy-change (2. order) : 0.4962238E+01  (-0.1151343E+01)
 number of electron     503.9998342 magnetization 
 augmentation part      198.8002242 magnetization 

 DIPCOR: dipole corrections for dipol
 direction  3 min pos     1,
 dipolmoment           0.000000      0.000000     -0.255444 electrons x Angstroem
 Tr[quadrupol]    -10279.138336

 energy correction for charged system         0.000000 eV
 dipol+quadrupol energy correction           -0.002299 eV
 added-field ion interaction          0.121294 eV  (added to PSCEN)


 Broyden mixing:
  rms(total) = 0.14195E+01    rms(broyden)= 0.14193E+01
  rms(prec ) = 0.16407E+01
  weight for this iteration     100.00

 eigenvalues of (default mixing * dielectric matrix)
  average eigenvalue GAMMA=   0.7271
  2.2429  0.5967  0.5967  0.4311  0.2476  0.2476

 Free energy of the ion-electron system (eV)
  ---------------------------------------------------
  alpha Z        PSCENC =       805.98835872
  Ewald energy   TEWEN  =    200398.69533804
  -Hartree energ DENC   =   -242395.70403782
  -exchange      EXHF   =         0.00000000
  -V(xc)+E(xc)   XCENC  =      -345.62056930
  PAW double counting   =     49213.06934449   -47303.82321110
  entropy T*S    EENTRO =        -0.18530769
  eigenvalues    EBANDS =     -2224.08036651
  atomic energy  EATOM  =     41659.78587232
  Solvation  Ediel_sol  =         0.00000000
  ---------------------------------------------------
  free energy    TOTEN  =      -191.87457885 eV

  energy without entropy =     -191.68927116  energy(sigma->0) =     -191.78192501


--------------------------------------------------------------------------------------------------------




----------------------------------------- Iteration    1(  12)  ---------------------------------------


    POTLOK:  cpu time    0.0419: real time    0.0420
    SETDIJ:  cpu time    0.0054: real time    0.0055
    EDDIAG:  cpu time    1.2252: real time    1.2287
  RMM-DIIS:  cpu time    3.3983: real time    3.4067
    ORTHCH:  cpu time    0.2977: real time    0.2984
       DOS:  cpu time    0.0015: real time    0.0015
    CHARGE:  cpu time    0.2360: real time    0.2366
    MIXING:  cpu time    0.0025: real time    0.0025
    --------------------------------------------
      LOOP:  cpu time    5.2091: real time    5.2239

 eigenvalue-minimisations  :  3679
 total energy-change (2. order) : 0.2469456E+01  (-0.4530154E+00)
 number of electron     503.9998356 magnetization 
 augmentation part      197.8826126 magnetization 

 DIPCOR: dipole corrections for dipol
 direction  3 min pos     1,
 dipolmoment           0.000000      0.000000     -0.215761 electrons x Angstroem
 Tr[quadrupol]    -10279.436991

 energy correction for charged system         0.000000 eV
 dipol+quadrupol energy correction           -0.001640 eV
 added-field ion interaction          0.102451 eV  (added to PSCEN)


 Broyden mixing:
  rms(total) = 0.10217E+01    rms(broyden)= 0.10215E+01
  rms(prec ) = 0.11495E+01
  weight for this iteration     100.00

 eigenvalues of (default mixing * dielectric matrix)
  average eigenvalue GAMMA=   0.6761
  2.2681  0.5251  0.5251  0.5180  0.3936  0.2360  0.2667

 Free energy of the ion-electron system (eV)
  ---------------------------------------------------
  alpha Z        PSCENC =       805.97017471
  Ewald energy   TEWEN  =    200398.69533804
  -Hartree energ DENC   =   -242437.21253617
  -exchange      EXHF   =         0.00000000
  -V(xc)+E(xc)   XCENC  =      -344.74345729
  PAW double counting   =     49288.14576109   -47375.15427957
  entropy T*S    EENTRO =        -0.19663197
  eigenvalues    EBANDS =     -2184.69536375
  atomic energy  EATOM  =     41659.78587232
  Solvation  Ediel_sol  =         0.00000000
  ---------------------------------------------------
  free energy    TOTEN  =      -189.40512259 eV

  energy without entropy =     -189.20849062  energy(sigma->0) =     -189.30680661


--------------------------------------------------------------------------------------------------------




----------------------------------------- Iteration    1(  13)  ---------------------------------------


    POTLOK:  cpu time    0.0415: real time    0.0416
    SETDIJ:  cpu time    0.0055: real time    0.0055
    EDDIAG:  cpu time    1.2336: real time    1.2366
  RMM-DIIS:  cpu time    3.3258: real time    3.4332
    ORTHCH:  cpu time    0.2973: real time    0.2990
       DOS:  cpu time    0.0016: real time    0.0016
    CHARGE:  cpu time    0.2363: real time    0.2369
    MIXING:  cpu time    0.0035: real time    0.0035
    --------------------------------------------
      LOOP:  cpu time    5.1457: real time    5.2604

 eigenvalue-minimisations  :  3681
 total energy-change (2. order) : 0.6207085E+00  (-0.1705062E+00)
 number of electron     503.9998356 magnetization 
 augmentation part      197.7605706 magnetization 

 DIPCOR: dipole corrections for dipol
 direction  3 min pos     1,
 dipolmoment           0.000000      0.000000     -0.162732 electrons x Angstroem
 Tr[quadrupol]    -10279.817796

 energy correction for charged system         0.000000 eV
 dipol+quadrupol energy correction           -0.000933 eV
 added-field ion interaction          0.077271 eV  (added to PSCEN)


 Broyden mixing:
  rms(total) = 0.61088E+00    rms(broyden)= 0.61066E+00
  rms(prec ) = 0.66698E+00
  weight for this iteration     100.00

 eigenvalues of (default mixing * dielectric matrix)
  average eigenvalue GAMMA=   0.6936
  2.2482  0.7469  0.7469  0.6833  0.3245  0.3245  0.2374  0.2374

 Free energy of the ion-electron system (eV)
  ---------------------------------------------------
  alpha Z        PSCENC =       805.94570219
  Ewald energy   TEWEN  =    200398.69533804
  -Hartree energ DENC   =   -242456.21909234
  -exchange      EXHF   =         0.00000000
  -V(xc)+E(xc)   XCENC  =      -344.57340758
  PAW double counting   =     49333.50844400   -47419.69812878
  entropy T*S    EENTRO =        -0.23322716
  eigenvalues    EBANDS =     -2165.99591474
  atomic energy  EATOM  =     41659.78587232
  Solvation  Ediel_sol  =         0.00000000
  ---------------------------------------------------
  free energy    TOTEN  =      -188.78441405 eV

  energy without entropy =     -188.55118689  energy(sigma->0) =     -188.66780047


--------------------------------------------------------------------------------------------------------




----------------------------------------- Iteration    1(  14)  ---------------------------------------


    POTLOK:  cpu time    0.0421: real time    0.0431
    SETDIJ:  cpu time    0.0062: real time    0.0062
    EDDIAG:  cpu time    1.2314: real time    1.2350
  RMM-DIIS:  cpu time    3.4022: real time    3.4107
    ORTHCH:  cpu time    0.3038: real time    0.3045
       DOS:  cpu time    0.0015: real time    0.0015
    CHARGE:  cpu time    0.2367: real time    0.2373
    MIXING:  cpu time    0.0029: real time    0.0029
    --------------------------------------------
      LOOP:  cpu time    5.2274: real time    5.2456

 eigenvalue-minimisations  :  3680
 total energy-change (2. order) :-0.8190067E-01  (-0.7189875E-01)
 number of electron     503.9998361 magnetization 
 augmentation part      197.4828975 magnetization 

 DIPCOR: dipole corrections for dipol
 direction  3 min pos     1,
 dipolmoment           0.000000      0.000000     -0.142042 electrons x Angstroem
 Tr[quadrupol]    -10280.022350

 energy correction for charged system         0.000000 eV
 dipol+quadrupol energy correction           -0.000711 eV
 added-field ion interaction          0.067447 eV  (added to PSCEN)


 Broyden mixing:
  rms(total) = 0.63304E+00    rms(broyden)= 0.63296E+00
  rms(prec ) = 0.70722E+00
  weight for this iteration     100.00

 eigenvalues of (default mixing * dielectric matrix)
  average eigenvalue GAMMA=   0.6945
  2.2507  0.9284  0.9284  0.6751  0.3704  0.3704  0.2539  0.2539  0.2195

 Free energy of the ion-electron system (eV)
  ---------------------------------------------------
  alpha Z        PSCENC =       805.93610000
  Ewald energy   TEWEN  =    200398.69533804
  -Hartree energ DENC   =   -242473.36417311
  -exchange      EXHF   =         0.00000000
  -V(xc)+E(xc)   XCENC  =      -344.22210725
  PAW double counting   =     49347.68239039   -47431.72271971
  entropy T*S    EENTRO =        -0.22505424
  eigenvalues    EBANDS =     -2151.43196115
  atomic energy  EATOM  =     41659.78587232
  Solvation  Ediel_sol  =         0.00000000
  ---------------------------------------------------
  free energy    TOTEN  =      -188.86631472 eV

  energy without entropy =     -188.64126048  energy(sigma->0) =     -188.75378760


--------------------------------------------------------------------------------------------------------




----------------------------------------- Iteration    1(  15)  ---------------------------------------


    POTLOK:  cpu time    0.0425: real time    0.0427
    SETDIJ:  cpu time    0.0058: real time    0.0058
    EDDIAG:  cpu time    1.2366: real time    1.2402
  RMM-DIIS:  cpu time    3.4106: real time    3.4191
    ORTHCH:  cpu time    0.3013: real time    0.3021
       DOS:  cpu time    0.0015: real time    0.0015
    CHARGE:  cpu time    0.2517: real time    0.2523
    MIXING:  cpu time    0.0029: real time    0.0030
    --------------------------------------------
      LOOP:  cpu time    5.2538: real time    5.2702

 eigenvalue-minimisations  :  3682
 total energy-change (2. order) : 0.1254084E+00  (-0.3253662E-01)
 number of electron     503.9998360 magnetization 
 augmentation part      197.4644908 magnetization 

 DIPCOR: dipole corrections for dipol
 direction  3 min pos     1,
 dipolmoment           0.000000      0.000000     -0.110795 electrons x Angstroem
 Tr[quadrupol]    -10280.359151

 energy correction for charged system         0.000000 eV
 dipol+quadrupol energy correction           -0.000433 eV
 added-field ion interaction          0.052610 eV  (added to PSCEN)


 Broyden mixing:
  rms(total) = 0.49912E+00    rms(broyden)= 0.49907E+00
  rms(prec ) = 0.56486E+00
  weight for this iteration     100.00

 eigenvalues of (default mixing * dielectric matrix)
  average eigenvalue GAMMA=   0.7433
  2.1972  1.3150  1.3150  0.6405  0.4524  0.4524  0.2983  0.2983  0.2463  0.2180

 Free energy of the ion-electron system (eV)
  ---------------------------------------------------
  alpha Z        PSCENC =       805.92154134
  Ewald energy   TEWEN  =    200398.69533804
  -Hartree energ DENC   =   -242488.43068348
  -exchange      EXHF   =         0.00000000
  -V(xc)+E(xc)   XCENC  =      -344.07593122
  PAW double counting   =     49360.04011054   -47442.86609586
  entropy T*S    EENTRO =        -0.23335102
  eigenvalues    EBANDS =     -2137.57770696
  atomic energy  EATOM  =     41659.78587232
  Solvation  Ediel_sol  =         0.00000000
  ---------------------------------------------------
  free energy    TOTEN  =      -188.74090630 eV

  energy without entropy =     -188.50755528  energy(sigma->0) =     -188.62423079


--------------------------------------------------------------------------------------------------------




----------------------------------------- Iteration    1(  16)  ---------------------------------------


    POTLOK:  cpu time    0.0417: real time    0.0418
    SETDIJ:  cpu time    0.0055: real time    0.0055
    EDDIAG:  cpu time    1.2312: real time    1.2344
  RMM-DIIS:  cpu time    3.4276: real time    3.4363
    ORTHCH:  cpu time    0.3000: real time    0.3007
       DOS:  cpu time    0.0015: real time    0.0015
    CHARGE:  cpu time    0.2362: real time    0.2368
    MIXING:  cpu time    0.0031: real time    0.0031
    --------------------------------------------
      LOOP:  cpu time    5.2475: real time    5.2624

 eigenvalue-minimisations  :  3680
 total energy-change (2. order) : 0.1347277E+00  (-0.3138722E-01)
 number of electron     503.9998361 magnetization 
 augmentation part      197.3476198 magnetization 

 DIPCOR: dipole corrections for dipol
 direction  3 min pos     1,
 dipolmoment           0.000000      0.000000     -0.120960 electrons x Angstroem
 Tr[quadrupol]    -10280.811087

 energy correction for charged system         0.000000 eV
 dipol+quadrupol energy correction           -0.000516 eV
 added-field ion interaction          0.057436 eV  (added to PSCEN)


 Broyden mixing:
  rms(total) = 0.42686E+00    rms(broyden)= 0.42681E+00
  rms(prec ) = 0.51162E+00
  weight for this iteration     100.00

 eigenvalues of (default mixing * dielectric matrix)
  average eigenvalue GAMMA=   0.7439
  2.1818  1.5042  1.5042  0.5168  0.5168  0.5454  0.3555  0.3555  0.2449  0.2449
  0.2128

 Free energy of the ion-electron system (eV)
  ---------------------------------------------------
  alpha Z        PSCENC =       805.92628493
  Ewald energy   TEWEN  =    200398.69533804
  -Hartree energ DENC   =   -242512.75666364
  -exchange      EXHF   =         0.00000000
  -V(xc)+E(xc)   XCENC  =      -343.72365676
  PAW double counting   =     49370.46704696   -47450.65799327
  entropy T*S    EENTRO =        -0.23322573
  eigenvalues    EBANDS =     -2116.10918142
  atomic energy  EATOM  =     41659.78587232
  Solvation  Ediel_sol  =         0.00000000
  ---------------------------------------------------
  free energy    TOTEN  =      -188.60617857 eV

  energy without entropy =     -188.37295284  energy(sigma->0) =     -188.48956570


--------------------------------------------------------------------------------------------------------




----------------------------------------- Iteration    1(  17)  ---------------------------------------


    POTLOK:  cpu time    0.0418: real time    0.0422
    SETDIJ:  cpu time    0.0048: real time    0.0055
    EDDIAG:  cpu time    1.2281: real time    1.2311
  RMM-DIIS:  cpu time    3.4387: real time    3.4495
    ORTHCH:  cpu time    0.2993: real time    0.3001
       DOS:  cpu time    0.0014: real time    0.0014
    CHARGE:  cpu time    0.2366: real time    0.2371
    MIXING:  cpu time    0.0033: real time    0.0033
    --------------------------------------------
      LOOP:  cpu time    5.2546: real time    5.2728

 eigenvalue-minimisations  :  3679
 total energy-change (2. order) : 0.1765588E+00  (-0.1443601E-01)
 number of electron     503.9998361 magnetization 
 augmentation part      197.3074156 magnetization 

 DIPCOR: dipole corrections for dipol
 direction  3 min pos     1,
 dipolmoment           0.000000      0.000000     -0.121002 electrons x Angstroem
 Tr[quadrupol]    -10281.099217

 energy correction for charged system         0.000000 eV
 dipol+quadrupol energy correction           -0.000516 eV
 added-field ion interaction          0.057456 eV  (added to PSCEN)


 Broyden mixing:
  rms(total) = 0.22041E+00    rms(broyden)= 0.22034E+00
  rms(prec ) = 0.26370E+00
  weight for this iteration     100.00

 eigenvalues of (default mixing * dielectric matrix)
  average eigenvalue GAMMA=   0.7329
  2.1545  1.5977  1.5977  0.5788  0.5788  0.4750  0.4750  0.3556  0.2618  0.2618
  0.2433  0.2144

 Free energy of the ion-electron system (eV)
  ---------------------------------------------------
  alpha Z        PSCENC =       805.92630455
  Ewald energy   TEWEN  =    200398.69533804
  -Hartree energ DENC   =   -242526.32623482
  -exchange      EXHF   =         0.00000000
  -V(xc)+E(xc)   XCENC  =      -343.57750634
  PAW double counting   =     49383.96056686   -47463.11411170
  entropy T*S    EENTRO =        -0.24076414
  eigenvalues    EBANDS =     -2103.53908451
  atomic energy  EATOM  =     41659.78587232
  Solvation  Ediel_sol  =         0.00000000
  ---------------------------------------------------
  free energy    TOTEN  =      -188.42961974 eV

  energy without entropy =     -188.18885560  energy(sigma->0) =     -188.30923767


--------------------------------------------------------------------------------------------------------




----------------------------------------- Iteration    1(  18)  ---------------------------------------


    POTLOK:  cpu time    0.0419: real time    0.0420
    SETDIJ:  cpu time    0.0057: real time    0.0057
    EDDIAG:  cpu time    1.2320: real time    1.2351
  RMM-DIIS:  cpu time    3.4504: real time    3.4652
    ORTHCH:  cpu time    0.2988: real time    0.2995
       DOS:  cpu time    0.0015: real time    0.0015
    CHARGE:  cpu time    0.2361: real time    0.2375
    MIXING:  cpu time    0.0034: real time    0.0034
    --------------------------------------------
      LOOP:  cpu time    5.2704: real time    5.2925

 eigenvalue-minimisations  :  3683
 total energy-change (2. order) : 0.5658654E-01  (-0.7401441E-02)
 number of electron     503.9998362 magnetization 
 augmentation part      197.2293634 magnetization 

 DIPCOR: dipole corrections for dipol
 direction  3 min pos     1,
 dipolmoment           0.000000      0.000000     -0.099859 electrons x Angstroem
 Tr[quadrupol]    -10281.317433

 energy correction for charged system         0.000000 eV
 dipol+quadrupol energy correction           -0.000351 eV
 added-field ion interaction          0.047416 eV  (added to PSCEN)


 Broyden mixing:
  rms(total) = 0.13019E+00    rms(broyden)= 0.13014E+00
  rms(prec ) = 0.15407E+00
  weight for this iteration     100.00

 eigenvalues of (default mixing * dielectric matrix)
  average eigenvalue GAMMA=   0.7199
  2.1474  1.6676  1.6676  0.6460  0.6460  0.4579  0.4579  0.4025  0.3206  0.2557
  0.2557  0.2264  0.2075

 Free energy of the ion-electron system (eV)
  ---------------------------------------------------
  alpha Z        PSCENC =       805.91642938
  Ewald energy   TEWEN  =    200398.69533804
  -Hartree energ DENC   =   -242537.52920302
  -exchange      EXHF   =         0.00000000
  -V(xc)+E(xc)   XCENC  =      -343.44532339
  PAW double counting   =     49397.84732291   -47476.22073463
  entropy T*S    EENTRO =        -0.23967341
  eigenvalues    EBANDS =     -2093.18306139
  atomic energy  EATOM  =     41659.78587232
  Solvation  Ediel_sol  =         0.00000000
  ---------------------------------------------------
  free energy    TOTEN  =      -188.37303320 eV

  energy without entropy =     -188.13335979  energy(sigma->0) =     -188.25319650


--------------------------------------------------------------------------------------------------------




----------------------------------------- Iteration    1(  19)  ---------------------------------------


    POTLOK:  cpu time    0.0419: real time    0.0420
    SETDIJ:  cpu time    0.0054: real time    0.0062
    EDDIAG:  cpu time    1.2261: real time    1.2291
  RMM-DIIS:  cpu time    3.3980: real time    3.4177
    ORTHCH:  cpu time    0.2991: real time    0.2998
       DOS:  cpu time    0.0015: real time    0.0015
    CHARGE:  cpu time    0.2509: real time    0.2515
    MIXING:  cpu time    0.0035: real time    0.0035
    --------------------------------------------
      LOOP:  cpu time    5.2270: real time    5.2538

 eigenvalue-minimisations  :  3681
 total energy-change (2. order) : 0.1934001E-01  (-0.2151117E-02)
 number of electron     503.9998363 magnetization 
 augmentation part      197.1826353 magnetization 

 DIPCOR: dipole corrections for dipol
 direction  3 min pos     1,
 dipolmoment           0.000000      0.000000     -0.079263 electrons x Angstroem
 Tr[quadrupol]    -10281.470992

 energy correction for charged system         0.000000 eV
 dipol+quadrupol energy correction           -0.000221 eV
 added-field ion interaction          0.037637 eV  (added to PSCEN)


 Broyden mixing:
  rms(total) = 0.64648E-01    rms(broyden)= 0.64610E-01
  rms(prec ) = 0.71376E-01
  weight for this iteration     100.00

 eigenvalues of (default mixing * dielectric matrix)
  average eigenvalue GAMMA=   0.7036
  2.1804  1.6832  1.6832  0.6691  0.6691  0.4768  0.4768  0.3918  0.3918  0.3004
  0.2502  0.2502  0.2181  0.2089

 Free energy of the ion-electron system (eV)
  ---------------------------------------------------
  alpha Z        PSCENC =       805.90677963
  Ewald energy   TEWEN  =    200398.69533804
  -Hartree energ DENC   =   -242544.72136529
  -exchange      EXHF   =         0.00000000
  -V(xc)+E(xc)   XCENC  =      -343.38056332
  PAW double counting   =     49405.88513760   -47483.87516996
  entropy T*S    EENTRO =        -0.24258934
  eigenvalues    EBANDS =     -2086.40713288
  atomic energy  EATOM  =     41659.78587232
  Solvation  Ediel_sol  =         0.00000000
  ---------------------------------------------------
  free energy    TOTEN  =      -188.35369319 eV

  energy without entropy =     -188.11110385  energy(sigma->0) =     -188.23239852


--------------------------------------------------------------------------------------------------------




----------------------------------------- Iteration    1(  20)  ---------------------------------------


    POTLOK:  cpu time    0.0417: real time    0.0418
    SETDIJ:  cpu time    0.0055: real time    0.0055
    EDDIAG:  cpu time    1.2280: real time    1.2310
  RMM-DIIS:  cpu time    3.4380: real time    3.4466
    ORTHCH:  cpu time    0.2991: real time    0.2998
       DOS:  cpu time    0.0015: real time    0.0015
    CHARGE:  cpu time    0.2304: real time    0.2372
    MIXING:  cpu time    0.0036: real time    0.0038
    --------------------------------------------
      LOOP:  cpu time    5.2484: real time    5.2693

 eigenvalue-minimisations  :  3684
 total energy-change (2. order) : 0.2862825E-02  (-0.4917438E-03)
 number of electron     503.9998363 magnetization 
 augmentation part      197.1633757 magnetization 

 DIPCOR: dipole corrections for dipol
 direction  3 min pos     1,
 dipolmoment           0.000000      0.000000     -0.070550 electrons x Angstroem
 Tr[quadrupol]    -10281.556828

 energy correction for charged system         0.000000 eV
 dipol+quadrupol energy correction           -0.000175 eV
 added-field ion interaction          0.033500 eV  (added to PSCEN)


 Broyden mixing:
  rms(total) = 0.49902E-01    rms(broyden)= 0.49896E-01
  rms(prec ) = 0.55573E-01
  weight for this iteration     100.00

 eigenvalues of (default mixing * dielectric matrix)
  average eigenvalue GAMMA=   0.7100
  2.1694  1.6966  1.6966  0.8085  0.8085  0.5134  0.5134  0.4867  0.4098  0.3652
  0.2601  0.2601  0.2497  0.2152  0.1969

 Free energy of the ion-electron system (eV)
  ---------------------------------------------------
  alpha Z        PSCENC =       805.90268855
  Ewald energy   TEWEN  =    200398.69533804
  -Hartree energ DENC   =   -242548.18941114
  -exchange      EXHF   =         0.00000000
  -V(xc)+E(xc)   XCENC  =      -343.36250122
  PAW double counting   =     49409.49230713   -47487.38926373
  entropy T*S    EENTRO =        -0.24283976
  eigenvalues    EBANDS =     -2083.04302055
  atomic energy  EATOM  =     41659.78587232
  Solvation  Ediel_sol  =         0.00000000
  ---------------------------------------------------
  free energy    TOTEN  =      -188.35083037 eV

  energy without entropy =     -188.10799061  energy(sigma->0) =     -188.22941049


--------------------------------------------------------------------------------------------------------




----------------------------------------- Iteration    1(  21)  ---------------------------------------


    POTLOK:  cpu time    0.0416: real time    0.0467
    SETDIJ:  cpu time    0.0054: real time    0.0056
    EDDIAG:  cpu time    1.2101: real time    1.2821
  RMM-DIIS:  cpu time    3.3624: real time    3.3905
    ORTHCH:  cpu time    0.2991: real time    0.2998
       DOS:  cpu time    0.0015: real time    0.0015
    CHARGE:  cpu time    0.2379: real time    0.2385
    MIXING:  cpu time    0.0038: real time    0.0038
    --------------------------------------------
      LOOP:  cpu time    5.1629: real time    5.2730

 eigenvalue-minimisations  :  3681
 total energy-change (2. order) : 0.7890995E-03  (-0.2840663E-03)
 number of electron     503.9998363 magnetization 
 augmentation part      197.1490832 magnetization 

 DIPCOR: dipole corrections for dipol
 direction  3 min pos     1,
 dipolmoment           0.000000      0.000000     -0.067408 electrons x Angstroem
 Tr[quadrupol]    -10281.658626

 energy correction for charged system         0.000000 eV
 dipol+quadrupol energy correction           -0.000160 eV
 added-field ion interaction          0.032008 eV  (added to PSCEN)


 Broyden mixing:
  rms(total) = 0.45153E-01    rms(broyden)= 0.45149E-01
  rms(prec ) = 0.53272E-01
  weight for this iteration     100.00

 eigenvalues of (default mixing * dielectric matrix)
  average eigenvalue GAMMA=   0.7561
  2.3047  1.8815  1.8815  0.9638  0.9638  0.7466  0.5335  0.5335  0.4103  0.4103
  0.2855  0.2855  0.2433  0.2433  0.2139  0.1962

 Free energy of the ion-electron system (eV)
  ---------------------------------------------------
  alpha Z        PSCENC =       805.90121171
  Ewald energy   TEWEN  =    200398.69533804
  -Hartree energ DENC   =   -242552.29305093
  -exchange      EXHF   =         0.00000000
  -V(xc)+E(xc)   XCENC  =      -343.33903296
  PAW double counting   =     49412.23646695   -47490.03529526
  entropy T*S    EENTRO =        -0.24170388
  eigenvalues    EBANDS =     -2079.05984725
  atomic energy  EATOM  =     41659.78587232
  Solvation  Ediel_sol  =         0.00000000
  ---------------------------------------------------
  free energy    TOTEN  =      -188.35004127 eV

  energy without entropy =     -188.10833739  energy(sigma->0) =     -188.22918933


--------------------------------------------------------------------------------------------------------




----------------------------------------- Iteration    1(  22)  ---------------------------------------


    POTLOK:  cpu time    0.0419: real time    0.0420
    SETDIJ:  cpu time    0.0060: real time    0.0062
    EDDIAG:  cpu time    1.2327: real time    1.2357
  RMM-DIIS:  cpu time    3.4304: real time    3.4388
    ORTHCH:  cpu time    0.2997: real time    0.3004
       DOS:  cpu time    0.0014: real time    0.0014
    CHARGE:  cpu time    0.2368: real time    0.2374
    MIXING:  cpu time    0.0041: real time    0.0041
    --------------------------------------------
      LOOP:  cpu time    5.2536: real time    5.2683

 eigenvalue-minimisations  :  3684
 total energy-change (2. order) : 0.1628929E-02  (-0.2331494E-03)
 number of electron     503.9998363 magnetization 
 augmentation part      197.1301644 magnetization 

 DIPCOR: dipole corrections for dipol
 direction  3 min pos     1,
 dipolmoment           0.000000      0.000000     -0.061420 electrons x Angstroem
 Tr[quadrupol]    -10281.892935

 energy correction for charged system         0.000000 eV
 dipol+quadrupol energy correction           -0.000133 eV
 added-field ion interaction          0.029165 eV  (added to PSCEN)


 Broyden mixing:
  rms(total) = 0.35982E-01    rms(broyden)= 0.35980E-01
  rms(prec ) = 0.43008E-01
  weight for this iteration     100.00

 eigenvalues of (default mixing * dielectric matrix)
  average eigenvalue GAMMA=   0.7693
  2.2416  2.0676  2.0676  1.1633  0.8333  0.8333  0.5853  0.5853  0.4519  0.4519
  0.3188  0.3188  0.2516  0.2516  0.2453  0.2145  0.1961

 Free energy of the ion-electron system (eV)
  ---------------------------------------------------
  alpha Z        PSCENC =       805.89839595
  Ewald energy   TEWEN  =    200398.69533804
  -Hartree energ DENC   =   -242561.22332482
  -exchange      EXHF   =         0.00000000
  -V(xc)+E(xc)   XCENC  =      -343.30311569
  PAW double counting   =     49419.23648319   -47496.93725268
  entropy T*S    EENTRO =        -0.24352780
  eigenvalues    EBANDS =     -2070.25728085
  atomic energy  EATOM  =     41659.78587232
  Solvation  Ediel_sol  =         0.00000000
  ---------------------------------------------------
  free energy    TOTEN  =      -188.34841234 eV

  energy without entropy =     -188.10488454  energy(sigma->0) =     -188.22664844


--------------------------------------------------------------------------------------------------------




----------------------------------------- Iteration    1(  23)  ---------------------------------------


    POTLOK:  cpu time    0.0423: real time    0.0424
    SETDIJ:  cpu time    0.0062: real time    0.0062
    EDDIAG:  cpu time    1.2241: real time    1.2277
  RMM-DIIS:  cpu time    3.4086: real time    3.4227
    ORTHCH:  cpu time    0.2996: real time    0.3003
       DOS:  cpu time    0.0015: real time    0.0015
    CHARGE:  cpu time    0.2507: real time    0.2514
    MIXING:  cpu time    0.0041: real time    0.0041
    --------------------------------------------
      LOOP:  cpu time    5.2378: real time    5.2589

 eigenvalue-minimisations  :  3679
 total energy-change (2. order) : 0.1358698E-02  (-0.2069317E-03)
 number of electron     503.9998363 magnetization 
 augmentation part      197.1217285 magnetization 

 DIPCOR: dipole corrections for dipol
 direction  3 min pos     1,
 dipolmoment           0.000000      0.000000     -0.055531 electrons x Angstroem
 Tr[quadrupol]    -10282.021207

 energy correction for charged system         0.000000 eV
 dipol+quadrupol energy correction           -0.000109 eV
[...]
    275       1.6516      0.00000
    276       1.8189      0.00000
    277       2.1655      0.00000
    278       2.2144      0.00000
    279       2.2589      0.00000
    280       2.3375      0.00000
    281       2.4680      0.00000
    282       2.5225      0.00000
    283       2.6874      0.00000
    284       2.9901      0.00000
    285       3.1492      0.00000
    286       3.2946      0.00000
    287       3.4833      0.00000
    288       3.5887      0.00000
    289       3.7386      0.00000
    290       4.0212      0.00000
    291       4.0729      0.00000
    292       4.2106      0.00000
    293       4.4686      0.00000
    294       4.5226      0.00000
    295       4.6118      0.00000
    296       4.6366      0.00000
    297       4.7028      0.00000
    298       4.8255      0.00000
    299       4.8499      0.00000
    300       4.9003      0.00000
    301       4.9942      0.00000
    302       5.0174      0.00000
    303       5.0701      0.00000
    304       5.0875      0.00000
    305       5.1828      0.00000
    306       5.2584      0.00000


--------------------------------------------------------------------------------------------------------


 soft charge-density along one line, spin component           1
         0         1         2         3         4         5         6         7         8         9
 total charge-density along one line
 
 pseudopotential strength for first ion, spin component:           1
 -8.017   0.005  -0.003  -0.005   0.001  -8.165   0.005  -0.003
  0.005  -7.939   0.001   0.002   0.002   0.005  -8.088   0.001
 -0.003   0.001  -7.932  -0.000   0.000  -0.003   0.001  -8.081
 -0.005   0.002  -0.000  -7.937   0.005  -0.005   0.002  -0.000
  0.001   0.002   0.000   0.005  -8.017   0.001   0.002   0.000
 -8.165   0.005  -0.003  -0.005   0.001  -8.296   0.005  -0.003
  0.005  -8.088   0.001   0.002   0.002   0.005  -8.221   0.001
 -0.003   0.001  -8.081  -0.000   0.000  -0.003   0.001  -8.214
 -0.005   0.002  -0.000  -8.086   0.004  -0.005   0.002  -0.000
  0.001   0.002   0.000   0.004  -8.165   0.001   0.002   0.000
 -0.001   0.002  -0.025  -0.002  -0.000  -0.001   0.002  -0.025
 -0.002   0.003  -0.037  -0.003  -0.001  -0.002   0.003  -0.036
  0.002  -0.004   0.002  -0.000   0.003   0.002  -0.004   0.002
 -0.000  -0.003  -0.006   0.002  -0.000  -0.000  -0.003  -0.006
 -0.003  -0.000  -0.002  -0.004   0.002  -0.003  -0.000  -0.002
  0.003  -0.004   0.002  -0.000   0.003   0.003  -0.003   0.002
 -0.000  -0.003  -0.007   0.002  -0.000  -0.000  -0.003  -0.006
 -0.003  -0.000  -0.002  -0.004   0.003  -0.003  -0.000  -0.002
 total augmentation occupancy for first ion, spin component:           1
  4.030  -0.007   0.057   0.041   0.116  -2.222   0.036  -0.063  -0.087  -0.104   0.091  -0.059  -0.031  -0.002  -0.003   0.004
 -0.007   4.105   0.011  -0.038   0.066   0.036  -1.835   0.020   0.036  -0.063  -0.063  -0.002  -0.177   0.005  -0.014   0.004
  0.057   0.011   4.296  -0.087  -0.059  -0.063   0.020  -2.173   0.053   0.058   0.935  -0.080  -0.012  -0.214   0.035   0.002
  0.041  -0.038  -0.087   4.077   0.004  -0.086   0.036   0.052  -1.793   0.019   0.106  -0.040  -0.010   0.018  -0.158  -0.000
  0.116   0.066  -0.059   0.004   4.139  -0.104  -0.063   0.058   0.019  -2.326  -0.014   0.027  -0.037   0.004  -0.031   0.004
 -2.222   0.036  -0.063  -0.086  -0.104   2.293  -0.059   0.066   0.121   0.094  -0.078   0.053   0.023   0.005   0.007  -0.002
  0.036  -1.835   0.020   0.036  -0.063  -0.059   1.536  -0.043  -0.034   0.060   0.057  -0.001   0.167  -0.005   0.014  -0.006
 -0.063   0.020  -2.173   0.052   0.058   0.066  -0.043   1.997  -0.025  -0.057  -0.871   0.099   0.007   0.217  -0.026  -0.001
 -0.087   0.036   0.053  -1.793   0.019   0.121  -0.034  -0.025   1.485  -0.037  -0.094   0.037   0.011  -0.013   0.148   0.000
 -0.104  -0.063   0.058   0.019  -2.326   0.094   0.060  -0.057  -0.037   2.392   0.015  -0.024   0.030  -0.005   0.024  -0.002
  0.091  -0.063   0.935   0.106  -0.014  -0.078   0.057  -0.871  -0.094   0.015   2.336  -0.469  -0.006   0.119   0.012   0.000
 -0.059  -0.002  -0.080  -0.040   0.027   0.053  -0.001   0.099   0.037  -0.024  -0.469   0.136   0.012  -0.056  -0.016  -0.000
 -0.031  -0.177  -0.012  -0.010  -0.037   0.023   0.167   0.007   0.011   0.030  -0.006   0.012   0.185   0.004  -0.001  -0.005
 -0.002   0.005  -0.214   0.018   0.004   0.005  -0.005   0.217  -0.013  -0.005   0.119  -0.056   0.004   0.087  -0.004  -0.000
 -0.003  -0.014   0.035  -0.158  -0.031   0.007   0.014  -0.026   0.148   0.024   0.012  -0.016  -0.001  -0.004   0.182   0.000
  0.004   0.004   0.002  -0.000   0.004  -0.002  -0.006  -0.001   0.000  -0.002   0.000  -0.000  -0.005  -0.000   0.000   0.000
 -0.000  -0.004   0.001   0.001  -0.000   0.000   0.001  -0.006   0.000   0.000  -0.008   0.003  -0.000  -0.003   0.000   0.000
 -0.003  -0.000  -0.004   0.004   0.004   0.000   0.000   0.002  -0.006  -0.002  -0.001   0.001   0.000   0.000  -0.005  -0.000


------------------------ aborting loop because EDIFF is reached ----------------------------------------


    CHARGE:  cpu time    0.2300: real time    0.2354
    FORLOC:  cpu time    0.0166: real time    0.0169
    FORNL :  cpu time    1.3344: real time    1.4088
    FORCOR:  cpu time    0.0590: real time    0.0604
    FORHAR:  cpu time    0.0250: real time    0.0251
    MIXING:  cpu time    0.0032: real time    0.0032
    OFIELD:  cpu time    0.0000: real time    0.0000

 VOLUME and BASIS-vectors are now :
 -----------------------------------------------------------------------------
  energy-cutoff  :      400.00
  volume of cell :     2567.68
      direct lattice vectors                 reciprocal lattice vectors
    11.002581515  0.000000000  0.000000000     0.090887761 -0.052474073  0.000000000
     5.501290758  9.528515099  0.000000000     0.000000000  0.104948147  0.000000000
     0.000000000  0.000000000 24.491785094     0.000000000  0.000000000  0.040830017

  length of vectors
    11.002581515 11.002581515 24.491785094     0.104948147  0.104948147  0.040830017


 FORCES acting on ions
    electron-ion (+dipol)            ewald-force                    non-local-force                 convergence-correction
 -----------------------------------------------------------------------------------------------
   0.219E+02 -.189E+02 0.230E+04   -.224E+02 0.195E+02 -.230E+04   0.533E+00 -.542E+00 0.357E-02   -.436E-02 -.231E-02 -.739E-04
   0.189E+02 -.220E+02 -.227E+04   -.194E+02 0.222E+02 0.227E+04   0.469E+00 -.166E+00 -.387E-02   -.120E-04 -.731E-03 -.730E-03
   -.684E+00 0.127E+01 0.386E+02   0.460E+00 -.752E+00 -.386E+02   0.218E+00 -.512E+00 -.307E-01   0.835E-03 0.111E-02 -.201E-02
   0.194E+02 0.543E+01 -.223E+04   -.195E+02 -.620E+01 0.223E+04   0.937E-01 0.776E+00 0.181E+00   0.123E-02 0.819E-03 0.229E-02
   0.105E+02 -.169E+01 0.438E+02   -.110E+02 0.114E+01 -.438E+02   0.424E+00 0.554E+00 0.137E-01   0.145E-02 0.401E-02 -.826E-04
   -.180E+01 -.946E+01 0.618E+02   0.237E+01 0.926E+01 -.612E+02   -.558E+00 0.186E+00 -.608E+00   -.428E-02 -.675E-03 -.184E-02
   0.443E+00 0.420E+01 0.234E+04   -.550E+00 -.460E+01 -.234E+04   0.117E+00 0.416E+00 0.301E-01   -.660E-02 -.231E-02 -.157E-02
   -.796E+01 0.145E+01 -.265E+02   0.784E+01 -.132E+01 0.255E+02   0.111E+00 -.130E+00 0.100E+01   0.248E-02 0.209E-02 -.267E-02
   0.964E+01 0.121E+02 -.229E+04   -.101E+02 -.126E+02 0.229E+04   0.510E+00 0.474E+00 0.700E-01   0.113E-02 -.155E-03 0.642E-03
   -.807E+01 0.199E+01 -.221E+04   0.843E+01 -.197E+01 0.221E+04   -.360E+00 -.343E-01 0.180E+00   -.147E-03 0.280E-02 0.584E-03
   -.159E+02 0.210E+02 0.229E+04   0.161E+02 -.217E+02 -.229E+04   -.212E+00 0.670E+00 -.818E-01   -.590E-02 -.472E-02 0.134E-03
   0.653E+01 -.418E+01 -.229E+04   -.720E+01 0.428E+01 0.229E+04   0.670E+00 -.114E+00 -.430E-01   0.532E-03 0.627E-03 -.145E-02
   -.650E+01 0.155E+01 0.232E+04   0.682E+01 -.146E+01 -.232E+04   -.325E+00 -.855E-01 0.921E-01   0.378E-02 0.211E-02 0.357E-04
   -.183E+02 0.781E+01 -.224E+04   0.185E+02 -.827E+01 0.224E+04   -.239E+00 0.459E+00 0.211E+00   -.395E-03 0.117E-02 -.104E-02
   -.211E+01 0.330E+01 -.203E+02   0.243E+01 -.206E+01 0.192E+02   -.319E+00 -.124E+01 0.113E+01   -.139E-02 0.724E-03 -.231E-02
   -.206E+02 0.233E+02 -.230E+04   0.211E+02 -.242E+02 0.230E+04   -.423E+00 0.819E+00 -.220E+00   -.872E-03 0.136E-03 -.524E-03
   0.680E-01 -.203E+02 -.225E+04   -.632E-01 0.209E+02 0.225E+04   -.249E-02 -.574E+00 0.409E+00   0.224E-03 -.142E-02 -.107E-02
   -.721E+01 -.623E+01 0.229E+04   0.770E+01 0.598E+01 -.228E+04   -.487E+00 0.254E+00 -.438E+00   -.695E-03 0.197E-02 -.187E-02
   0.155E+02 -.571E+01 0.228E+04   -.155E+02 0.611E+01 -.228E+04   -.265E-01 -.407E+00 -.313E+00   0.615E-02 0.204E-02 0.739E-03
   -.580E+01 0.267E+01 0.635E+02   0.551E+01 -.249E+01 -.629E+02   0.291E+00 -.167E+00 -.558E+00   -.328E-02 -.380E-02 -.863E-03
   -.162E+02 -.850E+01 -.224E+04   0.167E+02 0.925E+01 0.224E+04   -.441E+00 -.750E+00 0.288E+00   0.116E-02 -.455E-03 -.615E-03
   0.603E+01 0.850E+01 0.313E+02   -.591E+01 -.810E+01 -.313E+02   -.113E+00 -.390E+00 -.376E-01   -.782E-03 -.510E-02 0.308E-02
   -.292E+01 -.110E+02 -.183E+02   0.266E+01 0.104E+02 0.173E+02   0.258E+00 0.618E+00 0.100E+01   0.245E-02 0.509E-03 -.178E-02
   -.275E+01 0.791E+01 0.232E+02   0.282E+01 -.803E+01 -.232E+02   -.745E-01 0.107E+00 -.455E-01   0.368E-02 -.149E-02 0.202E-02
   0.811E+01 -.494E+01 0.200E+04   -.850E+01 0.488E+01 -.200E+04   0.388E+00 0.566E-01 -.155E+01   0.162E-02 0.404E-03 0.799E-03
   0.121E+02 -.146E+02 -.195E+04   -.122E+02 0.149E+02 0.195E+04   0.619E-01 -.331E+00 0.157E+01   -.308E-03 -.229E-02 0.125E-02
   0.421E+01 -.593E+01 0.681E+02   -.401E+01 0.602E+01 -.676E+02   -.203E+00 -.987E-01 -.488E+00   -.212E-02 0.821E-03 0.945E-03
   0.386E+01 -.161E+01 0.196E+04   -.380E+01 0.184E+01 -.196E+04   -.501E-01 -.235E+00 -.165E+01   -.403E-02 -.261E-02 0.227E-02
   0.409E+01 -.777E+01 0.201E+04   -.446E+01 0.817E+01 -.200E+04   0.363E+00 -.403E+00 -.149E+01   0.570E-02 0.244E-02 -.538E-03
   -.229E+02 0.319E+01 0.199E+04   0.234E+02 -.284E+01 -.199E+04   -.453E+00 -.355E+00 -.168E+01   -.284E-03 0.139E-02 -.243E-02
   -.465E+00 -.146E+00 -.396E+02   0.884E+00 -.165E+00 0.386E+02   -.417E+00 0.309E+00 0.944E+00   -.631E-03 -.120E-02 -.573E-03
   -.543E+00 0.523E+01 0.201E+04   0.526E+00 -.535E+01 -.201E+04   0.183E-01 0.127E+00 -.169E+01   0.844E-03 -.167E-02 0.459E-04
   -.483E+01 0.238E+01 -.195E+04   0.468E+01 -.244E+01 0.195E+04   0.157E+00 0.673E-01 0.126E+01   -.232E-02 -.166E-02 -.971E-03
   -.151E+02 0.132E+02 0.199E+04   0.154E+02 -.132E+02 -.199E+04   -.257E+00 -.170E-01 -.149E+01   0.362E-04 0.898E-03 0.952E-03
   -.214E+02 0.639E+01 0.200E+04   0.216E+02 -.701E+01 -.199E+04   -.284E+00 0.626E+00 -.153E+01   0.322E-02 0.432E-02 -.122E-02
   0.238E+00 -.543E+01 -.187E+02   -.591E+00 0.528E+01 0.178E+02   0.349E+00 0.151E+00 0.853E+00   0.390E-02 0.160E-02 0.132E-02
   -.100E+01 -.686E+01 -.195E+04   0.100E+01 0.714E+01 0.195E+04   -.783E-03 -.275E+00 0.175E+01   -.156E-02 0.219E-03 -.571E-03
   0.127E+01 0.264E+01 0.468E+02   -.122E+01 -.286E+01 -.464E+02   -.434E-01 0.210E+00 -.363E+00   0.164E-03 0.326E-04 -.189E-02
   0.232E+01 0.711E+01 0.203E+04   -.240E+01 -.699E+01 -.202E+04   0.837E-01 -.129E+00 -.157E+01   -.873E-03 0.107E-02 -.729E-03
   -.885E+00 0.350E+01 0.346E+02   0.481E+00 -.356E+01 -.345E+02   0.408E+00 0.655E-01 -.440E-01   0.961E-03 0.170E-02 0.129E-02
   -.828E+01 0.152E+02 -.192E+04   0.842E+01 -.155E+02 0.192E+04   -.142E+00 0.322E+00 0.175E+01   -.182E-02 0.144E-02 0.537E-03
   -.561E+00 0.166E+01 0.367E+02   0.691E+00 -.130E+01 -.367E+02   -.122E+00 -.366E+00 0.365E-01   -.249E-02 0.190E-02 0.653E-03
   -.108E+02 0.136E+02 -.198E+04   0.110E+02 -.138E+02 0.198E+04   -.243E+00 0.243E+00 0.156E+01   0.967E-03 -.114E-02 0.261E-03
   0.205E+02 -.600E+01 0.201E+04   -.205E+02 0.574E+01 -.201E+04   0.611E-01 0.265E+00 -.144E+01   0.113E-02 -.918E-03 -.518E-03
   0.170E+01 0.394E+01 -.341E+02   -.158E+01 -.438E+01 0.329E+02   -.116E+00 0.451E+00 0.124E+01   -.116E-02 -.152E-02 0.271E-02
   0.145E+02 -.108E+02 0.196E+04   -.149E+02 0.110E+02 -.195E+04   0.416E+00 -.118E+00 -.193E+01   0.679E-03 -.118E-02 0.235E-03
   0.174E+02 -.850E+01 -.197E+04   -.173E+02 0.878E+01 0.197E+04   -.802E-01 -.297E+00 0.122E+01   0.401E-04 0.119E-02 0.479E-03
   0.427E+01 -.445E-01 -.198E+04   -.430E+01 0.389E+00 0.198E+04   0.205E-01 -.352E+00 0.131E+01   0.124E-02 -.719E-03 0.191E-02
 -----------------------------------------------------------------------------------------------
   -.520E-01 -.132E+00 0.118E+01   -.169E-12 -.448E-12 -.455E-12   0.321E-01 0.135E+00 -.118E+01   -.704E-03 0.149E-02 -.475E-02
 
 
 POSITION                                       TOTAL-FORCE (eV/Angst)
 -----------------------------------------------------------------------------------
      1.35759      0.82029      9.68009         0.000025      0.002074     -0.002183
      8.21805      4.77332     14.79273        -0.011828      0.011857     -0.006028
      6.86117      3.98644     12.21593        -0.005403      0.003972     -0.001132
      5.48073     -0.03466     14.72959        -0.010804      0.008179     -0.000190
      5.47532      1.58084     12.20979        -0.000546      0.001371      0.006870
      6.88951      8.74267     12.19199         0.004701     -0.011489      0.003365
      8.26150      7.93336      9.59400         0.003390      0.012608     -0.002023
      8.25137      1.59591     12.27674        -0.003671      0.003640     -0.012760
      8.23195     -0.03446     14.85080         0.001764      0.006504     -0.005963
      4.13296      2.37544     14.71182         0.004872     -0.008123      0.003051
      9.64921      5.53675      9.70835         0.006008      0.001269     -0.010686
      9.60182      2.37198     14.87246        -0.000554     -0.010358      0.013582
      5.52447      3.18511      9.65278         0.000889      0.005881      0.001032
      1.38232      2.35642     14.78608        -0.001904      0.001661      0.009820
     11.01924      1.61822     12.26635        -0.000296      0.007563      0.007398
      0.00993     -0.04526     14.85547        -0.004678     -0.002447     -0.000523
     10.99195      4.78069     14.77817         0.002987      0.005391      0.004831
      4.14451      0.79600      9.67818        -0.004878      0.000189     -0.004987
      4.13003      5.57989      9.72317        -0.009454     -0.004421     -0.004440
      8.24740      6.36093     12.18982        -0.001400      0.003740      0.003004
      2.76770      4.77679     14.74323        -0.001353      0.005531      0.003372
     11.00522      6.35816     12.22667         0.007531      0.005799     -0.006494
     15.12479      8.72645     12.26707        -0.000252     -0.000748     -0.012288
     13.75805      6.34244     12.23663        -0.003533     -0.008336     -0.002096
      9.61661      0.80109      9.88011        -0.003548      0.000545      0.003654
      9.61008      7.14406     14.58320        -0.008303     -0.001689      0.000252
      9.63064      8.74909     12.17972        -0.000643      0.000020      0.005390
     11.00949      3.18935      9.92171         0.005339     -0.004754      0.006318
     13.74806      7.96314      9.87003         0.005278     -0.005690      0.001071
     11.03825      7.94496      9.85145         0.001121     -0.005483      0.003412
      9.63676      3.98311     12.30254         0.001949     -0.002502     -0.002676
     12.38894      5.55479      9.85965         0.002384      0.001765      0.002955
      6.86903      7.13876     14.58137         0.004202     -0.000009      0.000641
      8.27463      3.17176      9.87656         0.001049     -0.004371      0.002387
      6.89902      0.78176      9.86886         0.014150      0.008492     -0.000574
     12.36557      8.74226     12.27737         0.000536     -0.000634     -0.005585
      5.50048      4.77395     14.58128        -0.002643      0.003496     -0.005908
      5.48975      6.34054     12.20308         0.001581     -0.007491      0.000942
      6.88591      5.56761      9.78894        -0.002496     -0.005453      0.010755
      4.10772      3.96464     12.21961         0.006048      0.002545     -0.001985
      2.74778     -0.02628     14.55926         0.002676     -0.004888     -0.000384
      2.74938      1.60290     12.21293         0.005515     -0.002208     -0.004858
      4.14106      7.12552     14.63074        -0.002408     -0.007287     -0.003811
      5.49515      7.95098      9.83211         0.007702      0.007518      0.002783
     12.38750      3.96660     12.29639         0.000134      0.001059      0.003778
      2.73990      3.19335      9.89914         0.000389      0.006045      0.001895
      6.86293      2.38019     14.64882        -0.010744     -0.011749     -0.000512
     12.37378      7.13949     14.64009        -0.000882     -0.008584     -0.004474
 -----------------------------------------------------------------------------------
    total drift:                               -0.020580      0.005089     -0.007494


--------------------------------------------------------------------------------------------------------



  FREE ENERGIE OF THE ION-ELECTRON SYSTEM (eV)
  ---------------------------------------------------
  free  energy   TOTEN  =      -192.09911733 eV

  energy  without entropy=     -191.87607963  energy(sigma->0) =     -191.98759848
 
 d Force = 0.4751123E-03[-0.470E-04, 0.997E-03]  d Energy = 0.4709416E-03 0.417E-05
 d Force = 0.1984434E+02[ 0.199E+02, 0.198E+02]  d Ewald  = 0.1984434E+02 0.224E-05


--------------------------------------------------------------------------------------------------------


    POTLOK:  cpu time    0.0490: real time    0.0501


--------------------------------------------------------------------------------------------------------


 stress matrix after NEB project (eV)
      0.00000      0.00000      0.00000
      0.00000      0.00000      0.00000
      0.00000      0.00000      0.00000
  FORCES: max atom, RMS     0.017799    0.009602
  FORCE total and by dimension    0.066524    0.014150
  Stress total and by dimension    0.000000    0.000000
 Conjugate gradient step on ions:
 trial-energy change:   -0.000471  1 .order   -0.000475   -0.000997    0.000047
  (g-gl).g = 0.339E-03      g.g   = 0.304E-03  gl.gl    = 0.781E-03
 g(Force)  = 0.304E-03   g(Stress)= 0.000E+00 ortho     = 0.147E-04
 gamma     =   0.43332
 trial     =   3.21740
 opt step  =   3.06929  (harmonic =   3.07267) maximal distance =0.00488731
 next E    =  -192.099118   (d E  =  -0.00047)


--------------------------------------------------------------------------------------------------------


  
 reached required accuracy - stopping structural energy minimisation
     LOOP+:  cpu time   62.3586: real time   62.8268
    4ORBIT:  cpu time    0.0000: real time    0.0000

 total amount of memory used by VASP on root node    84353. kBytes
========================================================================

   base      :      30000. kBytes
   nonlr-proj:       4285. kBytes
   fftplans  :       4447. kBytes
   grid      :       6721. kBytes
   one-center:        124. kBytes
   wavefun   :      38776. kBytes
 
  
  
 General timing and accounting informations for this job:
 ========================================================
  
                  Total CPU time used (sec):     1799.773
                            User time (sec):     1714.218
                          System time (sec):       85.555
                         Elapsed time (sec):     1810.873
  
                   Maximum memory used (kb):      951596.
                   Average memory used (kb):           0.
  
                          Minor page faults:       658622
                          Major page faults:            2
                 Voluntary context switches:        10041
