unknown system                          
           1
    11.002582    0.000000    0.000000
     5.501291    9.528515    0.000000
     0.000000    0.000000   24.491785
   Au   Pd
  24  24
Direct configuration=     1
   0.08333333  0.08333333  0.40830017
   0.50000000  0.50000000  0.59169983
   0.41666667  0.41666667  0.50000000
   0.50000000  0.00000000  0.59169983
   0.41666667  0.16666667  0.50000000
   0.16666667  0.91666667  0.50000000
   0.33333333  0.83333333  0.40830017
   0.66666667  0.16666667  0.50000000
   0.75000000  0.00000000  0.59169983
   0.25000000  0.25000000  0.59169983
   0.58333333  0.58333333  0.40830017
   0.75000000  0.25000000  0.59169983
   0.33333333  0.33333333  0.40830017
   0.00000000  0.25000000  0.59169983
   0.91666667  0.16666667  0.50000000
   0.00000000  0.00000000  0.59169983
   0.75000000  0.50000000  0.59169983
   0.33333333  0.08333333  0.40830017
   0.08333333  0.58333333  0.40830017
   0.41666667  0.66666667  0.50000000
   0.00000000  0.50000000  0.59169983
   0.66666667  0.66666667  0.50000000
   0.91666667  0.91666667  0.50000000
   0.91666667  0.66666667  0.50000000
   0.83333333  0.08333333  0.40830017
   0.50000000  0.75000000  0.59169983
   0.41666667  0.91666667  0.50000000
   0.83333333  0.33333333  0.40830017
   0.83333333  0.83333333  0.40830017
   0.58333333  0.83333333  0.40830017
   0.66666667  0.41666667  0.50000000
   0.83333333  0.58333333  0.40830017
   0.25000000  0.75000000  0.59169983
   0.58333333  0.33333333  0.40830017
   0.58333333  0.08333333  0.40830017
   0.66666667  0.91666667  0.50000000
   0.25000000  0.50000000  0.59169983
   0.16666667  0.66666667  0.50000000
   0.33333333  0.58333333  0.40830017
   0.16666667  0.41666667  0.50000000
   0.25000000  0.00000000  0.59169983
   0.16666667  0.16666667  0.50000000
   0.00000000  0.75000000  0.59169983
   0.08333333  0.83333333  0.40830017
   0.91666667  0.41666667  0.50000000
   0.08333333  0.33333333  0.40830017
   0.50000000  0.25000000  0.59169983
   0.75000000  0.75000000  0.59169983
Direct configuration=     2
   0.08215829  0.08438144  0.40614341
   0.49901941  0.50049302  0.59385716
   0.41574914  0.41760840  0.50000840
   0.50022947 -0.00124788  0.59354147
   0.41687317  0.16579711  0.49997182
   0.16805174  0.91574023  0.50040208
   0.33355833  0.83294972  0.40605085
   0.66595173  0.16702553  0.49913051
   0.74968948 -0.00103729  0.59397484
   0.25012726  0.25019835  0.59352364
   0.58447461  0.58205772  0.40619485
   0.74897265  0.25059989  0.59401299
   0.33345264  0.33368344  0.40613330
   0.00108945  0.24956224  0.59361370
   0.91598215  0.16889160  0.49909124
   0.00156231 -0.00157906  0.59423334
   0.74938689  0.50106062  0.59358725
   0.33394085  0.08303327  0.40639146
   0.08310100  0.58376611  0.40649446
   0.41584915  0.66710555  0.50036404
   0.00040107  0.50086440  0.59349049
   0.66676105  0.66774846  0.49993963
   0.91695004  0.91484414  0.49923622
   0.91652624  0.66684992  0.49992141
   0.83274535  0.08330542  0.40695060
   0.49952623  0.75072452  0.59287236
   0.41705998  0.91673902  0.50033566
   0.83325579  0.33365236  0.40735143
   0.83251011  0.83407831  0.40716849
   0.58416002  0.83366986  0.40728012
   0.66756026  0.41622477  0.49947788
   0.83350567  0.58294373  0.40715580
   0.24984595  0.74986995  0.59283867
   0.58401256  0.33296529  0.40707205
   0.58447423  0.08234170  0.40715033
   0.66629333  0.91611636  0.49953501
   0.24960318  0.50080671  0.59265963
   0.16684759  0.66618733  0.50030206
   0.33296010  0.58350329  0.40701174
   0.16594824  0.41675906  0.50001760
   0.25066449 -0.00076534  0.59272431
   0.16654980  0.16734640  0.49996667
   0.00097701  0.74921166  0.59287429
   0.08297956  0.83297932  0.40709502
   0.91727184  0.41610755  0.49925269
   0.08226543  0.33388542  0.40753777
   0.49946087  0.25049238  0.59318583
   0.74966434  0.75045799  0.59287544
Direct configuration=     3
   0.07863316  0.08752575  0.39967313
   0.49607762  0.50197210  0.60032914
   0.41299656  0.42043358  0.50003362
   0.50091786 -0.00499152  0.59906637
   0.41749268  0.16318842  0.49988728
   0.17220696  0.91296092  0.50160833
   0.33423332  0.83179890  0.39930289
   0.66380691  0.16810210  0.49652203
   0.74875794 -0.00414918  0.60079987
   0.25050903  0.25079339  0.59899508
   0.58789842  0.57823086  0.39987891
   0.74589059  0.25239956  0.60095248
   0.33381055  0.33473376  0.39963271
   0.00435781  0.24824897  0.59935532
   0.91392860  0.17556642  0.49636497
   0.00624925 -0.00631623  0.60183387
   0.74754757  0.50424248  0.59924952
   0.33576340  0.08213307  0.40066532
   0.08240401  0.58506443  0.40107732
   0.41339662  0.66842220  0.50145616
   0.00160426  0.50345762  0.59886248
   0.66704419  0.67099385  0.49975851
   0.91780015  0.90937655  0.49694486
   0.91610494  0.66739969  0.49968562
   0.83098138  0.08322167  0.40290187
   0.49810490  0.75289810  0.59638996
   0.41823994  0.91695609  0.50134265
   0.83302317  0.33460944  0.40450521
   0.83004043  0.83631325  0.40377347
   0.58664006  0.83467945  0.40421996
   0.67024103  0.41489907  0.49791151
   0.83402268  0.58177493  0.40372269
   0.24938379  0.74947982  0.59625518
   0.58605024  0.33186117  0.40338771
   0.58789691  0.07936681  0.40370081
   0.66517333  0.91446545  0.49814004
   0.24841270  0.50322682  0.59553902
   0.16739036  0.66474931  0.50120823
   0.33184041  0.58401314  0.40314645
   0.16379295  0.41703625  0.50007040
   0.25265798 -0.00306137  0.59579774
   0.16619919  0.16938562  0.49986667
   0.00390803  0.74684662  0.59639766
   0.08191822  0.83191730  0.40347957
   0.91908735  0.41443020  0.49701076
   0.07906173  0.33554168  0.40525058
   0.49784347  0.25196954  0.59764381
   0.74865734  0.75183197  0.59640227
Direct configuration=     4
   0.07998844  0.08572583  0.39818332
   0.49638904  0.50228675  0.60178941
   0.41375222  0.41896470  0.49992229
   0.50036635 -0.00329738  0.60052827
   0.41633346  0.16465875  0.49995499
   0.16809409  0.91700253  0.50098437
   0.33445016  0.83175792  0.39791559
   0.66524535  0.16700357  0.49768016
   0.74979660 -0.00301702  0.60177370
   0.25166642  0.25035797  0.60022503
   0.58651402  0.57989215  0.39860322
   0.74757852  0.25059913  0.60197474
   0.33426380  0.33396226  0.39828154
   0.00267137  0.24841773  0.60037793
   0.91635299  0.17006844  0.49747538
   0.00366887 -0.00456431  0.60299724
   0.74815861  0.50372201  0.60012221
   0.33525731  0.08243595  0.39938833
   0.08182233  0.58517754  0.39982891
   0.41723624  0.66631612  0.50095253
   0.00048545  0.50325940  0.60001163
   0.66641002  0.66806619  0.49972982
   0.91752970  0.91368696  0.49785541
   0.91734496  0.66474372  0.49976036
   0.83166295  0.08290282  0.40161360
   0.49833711  0.75136681  0.59733471
   0.41727173  0.91746142  0.50084324
   0.83257096  0.33484584  0.40251608
   0.83059521  0.83517296  0.40222427
   0.58623834  0.83341277  0.40313368
   0.66744455  0.41823168  0.49870292
   0.83376569  0.58279774  0.40267574
   0.25005020  0.74900222  0.59764252
   0.58516689  0.33224165  0.40215345
   0.58657003  0.08046203  0.40232502
   0.66495230  0.91656349  0.49885582
   0.24907980  0.50240827  0.59642870
   0.16657786  0.66452171  0.50082279
   0.33261973  0.58409099  0.40237638
   0.16456428  0.41647863  0.49997249
   0.25236718 -0.00248985  0.59667078
   0.16687788  0.16811475  0.49977081
   0.00291185  0.74816649  0.59719869
   0.08246980  0.83277051  0.40261162
   0.91827658  0.41705932  0.49816478
   0.08058196  0.33519025  0.40424249
   0.49802225  0.25122922  0.59817018
   0.74964852  0.75077137  0.59723287
Direct configuration=     5
   0.08042751  0.08514270  0.39770067
   0.49648993  0.50238869  0.60226250
   0.41399704  0.41848882  0.49988623
   0.50018768 -0.00274853  0.60100188
   0.41595790  0.16513510  0.49997692
   0.16676163  0.91831191  0.50078223
   0.33452041  0.83174464  0.39746614
   0.66571137  0.16664767  0.49805537
   0.75013310 -0.00265023  0.60208919
   0.25204138  0.25021690  0.60062351
   0.58606551  0.58043036  0.39818994
   0.74812536  0.25001584  0.60230592
   0.33441063  0.33371231  0.39784380
   0.00212500  0.24847240  0.60070923
   0.91713843  0.16828724  0.49783512
   0.00283289 -0.00399674  0.60337414
   0.74835657  0.50355339  0.60040493
   0.33509336  0.08253408  0.39897462
   0.08163388  0.58521419  0.39942445
   0.41848017  0.66563381  0.50078937
   0.00012298  0.50319518  0.60038392
   0.66620457  0.66711771  0.49972053
   0.91744208  0.91508341  0.49815040
   0.91774670  0.66388326  0.49978457
   0.83188376  0.08279952  0.40119623
   0.49841234  0.75087071  0.59764078
   0.41695806  0.91762513  0.50068145
   0.83242446  0.33492243  0.40187166
   0.83077495  0.83480354  0.40172237
   0.58610819  0.83300240  0.40278175
   0.66653857  0.41931136  0.49895932
   0.83368243  0.58312910  0.40233655
   0.25026610  0.74884749  0.59809198
   0.58488071  0.33236492  0.40175358
   0.58614016  0.08081685  0.40187930
   0.66488069  0.91724320  0.49908771
   0.24929593  0.50214308  0.59671694
   0.16631464  0.66444797  0.50069791
   0.33287221  0.58411621  0.40212690
   0.16481417  0.41629798  0.49994076
   0.25227297 -0.00230469  0.59695362
   0.16709776  0.16770302  0.49973975
   0.00258911  0.74859410  0.59745820
   0.08264850  0.83304693  0.40233043
   0.91801392  0.41791109  0.49853866
   0.08107447  0.33507640  0.40391590
   0.49808017  0.25098938  0.59834071
   0.74996964  0.75042776  0.59750196
Direct configuration=     6
   0.08090987  0.08485083  0.39704515
   0.49727054  0.50154243  0.60286911
   0.41465031  0.41770966  0.49976960
   0.50058005 -0.00264011  0.60153977
   0.41545901  0.16577679  0.49986805
   0.16764719  0.91726536  0.50054070
   0.33443517  0.83193579  0.39697838
   0.66609977  0.16729363  0.49863971
   0.75019321 -0.00227847  0.60242545
   0.25138606  0.25038447  0.60111298
   0.58547550  0.58112206  0.39756859
   0.74840323  0.24990628  0.60260317
   0.33443974  0.33365875  0.39730875
   0.00158562  0.24871434  0.60098549
   0.91633088  0.16943707  0.49821703
   0.00233665 -0.00340454  0.60388583
   0.74868398  0.50252762  0.60077648
   0.33480991  0.08257903  0.39845419
   0.08185695  0.58523575  0.39890487
   0.41669544  0.66700095  0.50050414
   0.00039270  0.50233096  0.60090550
   0.66629015  0.66757399  0.49965299
   0.91694874  0.91513194  0.49864102
   0.91719221  0.66549017  0.49973981
   0.83192402  0.08296883  0.40075420
   0.49858511  0.75066580  0.59790709
   0.41655143  0.91753319  0.50032965
   0.83276317  0.33432530  0.40152821
   0.83125163  0.83444501  0.40141660
   0.58582155  0.83266346  0.40253034
   0.66736734  0.41780012  0.49934392
   0.83350072  0.58341884  0.40191135
   0.25009222  0.74938468  0.59830596
   0.58470308  0.33239266  0.40149538
   0.58559806  0.08130597  0.40146661
   0.66557134  0.91690919  0.49951829
   0.24947776  0.50167920  0.59698502
   0.16642101  0.66517811  0.50041181
   0.33310990  0.58401233  0.40196645
   0.16572907  0.41546520  0.49990379
   0.25170069 -0.00203198  0.59715408
   0.16668787  0.16790262  0.49965562
   0.00208652  0.74910625  0.59758107
   0.08285749  0.83326964  0.40211789
   0.91771130  0.41653825  0.49916928
   0.08164364  0.33456528  0.40362977
   0.49885563  0.25070347  0.59836443
   0.74991657  0.75065382  0.59761640
Direct configuration=     7
   0.08104564  0.08476869  0.39686065
   0.49749024  0.50130425  0.60303984
   0.41483417  0.41749037  0.49973677
   0.50069048 -0.00260959  0.60169116
   0.41531860  0.16595740  0.49983741
   0.16789643  0.91697081  0.50047273
   0.33441118  0.83198959  0.39684110
   0.66620908  0.16747543  0.49880417
   0.75021012 -0.00217384  0.60252009
   0.25120162  0.25043163  0.60125074
   0.58530945  0.58131674  0.39739372
   0.74848143  0.24987544  0.60268682
   0.33444794  0.33364367  0.39715816
   0.00143381  0.24878244  0.60106324
   0.91610360  0.16976069  0.49832452
   0.00219699 -0.00323787  0.60402985
   0.74877612  0.50223892  0.60088105
   0.33473014  0.08259168  0.39830771
   0.08191973  0.58524182  0.39875864
   0.41619313  0.66738573  0.50042387
   0.00046861  0.50208773  0.60105230
   0.66631424  0.66770241  0.49963398
   0.91680989  0.91514560  0.49877911
   0.91703615  0.66594242  0.49972721
   0.83193535  0.08301648  0.40062980
   0.49863374  0.75060813  0.59798205
   0.41643699  0.91750731  0.50023064
   0.83285850  0.33415724  0.40143154
   0.83138579  0.83434411  0.40133055
   0.58574088  0.83256807  0.40245958
   0.66760060  0.41737479  0.49945216
   0.83344957  0.58350039  0.40179168
   0.25004328  0.74953587  0.59836618
   0.58465309  0.33240047  0.40142271
   0.58544549  0.08144363  0.40135046
   0.66576572  0.91681519  0.49963948
   0.24952893  0.50154865  0.59706047
   0.16645095  0.66538360  0.50033128
   0.33317680  0.58398309  0.40192129
   0.16598656  0.41523082  0.49989338
   0.25153963 -0.00195523  0.59721050
   0.16657251  0.16795880  0.49963195
   0.00194507  0.74925040  0.59761565
   0.08291631  0.83333232  0.40205807
   0.91762612  0.41615186  0.49934677
   0.08180383  0.33442143  0.40354924
   0.49907388  0.25062300  0.59837110
   0.74990163  0.75071744  0.59764860
Direct configuration=     8
   0.08087997  0.08497363  0.39652573
   0.49743888  0.50114865  0.60328958
   0.41492188  0.41797864  0.49969024
   0.50058975 -0.00267034  0.60185932
   0.41574028  0.16526052  0.49972880
   0.16779270  0.91691329  0.50036345
   0.33429877  0.83211777  0.39646712
   0.66617084  0.16737746  0.49885628
   0.75007544 -0.00219661  0.60280900
   0.25105745  0.25021859  0.60149954
   0.58556923  0.58099274  0.39712405
   0.74844356  0.24995951  0.60301254
   0.33435875  0.33384424  0.39681513
   0.00167077  0.24857853  0.60128080
   0.91623975  0.16997662  0.49826461
   0.00258610 -0.00333447  0.60434589
   0.74865174  0.50220371  0.60109907
   0.33486355  0.08251587  0.39799905
   0.08219955  0.58510828  0.39853596
   0.41581476  0.66728093  0.50036652
   0.00063007  0.50211588  0.60124118
   0.66633964  0.66779960  0.49959173
   0.91675186  0.91528793  0.49888364
   0.91730763  0.66581390  0.49962318
   0.83180971  0.08308720  0.40064477
   0.49875506  0.75067322  0.59794118
   0.41654456  0.91781149  0.50008090
   0.83306896  0.33391513  0.40155214
   0.83140339  0.83463655  0.40136599
   0.58568310  0.83289799  0.40245179
   0.66748489  0.41735685  0.49953927
   0.83359522  0.58314766  0.40173551
   0.24990870  0.74973728  0.59832959
   0.58483596  0.33236146  0.40147170
   0.58556447  0.08136733  0.40142103
   0.66536459  0.91717377  0.49977927
   0.24953665  0.50161340  0.59701365
   0.16660508  0.66529251  0.50020678
   0.33323941  0.58384399  0.40185714
   0.16555827  0.41565584  0.49986370
   0.25135331 -0.00183984  0.59714553
   0.16622615  0.16795624  0.49955459
   0.00202494  0.74898047  0.59760658
   0.08276003  0.83348255  0.40204236
   0.91762041  0.41594700  0.49955789
   0.08158408  0.33445674  0.40358031
   0.49922750  0.25054613  0.59833228
   0.74985264  0.75063414  0.59765361
Direct configuration=     9
   0.08070393  0.08519141  0.39616984
   0.49738430  0.50098331  0.60355496
   0.41501508  0.41849748  0.49964079
   0.50048272 -0.00273489  0.60203801
   0.41618835  0.16452002  0.49961340
   0.16768247  0.91685217  0.50024734
   0.33417933  0.83225399  0.39606973
   0.66613020  0.16727335  0.49891166
   0.74993233 -0.00222080  0.60311600
   0.25090424  0.24999221  0.60176392
   0.58584527  0.58064845  0.39683751
   0.74840331  0.25004884  0.60335864
   0.33426399  0.33405737  0.39645062
   0.00192256  0.24836186  0.60151197
   0.91638441  0.17020608  0.49820096
   0.00299958 -0.00343711  0.60468172
   0.74851957  0.50216630  0.60133075
   0.33500532  0.08243532  0.39767106
   0.08249688  0.58496638  0.39829935
   0.41541271  0.66716956  0.50030558
   0.00080163  0.50214579  0.60144188
   0.66636663  0.66790287  0.49954684
   0.91669020  0.91543918  0.49899472
   0.91759610  0.66567734  0.49951264
   0.83167620  0.08316234  0.40066068
   0.49888399  0.75074240  0.59789776
   0.41665888  0.91813471  0.49992178
   0.83329258  0.33365787  0.40168028
   0.83142211  0.83494731  0.40140365
   0.58562171  0.83324857  0.40244352
   0.66736193  0.41733780  0.49963183
   0.83374999  0.58277285  0.40167583
   0.24976570  0.74995130  0.59829071
   0.58503028  0.33232001  0.40152375
   0.58569091  0.08128624  0.40149603
   0.66493835  0.91755480  0.49992782
   0.24954485  0.50168220  0.59696391
   0.16676885  0.66519571  0.50007447
   0.33330595  0.58369619  0.40178897
   0.16510317  0.41610746  0.49983216
   0.25115532 -0.00171723  0.59707648
   0.16585811  0.16795352  0.49947238
   0.00210982  0.74869364  0.59759695
   0.08259397  0.83364218  0.40202567
   0.91761435  0.41572932  0.49978223
   0.08135057  0.33449427  0.40361332
   0.49939073  0.25046445  0.59829103
   0.74980059  0.75054562  0.59765893
Direct configuration=    10
   0.08061306  0.08527306  0.39580608
   0.49708388  0.50117174  0.60381467
   0.41491117  0.41834149  0.49960569
   0.50024394 -0.00274131  0.60219100
   0.41582115  0.16488009  0.49951157
   0.16754040  0.91702284  0.50010856
   0.33419499  0.83219090  0.39562568
   0.66613376  0.16727764  0.49895870
   0.75003040 -0.00234157  0.60346274
   0.25109801  0.24983364  0.60192675
   0.58605821  0.58048093  0.39660716
   0.74857226  0.24989225  0.60375190
   0.33433103  0.33404633  0.39612829
   0.00198087  0.24829347  0.60178469
   0.91645891  0.17002352  0.49814524
   0.00311145 -0.00357698  0.60503874
   0.74845986  0.50225087  0.60155923
   0.33498034  0.08260854  0.39732418
   0.08254742  0.58496996  0.39806896
   0.41563541  0.66732154  0.50024793
   0.00080256  0.50220272  0.60160623
   0.66628100  0.66782093  0.49946913
   0.91662196  0.91561776  0.49912550
   0.91761561  0.66556631  0.49937211
   0.83159718  0.08321813  0.40076697
   0.49887631  0.75074075  0.59773451
   0.41656726  0.91806379  0.49977159
   0.83333733  0.33360067  0.40186080
   0.83148413  0.83507874  0.40153775
   0.58576730  0.83330862  0.40247944
   0.66717646  0.41765122  0.49972983
   0.83390360  0.58251891  0.40170617
   0.24979494  0.74994805  0.59820008
   0.58517851  0.33223074  0.40162883
   0.58578265  0.08133430  0.40160951
   0.66498413  0.91749683  0.50009245
   0.24962816  0.50162525  0.59683578
   0.16661129  0.66518024  0.49994325
   0.33342759  0.58369655  0.40166116
   0.16517286  0.41606156  0.49980823
   0.25125621 -0.00182211  0.59690566
   0.16590016  0.16795423  0.49937162
   0.00217759  0.74857110  0.59754123
   0.08244704  0.83378976  0.40203042
   0.91750536  0.41602110  0.50002187
   0.08122703  0.33453744  0.40370919
   0.49921079  0.25041417  0.59819199
   0.74985848  0.75035328  0.59762094
Direct configuration=    11
   0.08043315  0.08543472  0.39508588
   0.49648910  0.50154480  0.60432885
   0.41470544  0.41803265  0.49953621
   0.49977121 -0.00275401  0.60249390
   0.41509415  0.16559299  0.49930997
   0.16725910  0.91736075  0.49983381
   0.33422597  0.83206601  0.39474651
   0.66614083  0.16728612  0.49905183
   0.75022457 -0.00258067  0.60414925
   0.25148165  0.24951969  0.60224915
   0.58647979  0.58014926  0.39615109
   0.74890676  0.24958222  0.60453051
   0.33446375  0.33402446  0.39549012
   0.00209631  0.24815808  0.60232465
   0.91660643  0.16966208  0.49803491
   0.00333293 -0.00385390  0.60574558
   0.74834166  0.50241830  0.60201160
   0.33493090  0.08295151  0.39663741
   0.08264748  0.58497704  0.39761282
   0.41607632  0.66762243  0.50013379
   0.00080441  0.50231545  0.60193162
   0.66611146  0.66765869  0.49931529
   0.91648684  0.91597132  0.49938444
   0.91765424  0.66534648  0.49909387
   0.83144075  0.08332858  0.40097742
   0.49886112  0.75073750  0.59741130
   0.41638587  0.91792339  0.49947424
   0.83342593  0.33348740  0.40221820
   0.83160692  0.83533896  0.40180325
   0.58605554  0.83342752  0.40255056
   0.66680926  0.41827174  0.49992384
   0.83420772  0.58201616  0.40176623
   0.24985283  0.74994161  0.59802065
   0.58547199  0.33205399  0.40183687
   0.58596429  0.08142945  0.40183420
   0.66507477  0.91738204  0.50041840
   0.24979309  0.50151249  0.59658210
   0.16629936  0.66514961  0.49968344
   0.33366845  0.58369726  0.40140809
   0.16531083  0.41597068  0.49976086
   0.25145595 -0.00202976  0.59656745
   0.16598340  0.16795564  0.49917213
   0.00231176  0.74832850  0.59743090
   0.08215612  0.83408195  0.40203982
   0.91728957  0.41659881  0.50049633
   0.08098244  0.33462292  0.40389902
   0.49885453  0.25031461  0.59799589
   0.74997309  0.74997247  0.59754571
Direct configuration=    12
   0.08069032  0.08521354  0.39482660
   0.49664754  0.50149199  0.60450127
   0.41457914  0.41810699  0.49943436
   0.50010469 -0.00294742  0.60249650
   0.41467353  0.16583376  0.49922466
   0.16744063  0.91726812  0.49965889
   0.33444369  0.83199119  0.39429837
   0.66610416  0.16754424  0.49929216
   0.75021391 -0.00266224  0.60443776
   0.25135602  0.24975448  0.60223644
   0.58628413  0.58051386  0.39604778
   0.74876220  0.24957512  0.60480973
   0.33462343  0.33395375  0.39521094
   0.00205442  0.24818790  0.60248624
   0.91638675  0.16997825  0.49821265
   0.00315360 -0.00394219  0.60603352
   0.74829122  0.50228769  0.60217962
   0.33479986  0.08301938  0.39637240
   0.08251481  0.58507375  0.39745888
   0.41588600  0.66765674  0.49995922
   0.00094841  0.50204791  0.60196848
   0.66626064  0.66763902  0.49922126
   0.91647290  0.91579826  0.49962630
   0.91741188  0.66555063  0.49906170
   0.83163284  0.08330159  0.40110812
   0.49878762  0.75058974  0.59721663
   0.41617322  0.91806836  0.49924209
   0.83328764  0.33366767  0.40241633
   0.83165121  0.83508570  0.40196430
   0.58616701  0.83318914  0.40261667
   0.66689842  0.41814767  0.50013683
   0.83422484  0.58220965  0.40185177
   0.24985583  0.74981013  0.59780905
   0.58530979  0.33218456  0.40195302
   0.58579498  0.08155568  0.40196366
   0.66516211  0.91728966  0.50064119
   0.24970238  0.50140979  0.59642853
   0.16632786  0.66526146  0.49953321
   0.33377892  0.58382590  0.40133546
   0.16544125  0.41568637  0.49975092
   0.25143850 -0.00211468  0.59631887
   0.16608911  0.16803572  0.49911026
   0.00230455  0.74848355  0.59730674
   0.08231904  0.83406260  0.40205109
   0.91728879  0.41652937  0.50080285
   0.08121007  0.33458724  0.40404060
   0.49906182  0.25016389  0.59789076
   0.74998832  0.75003455  0.59745535
Direct configuration=    13
   0.08087739  0.08505264  0.39463799
   0.49676279  0.50145357  0.60462669
   0.41448726  0.41816106  0.49936027
   0.50034726 -0.00308810  0.60249838
   0.41436757  0.16600889  0.49916260
   0.16757267  0.91720074  0.49953166
   0.33460206  0.83193677  0.39397239
   0.66607748  0.16773199  0.49946697
   0.75020616 -0.00272158  0.60464762
   0.25126464  0.24992527  0.60222720
   0.58614181  0.58077907  0.39597263
   0.74865705  0.24956996  0.60501284
   0.33473957  0.33390232  0.39500785
   0.00202395  0.24820959  0.60260378
   0.91622696  0.17020824  0.49834193
   0.00302316 -0.00400641  0.60624298
   0.74825453  0.50219269  0.60230184
   0.33470454  0.08306874  0.39617963
   0.08241831  0.58514410  0.39734691
   0.41574756  0.66768170  0.49983223
   0.00105316  0.50185330  0.60199528
   0.66636916  0.66762471  0.49915287
   0.91646276  0.91567238  0.49980223
   0.91723559  0.66569913  0.49903830
   0.83177256  0.08328195  0.40120320
   0.49873415  0.75048225  0.59707502
   0.41601854  0.91817382  0.49907322
   0.83318704  0.33379879  0.40256044
   0.83168343  0.83490147  0.40208144
   0.58624810  0.83301574  0.40266475
   0.66696327  0.41805741  0.50029176
   0.83423729  0.58235039  0.40191399
   0.24985801  0.74971448  0.59765512
   0.58519182  0.33227954  0.40203751
   0.58567183  0.08164750  0.40205782
   0.66522565  0.91722246  0.50080325
   0.24963639  0.50133508  0.59631681
   0.16634859  0.66534282  0.49942394
   0.33385928  0.58391947  0.40128262
   0.16553612  0.41547957  0.49974369
   0.25142581 -0.00217646  0.59613805
   0.16616600  0.16809396  0.49906525
   0.00229931  0.74859633  0.59721643
   0.08243754  0.83404853  0.40205928
   0.91728822  0.41647885  0.50102582
   0.08137565  0.33456129  0.40414359
   0.49921261  0.25005426  0.59781430
   0.74999939  0.75007970  0.59738963
Direct configuration=    14
   0.08096674  0.08502732  0.39455017
   0.49688102  0.50125369  0.60470333
   0.41440762  0.41841740  0.49922946
   0.50045805 -0.00315239  0.60235872
   0.41463956  0.16571937  0.49908332
   0.16730275  0.91748879  0.49930259
   0.33472270  0.83210318  0.39350947
   0.66601033  0.16770919  0.49975665
   0.75014282 -0.00271859  0.60493795
   0.25135051  0.24984097  0.60209000
   0.58605131  0.58097269  0.39598046
   0.74853589  0.24951145  0.60527254
   0.33472855  0.33401824  0.39474370
   0.00199826  0.24794834  0.60271562
   0.91647486  0.17007744  0.49867037
   0.00289859 -0.00390784  0.60643336
   0.74825612  0.50217814  0.60243298
   0.33476382  0.08292288  0.39595985
   0.08252950  0.58510117  0.39727505
   0.41581286  0.66742147  0.49956805
   0.00089025  0.50192905  0.60193248
   0.66625496  0.66749502  0.49914061
   0.91647634  0.91587160  0.50001949
   0.91752243  0.66545903  0.49913487
   0.83200923  0.08316290  0.40146121
   0.49872577  0.75031198  0.59680456
   0.41605366  0.91832651  0.49878847
   0.83311971  0.33409863  0.40278671
   0.83161445  0.83484956  0.40225883
   0.58612712  0.83310152  0.40270283
   0.66686710  0.41812391  0.50057918
   0.83426506  0.58246765  0.40201693
   0.24981367  0.74953912  0.59735196
   0.58506081  0.33252828  0.40218295
   0.58561087  0.08156457  0.40228113
   0.66485069  0.91771826  0.50098913
   0.24966337  0.50131510  0.59614276
   0.16635581  0.66529085  0.49923925
   0.33378025  0.58397615  0.40120086
   0.16522801  0.41577603  0.49968467
   0.25128136 -0.00208966  0.59584050
   0.16593358  0.16801525  0.49904229
   0.00234179  0.74851423  0.59709284
   0.08269346  0.83395520  0.40207089
   0.91741071  0.41632533  0.50130567
   0.08154201  0.33457580  0.40430911
   0.49939368  0.24999002  0.59774390
   0.75018202  0.74987520  0.59732231
Direct configuration=    15
   0.08101542  0.08501352  0.39450233
   0.49694544  0.50114481  0.60474508
   0.41436423  0.41855705  0.49915820
   0.50051841 -0.00318741  0.60228264
   0.41478773  0.16556164  0.49904013
   0.16715571  0.91764571  0.49917779
   0.33478842  0.83219384  0.39325729
   0.66597375  0.16769677  0.49991447
   0.75010831 -0.00271696  0.60509611
   0.25139729  0.24979504  0.60201526
   0.58600200  0.58107816  0.39598472
   0.74846988  0.24947957  0.60541402
   0.33472255  0.33408139  0.39459980
   0.00198426  0.24780602  0.60277655
   0.91660991  0.17000619  0.49884930
   0.00283072 -0.00385414  0.60653708
   0.74825698  0.50217022  0.60250443
   0.33479611  0.08284341  0.39584011
   0.08259007  0.58507779  0.39723589
   0.41584844  0.66727970  0.49942413
   0.00080150  0.50197031  0.60189826
   0.66619275  0.66742437  0.49913393
   0.91648373  0.91598013  0.50013785
   0.91767869  0.66532823  0.49918748
   0.83213817  0.08309805  0.40160177
   0.49872120  0.75021921  0.59665721
   0.41607280  0.91840969  0.49863334
   0.83308303  0.33426198  0.40290997
   0.83157687  0.83482128  0.40235546
   0.58606121  0.83314826  0.40272358
   0.66681471  0.41816014  0.50073576
   0.83428018  0.58253153  0.40207301
   0.24978951  0.74944358  0.59718681
   0.58498944  0.33266379  0.40226218
   0.58557766  0.08151939  0.40240278
   0.66464641  0.91798837  0.50109039
   0.24967806  0.50130422  0.59604794
   0.16635974  0.66526254  0.49913863
   0.33373719  0.58400703  0.40115632
   0.16506016  0.41593754  0.49965252
   0.25120267 -0.00204238  0.59567839
   0.16580696  0.16797236  0.49902979
   0.00236494  0.74846950  0.59702551
   0.08283287  0.83390435  0.40207721
   0.91747744  0.41624169  0.50145812
   0.08163264  0.33458371  0.40439928
   0.49949233  0.24995503  0.59770556
   0.75028151  0.74976380  0.59728564
Direct configuration=    16
   0.08072222  0.08538781  0.39455219
   0.49683002  0.50105389  0.60474666
   0.41432218  0.41838713  0.49903951
   0.50029832 -0.00327225  0.60207549
   0.41464779  0.16582747  0.49893778
   0.16726289  0.91751949  0.49890446
   0.33472136  0.83232469  0.39279144
   0.66603147  0.16781757  0.50014576
   0.75014863 -0.00288517  0.60543135
   0.25155002  0.24954714  0.60174799
   0.58609417  0.58102708  0.39606818
   0.74848147  0.24940876  0.60571659
   0.33467117  0.33407811  0.39438576
   0.00202303  0.24759448  0.60292673
   0.91655368  0.16993357  0.49918978
   0.00294761 -0.00395796  0.60665147
   0.74827804  0.50214900  0.60265379
   0.33486856  0.08294377  0.39565126
   0.08271742  0.58506344  0.39720252
   0.41574100  0.66754833  0.49910119
   0.00077886  0.50190484  0.60184398
   0.66620031  0.66743318  0.49916746
   0.91636955  0.91618987  0.50029126
   0.91763279  0.66538669  0.49928774
   0.83218179  0.08310632  0.40202105
   0.49865628  0.75018897  0.59632595
   0.41608683  0.91823296  0.49832259
   0.83319018  0.33440750  0.40324787
   0.83153869  0.83498914  0.40260709
   0.58599841  0.83339664  0.40272103
   0.66689104  0.41800781  0.50106664
   0.83436789  0.58251540  0.40222380
   0.24970292  0.74941221  0.59677588
   0.58517087  0.33272787  0.40247136
   0.58571521  0.08144569  0.40264831
   0.66475959  0.91796951  0.50120979
   0.24979743  0.50124350  0.59585495
   0.16626015  0.66538813  0.49893471
   0.33357739  0.58410996  0.40096274
   0.16517187  0.41596070  0.49955277
   0.25120226 -0.00211206  0.59537402
   0.16576217  0.16795495  0.49899987
   0.00240164  0.74836186  0.59696241
   0.08293022  0.83388629  0.40206534
   0.91744837  0.41615342  0.50165007
   0.08163085  0.33461845  0.40454721
   0.49930878  0.25005034  0.59769865
   0.75035660  0.74957349  0.59724558
Direct configuration=    17
   0.08047468  0.08570379  0.39459428
   0.49673259  0.50097713  0.60474799
   0.41428668  0.41824367  0.49893931
   0.50011252 -0.00334388  0.60190062