 vasp.5.4.1 24Jun15 (build Mar 14 2019 10:18:33) complex                        
  
 executed on INTEL-19.0.2+OPENMPI date 2023.01.23  16:11:09
 running on   36 total cores
 distrk:  each k-point on   36 cores,    1 groups
 distr:  one band on NCORES_PER_BAND=   6 cores,    6 groups


--------------------------------------------------------------------------------------------------------


 INCAR:
 POTCAR:    PAW_PBE Au 04Oct2007                  
 POTCAR:    PAW_PBE O 08Apr2002                   
 POTCAR:    PAW_PBE Pd 04Jan2005                  
 POTCAR:    PAW_PBE Au 04Oct2007                  
  local pseudopotential read in
  partial core-charges read in
  partial kinetic energy density read in
  atomic valenz-charges read in
  non local Contribution for L=           2  read in
    real space projection operators read in
  non local Contribution for L=           2  read in
    real space projection operators read in
  non local Contribution for L=           0  read in
    real space projection operators read in
  non local Contribution for L=           0  read in
    real space projection operators read in
  non local Contribution for L=           1  read in
    real space projection operators read in
  non local Contribution for L=           1  read in
    real space projection operators read in
    PAW grid and wavefunctions read in
 
   number of l-projection  operators is LMAX  =           6
   number of lm-projection operators is LMMAX =          18
 
 POTCAR:    PAW_PBE O 08Apr2002                   
  local pseudopotential read in
  partial core-charges read in
  partial kinetic energy density read in
  kinetic energy density of atom read in
  atomic valenz-charges read in
  non local Contribution for L=           0  read in
    real space projection operators read in
  non local Contribution for L=           0  read in
    real space projection operators read in
  non local Contribution for L=           1  read in
    real space projection operators read in
  non local Contribution for L=           1  read in
    real space projection operators read in
    PAW grid and wavefunctions read in
 
   number of l-projection  operators is LMAX  =           4
   number of lm-projection operators is LMMAX =           8
 
 POTCAR:    PAW_PBE Pd 04Jan2005                  
  local pseudopotential read in
  partial core-charges read in
  partial kinetic energy density read in
  atomic valenz-charges read in
  non local Contribution for L=           2  read in
    real space projection operators read in
  non local Contribution for L=           2  read in
    real space projection operators read in
  non local Contribution for L=           0  read in
    real space projection operators read in
  non local Contribution for L=           0  read in
    real space projection operators read in
  non local Contribution for L=           1  read in
    real space projection operators read in
  non local Contribution for L=           1  read in
    real space projection operators read in
    PAW grid and wavefunctions read in
 
   number of l-projection  operators is LMAX  =           6
   number of lm-projection operators is LMMAX =          18
 
 Optimization of the real space projectors (new method)

 maximal supplied QI-value         = 15.12
 optimisation between [QCUT,QGAM] = [ 10.13, 20.41] = [ 28.73,116.64] Ry 
 Optimized for a Real-space Cutoff    1.51 Angstroem

   l    n(q)    QCUT    max X(q) W(low)/X(q) W(high)/X(q)  e(spline) 
   2      8    10.129    60.898    0.46E-03    0.46E-03    0.14E-06
   2      8    10.129    58.894    0.47E-03    0.47E-03    0.14E-06
   0      9    10.129   109.617    0.16E-03    0.11E-03    0.54E-07
   0      9    10.129    75.026    0.15E-03    0.11E-03    0.52E-07
   1      9    10.129    16.344    0.96E-04    0.15E-03    0.14E-06
   1      9    10.129    10.160    0.81E-04    0.12E-03    0.11E-06
 Optimization of the real space projectors (new method)

 maximal supplied QI-value         = 24.76
 optimisation between [QCUT,QGAM] = [ 10.15, 20.30] = [ 28.85,115.39] Ry 
 Optimized for a Real-space Cutoff    1.38 Angstroem

   l    n(q)    QCUT    max X(q) W(low)/X(q) W(high)/X(q)  e(spline) 
   0      8    10.150    20.381    0.22E-03    0.32E-03    0.29E-06
   0      8    10.150    15.268    0.23E-03    0.35E-03    0.30E-06
   1      8    10.150     5.964    0.46E-03    0.53E-03    0.21E-06
   1      8    10.150     5.382    0.38E-03    0.45E-03    0.19E-06
 Optimization of the real space projectors (new method)

 maximal supplied QI-value         = 14.36
 optimisation between [QCUT,QGAM] = [ 10.20, 20.39] = [ 29.12,116.47] Ry 
 Optimized for a Real-space Cutoff    1.51 Angstroem

   l    n(q)    QCUT    max X(q) W(low)/X(q) W(high)/X(q)  e(spline) 
   2      8    10.197    59.108    0.26E-03    0.14E-03    0.96E-07
   2      8    10.197    58.101    0.27E-03    0.14E-03    0.98E-07
   0      9    10.197   102.235    0.54E-04    0.60E-05    0.72E-07
   0      9    10.197    58.388    0.52E-04    0.60E-05    0.68E-07
   1      9    10.197    22.191    0.18E-03    0.25E-03    0.79E-07
   1      9    10.197    15.590    0.15E-03    0.21E-03    0.69E-07
  PAW_PBE Au 04Oct2007                  :
 energy of atom  1       EATOM= -926.0867
 kinetic energy error for atom=    0.0062 (will be added to EATOM!!)
  PAW_PBE O 08Apr2002                   :
 energy of atom  2       EATOM= -432.3788
 kinetic energy error for atom=    0.1156 (will be added to EATOM!!)
  PAW_PBE Pd 04Jan2005                  :
 energy of atom  3       EATOM= -809.7530
 kinetic energy error for atom=    0.0091 (will be added to EATOM!!)
 
 
 POSCAR: Au  O Pd                                
  positions in direct lattice
  velocities in cartesian coordinates
 exchange correlation table for  LEXCH =        8
   RHO(1)=    0.500       N(1)  =     2000
   RHO(2)=  100.500       N(2)  =     4000

 VTST: version 3.2, (02/03/18)

 CHAIN: initializing optimizer
 
 OPT: Using VASP Conjugate-Gradient optimizer
 CHAIN: Read ICHAIN            0
 
 POSCAR: Au  O Pd                                
  positions in direct lattice
  velocities in cartesian coordinates
 


--------------------------------------------------------------------------------------------------------


 ion  position               nearest neighbor table
   1  0.083  0.083  0.382-   2 2.75   6 2.75  43 2.75  47 2.75  11 2.75  15 2.75  42 2.95  16 2.95
                             3 2.99
   2  0.333  0.833  0.382-   1 2.75  14 2.75  15 2.75  21 2.75  13 2.75  43 2.75  33 2.92  42 2.93
                            37 2.94
   3  0.912  0.171  0.478-  48 2.70  53 2.73  44 2.73  12 2.77  52 2.81  42 2.81  16 2.82  47 2.95
                             4 2.96  11 2.97   1 2.99   8 3.54
   4  0.014  0.994  0.570-  32 2.06  54 2.65  35 2.67  10 2.78  52 2.81  40 2.82  42 2.87  12 2.96
                             3 2.96   8 3.02
   5  0.665  0.914  0.484-  33 2.71  36 2.72  50 2.74   9 2.78  12 2.79  10 2.79  44 2.80  20 2.95
                            13 3.08   7 3.11  24 3.12
   6  0.083  0.333  0.382-   1 2.75  15 2.75  46 2.75  49 2.75  47 2.75  18 2.75  53 2.84  16 2.95
                            56 3.03
   7  0.833  0.833  0.382-  11 2.75  24 2.75  46 2.75  49 2.75  13 2.75  43 2.75   9 2.91  12 2.96
                             5 3.11
   8  0.775  0.278  0.602-  32 2.03  31 2.06  52 2.57  51 2.66  38 2.83   4 3.02  34 3.23  10 3.27
                            48 3.50   3 3.54
   9  0.917  0.663  0.474-  53 2.72  50 2.72  56 2.77  22 2.78   5 2.78  12 2.79  45 2.80  49 2.87
                            46 2.88   7 2.91  40 2.95
  10  0.758  0.001  0.568-  29 2.21  32 2.48  40 2.73   4 2.78   5 2.79  12 2.81  34 2.83  44 2.88
                            20 2.95  39 3.04   8 3.27
  11  0.833  0.083  0.382-   7 2.75  43 2.75  47 2.75  55 2.75  24 2.75   1 2.75  44 2.94  12 2.96
                             3 2.97
  12  0.917  0.917  0.477-  42 2.75  44 2.76   3 2.77  22 2.78   5 2.79   9 2.79  10 2.81  40 2.92
                            43 2.96   7 2.96  11 2.96   4 2.96
  13  0.583  0.833  0.382-  14 2.75  15 2.75  24 2.75  49 2.75   2 2.75   7 2.75  50 2.84  33 2.91
                             5 3.08
  14  0.583  0.583  0.382-   2 2.75  13 2.75  47 2.75  55 2.75  49 2.75  21 2.75  50 2.84  37 2.89
                            48 3.01
  15  0.333  0.083  0.382-   2 2.75   6 2.75  13 2.75  18 2.75   1 2.75  24 2.75  16 2.91  33 2.93
                            36 3.20
  16  0.171  0.165  0.476-  56 2.73  33 2.74  36 2.76  42 2.77  53 2.79   3 2.82  52 2.82  35 2.84
                            15 2.91   6 2.95   1 2.95  19 3.06
  17  0.423  0.411  0.482-  44 2.68  48 2.71  36 2.74  56 2.77  37 2.77  22 2.79  23 2.93  34 3.00
                            38 3.04  55 3.04  18 3.08  21 3.10
  18  0.333  0.333  0.382-  15 2.75  21 2.75  24 2.75  46 2.75   6 2.75  55 2.75  56 3.00  17 3.08
                            36 3.20
  19  0.248  0.256  0.576-  26 2.21  23 2.66  52 2.74  34 2.75  45 2.78  20 2.82  36 2.85  35 2.85
                            56 2.93  16 3.06
  20  0.496  0.992  0.578-  29 2.12  28 2.18  35 2.65  41 2.73  19 2.82  36 2.88  34 2.88  10 2.95
                             5 2.95  39 3.03  33 3.06
  21  0.333  0.583  0.382-   2 2.75  18 2.75  43 2.75  55 2.75  46 2.75  14 2.75  22 2.89  37 2.94
                            17 3.10
  22  0.169  0.663  0.475-  56 2.74  42 2.77   9 2.78  12 2.78  37 2.79  17 2.79  54 2.80  21 2.89
                            46 2.90  43 2.92  40 2.97  23 3.03
  23  0.245  0.499  0.574-  27 2.17  19 2.66  40 2.72  45 2.72  34 2.77  54 2.84  56 2.88  17 2.93
                            38 2.96  22 3.03
  24  0.583  0.083  0.382-   7 2.75  13 2.75  18 2.75  55 2.75  11 2.75  15 2.75  44 2.94   5 3.12
                            36 3.17
  25  0.936  0.752  0.638-  39 1.90  40 1.93
  26  0.154  0.146  0.616-  35 1.99  52 2.02  19 2.21
  27  0.325  0.613  0.616-  54 1.95  38 2.02  23 2.17
  28  0.566  0.802  0.622-  39 1.97  41 1.98  20 2.18
  29  0.588  0.080  0.625-  34 2.00  20 2.12  10 2.21
  30  0.843  0.558  0.616-  39 1.98  45 2.00  51 2.01
  31  0.572  0.347  0.625-  34 1.98  38 1.99   8 2.06
  32  0.874  0.078  0.630-   8 2.03   4 2.06  10 2.48
  33  0.419  0.915  0.475-   5 2.71  16 2.74  37 2.75  50 2.75  42 2.76  41 2.76  36 2.77  35 2.81
                            13 2.91   2 2.92  15 2.93  20 3.06
  34  0.500  0.252  0.581-  31 1.98  29 2.00  19 2.75  23 2.77  10 2.83  38 2.87  20 2.88  36 2.92
                            17 3.00  44 3.17   8 3.23
  35  0.257  0.994  0.565-  26 1.99  20 2.65   4 2.67  54 2.69  41 2.77  33 2.81  42 2.82  16 2.84
                            52 2.85  19 2.85
  36  0.421  0.164  0.487-   5 2.72  44 2.73  17 2.74  16 2.76  56 2.76  33 2.77  19 2.85  20 2.88
                            34 2.92  24 3.17  15 3.20  18 3.20
  37  0.422  0.663  0.476-  48 2.70  41 2.71  50 2.72  33 2.75  54 2.77  17 2.77  42 2.79  22 2.79
                            14 2.89  21 2.94   2 2.94  38 3.06
  38  0.509  0.508  0.578-  31 1.99  27 2.02  41 2.61  51 2.72  54 2.79   8 2.83  34 2.87  23 2.96
                            48 2.98  17 3.04  37 3.06
  39  0.761  0.762  0.627-  25 1.90  28 1.97  30 1.98  40 2.95  20 3.03  10 3.04  45 3.18  51 3.37
                            41 3.40
  40  0.999  0.746  0.569-  25 1.93  45 2.66  23 2.72  10 2.73   4 2.82  54 2.83  12 2.92  39 2.95
                             9 2.95  22 2.97
  41  0.508  0.742  0.560-  28 1.98  38 2.61  51 2.64  37 2.71  20 2.73  33 2.76  54 2.76  35 2.77
                            50 2.78  39 3.40
  42  0.168  0.915  0.476-  54 2.72  12 2.75  33 2.76  22 2.77  16 2.77  37 2.79   3 2.81  35 2.82
                             4 2.87   2 2.93  43 2.94   1 2.95
  43  0.083  0.833  0.382-   1 2.75  11 2.75  21 2.75  46 2.75   7 2.75   2 2.75  22 2.92  42 2.94
                            12 2.96
  44  0.666  0.167  0.476-  17 2.68  36 2.73   3 2.73  48 2.75  12 2.76   5 2.80  10 2.88  55 2.94
                            24 2.94  11 2.94  34 3.17
  45  0.995  0.506  0.564-  30 2.00  40 2.66  51 2.67  23 2.72  52 2.72  56 2.77  19 2.78   9 2.80
                            53 2.91  39 3.18
  46  0.083  0.583  0.382-   6 2.75   7 2.75  18 2.75  43 2.75  21 2.75  49 2.75   9 2.88  22 2.90
                            56 3.04
  47  0.833  0.333  0.382-   1 2.75  11 2.75  14 2.75  49 2.75   6 2.75  55 2.75  53 2.83   3 2.95
                            48 3.01
  48  0.667  0.417  0.480-  51 2.67  37 2.70   3 2.70  17 2.71  53 2.75  50 2.75  44 2.75  38 2.98
                            14 3.01  47 3.01  55 3.02   8 3.50
  49  0.833  0.583  0.382-   6 2.75   7 2.75  13 2.75  47 2.75  46 2.75  14 2.75  50 2.82  53 2.84
                             9 2.87
  50  0.669  0.665  0.471-   9 2.72  37 2.72  53 2.73   5 2.74  48 2.75  51 2.75  33 2.75  41 2.78
                            49 2.82  14 2.84  13 2.84
  51  0.752  0.507  0.559-  30 2.01  41 2.64   8 2.66  45 2.67  48 2.67  38 2.72  50 2.75  52 2.76
                            53 2.78  39 3.37
  52  0.001  0.255  0.564-  26 2.02   8 2.57  45 2.72  19 2.74  51 2.76   3 2.81   4 2.81  16 2.82
                            35 2.85  53 2.87
  53  0.916  0.416  0.472-   9 2.72   3 2.73  50 2.73  48 2.75  51 2.78  16 2.79  56 2.79  47 2.83
                             6 2.84  49 2.84  52 2.87  45 2.91
  54  0.252  0.751  0.561-  27 1.95   4 2.65  35 2.69  42 2.72  41 2.76  37 2.77  38 2.79  22 2.80
                            40 2.83  23 2.84
  55  0.583  0.333  0.382-  11 2.75  14 2.75  21 2.75  24 2.75  18 2.75  47 2.75  44 2.94  48 3.02
                            17 3.04
  56  0.171  0.414  0.480-  16 2.73  22 2.74  36 2.76  17 2.77  45 2.77   9 2.77  53 2.79  23 2.88
                            19 2.93  18 3.00   6 3.03  46 3.04
 
  LATTYP: Found a hexagonal cell.
 ALAT       =    11.0025815153
 C/A-ratio  =     2.3805127059
  
  Lattice vectors:
  
 A1 = (   5.5012907576,  -9.5285150994,   0.0000000000)
 A2 = ( -11.0025815153,   0.0000000000,   0.0000000000)
 A3 = (   0.0000000000,   0.0000000000, -26.1917850943)


Analysis of symmetry for initial positions (statically):
=====================================================================
 Subroutine PRICEL returns:
 Original cell was already a primitive cell.
 

 Routine SETGRP: Setting up the symmetry group for a 
 hexagonal supercell.


 Subroutine GETGRP returns: Found  1 space group operations
 (whereof  1 operations were pure point group operations)
 out of a pool of 24 trial point group operations.


The static configuration has the point symmetry C_1 .


Analysis of symmetry for dynamics (positions and initial velocities):
=====================================================================
 Subroutine PRICEL returns:
 Original cell was already a primitive cell.
 

 Routine SETGRP: Setting up the symmetry group for a 
 hexagonal supercell.


 Subroutine GETGRP returns: Found  1 space group operations
 (whereof  1 operations were pure point group operations)
 out of a pool of 24 trial point group operations.


The dynamic configuration has the point symmetry C_1 .


Analysis of constrained symmetry for selective dynamics:
=====================================================================
 Subroutine PRICEL returns:
 Original cell was already a primitive cell.
 

 Routine SETGRP: Setting up the symmetry group for a 
 hexagonal supercell.


 Subroutine GETGRP returns: Found  1 space group operations
 (whereof  1 operations were pure point group operations)
 out of a pool of 24 trial point group operations.


The constrained configuration has the point symmetry C_1 .
 
 
 KPOINTS: Automatic mesh                          

Automatic generation of k-mesh.
Space group operators:
 irot       det(A)        alpha          n_x          n_y          n_z        tau_x        tau_y        tau_z
    1     1.000000     0.000000     1.000000     0.000000     0.000000     0.000000     0.000000     0.000000
 
 Subroutine IBZKPT returns following result:
 ===========================================
 
 Found      6 irreducible k-points:
 
 Following reciprocal coordinates:
            Coordinates               Weight
  0.250000  0.250000  0.000000     16.000000
  0.000000  0.250000  0.000000     16.000000
 -0.250000  0.000000  0.000000     16.000000
 -0.250000  0.250000  0.000000     16.000000
  0.500000 -0.250000  0.000000     16.000000
 -0.250000  0.500000  0.000000     16.000000
 
 Following cartesian coordinates:
            Coordinates               Weight
  0.022722  0.013119  0.000000     16.000000
  0.000000  0.026237  0.000000     16.000000
 -0.022722  0.013119  0.000000     16.000000
 -0.022722  0.039356  0.000000     16.000000
  0.045444 -0.052474  0.000000     16.000000
 -0.022722  0.065593  0.000000     16.000000
 


--------------------------------------------------------------------------------------------------------




 Dimension of arrays:
   k-points           NKPTS =      6   k-points in BZ     NKDIM =      6   number of bands    NBANDS=    336
   number of dos      NEDOS =    301   number of ions     NIONS =     56
   non local maximal  LDIM  =      6   non local SUM 2l+1 LMDIM =     18
   total plane-waves  NPLWV = 373248
   max r-space proj   IRMAX =   2004   max aug-charges    IRDMAX=   8511
   dimension x,y,z NGX =    54 NGY =   54 NGZ =  128
   dimension x,y,z NGXF=   108 NGYF=  108 NGZF=  256
   support grid    NGXF=   108 NGYF=  108 NGZF=  256
   ions per type =              24   8  24
 NGX,Y,Z   is equivalent  to a cutoff of   8.16,  8.16,  8.12 a.u.
 NGXF,Y,Z  is equivalent  to a cutoff of  16.32, 16.32, 16.25 a.u.


 I would recommend the setting:
   dimension x,y,z NGX =    54 NGY =   54 NGZ =  128
 SYSTEM =  unknown system                          
 POSCAR =  Au  O Pd                                

 Startparameter for this run:
   NWRITE =      1    write-flag & timer
   PREC   = normal    normal or accurate (medium, high low for compatibility)
   ISTART =      0    job   : 0-new  1-cont  2-samecut
   ICHARG =      2    charge: 1-file 2-atom 10-const
   ISPIN  =      1    spin polarized calculation?
   LNONCOLLINEAR =      F non collinear calculations
   LSORBIT =      F    spin-orbit coupling
   INIWAV =      1    electr: 0-lowe 1-rand  2-diag
   LASPH  =      F    aspherical Exc in radial PAW
   METAGGA=      F    non-selfconsistent MetaGGA calc.

 Electronic Relaxation 1
   ENCUT  =  400.0 eV  29.40 Ry    5.42 a.u.  17.94 17.94 42.71*2*pi/ulx,y,z
   ENINI  =  400.0     initial cutoff
   ENAUG  =  605.4 eV  augmentation charge cutoff
   NELM   =    500;   NELMIN=  2; NELMDL= -5     # of ELM steps 
   EDIFF  = 0.1E-05   stopping-criterion for ELM
   LREAL  =      T    real-space projection
   NLSPLINE    = F    spline interpolate recip. space projectors
   LCOMPAT=      F    compatible to vasp.4.4
   GGA_COMPAT  = T    GGA compatible to vasp.4.4-vasp.4.6
   LMAXPAW     = -100 max onsite density
   LMAXMIX     =    2 max onsite mixed and CHGCAR
   VOSKOWN=      1    Vosko Wilk Nusair interpolation
   ROPT   =   -0.00050  -0.00050  -0.00050
 Ionic relaxation
   EDIFFG = -.2E-01   stopping-criterion for IOM
   NSW    =    500    number of steps for IOM
   NBLOCK =      1;   KBLOCK =    500    inner block; outer block 
   IBRION =      2    ionic relax: 0-MD 1-quasi-New 2-CG
   NFREE  =      2    steps in history (QN), initial steepest desc. (CG)
   ISIF   =      0    stress and relaxation
   IWAVPR =     11    prediction:  0-non 1-charg 2-wave 3-comb
   ISYM   =      2    0-nonsym 1-usesym 2-fastsym
   LCORR  =      T    Harris-Foulkes like correction to forces

   POTIM  = 0.3500    time-step for ionic-motion
   TEIN   =    0.0    initial temperature
   TEBEG  =    0.0;   TEEND  =   0.0 temperature during run
   SMASS  =  -3.00    Nose mass-parameter (am)
   estimated Nose-frequenzy (Omega)   =  0.10E-29 period in steps =****** mass=  -0.277E-26a.u.
   SCALEE = 1.0000    scale energy and forces
   NPACO  =    256;   APACO  = 16.0  distance and # of slots for P.C.
   PSTRESS=    0.0 pullay stress

  Mass of Ions in am
   POMASS = 196.97 16.00106.42
  Ionic Valenz
   ZVAL   =  11.00  6.00 10.00
  Atomic Wigner-Seitz radii
   RWIGS  =  -1.00 -1.00 -1.00
  virtual crystal weights 
   VCA    =   1.00  1.00  1.00
   NELECT =     552.0000    total number of electrons
   NUPDOWN=      -1.0000    fix difference up-down

 DOS related values:
   EMIN   =  10.00;   EMAX   =-10.00  energy-range for DOS
   EFERMI =   0.00
   ISMEAR =     0;   SIGMA  =   0.10  broadening in eV -4-tet -1-fermi 0-gaus

 Electronic relaxation 2 (details)
   IALGO  =     68    algorithm
   LDIAG  =      T    sub-space diagonalisation (order eigenvalues)
   LSUBROT=      F    optimize rotation matrix (better conditioning)
   TURBO    =      0    0=normal 1=particle mesh
   IRESTART =      0    0=no restart 2=restart with 2 vectors
   NREBOOT  =      0    no. of reboots
   NMIN     =      0    reboot dimension
   EREF     =   0.00    reference energy to select bands
   IMIX   =      4    mixing-type and parameters
     AMIX     =   0.40;   BMIX     =  1.00
     AMIX_MAG =   1.60;   BMIX_MAG =  1.00
     AMIN     =   0.10
     WC   =   100.;   INIMIX=   1;  MIXPRE=   1;  MAXMIX= -45

 Intra band minimization:
   WEIMIN = 0.0010     energy-eigenvalue tresh-hold
   EBREAK =  0.74E-09  absolut break condition
   DEPER  =   0.30     relativ break condition  

   TIME   =   0.40     timestep for ELM

  volume/ion in A,a.u.               =      49.03       330.90
  Fermi-wavevector in a.u.,A,eV,Ry     =   0.959017  1.812279 12.513458  0.919713
  Thomas-Fermi vector in A             =   2.088176
 
 Write flags
   LWAVE  =      F    write WAVECAR
   LCHARG =      F    write CHGCAR
   LVTOT  =      F    write LOCPOT, total local potential
   LVHAR  =      F    write LOCPOT, Hartree potential only
   LELF   =      F    write electronic localiz. function (ELF)
   LORBIT =      0    0 simple, 1 ext, 2 COOP (PROOUT)


 Dipole corrections
   LMONO  =      F    monopole corrections only (constant potential shift)
   LDIPOL =      T    correct potential (dipole corrections)
   IDIPOL =      3    1-x, 2-y, 3-z, 4-all directions 
   EPSILON=  1.0000000 bulk dielectric constant

 Exchange correlation treatment:
   GGA     =    PE    GGA type
   LEXCH   =     8    internal setting for exchange type
   VOSKOWN=      1    Vosko Wilk Nusair interpolation
   LHFCALC =     F    Hartree Fock is set to
   LHFONE  =     F    Hartree Fock one center treatment
   AEXX    =    0.0000 exact exchange contribution

 Linear response parameters
   LEPSILON=     F    determine dielectric tensor
   LRPA    =     F    only Hartree local field effects (RPA)
   LNABLA  =     F    use nabla operator in PAW spheres
   LVEL    =     F    velocity operator in full k-point grid
   LINTERFAST=   F  fast interpolation
   KINTER  =     0    interpolate to denser k-point grid
   CSHIFT  =0.1000    complex shift for real part using Kramers Kronig
   OMEGAMAX=  -1.0    maximum frequency
   DEG_THRESHOLD= 0.2000000E-02 threshold for treating states as degnerate
   RTIME   =    0.100 relaxation time in fs

 Orbital magnetization related:
   ORBITALMAG=     F  switch on orbital magnetization
   LCHIMAG   =     F  perturbation theory with respect to B field
   DQ        =  0.001000  dq finite difference perturbation B field



--------------------------------------------------------------------------------------------------------


 conjugate gradient relaxation of ions
   using selective dynamics as specified on POSCAR
 charge density and potential will be updated during run
 non-spin polarized calculation
 RMM-DIIS sequential band-by-band and
  variant of blocked Davidson during initial phase
 perform sub-space diagonalisation
    before iterative eigenvector-optimisation
 modified Broyden-mixing scheme, WC =      100.0
 initial mixing is a Kerker type mixing with AMIX =  0.4000 and BMIX =      1.0000
 Hartree-type preconditioning will be used
 using additional bands           60
 real space projection scheme for non local part
 use partial core corrections
 calculate Harris-corrections to forces 
   (improved forces if not selfconsistent)
 use gradient corrections 
 use of overlap-Matrix (Vanderbilt PP)
 Gauss-broadening in eV      SIGMA  =   0.10


--------------------------------------------------------------------------------------------------------


  energy-cutoff  :      400.00
  volume of cell :     2745.90
      direct lattice vectors                 reciprocal lattice vectors
    11.002581515  0.000000000  0.000000000     0.090887761 -0.052474073  0.000000000
     5.501290758  9.528515099  0.000000000     0.000000000  0.104948147  0.000000000
     0.000000000  0.000000000 26.191785094     0.000000000  0.000000000  0.038179910

  length of vectors
    11.002581515 11.002581515 26.191785094     0.104948147  0.104948147  0.038179910


 
 k-points in units of 2pi/SCALE and weight: Automatic mesh                          
   0.02272194  0.01311852  0.00000000       0.167
   0.00000000  0.02623704  0.00000000       0.167
  -0.02272194  0.01311852  0.00000000       0.167
  -0.02272194  0.03935555  0.00000000       0.167
   0.04544388 -0.05247407  0.00000000       0.167
  -0.02272194  0.06559259  0.00000000       0.167
 
 k-points in reciprocal lattice and weights: Automatic mesh                          
   0.25000000  0.25000000  0.00000000       0.167
   0.00000000  0.25000000  0.00000000       0.167
  -0.25000000  0.00000000  0.00000000       0.167
  -0.25000000  0.25000000  0.00000000       0.167
   0.50000000 -0.25000000  0.00000000       0.167
  -0.25000000  0.50000000  0.00000000       0.167
 
 position of ions in fractional coordinates (direct lattice) 
   0.08333333  0.08333333  0.38179910
   0.33333333  0.83333333  0.38179910
   0.91210142  0.17084009  0.47751262
   0.01406150  0.99402972  0.57045229
   0.66528831  0.91389197  0.48350253
   0.08333333  0.33333333  0.38179910
   0.83333333  0.83333333  0.38179910
   0.77509411  0.27756003  0.60218796
   0.91710715  0.66273405  0.47374029
   0.75840214  0.00051096  0.56768772
   0.83333333  0.08333333  0.38179910
   0.91683804  0.91655049  0.47702543
   0.58333333  0.83333333  0.38179910
   0.58333333  0.58333333  0.38179910
   0.33333333  0.08333333  0.38179910
   0.17147551  0.16497959  0.47611727
   0.42316439  0.41147156  0.48235504
   0.33333333  0.33333333  0.38179910
   0.24829487  0.25560410  0.57592833
   0.49590943  0.99224314  0.57782130
   0.33333333  0.58333333  0.38179910
   0.16908947  0.66326972  0.47450010
   0.24483235  0.49859869  0.57364082
   0.58333333  0.08333333  0.38179910
   0.93620974  0.75225462  0.63847995
   0.15379136  0.14554128  0.61567862
   0.32544141  0.61302238  0.61590121
   0.56562962  0.80156133  0.62243542
   0.58799327  0.08049582  0.62516029
   0.84251523  0.55839302  0.61558383
   0.57160873  0.34738452  0.62541793
   0.87441108  0.07840868  0.63024622
   0.41891298  0.91482721  0.47529034
   0.49971714  0.25215695  0.58107126
   0.25667037  0.99378030  0.56493839
   0.42120036  0.16385859  0.48737132
   0.42237911  0.66346140  0.47552320
   0.50851566  0.50791313  0.57759858
   0.76063720  0.76238022  0.62731244
   0.99861039  0.74551700  0.56932292
   0.50778237  0.74179394  0.55994556
   0.16771987  0.91527819  0.47625183
   0.08333333  0.83333333  0.38179910
   0.66587147  0.16733622  0.47628373
   0.99521266  0.50560809  0.56415570
   0.08333333  0.58333333  0.38179910
   0.83333333  0.33333333  0.38179910
   0.66675256  0.41707171  0.47960210
   0.83333333  0.58333333  0.38179910
   0.66895422  0.66505717  0.47143092
   0.75216137  0.50693327  0.55930120
   0.00098449  0.25523931  0.56422934
   0.91630840  0.41616707  0.47161755
   0.25194776  0.75145705  0.56122973
   0.58333333  0.33333333  0.38179910
   0.17074345  0.41370676  0.48006177
 
 position of ions in cartesian coordinates  (Angst):
   1.37532269  0.79404292 10.00000000
   8.25193614  7.94042925 10.00000000
  10.97531121  1.62785240 12.50690784
   5.62315930  9.47162721 14.94116386
  12.34747438  8.70803348 12.66379443
   2.75064538  3.17617170 10.00000000
  13.75322689  7.94042925 10.00000000
  10.05497461  2.64473498 15.77237751
  13.73643883  6.31487141 12.40810395
   8.34719224  0.00486865 14.86875465
   9.62725883  0.79404292 10.00000000
  15.12979608  8.73336522 12.49414747
  11.00258152  7.94042925 10.00000000
   9.62725883  5.55830047 10.00000000
   4.12596807  0.79404292 10.00000000
   2.79427401  1.57201050 12.47036112
   6.91952537  3.92071301 12.63373964
   5.50129076  3.17617170 10.00000000
   4.13803705  2.43552753 15.08459107
  10.91490195  9.45460371 15.13417125
   6.87661345  5.55830047 10.00000000
   5.50926029  6.31997559 12.42800470
   5.43672429  4.75090515 15.02467718
   6.87661345  0.79404292 10.00000000
  14.43909543  7.16786954 16.72292965
   2.49276690  1.38679229 16.12572206
   6.95310998  5.84119298 16.13155202
  10.63300799  7.63768922 16.30269485
   6.91227481  0.76700564 16.37406407
  12.34172482  5.32065636 16.12323946
   8.20023494  3.31005869 16.38081212
  10.05212812  0.74711831 16.50727350
   9.64185466  8.71694493 12.44870232
   6.88536729  2.40268129 15.21929350
   8.29111100  9.46925059 14.79674481
   5.53572504  1.56132908 12.76512483
   8.29715466  6.32180197 12.45480137
   8.38916278  4.83965789 15.12833781
  12.56304805  7.26435140 16.43043264
  15.08859800  7.10366996 14.91158366
   9.66774105  7.06819477 14.66597374
   6.88056297  8.72124205 12.47388553
   5.50129076  7.94042925 10.00000000
   8.24687036  1.59446566 12.47472105
  13.73140556  4.81769432 14.77624475
   4.12596807  5.55830047 10.00000000
  11.00258152  3.17617170 10.00000000
   9.63043208  3.97407406 12.56163516
  12.37790420  5.55830047 10.00000000
  11.01889624  6.33700730 12.34761740
  11.06450414  4.83032136 14.64909683
   1.41497755  2.43205158 14.77817354
  12.37121387  3.96545419 12.35250546
   6.90605952  7.16026980 14.69960853
   8.25193614  3.17617170 10.00000000
   4.15453994  3.94201114 12.57367461
 


--------------------------------------------------------------------------------------------------------


 k-point  1 :   0.2500 0.2500 0.0000  plane waves:   49913
 k-point  2 :   0.0000 0.2500 0.0000  plane waves:   49913
 k-point  3 :  -0.2500 0.0000 0.0000  plane waves:   49913
 k-point  4 :  -0.2500 0.2500 0.0000  plane waves:   49888
 k-point  5 :   0.5000-0.2500 0.0000  plane waves:   49888
 k-point  6 :  -0.2500 0.5000 0.0000  plane waves:   49888

 maximum and minimum number of plane-waves per node :      8356     8289

 maximum number of plane-waves:     49913
 maximum index in each direction: 
   IXMAX=   18   IYMAX=   18   IZMAX=   42
   IXMIN=  -18   IYMIN=  -18   IZMIN=  -42

 WARNING: aliasing errors must be expected set NGX to  74 to avoid them
 WARNING: aliasing errors must be expected set NGY to  74 to avoid them
 WARNING: aliasing errors must be expected set NGZ to 170 to avoid them
 aliasing errors are usually negligible using standard VASP settings
 and one can safely disregard these warnings

 real space projection operators:
  total allocation   :      13533.25 KBytes
  max/ min on nodes  :       2274.28       2245.20


 parallel 3D FFT for wavefunctions:
    minimum data exchange during FFTs selected (reduces bandwidth)
 parallel 3D FFT for charge:
    minimum data exchange during FFTs selected (reduces bandwidth)


 total amount of memory used by VASP on root node    93046. kBytes
========================================================================

   base      :      30000. kBytes
   nonlr-proj:       4703. kBytes
   fftplans  :       4744. kBytes
   grid      :       7835. kBytes
   one-center:        155. kBytes
   wavefun   :      45609. kBytes
 
     INWAV:  cpu time    0.0000: real time    0.0000
 Broyden mixing: mesh for mixing (old mesh)
   NGX = 35   NGY = 35   NGZ = 85
  (NGX  =108   NGY  =108   NGZ  =256)
  gives a total of 104125 points

 initial charge density was supplied:
 charge density of overlapping atoms calculated
 number of electron     552.0000000 magnetization 
 keeping initial charge density in first step


--------------------------------------------------------------------------------------------------------


 Maximum index for non-local projection operator          351
 Maximum index for augmentation-charges          445 (set IRDMAX)


--------------------------------------------------------------------------------------------------------


 First call to EWALD:  gamma=   0.127
 Maximum number of real-space cells 4x 4x 2
 Maximum number of reciprocal cells 2x 2x 5

 FEWALD executed in parallel
    FEWALD:  cpu time    0.0029: real time    0.0030


----------------------------------------- Iteration    1(   1)  ---------------------------------------


    POTLOK:  cpu time    0.0574: real time    0.0577
    SETDIJ:  cpu time    0.0069: real time    0.0069
     EDDAV:  cpu time   11.5842: real time   11.6669
       DOS:  cpu time    0.0013: real time    0.0014
    --------------------------------------------
      LOOP:  cpu time   11.6525: real time   11.7385

 eigenvalue-minimisations  :  4080
 total energy-change (2. order) : 0.3619978E+04  (-0.2101246E+05)
 number of electron     552.0000000 magnetization 
 augmentation part      552.0000000 magnetization 

 DIPCOR: dipole corrections for dipol
 direction  3 min pos     1,
 dipolmoment           0.000000      0.000000      0.000062 electrons x Angstroem
 Tr[quadrupol]    -11124.627675

 energy correction for charged system         0.000000 eV
 dipol+quadrupol energy correction           -0.000000 eV
 added-field ion interaction          0.000604 eV  (added to PSCEN)


 Free energy of the ion-electron system (eV)
  ---------------------------------------------------
  alpha Z        PSCENC =       862.57708521
  Ewald energy   TEWEN  =    236048.39770376
  -Hartree energ DENC   =   -281665.02124661
  -exchange      EXHF   =         0.00000000
  -V(xc)+E(xc)   XCENC  =      -116.02806209
  PAW double counting   =     43112.45544455   -41079.41300390
  entropy T*S    EENTRO =        -0.12976646
  eigenvalues    EBANDS =      1339.24811884
  atomic energy  EATOM  =     45117.89144060
  Solvation  Ediel_sol  =         0.00000000
  ---------------------------------------------------
  free energy    TOTEN  =      3619.97771390 eV

  energy without entropy =     3620.10748036  energy(sigma->0) =     3620.04259713


--------------------------------------------------------------------------------------------------------




----------------------------------------- Iteration    1(   2)  ---------------------------------------


     EDDAV:  cpu time   13.4949: real time   13.5586
       DOS:  cpu time    0.0013: real time    0.0013
    --------------------------------------------
      LOOP:  cpu time   13.4967: real time   13.5628

 eigenvalue-minimisations  :  4812
 total energy-change (2. order) :-0.3569926E+04  (-0.3316419E+04)
 number of electron     552.0000000 magnetization 
 augmentation part      552.0000000 magnetization 

 DIPCOR: dipole corrections for dipol
 direction  3 min pos     1,
 dipolmoment           0.000000      0.000000      0.000062 electrons x Angstroem
 Tr[quadrupol]    -11124.627675

 energy correction for charged system         0.000000 eV
 dipol+quadrupol energy correction           -0.000000 eV
 added-field ion interaction          0.000604 eV  (added to PSCEN)


 Free energy of the ion-electron system (eV)
  ---------------------------------------------------
  alpha Z        PSCENC =       862.57708521
  Ewald energy   TEWEN  =    236048.39770376
  -Hartree energ DENC   =   -281665.02124661
  -exchange      EXHF   =         0.00000000
  -V(xc)+E(xc)   XCENC  =      -116.02806209
  PAW double counting   =     43112.45544455   -41079.41300390
  entropy T*S    EENTRO =        -0.14809263
  eigenvalues    EBANDS =     -2230.65944200
  atomic energy  EATOM  =     45117.89144060
  Solvation  Ediel_sol  =         0.00000000
  ---------------------------------------------------
  free energy    TOTEN  =        50.05182689 eV

  energy without entropy =       50.19991952  energy(sigma->0) =       50.12587321


--------------------------------------------------------------------------------------------------------




----------------------------------------- Iteration    1(   3)  ---------------------------------------


     EDDAV:  cpu time   13.0450: real time   13.0793
       DOS:  cpu time    0.0014: real time    0.0014
    --------------------------------------------
      LOOP:  cpu time   13.0472: real time   13.0858

 eigenvalue-minimisations  :  4608
 total energy-change (2. order) :-0.3045186E+03  (-0.2831282E+03)
 number of electron     552.0000000 magnetization 
 augmentation part      552.0000000 magnetization 

 DIPCOR: dipole corrections for dipol
 direction  3 min pos     1,
 dipolmoment           0.000000      0.000000      0.000062 electrons x Angstroem
 Tr[quadrupol]    -11124.627675

 energy correction for charged system         0.000000 eV
 dipol+quadrupol energy correction           -0.000000 eV
 added-field ion interaction          0.000604 eV  (added to PSCEN)


 Free energy of the ion-electron system (eV)
  ---------------------------------------------------
  alpha Z        PSCENC =       862.57708521
  Ewald energy   TEWEN  =    236048.39770376
  -Hartree energ DENC   =   -281665.02124661
  -exchange      EXHF   =         0.00000000
  -V(xc)+E(xc)   XCENC  =      -116.02806209
  PAW double counting   =     43112.45544455   -41079.41300390
  entropy T*S    EENTRO =        -0.23597125
  eigenvalues    EBANDS =     -2535.09011829
  atomic energy  EATOM  =     45117.89144060
  Solvation  Ediel_sol  =         0.00000000
  ---------------------------------------------------
  free energy    TOTEN  =      -254.46672802 eV

  energy without entropy =     -254.23075677  energy(sigma->0) =     -254.34874239


--------------------------------------------------------------------------------------------------------




----------------------------------------- Iteration    1(   4)  ---------------------------------------


     EDDAV:  cpu time   12.7504: real time   12.7950
       DOS:  cpu time    0.0014: real time    0.0014
    --------------------------------------------
      LOOP:  cpu time   12.7523: real time   12.8003

 eigenvalue-minimisations  :  4464
 total energy-change (2. order) :-0.1069219E+02  (-0.1051703E+02)
 number of electron     552.0000000 magnetization 
 augmentation part      552.0000000 magnetization 

 DIPCOR: dipole corrections for dipol
 direction  3 min pos     1,
 dipolmoment           0.000000      0.000000      0.000062 electrons x Angstroem
 Tr[quadrupol]    -11124.627675

 energy correction for charged system         0.000000 eV
 dipol+quadrupol energy correction           -0.000000 eV
 added-field ion interaction          0.000604 eV  (added to PSCEN)


 Free energy of the ion-electron system (eV)
  ---------------------------------------------------
  alpha Z        PSCENC =       862.57708521
  Ewald energy   TEWEN  =    236048.39770376
  -Hartree energ DENC   =   -281665.02124661
  -exchange      EXHF   =         0.00000000
  -V(xc)+E(xc)   XCENC  =      -116.02806209
  PAW double counting   =     43112.45544455   -41079.41300390
  entropy T*S    EENTRO =        -0.24533563
  eigenvalues    EBANDS =     -2545.77294076
  atomic energy  EATOM  =     45117.89144060
  Solvation  Ediel_sol  =         0.00000000
  ---------------------------------------------------
  free energy    TOTEN  =      -265.15891487 eV

  energy without entropy =     -264.91357924  energy(sigma->0) =     -265.03624706


--------------------------------------------------------------------------------------------------------




----------------------------------------- Iteration    1(   5)  ---------------------------------------


     EDDAV:  cpu time   13.1666: real time   13.2796
       DOS:  cpu time    0.0014: real time    0.0014
    CHARGE:  cpu time    0.2826: real time    0.2833
    MIXING:  cpu time    0.0029: real time    0.0030
    --------------------------------------------
      LOOP:  cpu time   13.4540: real time   13.5713

 eigenvalue-minimisations  :  4680
 total energy-change (2. order) :-0.2980571E+00  (-0.2973327E+00)
 number of electron     551.9999454 magnetization 
 augmentation part      194.0964447 magnetization 

 DIPCOR: dipole corrections for dipol
 direction  3 min pos     1,
 dipolmoment           0.000000      0.000000      0.000062 electrons x Angstroem
 Tr[quadrupol]    -11124.627675

 energy correction for charged system         0.000000 eV
 dipol+quadrupol energy correction           -0.000000 eV
 added-field ion interaction          0.000604 eV  (added to PSCEN)


 Broyden mixing:
  rms(total) = 0.66610E+01    rms(broyden)= 0.66601E+01
  rms(prec ) = 0.68477E+01
  weight for this iteration     100.00

 Free energy of the ion-electron system (eV)
  ---------------------------------------------------
  alpha Z        PSCENC =       862.57708521
  Ewald energy   TEWEN  =    236048.39770376
  -Hartree energ DENC   =   -281665.02124661
  -exchange      EXHF   =         0.00000000
  -V(xc)+E(xc)   XCENC  =      -116.02806209
  PAW double counting   =     43112.45544455   -41079.41300390
  entropy T*S    EENTRO =        -0.24654823
  eigenvalues    EBANDS =     -2546.06978528
  atomic energy  EATOM  =     45117.89144060
  Solvation  Ediel_sol  =         0.00000000
  ---------------------------------------------------
  free energy    TOTEN  =      -265.45697199 eV

  energy without entropy =     -265.21042376  energy(sigma->0) =     -265.33369788


--------------------------------------------------------------------------------------------------------




----------------------------------------- Iteration    1(   6)  ---------------------------------------


    POTLOK:  cpu time    0.0525: real time    0.0527
    SETDIJ:  cpu time    0.0065: real time    0.0065
    EDDIAG:  cpu time    1.9229: real time    1.9290
  RMM-DIIS:  cpu time    6.1942: real time    6.2097
    ORTHCH:  cpu time    0.4247: real time    0.4257
       DOS:  cpu time    0.0014: real time    0.0014
    CHARGE:  cpu time    0.2823: real time    0.2832
    MIXING:  cpu time    0.0036: real time    0.0036
    --------------------------------------------
      LOOP:  cpu time    8.8887: real time    8.9157

 eigenvalue-minimisations  :  4032
 total energy-change (2. order) :-0.8340014E+01  (-0.1534020E+02)
 number of electron     551.9999458 magnetization 
 augmentation part      198.5851444 magnetization 

 DIPCOR: dipole corrections for dipol
 direction  3 min pos     1,
 dipolmoment           0.000000      0.000000      2.446359 electrons x Angstroem
 Tr[quadrupol]    -11124.036581

 energy correction for charged system         0.000000 eV
 dipol+quadrupol energy correction           -0.197192 eV
 added-field ion interaction         23.714969 eV  (added to PSCEN)


 Broyden mixing:
  rms(total) = 0.64844E+01    rms(broyden)= 0.64820E+01
  rms(prec ) = 0.74316E+01
  weight for this iteration     100.00

 eigenvalues of (default mixing * dielectric matrix)
  average eigenvalue GAMMA=   0.5332
  0.5332

 Free energy of the ion-electron system (eV)
  ---------------------------------------------------
  alpha Z        PSCENC =       886.09425826
  Ewald energy   TEWEN  =    236048.39770376
  -Hartree energ DENC   =   -281328.02136105
  -exchange      EXHF   =         0.00000000
  -V(xc)+E(xc)   XCENC  =      -121.62430039
  PAW double counting   =     46440.43554665   -44471.21238786
  entropy T*S    EENTRO =        -0.13727866
  eigenvalues    EBANDS =     -2845.62060755
  atomic energy  EATOM  =     45117.89144060
  Solvation  Ediel_sol  =         0.00000000
  ---------------------------------------------------
  free energy    TOTEN  =      -273.79698625 eV

  energy without entropy =     -273.65970759  energy(sigma->0) =     -273.72834692


--------------------------------------------------------------------------------------------------------




----------------------------------------- Iteration    1(   7)  ---------------------------------------


    POTLOK:  cpu time    0.0521: real time    0.0529
    SETDIJ:  cpu time    0.0062: real time    0.0065
    EDDIAG:  cpu time    1.9597: real time    1.9658
  RMM-DIIS:  cpu time    5.8319: real time    5.8474
    ORTHCH:  cpu time    0.4243: real time    0.4256
       DOS:  cpu time    0.0013: real time    0.0013
    CHARGE:  cpu time    0.2858: real time    0.2867
    MIXING:  cpu time    0.0027: real time    0.0027
    --------------------------------------------
      LOOP:  cpu time    8.5648: real time    8.5932

 eigenvalue-minimisations  :  4032
 total energy-change (2. order) :-0.4834657E+02  (-0.1137637E+02)
 number of electron     551.9999486 magnetization 
 augmentation part      196.5455525 magnetization 

 DIPCOR: dipole corrections for dipol
 direction  3 min pos     1,
 dipolmoment           0.000000      0.000000     -2.563694 electrons x Angstroem
 Tr[quadrupol]    -11124.324412

 energy correction for charged system         0.000000 eV
 dipol+quadrupol energy correction           -0.216562 eV
 added-field ion interaction        -24.852412 eV  (added to PSCEN)


 Broyden mixing:
  rms(total) = 0.90880E+01    rms(broyden)= 0.90866E+01
  rms(prec ) = 0.10958E+02
  weight for this iteration     100.00

 eigenvalues of (default mixing * dielectric matrix)
  average eigenvalue GAMMA=   0.3780
  0.6462  0.1098

 Free energy of the ion-electron system (eV)
  ---------------------------------------------------
  alpha Z        PSCENC =       837.50750799
  Ewald energy   TEWEN  =    236048.39770376
  -Hartree energ DENC   =   -281308.50774520
  -exchange      EXHF   =         0.00000000
  -V(xc)+E(xc)   XCENC  =      -129.18312714
  PAW double counting   =     47474.12227467   -45518.54666454
  entropy T*S    EENTRO =        -0.21890625
  eigenvalues    EBANDS =     -2843.60603616
  atomic energy  EATOM  =     45117.89144060
  Solvation  Ediel_sol  =         0.00000000
  ---------------------------------------------------
  free energy    TOTEN  =      -322.14355227 eV

  energy without entropy =     -321.92464602  energy(sigma->0) =     -322.03409914


--------------------------------------------------------------------------------------------------------




----------------------------------------- Iteration    1(   8)  ---------------------------------------


    POTLOK:  cpu time    0.0515: real time    0.0522
    SETDIJ:  cpu time    0.0064: real time    0.0066
    EDDIAG:  cpu time    1.9499: real time    1.9559
  RMM-DIIS:  cpu time    5.9654: real time    5.9803
    ORTHCH:  cpu time    0.4182: real time    0.4192
       DOS:  cpu time    0.0014: real time    0.0014
    CHARGE:  cpu time    0.2850: real time    0.2858
    MIXING:  cpu time    0.0028: real time    0.0028
    --------------------------------------------
      LOOP:  cpu time    8.6814: real time    8.7079

 eigenvalue-minimisations  :  4032
 total energy-change (2. order) : 0.6527870E+02  (-0.2906141E+01)
 number of electron     551.9999425 magnetization 
 augmentation part      200.5548458 magnetization 

 DIPCOR: dipole corrections for dipol
 direction  3 min pos     1,
 dipolmoment           0.000000      0.000000     -0.771149 electrons x Angstroem
 Tr[quadrupol]    -11126.589623

 energy correction for charged system         0.000000 eV
 dipol+quadrupol energy correction           -0.019594 eV
 added-field ion interaction         -7.475510 eV  (added to PSCEN)


 Broyden mixing:
  rms(total) = 0.53354E+01    rms(broyden)= 0.53351E+01
  rms(prec ) = 0.59325E+01
  weight for this iteration     100.00

 eigenvalues of (default mixing * dielectric matrix)
  average eigenvalue GAMMA=   0.5082
  1.0725  0.2735  0.1785

 Free energy of the ion-electron system (eV)
  ---------------------------------------------------
  alpha Z        PSCENC =       855.08137727
  Ewald energy   TEWEN  =    236048.39770376
  -Hartree energ DENC   =   -281320.52178569
  -exchange      EXHF   =         0.00000000
  -V(xc)+E(xc)   XCENC  =      -130.13827096
  PAW double counting   =     48061.48327823   -46116.29597443
  entropy T*S    EENTRO =        -0.28572767
  eigenvalues    EBANDS =     -2772.47689039
  atomic energy  EATOM  =     45117.89144060
  Solvation  Ediel_sol  =         0.00000000
  ---------------------------------------------------
  free energy    TOTEN  =      -256.86484927 eV

  energy without entropy =     -256.57912160  energy(sigma->0) =     -256.72198543


--------------------------------------------------------------------------------------------------------




----------------------------------------- Iteration    1(   9)  ---------------------------------------


    POTLOK:  cpu time    0.0524: real time    0.0526
    SETDIJ:  cpu time    0.0068: real time    0.0069
    EDDIAG:  cpu time    1.8445: real time    1.9317
  RMM-DIIS:  cpu time    6.0117: real time    6.0268
    ORTHCH:  cpu time    0.4157: real time    0.4174
       DOS:  cpu time    0.0014: real time    0.0014
    CHARGE:  cpu time    0.2877: real time    0.2884
    MIXING:  cpu time    0.0028: real time    0.0028
    --------------------------------------------
      LOOP:  cpu time    8.6238: real time    8.7328

 eigenvalue-minimisations  :  4038
 total energy-change (2. order) : 0.3234641E+01  (-0.6694291E+01)
 number of electron     551.9999467 magnetization 
 augmentation part      200.7811133 magnetization 

 DIPCOR: dipole corrections for dipol
 direction  3 min pos     1,
 dipolmoment           0.000000      0.000000     -0.150703 electrons x Angstroem
 Tr[quadrupol]    -11121.254150

 energy correction for charged system         0.000000 eV
 dipol+quadrupol energy correction           -0.000748 eV
 added-field ion interaction         -1.460914 eV  (added to PSCEN)


 Broyden mixing:
  rms(total) = 0.39994E+01    rms(broyden)= 0.39986E+01
  rms(prec ) = 0.43979E+01
  weight for this iteration     100.00

 eigenvalues of (default mixing * dielectric matrix)
  average eigenvalue GAMMA=   0.7406
  2.1258  0.4336  0.2479  0.1550

 Free energy of the ion-electron system (eV)
  ---------------------------------------------------
  alpha Z        PSCENC =       861.11481914
  Ewald energy   TEWEN  =    236048.39770376
  -Hartree energ DENC   =   -281137.43173283
  -exchange      EXHF   =         0.00000000
  -V(xc)+E(xc)   XCENC  =      -128.81765980
  PAW double counting   =     49207.22987358   -47276.57985411
  entropy T*S    EENTRO =        -0.20798908
  eigenvalues    EBANDS =     -2945.22680949
  atomic energy  EATOM  =     45117.89144060
  Solvation  Ediel_sol  =         0.00000000
  ---------------------------------------------------
  free energy    TOTEN  =      -253.63020823 eV

  energy without entropy =     -253.42221915  energy(sigma->0) =     -253.52621369


--------------------------------------------------------------------------------------------------------




----------------------------------------- Iteration    1(  10)  ---------------------------------------


    POTLOK:  cpu time    0.0523: real time    0.0524
    SETDIJ:  cpu time    0.0061: real time    0.0062
    EDDIAG:  cpu time    1.9097: real time    1.9157
  RMM-DIIS:  cpu time    5.9363: real time    5.9512
    ORTHCH:  cpu time    0.4168: real time    0.4179
       DOS:  cpu time    0.0013: real time    0.0013
    CHARGE:  cpu time    0.2866: real time    0.2873
    MIXING:  cpu time    0.0030: real time    0.0030
    --------------------------------------------
      LOOP:  cpu time    8.6129: real time    8.6387

 eigenvalue-minimisations  :  4038
 total energy-change (2. order) : 0.7584964E+01  (-0.1549313E+01)
 number of electron     551.9999458 magnetization 
 augmentation part      202.3100480 magnetization 

 DIPCOR: dipole corrections for dipol
 direction  3 min pos     1,
 dipolmoment           0.000000      0.000000      0.645966 electrons x Angstroem
 Tr[quadrupol]    -11122.005599

 energy correction for charged system         0.000000 eV
 dipol+quadrupol energy correction           -0.013749 eV
 added-field ion interaction          6.261983 eV  (added to PSCEN)


 Broyden mixing:
  rms(total) = 0.28696E+01    rms(broyden)= 0.28682E+01
  rms(prec ) = 0.32089E+01
  weight for this iteration     100.00

 eigenvalues of (default mixing * dielectric matrix)
  average eigenvalue GAMMA=   0.7274
  2.3237  0.4960  0.3331  0.3331  0.1510

 Free energy of the ion-electron system (eV)
  ---------------------------------------------------
  alpha Z        PSCENC =       868.82471538
  Ewald energy   TEWEN  =    236048.39770376
  -Hartree energ DENC   =   -281126.09762421
  -exchange      EXHF   =         0.00000000
  -V(xc)+E(xc)   XCENC  =      -128.22279055
  PAW double counting   =     51406.52712033   -49502.35881633
  entropy T*S    EENTRO =        -0.17834374
  eigenvalues    EBANDS =     -2930.82864921
  atomic energy  EATOM  =     45117.89144060
  Solvation  Ediel_sol  =         0.00000000
  ---------------------------------------------------
  free energy    TOTEN  =      -246.04524397 eV

  energy without entropy =     -245.86690023  energy(sigma->0) =     -245.95607210


--------------------------------------------------------------------------------------------------------




----------------------------------------- Iteration    1(  11)  ---------------------------------------


    POTLOK:  cpu time    0.0521: real time    0.0523
    SETDIJ:  cpu time    0.0061: real time    0.0061
    EDDIAG:  cpu time    1.9540: real time    1.9599
  RMM-DIIS:  cpu time    5.9852: real time    6.0031
    ORTHCH:  cpu time    0.4172: real time    0.4182
       DOS:  cpu time    0.0013: real time    0.0013
    CHARGE:  cpu time    0.2817: real time    0.2842
    MIXING:  cpu time    0.0030: real time    0.0030
    --------------------------------------------
      LOOP:  cpu time    8.7013: real time    8.7317

 eigenvalue-minimisations  :  4038
 total energy-change (2. order) : 0.4312413E+01  (-0.1178617E+01)
 number of electron     551.9999437 magnetization 
 augmentation part      201.7224416 magnetization 

 DIPCOR: dipole corrections for dipol
 direction  3 min pos     1,
 dipolmoment           0.000000      0.000000      0.708702 electrons x Angstroem
 Tr[quadrupol]    -11123.208152

 energy correction for charged system         0.000000 eV
 dipol+quadrupol energy correction           -0.016549 eV
 added-field ion interaction          6.870147 eV  (added to PSCEN)


 Broyden mixing:
  rms(total) = 0.22901E+01    rms(broyden)= 0.22894E+01
  rms(prec ) = 0.26389E+01
  weight for this iteration     100.00

 eigenvalues of (default mixing * dielectric matrix)
  average eigenvalue GAMMA=   0.7120
  2.3948  0.6955  0.1520  0.3871  0.3871  0.2553

 Free energy of the ion-electron system (eV)
  ---------------------------------------------------
  alpha Z        PSCENC =       869.43007961
  Ewald energy   TEWEN  =    236048.39770376
  -Hartree energ DENC   =   -281171.41114051
  -exchange      EXHF   =         0.00000000
  -V(xc)+E(xc)   XCENC  =      -128.65974551
  PAW double counting   =     51846.65864257   -49946.01159425
  entropy T*S    EENTRO =        -0.15148205
  eigenvalues    EBANDS =     -2877.87673550
  atomic energy  EATOM  =     45117.89144060
  Solvation  Ediel_sol  =         0.00000000
  ---------------------------------------------------
  free energy    TOTEN  =      -241.73283128 eV

  energy without entropy =     -241.58134923  energy(sigma->0) =     -241.65709025


--------------------------------------------------------------------------------------------------------




----------------------------------------- Iteration    1(  12)  ---------------------------------------


    POTLOK:  cpu time    0.0517: real time    0.0518
    SETDIJ:  cpu time    0.0063: real time    0.0063
    EDDIAG:  cpu time    1.9498: real time    1.9552
  RMM-DIIS:  cpu time    5.9081: real time    5.9323
    ORTHCH:  cpu time    0.4147: real time    0.4158
       DOS:  cpu time    0.0013: real time    0.0013
    CHARGE:  cpu time    0.2823: real time    0.2830
    MIXING:  cpu time    0.0032: real time    0.0032
    --------------------------------------------
      LOOP:  cpu time    8.6183: real time    8.6517

 eigenvalue-minimisations  :  4038
 total energy-change (2. order) : 0.7169718E+01  (-0.6671036E+00)
 number of electron     551.9999451 magnetization 
 augmentation part      201.7733006 magnetization 

 DIPCOR: dipole corrections for dipol
 direction  3 min pos     1,
 dipolmoment           0.000000      0.000000      0.498374 electrons x Angstroem
 Tr[quadrupol]    -11124.430732

 energy correction for charged system         0.000000 eV
 dipol+quadrupol energy correction           -0.008184 eV
 added-field ion interaction          4.831233 eV  (added to PSCEN)


 Broyden mixing:
  rms(total) = 0.11190E+01    rms(broyden)= 0.11182E+01
  rms(prec ) = 0.12209E+01
  weight for this iteration     100.00

 eigenvalues of (default mixing * dielectric matrix)
  average eigenvalue GAMMA=   0.6615
  2.3360  0.7342  0.4370  0.4370  0.1519  0.2673  0.2673

 Free energy of the ion-electron system (eV)
  ---------------------------------------------------
  alpha Z        PSCENC =       867.39953041
  Ewald energy   TEWEN  =    236048.39770376
  -Hartree energ DENC   =   -281217.23654361
  -exchange      EXHF   =         0.00000000
  -V(xc)+E(xc)   XCENC  =      -128.92498229
  PAW double counting   =     52040.24067467   -50140.24547095
  entropy T*S    EENTRO =        -0.15318099
  eigenvalues    EBANDS =     -2821.93228449
  atomic energy  EATOM  =     45117.89144060
  Solvation  Ediel_sol  =         0.00000000
  ---------------------------------------------------
  free energy    TOTEN  =      -234.56311288 eV

  energy without entropy =     -234.40993190  energy(sigma->0) =     -234.48652239


--------------------------------------------------------------------------------------------------------




----------------------------------------- Iteration    1(  13)  ---------------------------------------


    POTLOK:  cpu time    0.0518: real time    0.0520
    SETDIJ:  cpu time    0.0062: real time    0.0062
    EDDIAG:  cpu time    1.9000: real time    1.9047
  RMM-DIIS:  cpu time    5.8485: real time    5.9597
    ORTHCH:  cpu time    0.4149: real time    0.4159
       DOS:  cpu time    0.0014: real time    0.0014
    CHARGE:  cpu time    0.2828: real time    0.2835
    MIXING:  cpu time    0.0033: real time    0.0033
    --------------------------------------------
      LOOP:  cpu time    8.5097: real time    8.6303

 eigenvalue-minimisations  :  4038
 total energy-change (2. order) : 0.1252519E+01  (-0.1820775E+00)
 number of electron     551.9999450 magnetization 
 augmentation part      201.6696546 magnetization 

 DIPCOR: dipole corrections for dipol
 direction  3 min pos     1,
 dipolmoment           0.000000      0.000000      0.506991 electrons x Angstroem
 Tr[quadrupol]    -11124.679586

 energy correction for charged system         0.000000 eV
 dipol+quadrupol energy correction           -0.008469 eV
 added-field ion interaction          4.914762 eV  (added to PSCEN)


 Broyden mixing:
  rms(total) = 0.74413E+00    rms(broyden)= 0.74381E+00
  rms(prec ) = 0.78512E+00
  weight for this iteration     100.00

 eigenvalues of (default mixing * dielectric matrix)
  average eigenvalue GAMMA=   0.6156
  2.3003  0.6350  0.5117  0.5117  0.2973  0.2973  0.1520  0.2192

 Free energy of the ion-electron system (eV)
  ---------------------------------------------------
  alpha Z        PSCENC =       867.48277405
  Ewald energy   TEWEN  =    236048.39770376
  -Hartree energ DENC   =   -281229.91637215
  -exchange      EXHF   =         0.00000000
  -V(xc)+E(xc)   XCENC  =      -128.75428244
  PAW double counting   =     52007.99268323   -50106.38866193
  entropy T*S    EENTRO =        -0.15301699
  eigenvalues    EBANDS =     -2809.86286191
  atomic energy  EATOM  =     45117.89144060
  Solvation  Ediel_sol  =         0.00000000
  ---------------------------------------------------
  free energy    TOTEN  =      -233.31059377 eV

  energy without entropy =     -233.15757678  energy(sigma->0) =     -233.23408527


--------------------------------------------------------------------------------------------------------




----------------------------------------- Iteration    1(  14)  ---------------------------------------


    POTLOK:  cpu time    0.0517: real time    0.0519
    SETDIJ:  cpu time    0.0061: real time    0.0061
    EDDIAG:  cpu time    1.9068: real time    1.9115
  RMM-DIIS:  cpu time    5.9581: real time    5.9733
    ORTHCH:  cpu time    0.4148: real time    0.4158
       DOS:  cpu time    0.0014: real time    0.0014
    CHARGE:  cpu time    0.2866: real time    0.2873
    MIXING:  cpu time    0.0035: real time    0.0035
    --------------------------------------------
      LOOP:  cpu time    8.6298: real time    8.6539

 eigenvalue-minimisations  :  4038
 total energy-change (2. order) : 0.1046932E+00  (-0.2249564E-01)
 number of electron     551.9999449 magnetization 
 augmentation part      201.5712555 magnetization 

 DIPCOR: dipole corrections for dipol
 direction  3 min pos     1,
 dipolmoment           0.000000      0.000000      0.558861 electrons x Angstroem
 Tr[quadrupol]    -11124.774502

 energy correction for charged system         0.000000 eV
 dipol+quadrupol energy correction           -0.010291 eV
 added-field ion interaction          5.417595 eV  (added to PSCEN)


 Broyden mixing:
  rms(total) = 0.56823E+00    rms(broyden)= 0.56814E+00
  rms(prec ) = 0.60734E+00
  weight for this iteration     100.00

 eigenvalues of (default mixing * dielectric matrix)
  average eigenvalue GAMMA=   0.6201
  2.2810  0.6480  0.6480  0.6523  0.3626  0.3626  0.1519  0.2373  0.2373

 Free energy of the ion-electron system (eV)
  ---------------------------------------------------
  alpha Z        PSCENC =       867.98378549
  Ewald energy   TEWEN  =    236048.39770376
  -Hartree energ DENC   =   -281234.91254476
  -exchange      EXHF   =         0.00000000
  -V(xc)+E(xc)   XCENC  =      -128.60391387
  PAW double counting   =     51975.43193332   -50072.68351589
  entropy T*S    EENTRO =        -0.14770058
  eigenvalues    EBANDS =     -2806.56308860
  atomic energy  EATOM  =     45117.89144060
  Solvation  Ediel_sol  =         0.00000000
  ---------------------------------------------------
  free energy    TOTEN  =      -233.20590053 eV

  energy without entropy =     -233.05819995  energy(sigma->0) =     -233.13205024


--------------------------------------------------------------------------------------------------------




----------------------------------------- Iteration    1(  15)  ---------------------------------------


    POTLOK:  cpu time    0.0519: real time    0.0520
    SETDIJ:  cpu time    0.0062: real time    0.0062
    EDDIAG:  cpu time    1.9451: real time    1.9508
  RMM-DIIS:  cpu time    5.9240: real time    5.9456
    ORTHCH:  cpu time    0.4145: real time    0.4155
       DOS:  cpu time    0.0013: real time    0.0013
    CHARGE:  cpu time    0.2835: real time    0.2842
    MIXING:  cpu time    0.0037: real time    0.0037
    --------------------------------------------
      LOOP:  cpu time    8.6310: real time    8.6635

 eigenvalue-minimisations  :  4038
 total energy-change (2. order) : 0.2477464E-02  (-0.1152868E-01)
 number of electron     551.9999450 magnetization 
 augmentation part      201.5826089 magnetization 

 DIPCOR: dipole corrections for dipol
 direction  3 min pos     1,
 dipolmoment           0.000000      0.000000      0.591832 electrons x Angstroem
 Tr[quadrupol]    -11124.759027

 energy correction for charged system         0.000000 eV
 dipol+quadrupol energy correction           -0.011541 eV
 added-field ion interaction          5.737215 eV  (added to PSCEN)


 Broyden mixing:
  rms(total) = 0.56103E+00    rms(broyden)= 0.56092E+00
  rms(prec ) = 0.60808E+00
  weight for this iteration     100.00

 eigenvalues of (default mixing * dielectric matrix)
  average eigenvalue GAMMA=   0.7001
  2.2576  1.1761  1.1761  0.6806  0.4029  0.4029  0.1519  0.2710  0.2710  0.2103

 Free energy of the ion-electron system (eV)
  ---------------------------------------------------
  alpha Z        PSCENC =       868.30215529
  Ewald energy   TEWEN  =    236048.39770376
  -Hartree energ DENC   =   -281235.97752827
  -exchange      EXHF   =         0.00000000
  -V(xc)+E(xc)   XCENC  =      -128.48344357
  PAW double counting   =     51964.46821252   -50060.89124097
  entropy T*S    EENTRO =        -0.15971760
  eigenvalues    EBANDS =     -2806.75100482
  atomic energy  EATOM  =     45117.89144060
  Solvation  Ediel_sol  =         0.00000000
  ---------------------------------------------------
  free energy    TOTEN  =      -233.20342307 eV

  energy without entropy =     -233.04370546  energy(sigma->0) =     -233.12356426


--------------------------------------------------------------------------------------------------------




----------------------------------------- Iteration    1(  16)  ---------------------------------------


    POTLOK:  cpu time    0.0522: real time    0.0523
    SETDIJ:  cpu time    0.0063: real time    0.0063
    EDDIAG:  cpu time    1.9483: real time    1.9562
  RMM-DIIS:  cpu time    5.9931: real time    6.0077
    ORTHCH:  cpu time    0.4170: real time    0.4180
       DOS:  cpu time    0.0013: real time    0.0013
    CHARGE:  cpu time    0.2836: real time    0.2843
    MIXING:  cpu time    0.0039: real time    0.0039
    --------------------------------------------
      LOOP:  cpu time    8.7066: real time    8.7349

 eigenvalue-minimisations  :  4038
 total energy-change (2. order) : 0.9956018E-02  (-0.2107975E-01)
 number of electron     551.9999449 magnetization 
 augmentation part      201.5356114 magnetization 

 DIPCOR: dipole corrections for dipol
 direction  3 min pos     1,
 dipolmoment           0.000000      0.000000      0.625947 electrons x Angstroem
 Tr[quadrupol]    -11124.984443

 energy correction for charged system         0.000000 eV
 dipol+quadrupol energy correction           -0.012910 eV
 added-field ion interaction          6.067920 eV  (added to PSCEN)


 Broyden mixing:
  rms(total) = 0.44811E+00    rms(broyden)= 0.44794E+00
  rms(prec ) = 0.50786E+00
  weight for this iteration     100.00

 eigenvalues of (default mixing * dielectric matrix)
  average eigenvalue GAMMA=   0.7508
  2.1352  1.6668  1.6668  0.6853  0.4485  0.4485  0.1519  0.3019  0.3019  0.2450
  0.2065

 Free energy of the ion-electron system (eV)
  ---------------------------------------------------
  alpha Z        PSCENC =       868.63149133
  Ewald energy   TEWEN  =    236048.39770376
  -Hartree energ DENC   =   -281244.60926117
  -exchange      EXHF   =         0.00000000
  -V(xc)+E(xc)   XCENC  =      -128.34742890
  PAW double counting   =     51972.68063852   -50067.51098486
  entropy T*S    EENTRO =        -0.14834432
  eigenvalues    EBANDS =     -2800.17872201
  atomic energy  EATOM  =     45117.89144060
  Solvation  Ediel_sol  =         0.00000000
  ---------------------------------------------------
  free energy    TOTEN  =      -233.19346705 eV

  energy without entropy =     -233.04512273  energy(sigma->0) =     -233.11929489


--------------------------------------------------------------------------------------------------------




----------------------------------------- Iteration    1(  17)  ---------------------------------------


    POTLOK:  cpu time    0.0522: real time    0.0523
    SETDIJ:  cpu time    0.0061: real time    0.0062
    EDDIAG:  cpu time    1.8905: real time    1.8963
  RMM-DIIS:  cpu time    6.0029: real time    6.0180
    ORTHCH:  cpu time    0.4154: real time    0.4164
       DOS:  cpu time    0.0015: real time    0.0015
    CHARGE:  cpu time    0.2855: real time    0.2863
    MIXING:  cpu time    0.0042: real time    0.0042
    --------------------------------------------
      LOOP:  cpu time    8.6590: real time    8.6851

 eigenvalue-minimisations  :  4038
 total energy-change (2. order) : 0.1620016E+00  (-0.2503781E-01)
 number of electron     551.9999448 magnetization 
 augmentation part      201.4450990 magnetization 

 DIPCOR: dipole corrections for dipol
 direction  3 min pos     1,
 dipolmoment           0.000000      0.000000      0.643948 electrons x Angstroem
 Tr[quadrupol]    -11125.255788

 energy correction for charged system         0.000000 eV
 dipol+quadrupol energy correction           -0.013663 eV
 added-field ion interaction          6.242420 eV  (added to PSCEN)


 Broyden mixing:
  rms(total) = 0.24777E+00    rms(broyden)= 0.24751E+00
  rms(prec ) = 0.29884E+00
  weight for this iteration     100.00

 eigenvalues of (default mixing * dielectric matrix)
  average eigenvalue GAMMA=   0.7285
  2.2430  1.6475  1.6475  0.6106  0.6106  0.4640  0.3291  0.3291  0.1519  0.2587
  0.2415  0.2081

 Free energy of the ion-electron system (eV)
  ---------------------------------------------------
  alpha Z        PSCENC =       868.80523812
  Ewald energy   TEWEN  =    236048.39770376
  -Hartree energ DENC   =   -281255.87403329
  -exchange      EXHF   =         0.00000000
  -V(xc)+E(xc)   XCENC  =      -128.19917320
  PAW double counting   =     52002.42619513   -50095.29780172
  entropy T*S    EENTRO =        -0.17278479
  eigenvalues    EBANDS =     -2791.00825004
  atomic energy  EATOM  =     45117.89144060
  Solvation  Ediel_sol  =         0.00000000
  ---------------------------------------------------
  free energy    TOTEN  =      -233.03146544 eV

  energy without entropy =     -232.85868065  energy(sigma->0) =     -232.94507304


--------------------------------------------------------------------------------------------------------




----------------------------------------- Iteration    1(  18)  ---------------------------------------


    POTLOK:  cpu time    0.0524: real time    0.0527
    SETDIJ:  cpu time    0.0065: real time    0.0065
    EDDIAG:  cpu time    1.9075: real time    1.9137
  RMM-DIIS:  cpu time    5.8248: real time    5.9419
    ORTHCH:  cpu time    0.4106: real time    0.4116
       DOS:  cpu time    0.0014: real time    0.0014
    CHARGE:  cpu time    0.2853: real time    0.2860
    MIXING:  cpu time    0.0043: real time    0.0043
    --------------------------------------------
      LOOP:  cpu time    8.4937: real time    8.6207

 eigenvalue-minimisations  :  4038
 total energy-change (2. order) : 0.5704926E-01  (-0.5711981E-02)
 number of electron     551.9999450 magnetization 
 augmentation part      201.3872369 magnetization 

 DIPCOR: dipole corrections for dipol
 direction  3 min pos     1,
 dipolmoment           0.000000      0.000000      0.610581 electrons x Angstroem
 Tr[quadrupol]    -11125.381264

 energy correction for charged system         0.000000 eV
 dipol+quadrupol energy correction           -0.012284 eV
 added-field ion interaction          5.918960 eV  (added to PSCEN)


 Broyden mixing:
  rms(total) = 0.11857E+00    rms(broyden)= 0.11842E+00
  rms(prec ) = 0.13859E+00
  weight for this iteration     100.00

 eigenvalues of (default mixing * dielectric matrix)
  average eigenvalue GAMMA=   0.7086
  2.3406  1.6074  1.6074  0.6672  0.6672  0.4173  0.4173  0.1519  0.3200  0.3200
  0.2436  0.2436  0.2076

 Free energy of the ion-electron system (eV)
  ---------------------------------------------------
  alpha Z        PSCENC =       868.48315747
  Ewald energy   TEWEN  =    236048.39770376
  -Hartree energ DENC   =   -281260.17291662
  -exchange      EXHF   =         0.00000000
  -V(xc)+E(xc)   XCENC  =      -128.23760867
  PAW double counting   =     52027.60051915   -50120.51790439
  entropy T*S    EENTRO =        -0.17593268
  eigenvalues    EBANDS =     -2786.24287479
  atomic energy  EATOM  =     45117.89144060
  Solvation  Ediel_sol  =         0.00000000
  ---------------------------------------------------
  free energy    TOTEN  =      -232.97441618 eV

  energy without entropy =     -232.79848350  energy(sigma->0) =     -232.88644984


--------------------------------------------------------------------------------------------------------




----------------------------------------- Iteration    1(  19)  ---------------------------------------


    POTLOK:  cpu time    0.0520: real time    0.0522
    SETDIJ:  cpu time    0.0062: real time    0.0062
    EDDIAG:  cpu time    1.9369: real time    1.9457
  RMM-DIIS:  cpu time    5.9538: real time    5.9689
    ORTHCH:  cpu time    0.4093: real time    0.4103
       DOS:  cpu time    0.0014: real time    0.0014
    CHARGE:  cpu time    0.2848: real time    0.2856
    MIXING:  cpu time    0.0043: real time    0.0044
    --------------------------------------------
      LOOP:  cpu time    8.6497: real time    8.6780

 eigenvalue-minimisations  :  4041
 total energy-change (2. order) : 0.1248363E-01  (-0.9847297E-03)
 number of electron     551.9999450 magnetization 
 augmentation part      201.4102119 magnetization 

 DIPCOR: dipole corrections for dipol
 direction  3 min pos     1,
 dipolmoment           0.000000      0.000000      0.598313 electrons x Angstroem
 Tr[quadrupol]    -11125.397102

 energy correction for charged system         0.000000 eV
 dipol+quadrupol energy correction           -0.011795 eV
 added-field ion interaction          5.800036 eV  (added to PSCEN)


 Broyden mixing:
  rms(total) = 0.78521E-01    rms(broyden)= 0.78490E-01
  rms(prec ) = 0.89274E-01
  weight for this iteration     100.00

 eigenvalues of (default mixing * dielectric matrix)
  average eigenvalue GAMMA=   0.6821
  2.3592  1.5948  1.5948  0.6520  0.6520  0.4411  0.4411  0.1519  0.3389  0.3389
  0.2796  0.2796  0.2218  0.2041

 Free energy of the ion-electron system (eV)
  ---------------------------------------------------
  alpha Z        PSCENC =       868.36472227
  Ewald energy   TEWEN  =    236048.39770376
  -Hartree energ DENC   =   -281260.54037017
  -exchange      EXHF   =         0.00000000
  -V(xc)+E(xc)   XCENC  =      -128.24004330
  PAW double counting   =     52040.56436665   -50133.63473782
  entropy T*S    EENTRO =        -0.17723124
  eigenvalues    EBANDS =     -2785.58778329
  atomic energy  EATOM  =     45117.89144060
  Solvation  Ediel_sol  =         0.00000000
  ---------------------------------------------------
  free energy    TOTEN  =      -232.96193254 eV

  energy without entropy =     -232.78470130  energy(sigma->0) =     -232.87331692


--------------------------------------------------------------------------------------------------------




----------------------------------------- Iteration    1(  20)  ---------------------------------------


    POTLOK:  cpu time    0.0521: real time    0.0522
    SETDIJ:  cpu time    0.0062: real time    0.0062
    EDDIAG:  cpu time    1.9535: real time    1.9583
  RMM-DIIS:  cpu time    5.9190: real time    5.9338
    ORTHCH:  cpu time    0.4084: real time    0.4094
       DOS:  cpu time    0.0014: real time    0.0014
    CHARGE:  cpu time    0.2824: real time    0.2831
    MIXING:  cpu time    0.0049: real time    0.0049
    --------------------------------------------
      LOOP:  cpu time    8.6287: real time    8.6535

 eigenvalue-minimisations  :  4038
 total energy-change (2. order) : 0.3979273E-02  (-0.2123249E-03)
 number of electron     551.9999450 magnetization 
 augmentation part      201.4097433 magnetization 

 DIPCOR: dipole corrections for dipol
 direction  3 min pos     1,
 dipolmoment           0.000000      0.000000      0.594724 electrons x Angstroem
 Tr[quadrupol]    -11125.415495

 energy correction for charged system         0.000000 eV
 dipol+quadrupol energy correction           -0.011654 eV
 added-field ion interaction          5.765250 eV  (added to PSCEN)


 Broyden mixing:
  rms(total) = 0.60202E-01    rms(broyden)= 0.60196E-01
  rms(prec ) = 0.68018E-01
  weight for this iteration     100.00

 eigenvalues of (default mixing * dielectric matrix)
  average eigenvalue GAMMA=   0.7133
  2.3022  1.6598  1.3933  0.9390  0.9390  0.7453  0.5323  0.1519  0.3812  0.3404
  0.3404  0.2942  0.2442  0.2291  0.2069

 Free energy of the ion-electron system (eV)
  ---------------------------------------------------
  alpha Z        PSCENC =       868.33007761
  Ewald energy   TEWEN  =    236048.39770376
  -Hartree energ DENC   =   -281261.14239173
  -exchange      EXHF   =         0.00000000
  -V(xc)+E(xc)   XCENC  =      -128.23710190
  PAW double counting   =     52045.83165755   -50138.95909126
  entropy T*S    EENTRO =        -0.17672971
  eigenvalues    EBANDS =     -2784.89351821
  atomic energy  EATOM  =     45117.89144060
  Solvation  Ediel_sol  =         0.00000000
  ---------------------------------------------------
  free energy    TOTEN  =      -232.95795327 eV

  energy without entropy =     -232.78122356  energy(sigma->0) =     -232.86958842


--------------------------------------------------------------------------------------------------------




----------------------------------------- Iteration    1(  21)  ---------------------------------------


    POTLOK:  cpu time    0.0522: real time    0.0523
    SETDIJ:  cpu time    0.0062: real time    0.0062
    EDDIAG:  cpu time    1.8939: real time    1.8986
  RMM-DIIS:  cpu time    5.9313: real time    5.9462
    ORTHCH:  cpu time    0.4090: real time    0.4100
       DOS:  cpu time    0.0014: real time    0.0014
    CHARGE:  cpu time    0.2835: real time    0.2842
    MIXING:  cpu time    0.0047: real time    0.0047
    --------------------------------------------
      LOOP:  cpu time    8.5830: real time    8.6066

 eigenvalue-minimisations  :  4038
 total energy-change (2. order) : 0.1771769E-02  (-0.3470317E-03)
 number of electron     551.9999451 magnetization 
 augmentation part      201.3974041 magnetization 

 DIPCOR: dipole corrections for dipol
 direction  3 min pos     1,
 dipolmoment           0.000000      0.000000      0.592071 electrons x Angstroem
 Tr[quadrupol]    -11125.480962

 energy correction for charged system         0.000000 eV
 dipol+quadrupol energy correction           -0.011550 eV
 added-field ion interaction          5.739527 eV  (added to PSCEN)


 Broyden mixing:
  rms(total) = 0.50291E-01    rms(broyden)= 0.50280E-01
  rms(prec ) = 0.54482E-01
  weight for this iteration     100.00

 eigenvalues of (default mixing * dielectric matrix)
  average eigenvalue GAMMA=   0.7504
  2.1882  2.1882  1.3676  1.3676  0.9136  0.9136  0.5183  0.4494  0.1519  0.3402
  0.3402  0.3154  0.2762  0.2459  0.2065  0.2232

 Free energy of the ion-electron system (eV)
  ---------------------------------------------------
  alpha Z        PSCENC =       868.30445799
  Ewald energy   TEWEN  =    236048.39770376
  -Hartree energ DENC   =   -281263.53793975
  -exchange      EXHF   =         0.00000000
  -V(xc)+E(xc)   XCENC  =      -128.22270230
  PAW double counting   =     52053.24316445   -50146.36457302
  entropy T*S    EENTRO =        -0.17606898
  eigenvalues    EBANDS =     -2782.49166425
  atomic energy  EATOM  =     45117.89144060
  Solvation  Ediel_sol  =         0.00000000
  ---------------------------------------------------
  free energy    TOTEN  =      -232.95618150 eV

  energy without entropy =     -232.78011252  energy(sigma->0) =     -232.86814701


--------------------------------------------------------------------------------------------------------




----------------------------------------- Iteration    1(  22)  ---------------------------------------


    POTLOK:  cpu time    0.0522: real time    0.0523
    SETDIJ:  cpu time    0.0062: real time    0.0062
    EDDIAG:  cpu time    1.9074: real time    1.9122
[...]
 -0.000  -0.003   0.007  -0.001  -8.250  -0.000  -0.003   0.006
 -8.390  -0.001  -0.000  -0.001  -0.000  -8.516  -0.001   0.000
 -0.001  -8.317   0.002  -0.000  -0.003  -0.001  -8.445   0.002
 -0.000   0.002  -8.320  -0.002   0.006   0.000   0.002  -8.448
 -0.001  -0.000  -0.002  -8.325  -0.001  -0.001  -0.000  -0.002
 -0.000  -0.003   0.006  -0.001  -8.392  -0.000  -0.003   0.006
 -0.000  -0.001  -0.024   0.001   0.003  -0.000  -0.001  -0.024
 -0.000  -0.001  -0.035   0.001   0.004  -0.000  -0.001  -0.035
  0.004  -0.001  -0.001   0.000  -0.002   0.004  -0.001  -0.001
  0.000   0.003  -0.002   0.003   0.000   0.000   0.003  -0.002
  0.003   0.000  -0.002  -0.001   0.003   0.003   0.000  -0.002
  0.005  -0.000  -0.002   0.000  -0.003   0.005   0.000  -0.002
  0.000   0.004  -0.002   0.004   0.000   0.000   0.004  -0.002
  0.003   0.000  -0.003   0.000   0.004   0.003   0.000  -0.003
 total augmentation occupancy for first ion, spin component:           1
  4.553   0.015   0.003   0.097  -0.012  -2.716  -0.009  -0.006  -0.118   0.007   0.007   0.006  -0.098  -0.004  -0.035   0.008
  0.015   4.118   0.158   0.000   0.045  -0.010  -1.866  -0.131  -0.006  -0.071  -0.020   0.035  -0.130  -0.036  -0.002   0.006
  0.003   0.158   4.416  -0.017  -0.031  -0.006  -0.131  -2.345  -0.003   0.057   1.060  -0.139  -0.016  -0.221   0.024  -0.000
  0.097   0.000  -0.017   4.258   0.018  -0.117  -0.006  -0.003  -2.000  -0.023  -0.038   0.007  -0.002  -0.000  -0.146   0.000
 -0.012   0.045  -0.031   0.018   4.712   0.007  -0.072   0.057  -0.023  -2.897  -0.151   0.083  -0.005  -0.012   0.039  -0.002
 -2.716  -0.010  -0.006  -0.117   0.007   2.772   0.006   0.007   0.132  -0.003  -0.004  -0.005   0.083   0.003   0.029  -0.005
 -0.009  -1.866  -0.131  -0.006  -0.072   0.006   1.588   0.108   0.010   0.092   0.017  -0.032   0.120   0.025   0.002  -0.005
 -0.006  -0.131  -2.345  -0.003   0.057   0.007   0.108   2.211   0.017  -0.077  -0.999   0.169   0.012   0.227  -0.020  -0.001
 -0.118  -0.006  -0.003  -2.000  -0.023   0.132   0.010   0.017   1.715   0.026   0.033  -0.006   0.002   0.003   0.130  -0.000
  0.007  -0.071   0.057  -0.023  -2.897  -0.003   0.092  -0.077   0.026   2.966   0.131  -0.073   0.010   0.008  -0.033  -0.001
  0.007  -0.020   1.060  -0.038  -0.151  -0.004   0.017  -0.999   0.033   0.131   2.499  -0.552  -0.004   0.109   0.019   0.001
  0.006   0.035  -0.139   0.007   0.083  -0.005  -0.032   0.169  -0.006  -0.073  -0.552   0.170  -0.006  -0.055  -0.017   0.000
 -0.098  -0.130  -0.016  -0.002  -0.005   0.083   0.120   0.012   0.002   0.010  -0.004  -0.006   0.195   0.002  -0.000  -0.006
 -0.004  -0.036  -0.221  -0.000  -0.012   0.003   0.025   0.227   0.003   0.008   0.109  -0.055   0.002   0.092   0.002  -0.000
 -0.035  -0.002   0.024  -0.146   0.039   0.029   0.002  -0.020   0.130  -0.033   0.019  -0.017  -0.000   0.002   0.203  -0.000
  0.008   0.006  -0.000   0.000  -0.002  -0.005  -0.005  -0.001  -0.000  -0.001   0.001   0.000  -0.006  -0.000  -0.000   0.000
  0.000   0.005   0.005   0.004   0.001  -0.000  -0.002  -0.007  -0.001  -0.000  -0.006   0.002  -0.000  -0.003  -0.000   0.000
  0.004   0.000  -0.003   0.008   0.002  -0.001  -0.000   0.001  -0.006   0.001  -0.001   0.001  -0.000  -0.000  -0.007   0.000


------------------------ aborting loop because EDIFF is reached ----------------------------------------


    CHARGE:  cpu time    0.2824: real time    0.2834
    FORLOC:  cpu time    0.0210: real time    0.0211
    FORNL :  cpu time    2.1124: real time    2.1176
    FORCOR:  cpu time    0.0701: real time    0.0730
    FORHAR:  cpu time    0.0312: real time    0.0313
    MIXING:  cpu time    0.0036: real time    0.0036
    OFIELD:  cpu time    0.0000: real time    0.0000

 VOLUME and BASIS-vectors are now :
 -----------------------------------------------------------------------------
  energy-cutoff  :      400.00
  volume of cell :     2745.90
      direct lattice vectors                 reciprocal lattice vectors
    11.002581515  0.000000000  0.000000000     0.090887761 -0.052474073  0.000000000
     5.501290758  9.528515099  0.000000000     0.000000000  0.104948147  0.000000000
     0.000000000  0.000000000 26.191785094     0.000000000  0.000000000  0.038179910

  length of vectors
    11.002581515 11.002581515 26.191785094     0.104948147  0.104948147  0.038179910


 FORCES acting on ions
    electron-ion (+dipol)            ewald-force                    non-local-force                 convergence-correction
 -----------------------------------------------------------------------------------------------
   0.210E+02 -.181E+01 0.249E+04   -.215E+02 0.113E+01 -.249E+04   0.252E+00 0.557E+00 0.627E-01   0.698E-03 -.139E-02 0.156E-02
   0.127E+02 0.538E+01 0.249E+04   -.134E+02 -.518E+01 -.249E+04   0.417E+00 -.205E+00 -.437E+00   -.148E-03 0.471E-03 0.206E-02
   0.512E+02 -.162E+02 0.244E+03   -.516E+02 0.176E+02 -.244E+03   0.407E+00 -.146E+01 -.135E+00   0.351E-02 -.149E-02 -.242E-02
   -.730E+02 0.417E+02 -.192E+04   0.741E+02 -.432E+02 0.192E+04   -.112E+01 0.146E+01 0.341E+00   0.711E-02 -.279E-02 -.321E-02
   0.769E+01 0.273E+02 0.123E+03   -.804E+01 -.267E+02 -.122E+03   0.344E+00 -.541E+00 -.857E+00   -.121E-02 -.134E-02 -.222E-03
   -.449E+01 -.226E+02 0.250E+04   0.399E+01 0.239E+02 -.250E+04   0.426E+00 -.793E+00 -.354E+00   0.407E-03 -.784E-03 0.863E-03
   -.763E+00 0.125E+01 0.249E+04   0.132E+01 -.213E+01 -.249E+04   -.427E+00 0.671E+00 0.621E+00   0.420E-03 0.379E-04 0.633E-03
   -.103E+03 -.597E+02 -.245E+04   0.105E+03 0.598E+02 0.245E+04   -.186E+01 -.121E+00 0.410E+00   0.726E-03 0.165E-03 0.198E-02
   0.314E+02 -.241E+02 0.316E+03   -.321E+02 0.230E+02 -.315E+03   0.692E+00 0.111E+01 -.142E+00   -.220E-03 -.943E-03 0.117E-02
   -.113E+02 0.849E+01 -.169E+04   0.114E+02 -.988E+01 0.169E+04   -.367E-01 0.138E+01 0.255E+01   -.245E-02 0.201E-02 -.175E-02
   0.743E+01 -.235E+02 0.248E+04   -.744E+01 0.240E+02 -.248E+04   0.372E-01 -.240E+00 0.735E-01   0.107E-02 -.173E-02 0.121E-03
   0.127E+02 -.164E+02 0.300E+03   -.127E+02 0.167E+02 -.299E+03   -.769E-01 -.294E+00 -.755E+00   0.249E-02 -.365E-02 -.658E-03
   -.174E+02 -.578E+01 0.248E+04   0.175E+02 0.542E+01 -.248E+04   0.929E-01 0.314E+00 -.449E+00   -.105E-02 0.174E-03 0.154E-02
   0.759E+00 0.429E+02 0.249E+04   -.449E+00 -.439E+02 -.249E+04   -.185E+00 0.496E+00 -.287E+00   -.271E-03 0.192E-02 0.148E-02
   -.270E+02 -.126E+02 0.247E+04   0.274E+02 0.123E+02 -.247E+04   -.187E+00 0.347E+00 -.255E+00   -.107E-02 -.119E-02 0.128E-02
   -.153E+02 -.808E+01 0.312E+03   0.158E+02 0.798E+01 -.311E+03   -.477E+00 0.106E+00 -.661E+00   -.219E-03 -.540E-02 0.160E-03
   -.225E+02 0.248E+02 0.164E+03   0.235E+02 -.262E+02 -.163E+03   -.982E+00 0.132E+01 -.410E+00   -.219E-02 0.287E-02 0.201E-03
   -.218E+02 -.796E+00 0.245E+04   0.217E+02 0.109E+01 -.245E+04   0.204E+00 -.185E+00 -.164E-01   -.690E-03 0.400E-03 0.149E-03
   -.357E+02 -.521E+02 -.203E+04   0.377E+02 0.541E+02 0.203E+04   -.199E+01 -.199E+01 0.174E+01   0.396E-02 -.524E-02 0.425E-02
   0.841E+02 -.101E+02 -.197E+04   -.861E+02 0.114E+02 0.196E+04   0.201E+01 -.132E+01 0.157E+01   -.650E-03 0.732E-02 0.882E-02
   0.204E+01 0.276E+02 0.248E+04   -.227E+01 -.275E+02 -.248E+04   0.174E+00 -.212E+00 -.173E+00   -.263E-03 0.153E-02 0.115E-02
   -.224E+01 0.212E+02 0.363E+03   0.209E+01 -.207E+02 -.363E+03   0.153E+00 -.566E+00 0.150E-01   0.159E-02 0.447E-03 0.191E-02
   0.636E+02 0.393E+02 -.198E+04   -.662E+02 -.411E+02 0.198E+04   0.256E+01 0.173E+01 0.112E+01   0.561E-02 -.317E-02 -.346E-02
   -.181E+01 -.215E+02 0.245E+04   0.194E+01 0.224E+02 -.245E+04   -.118E+00 -.695E+00 0.223E+00   -.726E-03 -.124E-02 -.271E-03
   -.156E+03 0.368E+02 -.174E+04   0.170E+03 -.393E+02 0.176E+04   -.146E+02 0.253E+01 -.229E+02   0.203E-02 0.240E-03 -.171E-02
   -.624E+01 0.701E+01 -.170E+04   0.513E+01 -.766E+01 0.173E+04   0.111E+01 0.654E+00 -.270E+02   0.372E-02 -.191E-02 -.273E-03
   0.254E+02 -.602E+02 -.168E+04   -.281E+02 0.621E+02 0.171E+04   0.269E+01 -.185E+01 -.280E+02   0.521E-03 0.228E-03 -.376E-03
   0.129E+03 0.140E+02 -.161E+04   -.138E+03 -.156E+02 0.163E+04   0.992E+01 0.152E+01 -.202E+02   -.275E-03 0.122E-02 -.558E-05
   0.269E+02 -.589E+00 -.169E+04   -.229E+02 -.210E+01 0.172E+04   -.397E+01 0.269E+01 -.271E+02   -.436E-02 0.641E-02 -.249E-02
   0.246E+02 0.108E+03 -.159E+04   -.273E+02 -.120E+03 0.161E+04   0.269E+01 0.119E+02 -.217E+02   -.540E-03 -.753E-03 0.169E-02
   0.282E+02 -.333E+02 -.170E+04   -.342E+02 0.343E+02 0.173E+04   0.601E+01 -.106E+01 -.270E+02   -.597E-02 -.142E-02 -.219E-02
   -.334E+02 0.562E+02 -.169E+04   0.273E+02 -.654E+02 0.171E+04   0.618E+01 0.911E+01 -.238E+02   -.193E-02 0.320E-04 0.130E-02
   -.228E+02 -.828E+01 0.281E+03   0.225E+02 0.787E+01 -.280E+03   0.284E+00 0.412E+00 -.132E+01   -.438E-02 0.171E-03 0.138E-02
   0.703E+02 -.608E+02 -.178E+04   -.698E+02 0.600E+02 0.179E+04   -.528E+00 0.820E+00 -.257E+01   -.696E-02 -.675E-05 0.164E-01
   -.524E+01 0.105E+03 -.169E+04   0.484E+01 -.105E+03 0.169E+04   0.399E+00 -.421E+00 0.258E-02   0.286E-02 0.103E-02 -.303E-02
   -.229E+02 -.830E+01 0.128E+03   0.232E+02 0.833E+01 -.127E+03   -.359E+00 -.152E-01 -.112E+01   -.163E-02 -.234E-02 0.781E-02
   0.387E+01 0.282E+02 0.285E+03   -.292E+01 -.278E+02 -.283E+03   -.955E+00 -.419E+00 -.193E+01   0.828E-03 0.257E-02 0.155E-02
   -.833E+02 -.506E+02 -.181E+04   0.831E+02 0.508E+02 0.181E+04   0.202E+00 -.120E+00 -.125E+01   -.621E-02 -.326E-02 -.867E-02
   0.454E+02 -.482E+02 -.255E+04   -.448E+02 0.440E+02 0.255E+04   -.612E+00 0.420E+01 0.799E+00   0.154E-02 0.672E-02 0.228E-02
   -.493E+02 0.101E+02 -.155E+04   0.487E+02 -.108E+02 0.156E+04   0.565E+00 0.692E+00 -.304E+01   0.275E-02 -.994E-03 0.382E-02
   0.383E+02 0.165E+02 -.152E+04   -.382E+02 -.169E+02 0.152E+04   -.564E-01 0.449E+00 0.196E+00   -.651E-02 0.266E-02 -.115E-02
   0.339E+00 -.795E+01 0.281E+03   -.528E-01 0.714E+01 -.279E+03   -.282E+00 0.807E+00 -.176E+01   -.707E-03 -.130E-03 0.491E-02
   0.539E+01 0.336E+01 0.228E+04   -.541E+01 -.333E+01 -.228E+04   -.371E-01 0.250E-01 -.135E+01   0.732E-03 0.159E-03 0.118E-02
   -.760E+01 -.379E+02 0.238E+03   0.738E+01 0.384E+02 -.239E+03   0.222E+00 -.496E+00 0.394E+00   -.947E-03 -.615E-03 0.626E-03
   -.620E+02 0.305E+02 -.155E+04   0.615E+02 -.308E+02 0.155E+04   0.455E+00 0.269E+00 0.233E-01   0.468E-02 0.507E-02 -.650E-03
   -.415E+00 0.648E+01 0.228E+04   0.426E+00 -.659E+01 -.228E+04   -.271E-01 0.342E-02 -.145E+01   0.563E-03 0.553E-03 0.611E-03
   0.290E+02 -.868E+01 0.227E+04   -.290E+02 0.929E+01 -.227E+04   -.176E+00 -.464E+00 -.169E+01   0.760E-03 -.327E-03 0.640E-03
   0.337E+02 0.495E+02 0.189E+03   -.333E+02 -.490E+02 -.188E+03   -.480E+00 -.518E+00 -.836E+00   -.810E-03 0.122E-02 0.233E-02
   -.274E+01 0.104E+02 0.229E+04   0.260E+01 -.108E+02 -.229E+04   0.152E+00 0.236E+00 -.215E+01   -.850E-04 0.679E-03 0.764E-03
   -.274E+02 -.162E+02 0.319E+03   0.272E+02 0.159E+02 -.319E+03   0.210E+00 0.352E+00 -.351E+00   -.339E-02 -.330E-03 -.661E-03
   0.468E+02 -.130E+02 -.147E+04   -.475E+02 0.119E+02 0.147E+04   0.737E+00 0.108E+01 -.454E+00   -.227E-02 0.360E-02 -.234E-02
   0.357E+02 -.550E+02 -.161E+04   -.365E+02 0.546E+02 0.161E+04   0.765E+00 0.389E+00 -.117E+01   0.218E-02 -.233E-02 -.183E-03
   0.541E+01 -.572E+00 0.371E+03   -.604E+01 0.767E+00 -.371E+03   0.626E+00 -.196E+00 -.267E+00   0.709E-03 -.350E-03 0.110E-02
   -.165E+02 -.852E+02 -.159E+04   0.169E+02 0.849E+02 0.159E+04   -.410E+00 0.326E+00 -.361E+00   0.224E-02 0.410E-02 -.362E-02
   -.567E+01 -.116E+01 0.224E+04   0.608E+01 0.976E+00 -.224E+04   -.307E+00 0.213E+00 -.147E+01   -.463E-03 0.635E-03 0.173E-03
   -.163E+02 0.151E+02 0.259E+03   0.161E+02 -.148E+02 -.258E+03   0.248E+00 -.269E+00 -.125E+01   -.785E-03 -.164E-02 0.101E-02
 -----------------------------------------------------------------------------------------------
   -.110E+02 -.337E+02 0.218E+03   0.213E-13 0.671E-12 -.335E-11   0.110E+02 0.337E+02 -.218E+03   -.566E-02 0.787E-02 0.395E-01
 
 
 POSITION                                       TOTAL-FORCE (eV/Angst)
 -----------------------------------------------------------------------------------
      1.37532      0.79404     10.00000        -0.277791     -0.124566     -0.283249
      8.25194      7.94043     10.00000        -0.235896     -0.000031      0.008601
     10.96849      1.64320     12.49075        -0.000506     -0.003544      0.006414
      5.61764      9.46486     14.94291        -0.001516     -0.000208     -0.007282
     12.34159      8.71562     12.63846        -0.000091      0.003734      0.001342
      2.75065      3.17617     10.00000        -0.074140      0.474953     -0.122737
     13.75323      7.94043     10.00000         0.131267     -0.208474     -0.360579
     10.02081      2.63701     15.76891         0.002310      0.002503      0.009150
     13.72930      6.32713     12.39372         0.002651      0.001307      0.006293
      8.30303     -0.01865     14.84905        -0.001436      0.000093      0.002093
      9.62726      0.79404     10.00000         0.033515      0.189057     -0.187953
     15.13339      8.74874     12.47423         0.000000     -0.001364      0.001898
     11.00258      7.94043     10.00000         0.162504     -0.049477     -0.136159
      9.62726      5.55830     10.00000         0.123705     -0.487159     -0.058027
      4.12597      0.79404     10.00000         0.228313      0.031744     -0.036449
      2.78514      1.58805     12.45537        -0.001035      0.002835      0.003977
      6.93107      3.93711     12.62864         0.001049     -0.000670     -0.002777
      5.50129      3.17617     10.00000         0.071659      0.106727      0.147411
      4.12152      2.44605     14.98440         0.003574     -0.000342      0.001697
     10.91598      9.50136     15.10468        -0.003176     -0.003926     -0.010270
      6.87661      5.55830     10.00000        -0.051987     -0.115060     -0.189552
      5.51873      6.34759     12.39839        -0.000170      0.001257      0.000907
      5.43111      4.75684     14.96159        -0.006524      0.003026     -0.000545
      6.87661      0.79404     10.00000         0.006425      0.212401      0.063455
     14.54480      7.05135     16.67782        -0.001524     -0.000298      0.002811
      2.51267      1.41455     16.12010         0.006478      0.007503     -0.004765
      6.90113      5.83455     16.11893         0.004986     -0.000947      0.006190
     10.78103      7.66381     16.23396         0.002559     -0.007370     -0.005330
      6.87234      0.81658     16.33976         0.000497      0.007377     -0.003028
     12.34093      5.25451     16.11981        -0.004526      0.006632      0.000249
      8.18953      3.32768     16.40205        -0.002149      0.001408     -0.002459
      9.88305      0.70194     16.42093         0.000662     -0.003362      0.010064
      9.63484      8.73028     12.45847         0.002530      0.001022     -0.003095
      6.87603      2.43974     15.20794        -0.000652      0.002261     -0.019144
      8.29073      9.47005     14.80934        -0.002321      0.001449      0.003479
      5.54009      1.58031     12.68398        -0.007318      0.004901     -0.007712
      8.29969      6.34120     12.46014        -0.004412     -0.004387      0.003091
      8.38739      4.87561     15.16788         0.004193      0.003847      0.002327
     12.68249      7.20319     16.37279        -0.009774     -0.003000      0.002434
      4.11031      7.11375     14.83769        -0.005592     -0.001361     -0.002807
      9.69903      7.08587     14.67389         0.003819     -0.003182     -0.010303
      6.88363      8.73856     12.48157         0.003554     -0.004200     -0.005482
      5.50129      7.94043     10.00000        -0.054771      0.052205      0.188492
      8.24539      1.60722     12.46603        -0.001698     -0.001904      0.001708
     13.70811      4.80889     14.71331        -0.003138     -0.005878      0.001128
      4.12597      5.55830     10.00000        -0.015614     -0.102213      0.183857
     11.00258      3.17617     10.00000        -0.144826      0.136889      0.313377
      9.62264      3.99285     12.55370         0.003156     -0.001637     -0.007370
     12.37790      5.55830     10.00000         0.010850     -0.143466     -0.037221
     11.01342      6.34462     12.35491         0.002859      0.003900      0.002398
     11.03750      4.80836     14.65508        -0.005964     -0.005533     -0.000106
      1.38713      2.40355     14.78693         0.001743     -0.002858     -0.001695
     12.35661      3.97146     12.34054         0.002013     -0.000501     -0.003415
      6.91971      7.16637     14.69137        -0.003699     -0.001152      0.003649
      8.25194      3.17617     10.00000         0.102966      0.025693      0.525109
      4.15709      3.96521     12.50997         0.002412      0.003347      0.005911
 -----------------------------------------------------------------------------------
    total drift:                                0.010573      0.013981     -0.010429


--------------------------------------------------------------------------------------------------------



  FREE ENERGIE OF THE ION-ELECTRON SYSTEM (eV)
  ---------------------------------------------------
  free  energy   TOTEN  =      -233.02400287 eV

  energy  without entropy=     -232.85550513  energy(sigma->0) =     -232.93975400
 
 d Force = 0.2277714E-03[ 0.150E-03, 0.305E-03]  d Energy = 0.2332416E-03-0.547E-05
 d Force =-0.4222117E+01[-0.422E+01,-0.423E+01]  d Ewald  =-0.4222116E+01-0.356E-06


--------------------------------------------------------------------------------------------------------


    POTLOK:  cpu time    0.0589: real time    0.0600


--------------------------------------------------------------------------------------------------------


 stress matrix after NEB project (eV)
      0.00000      0.00000      0.00000
      0.00000      0.00000      0.00000
      0.00000      0.00000      0.00000
  FORCES: max atom, RMS     0.019288    0.006487
  FORCE total and by dimension    0.048546    0.019144
  Stress total and by dimension    0.000000    0.000000
 Conjugate gradient step on ions:
 trial-energy change:   -0.000233  1 .order   -0.000228   -0.000305   -0.000150
  (g-gl).g = 0.158E-03      g.g   = 0.213E-03  gl.gl    = 0.467E-03
 g(Force)  = 0.213E-03   g(Stress)= 0.000E+00 ortho     = 0.338E-04
 gamma     =   0.33882
 trial     =   1.36006
 opt step  =   2.32468  (harmonic =   2.67279) maximal distance =0.00315301
 next E    =  -233.024058   (d E  =  -0.00029)


--------------------------------------------------------------------------------------------------------


  
 reached required accuracy - stopping structural energy minimisation
     LOOP+:  cpu time   76.5928: real time   77.0614
    4ORBIT:  cpu time    0.0000: real time    0.0000

 total amount of memory used by VASP on root node    93046. kBytes
========================================================================

   base      :      30000. kBytes
   nonlr-proj:       4703. kBytes
   fftplans  :       4744. kBytes
   grid      :       7835. kBytes
   one-center:        155. kBytes
   wavefun   :      45609. kBytes
 
  
  
 General timing and accounting informations for this job:
 ========================================================
  
                  Total CPU time used (sec):     3431.869
                            User time (sec):     3274.697
                          System time (sec):      157.172
                         Elapsed time (sec):     3453.201
  
                   Maximum memory used (kb):     1097296.
                   Average memory used (kb):           0.
  
                          Minor page faults:      1295934
                          Major page faults:            2
                 Voluntary context switches:        14123
