<?xml version="1.0" encoding="ISO-8859-1"?>
<modeling>
 <generator>
  <i name="program" type="string">vasp </i>
  <i name="version" type="string">5.4.1  </i>
  <i name="subversion" type="string">24Jun15 (build Mar 14 2019 10:18:33) complex                          parallel </i>
  <i name="platform" type="string">INTEL-19.0.2+OPENMPI-3.1.3 </i>
  <i name="date" type="string">2023 01 23 </i>
  <i name="time" type="string">16:11:09 </i>
 </generator>
 <incar>
  <i type="int" name="ISTART">     0</i>
  <i type="string" name="PREC">normal</i>
  <i type="string" name="ALGO"> Fast</i>
  <i type="int" name="NELM">   500</i>
  <i type="int" name="IBRION">     2</i>
  <i type="int" name="NFREE">     2</i>
  <i name="EDIFF">      0.00000100</i>
  <i name="EDIFFG">     -0.02000000</i>
  <i type="int" name="NSW">   500</i>
  <i type="int" name="ISIF">     0</i>
  <i type="int" name="ISYM">     2</i>
  <i name="ENCUT">    400.00000000</i>
  <i name="POTIM">      0.35000000</i>
  <i type="string" name="LREAL"> Auto</i>
  <i type="logical" name="LPLANE"> T  </i>
  <i type="int" name="ISMEAR">     0</i>
  <i name="SIGMA">      0.10000000</i>
  <i type="int" name="NWRITE">     1</i>
  <i type="logical" name="LWAVE"> F  </i>
  <i type="logical" name="LCHARG"> F  </i>
  <i type="logical" name="LVTOT"> F  </i>
  <i type="logical" name="LORBIT"> F  </i>
  <i type="logical" name="LAECHG"> F  </i>
  <v type="int" name="KPOINT_BSE">    -1     0     0     0</v>
  <i type="int" name="NELM">   500</i>
  <i type="string" name="GGA"> PE          ! optPBE-vdW XC-functional</i>
  <i type="int" name="VOSKOWN">     1</i>
  <i type="logical" name="LDIPOL"> T  </i>
  <i type="logical" name="LMONO"> F  </i>
  <i type="int" name="IDIPOL">     3</i>
  <v name="DIPOL">      0.00000000      0.00000000      0.50000000</v>
 </incar>
 <kpoints>
  <generation param="Monkhorst-Pack">
   <v type="int" name="divisions">       2        2        1 </v>
   <v name="usershift">      0.00000000       0.00000000       0.00000000 </v>
   <v name="genvec1">      0.50000000       0.00000000       0.00000000 </v>
   <v name="genvec2">      0.00000000       0.50000000       0.00000000 </v>
   <v name="genvec3">      0.00000000       0.00000000       1.00000000 </v>
   <v name="shift">      0.50000000       0.50000000       0.00000000 </v>
  </generation>
  <varray name="kpointlist" >
   <v>       0.25000000       0.25000000       0.00000000 </v>
   <v>       0.00000000       0.25000000       0.00000000 </v>
   <v>      -0.25000000       0.00000000       0.00000000 </v>
   <v>      -0.25000000       0.25000000       0.00000000 </v>
   <v>       0.50000000      -0.25000000       0.00000000 </v>
   <v>      -0.25000000       0.50000000       0.00000000 </v>
  </varray>
  <varray name="weights" >
   <v>       0.16666667 </v>
   <v>       0.16666667 </v>
   <v>       0.16666667 </v>
   <v>       0.16666667 </v>
   <v>       0.16666667 </v>
   <v>       0.16666667 </v>
  </varray>
 </kpoints>
 <parameters>
  <separator name="general" >
   <i type="string" name="SYSTEM">unknown system</i>
   <i type="logical" name="LCOMPAT"> F  </i>
  </separator>
  <separator name="electronic" >
   <i type="string" name="PREC">normal</i>
   <i name="ENMAX">    400.00000000</i>
   <i name="ENAUG">    605.39200000</i>
   <i name="EDIFF">      0.00000100</i>
   <i type="int" name="IALGO">    68</i>
   <i type="int" name="IWAVPR">    11</i>
   <i type="int" name="NBANDS">   336</i>
   <i name="NELECT">    552.00000000</i>
   <i type="int" name="TURBO">     0</i>
   <i type="int" name="IRESTART">     0</i>
   <i type="int" name="NREBOOT">     0</i>
   <i type="int" name="NMIN">     0</i>
   <i name="EREF">      0.00000000</i>
   <separator name="electronic smearing" >
    <i type="int" name="ISMEAR">     0</i>
    <i name="SIGMA">      0.10000000</i>
    <i name="KSPACING">      0.50000000</i>
    <i type="logical" name="KGAMMA"> T  </i>
   </separator>
   <separator name="electronic projectors" >
    <i type="logical" name="LREAL"> T  </i>
    <v name="ROPT">     -0.00050000     -0.00050000     -0.00050000</v>
    <i type="int" name="LMAXPAW">  -100</i>
    <i type="int" name="LMAXMIX">     2</i>
    <i type="logical" name="NLSPLINE"> F  </i>
   </separator>
   <separator name="electronic startup" >
    <i type="int" name="ISTART">     0</i>
    <i type="int" name="ICHARG">     2</i>
    <i type="int" name="INIWAV">     1</i>
   </separator>
   <separator name="electronic spin" >
    <i type="int" name="ISPIN">     1</i>
    <i type="logical" name="LNONCOLLINEAR"> F  </i>
    <v name="MAGMOM">      1.00000000      1.00000000      1.00000000      1.00000000      1.00000000      1.00000000      1.00000000      1.00000000      1.00000000      1.00000000      1.00000000      1.00000000      1.00000000      1.00000000      1.00000000      1.00000000      1.00000000      1.00000000      1.00000000      1.00000000
      1.00000000      1.00000000      1.00000000      1.00000000      1.00000000      1.00000000      1.00000000      1.00000000      1.00000000      1.00000000      1.00000000      1.00000000      1.00000000      1.00000000      1.00000000      1.00000000      1.00000000      1.00000000      1.00000000      1.00000000
      1.00000000      1.00000000      1.00000000      1.00000000      1.00000000      1.00000000      1.00000000      1.00000000      1.00000000      1.00000000      1.00000000      1.00000000      1.00000000      1.00000000      1.00000000      1.00000000</v>
    <i name="NUPDOWN">     -1.00000000</i>
    <i type="logical" name="LSORBIT"> F  </i>
    <v name="SAXIS">      0.00000000      0.00000000      1.00000000</v>
    <i type="logical" name="LSPIRAL"> F  </i>
    <v name="QSPIRAL">      0.00000000      0.00000000      0.00000000</v>
    <i type="logical" name="LZEROZ"> F  </i>
   </separator>
   <separator name="electronic exchange-correlation" >
    <i type="logical" name="LASPH"> F  </i>
    <i type="logical" name="LMETAGGA"> F  </i>
   </separator>
   <separator name="electronic convergence" >
    <i type="int" name="NELM">   500</i>
    <i type="int" name="NELMDL">    -5</i>
    <i type="int" name="NELMIN">     2</i>
    <i name="ENINI">    400.00000000</i>
    <separator name="electronic convergence detail" >
     <i type="logical" name="LDIAG"> T  </i>
     <i type="logical" name="LSUBROT"> F  </i>
     <i name="WEIMIN">      0.00100000</i>
     <i name="EBREAK">      0.00000000</i>
     <i name="DEPER">      0.30000000</i>
     <i type="int" name="NRMM">     4</i>
     <i name="TIME">      0.40000000</i>
    </separator>
   </separator>
   <separator name="electronic mixer" >
    <i name="AMIX">      0.40000000</i>
    <i name="BMIX">      1.00000000</i>
    <i name="AMIN">      0.10000000</i>
    <i name="AMIX_MAG">      1.60000000</i>
    <i name="BMIX_MAG">      1.00000000</i>
    <separator name="electronic mixer details" >
     <i type="int" name="IMIX">     4</i>
     <i type="logical" name="MIXFIRST"> F  </i>
     <i type="int" name="MAXMIX">   -45</i>
     <i name="WC">    100.00000000</i>
     <i type="int" name="INIMIX">     1</i>
     <i type="int" name="MIXPRE">     1</i>
     <i type="int" name="MREMOVE">     5</i>
    </separator>
   </separator>
   <separator name="electronic dipolcorrection" >
    <i type="logical" name="LDIPOL"> T  </i>
    <i type="logical" name="LMONO"> F  </i>
    <i type="int" name="IDIPOL">     3</i>
    <i name="EPSILON">      1.00000000</i>
    <v name="DIPOL">      0.00000000      0.00000000      0.50000000</v>
    <i name="EFIELD">      0.00000000</i>
   </separator>
  </separator>
  <separator name="grids" >
   <i type="int" name="NGX">    54</i>
   <i type="int" name="NGY">    54</i>
   <i type="int" name="NGZ">   128</i>
   <i type="int" name="NGXF">   108</i>
   <i type="int" name="NGYF">   108</i>
   <i type="int" name="NGZF">   256</i>
   <i type="logical" name="ADDGRID"> F  </i>
  </separator>
  <separator name="ionic" >
   <i type="int" name="NSW">   500</i>
   <i type="int" name="IBRION">     2</i>
   <i type="int" name="ISIF">     0</i>
   <i name="PSTRESS">      0.00000000</i>
   <i name="EDIFFG">     -0.02000000</i>
   <i type="int" name="NFREE">     2</i>
   <i name="POTIM">      0.35000000</i>
   <i name="SMASS">     -3.00000000</i>
   <i name="SCALEE">      1.00000000</i>
  </separator>
  <separator name="ionic md" >
   <i name="TEBEG">      0.00010000</i>
   <i name="TEEND">      0.00010000</i>
   <i type="int" name="NBLOCK">     1</i>
   <i type="int" name="KBLOCK">   500</i>
   <i type="int" name="NPACO">   256</i>
   <i name="APACO">     16.00000000</i>
  </separator>
  <separator name="symmetry" >
   <i type="int" name="ISYM">     2</i>
   <i name="SYMPREC">      0.00001000</i>
  </separator>
  <separator name="dos" >
   <i type="logical" name="LORBIT"> F  </i>
   <v name="RWIGS">     -1.00000000     -1.00000000     -1.00000000</v>
   <i type="int" name="NEDOS">   301</i>
   <i name="EMIN">     10.00000000</i>
   <i name="EMAX">    -10.00000000</i>
   <i name="EFERMI">      0.00000000</i>
  </separator>
  <separator name="writing" >
   <i type="int" name="NWRITE">     1</i>
   <i type="logical" name="LWAVE"> F  </i>
   <i type="logical" name="LCHARG"> F  </i>
   <i type="logical" name="LPARD"> F  </i>
   <i type="logical" name="LVTOT"> F  </i>
   <i type="logical" name="LVHAR"> F  </i>
   <i type="logical" name="LELF"> F  </i>
   <i type="logical" name="LOPTICS"> F  </i>
   <v name="STM">      0.00000000      0.00000000      0.00000000      0.00000000      0.00000000      0.00000000      0.00000000</v>
  </separator>
  <separator name="performance" >
   <i type="int" name="NPAR">     6</i>
   <i type="int" name="NSIM">     4</i>
   <i type="int" name="NBLK">    -1</i>
   <i type="logical" name="LPLANE"> T  </i>
   <i type="logical" name="LSCALAPACK"> T  </i>
   <i type="logical" name="LSCAAWARE"> F  </i>
   <i type="logical" name="LSCALU"> F  </i>
   <i type="logical" name="LASYNC"> F  </i>
   <i type="logical" name="LORBITALREAL"> F  </i>
  </separator>
  <separator name="miscellaneous" >
   <i type="int" name="IDIOT">     3</i>
   <i type="logical" name="LMUSIC"> F  </i>
   <v name="POMASS">    196.96600000     16.00000000    106.42000000</v>
   <v name="DARWINR">      0.00000000      0.00000000      0.00000000</v>
   <v name="DARWINV">      1.00000000      1.00000000      1.00000000</v>
   <i type="logical" name="LCORR"> T  </i>
  </separator>
  <i type="logical" name="GGA_COMPAT"> T  </i>
  <i type="logical" name="LBERRY"> F  </i>
  <i type="int" name="ICORELEVEL">     0</i>
  <i type="logical" name="LDAU"> F  </i>
  <i type="int" name="I_CONSTRAINED_M">     0</i>
  <separator name="electronic exchange-correlation" >
   <i type="string" name="GGA">PE</i>
   <i type="int" name="VOSKOWN">     1</i>
   <i type="logical" name="LHFCALC"> F  </i>
   <i type="string" name="PRECFOCK"></i>
   <i type="logical" name="LSYMGRAD"> F  </i>
   <i type="logical" name="LHFONE"> F  </i>
   <i type="logical" name="LRHFCALC"> F  </i>
   <i type="logical" name="LTHOMAS"> F  </i>
   <i type="logical" name="LMODELHF"> F  </i>
   <i name="ENCUT4O">     -1.00000000</i>
   <i type="int" name="EXXOEP">     0</i>
   <i type="int" name="FOURORBIT">     0</i>
   <i name="AEXX">      0.00000000</i>
   <i name="HFALPHA">      0.00000000</i>
   <i name="MCALPHA">      0.00000000</i>
   <i name="ALDAX">      1.00000000</i>
   <i name="AGGAX">      1.00000000</i>
   <i name="ALDAC">      1.00000000</i>
   <i name="AGGAC">      1.00000000</i>
   <i type="int" name="NKREDX">     1</i>
   <i type="int" name="NKREDY">     1</i>
   <i type="int" name="NKREDZ">     1</i>
   <i type="logical" name="SHIFTRED"> F  </i>
   <i type="logical" name="ODDONLY"> F  </i>
   <i type="logical" name="EVENONLY"> F  </i>
   <i type="int" name="LMAXFOCK">     0</i>
   <i type="int" name="NMAXFOCKAE">     0</i>
   <i type="logical" name="LFOCKAEDFT"> F  </i>
   <i name="HFSCREEN">      0.00000000</i>
   <i name="HFSCREENC">      0.00000000</i>
   <i type="int" name="NBANDSGWLOW">     0</i>
  </separator>
  <separator name="vdW DFT" >
   <i type="logical" name="LUSE_VDW"> F  </i>
   <i name="Zab_VDW">     -0.84910000</i>
   <i name="PARAM1">      0.12340000</i>
   <i name="PARAM2">      1.00000000</i>
   <i name="PARAM3">      0.00000000</i>
  </separator>
  <separator name="model GW" >
   <i type="int" name="MODEL_GW">     0</i>
   <i name="MODEL_EPS0">     29.42037089</i>
   <i name="MODEL_ALPHA">      1.00000000</i>
  </separator>
  <separator name="linear response parameters" >
   <i type="logical" name="LEPSILON"> F  </i>
   <i type="logical" name="LRPA"> F  </i>
   <i type="logical" name="LNABLA"> F  </i>
   <i type="logical" name="LVEL"> F  </i>
   <i type="int" name="KINTER">     0</i>
   <i name="CSHIFT">      0.10000000</i>
   <i name="OMEGAMAX">     -1.00000000</i>
   <i name="DEG_THRESHOLD">      0.00200000</i>
  </separator>
  <separator name="orbital magnetization" >
   <i type="logical" name="NUCIND"> F  </i>
   <v name="MAGPOS">      0.00000000      0.00000000      0.00000000</v>
   <i type="logical" name="LNICSALL"> T  </i>
   <i type="logical" name="ORBITALMAG"> F  </i>
   <i type="logical" name="LMAGBLOCH"> F  </i>
   <i type="logical" name="LCHIMAG"> F  </i>
   <i type="logical" name="LGAUGE"> T  </i>
   <i type="int" name="MAGATOM">     0</i>
   <v name="MAGDIPOL">      0.00000000      0.00000000      0.00000000</v>
   <v name="AVECCONST">      0.00000000      0.00000000      0.00000000</v>
  </separator>
  <separator name="response functions" >
   <i type="logical" name="LADDER"> F  </i>
   <i type="logical" name="LFXC"> F  </i>
   <i type="logical" name="LHARTREE"> T  </i>
   <i type="int" name="IBSE">     0</i>
   <v type="int" name="KPOINT">    -1     0     0     0</v>
   <i type="logical" name="LTCTE"> F  </i>
   <i type="logical" name="LTETE"> F  </i>
   <i type="logical" name="LTRIPLET"> F  </i>
   <i type="logical" name="LFXCEPS"> F  </i>
   <i type="logical" name="LFXHEG"> F  </i>
   <i type="int" name="NATURALO">     0</i>
   <i type="logical" name="L2ORDER"> F  </i>
   <i type="logical" name="LUSEW"> F  </i>
   <i name="ENCUTGW">     -2.00000000</i>
   <i name="ENCUTGWSOFT">     -2.00000000</i>
   <i name="ENCUTLF">     -1.00000000</i>
   <i type="int" name="LMAXMP2">    -1</i>
   <i name="SCISSOR">      0.00000000</i>
   <i type="int" name="NOMEGA">     0</i>
   <i type="int" name="NOMEGAR">     0</i>
   <i type="int" name="NBANDSGW">    -1</i>
   <i type="int" name="NBANDSO">    -1</i>
   <i type="int" name="NBANDSV">    -1</i>
   <i type="int" name="NELM">   500</i>
   <i type="int" name="NELMHF">     1</i>
   <i type="int" name="DIM">     3</i>
   <i type="int" name="ANTIRES">     0</i>
   <i name="OMEGAMAX">    -30.00000000</i>
   <i name="OMEGAMIN">    -30.00000000</i>
   <i name="OMEGATL">   -200.00000000</i>
   <i type="int" name="OMEGAGRID">     0</i>
   <i name="CSHIFT">     -0.10000000</i>
   <i type="logical" name="SELFENERGY"> F  </i>
   <i type="logical" name="LSPECTRAL"> F  </i>
   <i type="logical" name="LSPECTRALGW"> F  </i>
   <i type="logical" name="LSINGLES"> F  </i>
   <i type="logical" name="LFERMIGW"> F  </i>
   <i type="logical" name="ODDONLYGW"> F  </i>
   <i type="logical" name="EVENONLYGW"> F  </i>
   <i type="int" name="NKREDLFX">     1</i>
   <i type="int" name="NKREDLFY">     1</i>
   <i type="int" name="NKREDLFZ">     1</i>
   <i type="int" name="MAXMEM">  1800</i>
   <i type="int" name="TELESCOPE">     0</i>
   <i type="int" name="TAUPAR">     1</i>
   <i type="int" name="OMEGAPAR">    -1</i>
   <i name="LAMBDA">      1.00000000</i>
  </separator>
  <separator name="External order field" >
   <i name="OFIELD_KAPPA">      0.00000000</i>
   <v name="OFIELD_K">      0.00000000      0.00000000      0.00000000</v>
   <i name="OFIELD_Q6_NEAR">      0.00000000</i>
   <i name="OFIELD_Q6_FAR">      0.00000000</i>
   <i name="OFIELD_A">      0.00000000</i>
  </separator>
 </parameters>
 <atominfo>
  <atoms>      56 </atoms>
  <types>       3 </types>
  <array name="atoms" >
   <dimension dim="1">ion</dimension>
   <field type="string">element</field>
   <field type="int">atomtype</field>
   <set>
    <rc><c>Au</c><c>   1</c></rc>
    <rc><c>Au</c><c>   1</c></rc>
    <rc><c>Au</c><c>   1</c></rc>
    <rc><c>Au</c><c>   1</c></rc>
    <rc><c>Au</c><c>   1</c></rc>
    <rc><c>Au</c><c>   1</c></rc>
    <rc><c>Au</c><c>   1</c></rc>
    <rc><c>Au</c><c>   1</c></rc>
    <rc><c>Au</c><c>   1</c></rc>
    <rc><c>Au</c><c>   1</c></rc>
    <rc><c>Au</c><c>   1</c></rc>
    <rc><c>Au</c><c>   1</c></rc>
    <rc><c>Au</c><c>   1</c></rc>
    <rc><c>Au</c><c>   1</c></rc>
    <rc><c>Au</c><c>   1</c></rc>
    <rc><c>Au</c><c>   1</c></rc>
    <rc><c>Au</c><c>   1</c></rc>
    <rc><c>Au</c><c>   1</c></rc>
    <rc><c>Au</c><c>   1</c></rc>
    <rc><c>Au</c><c>   1</c></rc>
    <rc><c>Au</c><c>   1</c></rc>
    <rc><c>Au</c><c>   1</c></rc>
    <rc><c>Au</c><c>   1</c></rc>
    <rc><c>Au</c><c>   1</c></rc>
    <rc><c>O </c><c>   2</c></rc>
    <rc><c>O </c><c>   2</c></rc>
    <rc><c>O </c><c>   2</c></rc>
    <rc><c>O </c><c>   2</c></rc>
    <rc><c>O </c><c>   2</c></rc>
    <rc><c>O </c><c>   2</c></rc>
    <rc><c>O </c><c>   2</c></rc>
    <rc><c>O </c><c>   2</c></rc>
    <rc><c>Pd</c><c>   3</c></rc>
    <rc><c>Pd</c><c>   3</c></rc>
    <rc><c>Pd</c><c>   3</c></rc>
    <rc><c>Pd</c><c>   3</c></rc>
    <rc><c>Pd</c><c>   3</c></rc>
    <rc><c>Pd</c><c>   3</c></rc>
    <rc><c>Pd</c><c>   3</c></rc>
    <rc><c>Pd</c><c>   3</c></rc>
    <rc><c>Pd</c><c>   3</c></rc>
    <rc><c>Pd</c><c>   3</c></rc>
    <rc><c>Pd</c><c>   3</c></rc>
    <rc><c>Pd</c><c>   3</c></rc>
    <rc><c>Pd</c><c>   3</c></rc>
    <rc><c>Pd</c><c>   3</c></rc>
    <rc><c>Pd</c><c>   3</c></rc>
    <rc><c>Pd</c><c>   3</c></rc>
    <rc><c>Pd</c><c>   3</c></rc>
    <rc><c>Pd</c><c>   3</c></rc>
    <rc><c>Pd</c><c>   3</c></rc>
    <rc><c>Pd</c><c>   3</c></rc>
    <rc><c>Pd</c><c>   3</c></rc>
    <rc><c>Pd</c><c>   3</c></rc>
    <rc><c>Pd</c><c>   3</c></rc>
    <rc><c>Pd</c><c>   3</c></rc>
   </set>
  </array>
  <array name="atomtypes" >
   <dimension dim="1">type</dimension>
   <field type="int">atomspertype</field>
   <field type="string">element</field>
   <field>mass</field>
   <field>valence</field>
   <field type="string">pseudopotential</field>
   <set>
    <rc><c>  24</c><c>Au</c><c>    196.96600000</c><c>     11.00000000</c><c>  PAW_PBE Au 04Oct2007                  </c></rc>
    <rc><c>   8</c><c>O </c><c>     16.00000000</c><c>      6.00000000</c><c>  PAW_PBE O 08Apr2002                   </c></rc>
    <rc><c>  24</c><c>Pd</c><c>    106.42000000</c><c>     10.00000000</c><c>  PAW_PBE Pd 04Jan2005                  </c></rc>
   </set>
  </array>
 </atominfo>
 <structure name="initialpos" >
  <crystal>
   <varray name="basis" >
    <v>      11.00258152       0.00000000       0.00000000 </v>
    <v>       5.50129076       9.52851510       0.00000000 </v>
    <v>       0.00000000       0.00000000      26.19178509 </v>
   </varray>
   <i name="volume">   2745.90128299 </i>
   <varray name="rec_basis" >
    <v>       0.09088776      -0.05247407       0.00000000 </v>
    <v>       0.00000000       0.10494815       0.00000000 </v>
    <v>       0.00000000       0.00000000       0.03817991 </v>
   </varray>
  </crystal>
  <varray name="positions" >
   <v>       0.08333333       0.08333333       0.38179910 </v>
   <v>       0.33333333       0.83333333       0.38179910 </v>
   <v>       0.91210142       0.17084009       0.47751262 </v>
   <v>       0.01406150       0.99402972       0.57045229 </v>
   <v>       0.66528831       0.91389197       0.48350253 </v>
   <v>       0.08333333       0.33333333       0.38179910 </v>
   <v>       0.83333333       0.83333333       0.38179910 </v>
   <v>       0.77509411       0.27756003       0.60218796 </v>
   <v>       0.91710715       0.66273405       0.47374029 </v>
   <v>       0.75840214       0.00051096       0.56768772 </v>
   <v>       0.83333333       0.08333333       0.38179910 </v>
   <v>       0.91683804       0.91655049       0.47702543 </v>
   <v>       0.58333333       0.83333333       0.38179910 </v>
   <v>       0.58333333       0.58333333       0.38179910 </v>
   <v>       0.33333333       0.08333333       0.38179910 </v>
   <v>       0.17147551       0.16497959       0.47611727 </v>
   <v>       0.42316439       0.41147156       0.48235504 </v>
   <v>       0.33333333       0.33333333       0.38179910 </v>
   <v>       0.24829487       0.25560410       0.57592833 </v>
   <v>       0.49590943       0.99224314       0.57782130 </v>
   <v>       0.33333333       0.58333333       0.38179910 </v>
   <v>       0.16908947       0.66326972       0.47450010 </v>
   <v>       0.24483235       0.49859869       0.57364082 </v>
   <v>       0.58333333       0.08333333       0.38179910 </v>
   <v>       0.93620974       0.75225462       0.63847995 </v>
   <v>       0.15379136       0.14554128       0.61567862 </v>
   <v>       0.32544141       0.61302238       0.61590121 </v>
   <v>       0.56562962       0.80156133       0.62243542 </v>
   <v>       0.58799327       0.08049582       0.62516029 </v>
   <v>       0.84251523       0.55839302       0.61558383 </v>
   <v>       0.57160873       0.34738452       0.62541793 </v>
   <v>       0.87441108       0.07840868       0.63024622 </v>
   <v>       0.41891298       0.91482721       0.47529034 </v>
   <v>       0.49971714       0.25215695       0.58107126 </v>
   <v>       0.25667037       0.99378030       0.56493839 </v>
   <v>       0.42120036       0.16385859       0.48737132 </v>
   <v>       0.42237911       0.66346140       0.47552320 </v>
   <v>       0.50851566       0.50791313       0.57759858 </v>
   <v>       0.76063720       0.76238022       0.62731244 </v>
   <v>       0.99861039       0.74551700       0.56932292 </v>
   <v>       0.50778237       0.74179394       0.55994556 </v>
   <v>       0.16771987       0.91527819       0.47625183 </v>
   <v>       0.08333333       0.83333333       0.38179910 </v>
   <v>       0.66587147       0.16733622       0.47628373 </v>
   <v>       0.99521266       0.50560809       0.56415570 </v>
   <v>       0.08333333       0.58333333       0.38179910 </v>
   <v>       0.83333333       0.33333333       0.38179910 </v>
   <v>       0.66675256       0.41707171       0.47960210 </v>
   <v>       0.83333333       0.58333333       0.38179910 </v>
   <v>       0.66895422       0.66505717       0.47143092 </v>
   <v>       0.75216137       0.50693327       0.55930120 </v>
   <v>       0.00098449       0.25523931       0.56422934 </v>
   <v>       0.91630840       0.41616707       0.47161755 </v>
   <v>       0.25194776       0.75145705       0.56122973 </v>
   <v>       0.58333333       0.33333333       0.38179910 </v>
   <v>       0.17074345       0.41370676       0.48006177 </v>
  </varray>
  <varray name="selective"  type="logical" >
   <v type="logical" >  F  F  F </v>
   <v type="logical" >  F  F  F </v>
   <v type="logical" >  T  T  T </v>
   <v type="logical" >  T  T  T </v>
   <v type="logical" >  T  T  T </v>
   <v type="logical" >  F  F  F </v>
   <v type="logical" >  F  F  F </v>
   <v type="logical" >  T  T  T </v>
   <v type="logical" >  T  T  T </v>
   <v type="logical" >  T  T  T </v>
   <v type="logical" >  F  F  F </v>
   <v type="logical" >  T  T  T </v>
   <v type="logical" >  F  F  F </v>
   <v type="logical" >  F  F  F </v>
   <v type="logical" >  F  F  F </v>
   <v type="logical" >  T  T  T </v>
   <v type="logical" >  T  T  T </v>
   <v type="logical" >  F  F  F </v>
   <v type="logical" >  T  T  T </v>
   <v type="logical" >  T  T  T </v>
   <v type="logical" >  F  F  F </v>
   <v type="logical" >  T  T  T </v>
   <v type="logical" >  T  T  T </v>
   <v type="logical" >  F  F  F </v>
   <v type="logical" >  T  T  T </v>
   <v type="logical" >  T  T  T </v>
   <v type="logical" >  T  T  T </v>
   <v type="logical" >  T  T  T </v>
   <v type="logical" >  T  T  T </v>
   <v type="logical" >  T  T  T </v>
   <v type="logical" >  T  T  T </v>
   <v type="logical" >  T  T  T </v>
   <v type="logical" >  T  T  T </v>
   <v type="logical" >  T  T  T </v>
   <v type="logical" >  T  T  T </v>
   <v type="logical" >  T  T  T </v>
   <v type="logical" >  T  T  T </v>
   <v type="logical" >  T  T  T </v>
   <v type="logical" >  T  T  T </v>
   <v type="logical" >  T  T  T </v>
   <v type="logical" >  T  T  T </v>
   <v type="logical" >  T  T  T </v>
   <v type="logical" >  F  F  F </v>
   <v type="logical" >  T  T  T </v>
   <v type="logical" >  T  T  T </v>
   <v type="logical" >  F  F  F </v>
   <v type="logical" >  F  F  F </v>
   <v type="logical" >  T  T  T </v>
   <v type="logical" >  F  F  F </v>
   <v type="logical" >  T  T  T </v>
   <v type="logical" >  T  T  T </v>
   <v type="logical" >  T  T  T </v>
   <v type="logical" >  T  T  T </v>
   <v type="logical" >  T  T  T </v>
   <v type="logical" >  F  F  F </v>
   <v type="logical" >  T  T  T </v>
  </varray>
  <nose>
   <v>      -3.00000000       0.00000000       0.00010000       0.00010000 </v>
  </nose>
 </structure>
 <calculation>
  <scstep>
   <time name="dav">   11.58   11.67</time>
   <time name="total">   11.65   11.74</time>
   <dipole>
    <v name="dipole">      0.00000000       0.00000000       0.00006229 </v>
    <i name="Tr[quadrupol]"> -11124.62767451 </i>
    <i name="Echarged">      0.00000000 </i>
    <i name="Edipol_quadrupol">      0.00000000 </i>
    <i name="Eion">      0.00000000 </i>
   </dipole>
   <energy>
    <i name="alphaZ">    862.57708521 </i>
    <i name="ewald"> 236048.39770376 </i>
    <i name="hartreedc">-281665.02124661 </i>
    <i name="XCdc">   -116.02806209 </i>
    <i name="pawpsdc">  43112.45544455 </i>
    <i name="pawaedc"> -41079.41300390 </i>
    <i name="eentropy">     -0.12976646 </i>
    <i name="bandstr">   1339.24811884 </i>
    <i name="atom">  45117.89144060 </i>
    <i name="e_fr_energy">   3619.97771390 </i>
    <i name="e_wo_entrp">   3620.10748036 </i>
    <i name="e_0_energy">   3620.04259713 </i>
   </energy>
  </scstep>
  <scstep>
   <time name="dav">   13.49   13.56</time>
   <time name="total">   13.50   13.56</time>
   <dipole>
    <v name="dipole">      0.00000000       0.00000000       0.00006229 </v>
    <i name="Tr[quadrupol]"> -11124.62767451 </i>
    <i name="Echarged">      0.00000000 </i>
    <i name="Edipol_quadrupol">      0.00000000 </i>
    <i name="Eion">      0.00000000 </i>
   </dipole>
   <energy>
    <i name="e_fr_energy">     50.05182689 </i>
    <i name="e_wo_entrp">     50.19991952 </i>
    <i name="e_0_energy">     50.12587321 </i>
   </energy>
  </scstep>
  <scstep>
   <time name="dav">   13.05   13.08</time>
   <time name="total">   13.05   13.09</time>
   <dipole>
    <v name="dipole">      0.00000000       0.00000000       0.00006229 </v>
    <i name="Tr[quadrupol]"> -11124.62767451 </i>
    <i name="Echarged">      0.00000000 </i>
    <i name="Edipol_quadrupol">      0.00000000 </i>
    <i name="Eion">      0.00000000 </i>
   </dipole>
   <energy>
    <i name="e_fr_energy">   -254.46672802 </i>
    <i name="e_wo_entrp">   -254.23075677 </i>
    <i name="e_0_energy">   -254.34874239 </i>
   </energy>
  </scstep>
  <scstep>
   <time name="dav">   12.75   12.80</time>
   <time name="total">   12.75   12.80</time>
   <dipole>
    <v name="dipole">      0.00000000       0.00000000       0.00006229 </v>
    <i name="Tr[quadrupol]"> -11124.62767451 </i>
    <i name="Echarged">      0.00000000 </i>
    <i name="Edipol_quadrupol">      0.00000000 </i>
    <i name="Eion">      0.00000000 </i>
   </dipole>
   <energy>
    <i name="e_fr_energy">   -265.15891487 </i>
    <i name="e_wo_entrp">   -264.91357924 </i>
    <i name="e_0_energy">   -265.03624706 </i>
   </energy>
  </scstep>
  <scstep>
   <time name="dav">   13.17   13.28</time>
   <time name="total">   13.45   13.57</time>
   <dipole>
    <v name="dipole">      0.00000000       0.00000000       0.00006229 </v>
    <i name="Tr[quadrupol]"> -11124.62767451 </i>
    <i name="Echarged">      0.00000000 </i>
    <i name="Edipol_quadrupol">      0.00000000 </i>
    <i name="Eion">      0.00000000 </i>
   </dipole>
   <energy>
    <i name="e_fr_energy">   -265.45697199 </i>
    <i name="e_wo_entrp">   -265.21042376 </i>
    <i name="e_0_energy">   -265.33369788 </i>
   </energy>
  </scstep>
  <scstep>
   <time name="diag">    1.92    1.93</time>
   <time name="diis">    6.19    6.21</time>
   <time name="orth">    0.42    0.43</time>
   <time name="total">    8.89    8.92</time>
   <dipole>
    <v name="dipole">      0.00000000       0.00000000       2.44635899 </v>
    <i name="Tr[quadrupol]"> -11124.03658088 </i>
    <i name="Echarged">      0.00000000 </i>
    <i name="Edipol_quadrupol">      0.00000000 </i>
    <i name="Eion">      0.00000000 </i>
   </dipole>
   <energy>
    <i name="e_fr_energy">   -273.79698625 </i>
    <i name="e_wo_entrp">   -273.65970759 </i>
    <i name="e_0_energy">   -273.72834692 </i>
   </energy>
  </scstep>
  <scstep>
   <time name="diag">    1.96    1.97</time>
   <time name="diis">    5.83    5.85</time>
   <time name="orth">    0.42    0.43</time>
   <time name="total">    8.56    8.59</time>
   <dipole>
    <v name="dipole">      0.00000000       0.00000000      -2.56369389 </v>
    <i name="Tr[quadrupol]"> -11124.32441218 </i>
    <i name="Echarged">      0.00000000 </i>
    <i name="Edipol_quadrupol">      0.00000000 </i>
    <i name="Eion">      0.00000000 </i>
   </dipole>
   <energy>
    <i name="e_fr_energy">   -322.14355227 </i>
    <i name="e_wo_entrp">   -321.92464602 </i>
    <i name="e_0_energy">   -322.03409914 </i>
   </energy>
  </scstep>
  <scstep>
   <time name="diag">    1.95    1.96</time>
   <time name="diis">    5.97    5.98</time>
   <time name="orth">    0.42    0.42</time>
   <time name="total">    8.68    8.71</time>
   <dipole>
    <v name="dipole">      0.00000000       0.00000000      -0.77114927 </v>
    <i name="Tr[quadrupol]"> -11126.58962335 </i>
    <i name="Echarged">      0.00000000 </i>
    <i name="Edipol_quadrupol">      0.00000000 </i>
    <i name="Eion">      0.00000000 </i>
   </dipole>
   <energy>
    <i name="e_fr_energy">   -256.86484927 </i>
    <i name="e_wo_entrp">   -256.57912160 </i>
    <i name="e_0_energy">   -256.72198543 </i>
   </energy>
  </scstep>
  <scstep>
   <time name="diag">    1.84    1.93</time>
   <time name="diis">    6.01    6.03</time>
   <time name="orth">    0.42    0.42</time>
   <time name="total">    8.62    8.73</time>
   <dipole>
    <v name="dipole">      0.00000000       0.00000000      -0.15070312 </v>
    <i name="Tr[quadrupol]"> -11121.25414970 </i>
    <i name="Echarged">      0.00000000 </i>
    <i name="Edipol_quadrupol">      0.00000000 </i>
    <i name="Eion">      0.00000000 </i>
   </dipole>
   <energy>
    <i name="e_fr_energy">   -253.63020823 </i>
    <i name="e_wo_entrp">   -253.42221915 </i>
    <i name="e_0_energy">   -253.52621369 </i>
   </energy>
  </scstep>
  <scstep>
   <time name="diag">    1.91    1.92</time>
   <time name="diis">    5.94    5.95</time>
   <time name="orth">    0.42    0.42</time>
   <time name="total">    8.61    8.64</time>
   <dipole>
    <v name="dipole">      0.00000000       0.00000000       0.64596577 </v>
    <i name="Tr[quadrupol]"> -11122.00559856 </i>
    <i name="Echarged">      0.00000000 </i>
    <i name="Edipol_quadrupol">      0.00000000 </i>
    <i name="Eion">      0.00000000 </i>
   </dipole>
   <energy>
    <i name="e_fr_energy">   -246.04524397 </i>
    <i name="e_wo_entrp">   -245.86690023 </i>
    <i name="e_0_energy">   -245.95607210 </i>
   </energy>
  </scstep>
  <scstep>
   <time name="diag">    1.95    1.96</time>
   <time name="diis">    5.99    6.00</time>
   <time name="orth">    0.42    0.42</time>
   <time name="total">    8.70    8.73</time>
   <dipole>
    <v name="dipole">      0.00000000       0.00000000       0.70870204 </v>
    <i name="Tr[quadrupol]"> -11123.20815214 </i>
    <i name="Echarged">      0.00000000 </i>
    <i name="Edipol_quadrupol">      0.00000000 </i>
    <i name="Eion">      0.00000000 </i>
   </dipole>
   <energy>
    <i name="e_fr_energy">   -241.73283128 </i>
    <i name="e_wo_entrp">   -241.58134923 </i>
    <i name="e_0_energy">   -241.65709025 </i>
   </energy>
  </scstep>
  <scstep>
   <time name="diag">    1.95    1.96</time>
   <time name="diis">    5.91    5.93</time>
   <time name="orth">    0.41    0.42</time>
   <time name="total">    8.62    8.65</time>
   <dipole>
    <v name="dipole">      0.00000000       0.00000000       0.49837426 </v>
    <i name="Tr[quadrupol]"> -11124.43073162 </i>
    <i name="Echarged">      0.00000000 </i>
    <i name="Edipol_quadrupol">      0.00000000 </i>
    <i name="Eion">      0.00000000 </i>
   </dipole>
   <energy>
    <i name="e_fr_energy">   -234.56311288 </i>
    <i name="e_wo_entrp">   -234.40993190 </i>
    <i name="e_0_energy">   -234.48652239 </i>
   </energy>
  </scstep>
  <scstep>
   <time name="diag">    1.90    1.90</time>
   <time name="diis">    5.85    5.96</time>
   <time name="orth">    0.41    0.42</time>
   <time name="total">    8.51    8.63</time>
   <dipole>
    <v name="dipole">      0.00000000       0.00000000       0.50699085 </v>
    <i name="Tr[quadrupol]"> -11124.67958556 </i>
    <i name="Echarged">      0.00000000 </i>
    <i name="Edipol_quadrupol">      0.00000000 </i>
    <i name="Eion">      0.00000000 </i>
   </dipole>
   <energy>
    <i name="e_fr_energy">   -233.31059377 </i>
    <i name="e_wo_entrp">   -233.15757678 </i>
    <i name="e_0_energy">   -233.23408527 </i>
   </energy>
  </scstep>
  <scstep>
   <time name="diag">    1.91    1.91</time>
   <time name="diis">    5.96    5.97</time>
   <time name="orth">    0.41    0.42</time>
   <time name="total">    8.63    8.65</time>
   <dipole>
    <v name="dipole">      0.00000000       0.00000000       0.55886148 </v>
    <i name="Tr[quadrupol]"> -11124.77450240 </i>
    <i name="Echarged">      0.00000000 </i>
    <i name="Edipol_quadrupol">      0.00000000 </i>
    <i name="Eion">      0.00000000 </i>
   </dipole>
   <energy>
    <i name="e_fr_energy">   -233.20590053 </i>
    <i name="e_wo_entrp">   -233.05819995 </i>
    <i name="e_0_energy">   -233.13205024 </i>
   </energy>
  </scstep>
  <scstep>
   <time name="diag">    1.95    1.95</time>
   <time name="diis">    5.92    5.95</time>
   <time name="orth">    0.41    0.42</time>
   <time name="total">    8.63    8.66</time>
   <dipole>
    <v name="dipole">      0.00000000       0.00000000       0.59183242 </v>
    <i name="Tr[quadrupol]"> -11124.75902669 </i>
    <i name="Echarged">      0.00000000 </i>
    <i name="Edipol_quadrupol">      0.00000000 </i>
    <i name="Eion">      0.00000000 </i>
   </dipole>
   <energy>
    <i name="e_fr_energy">   -233.20342307 </i>
    <i name="e_wo_entrp">   -233.04370546 </i>
    <i name="e_0_energy">   -233.12356426 </i>
   </energy>
  </scstep>
  <scstep>
   <time name="diag">    1.95    1.96</time>
   <time name="diis">    5.99    6.01</time>
   <time name="orth">    0.42    0.42</time>
   <time name="total">    8.71    8.73</time>
   <dipole>
    <v name="dipole">      0.00000000       0.00000000       0.62594686 </v>
    <i name="Tr[quadrupol]"> -11124.98444276 </i>
    <i name="Echarged">      0.00000000 </i>
    <i name="Edipol_quadrupol">      0.00000000 </i>
    <i name="Eion">      0.00000000 </i>
   </dipole>
   <energy>
    <i name="e_fr_energy">   -233.19346705 </i>
    <i name="e_wo_entrp">   -233.04512273 </i>
    <i name="e_0_energy">   -233.11929489 </i>
   </energy>
  </scstep>
  <scstep>
   <time name="diag">    1.89    1.90</time>
   <time name="diis">    6.00    6.02</time>
   <time name="orth">    0.42    0.42</time>
   <time name="total">    8.66    8.69</time>
   <dipole>
    <v name="dipole">      0.00000000       0.00000000       0.64394771 </v>
    <i name="Tr[quadrupol]"> -11125.25578817 </i>
    <i name="Echarged">      0.00000000 </i>
    <i name="Edipol_quadrupol">      0.00000000 </i>
    <i name="Eion">      0.00000000 </i>
   </dipole>
   <energy>
    <i name="e_fr_energy">   -233.03146544 </i>
    <i name="e_wo_entrp">   -232.85868065 </i>
    <i name="e_0_energy">   -232.94507304 </i>
   </energy>
  </scstep>
  <scstep>
   <time name="diag">    1.91    1.91</time>
   <time name="diis">    5.82    5.94</time>
   <time name="orth">    0.41    0.41</time>
   <time name="total">    8.49    8.62</time>
   <dipole>
    <v name="dipole">      0.00000000       0.00000000       0.61058064 </v>
    <i name="Tr[quadrupol]"> -11125.38126402 </i>
    <i name="Echarged">      0.00000000 </i>
    <i name="Edipol_quadrupol">      0.00000000 </i>
    <i name="Eion">      0.00000000 </i>
   </dipole>
   <energy>
    <i name="e_fr_energy">   -232.97441618 </i>
    <i name="e_wo_entrp">   -232.79848350 </i>
    <i name="e_0_energy">   -232.88644984 </i>
   </energy>
  </scstep>
  <scstep>
   <time name="diag">    1.94    1.95</time>
   <time name="diis">    5.95    5.97</time>
   <time name="orth">    0.41    0.41</time>
   <time name="total">    8.65    8.68</time>
   <dipole>
    <v name="dipole">      0.00000000       0.00000000       0.59831284 </v>
    <i name="Tr[quadrupol]"> -11125.39710167 </i>
    <i name="Echarged">      0.00000000 </i>
    <i name="Edipol_quadrupol">      0.00000000 </i>
    <i name="Eion">      0.00000000 </i>
   </dipole>
   <energy>
    <i name="e_fr_energy">   -232.96193254 </i>
    <i name="e_wo_entrp">   -232.78470130 </i>
    <i name="e_0_energy">   -232.87331692 </i>
   </energy>
  </scstep>
  <scstep>
   <time name="diag">    1.95    1.96</time>
   <time name="diis">    5.92    5.93</time>
   <time name="orth">    0.41    0.41</time>
   <time name="total">    8.63    8.65</time>
   <dipole>
    <v name="dipole">      0.00000000       0.00000000       0.59472446 </v>
    <i name="Tr[quadrupol]"> -11125.41549468 </i>
    <i name="Echarged">      0.00000000 </i>
    <i name="Edipol_quadrupol">      0.00000000 </i>
    <i name="Eion">      0.00000000 </i>
   </dipole>
   <energy>
    <i name="e_fr_energy">   -232.95795327 </i>
    <i name="e_wo_entrp">   -232.78122356 </i>
    <i name="e_0_energy">   -232.86958842 </i>
   </energy>
  </scstep>
  <scstep>
   <time name="diag">    1.89    1.90</time>
   <time name="diis">    5.93    5.95</time>
   <time name="orth">    0.41    0.41</time>
   <time name="total">    8.58    8.61</time>
   <dipole>
    <v name="dipole">      0.00000000       0.00000000       0.59207092 </v>
    <i name="Tr[quadrupol]"> -11125.48096195 </i>
    <i name="Echarged">      0.00000000 </i>
    <i name="Edipol_quadrupol">      0.00000000 </i>
    <i name="Eion">      0.00000000 </i>
   </dipole>
   <energy>
    <i name="e_fr_energy">   -232.95618150 </i>
    <i name="e_wo_entrp">   -232.78011252 </i>
    <i name="e_0_energy">   -232.86814701 </i>
   </energy>
  </scstep>
  <scstep>
   <time name="diag">    1.91    1.91</time>
   <time name="diis">    5.99    6.06</time>
   <time name="orth">    0.40    0.43</time>
   <time name="total">    8.65    8.75</time>
   <dipole>
    <v name="dipole">      0.00000000       0.00000000       0.59450895 </v>
    <i name="Tr[quadrupol]"> -11125.56354318 </i>
    <i name="Echarged">      0.00000000 </i>
    <i name="Edipol_quadrupol">      0.00000000 </i>
    <i name="Eion">      0.00000000 </i>
   </dipole>
   <energy>
    <i name="e_fr_energy">   -232.95504781 </i>
    <i name="e_wo_entrp">   -232.77995601 </i>
    <i name="e_0_energy">   -232.86750191 </i>
   </energy>
  </scstep>
  <scstep>
   <time name="diag">    1.94    1.94</time>
   <time name="diis">    5.94    5.96</time>
   <time name="orth">    0.41    0.41</time>
   <time name="total">    8.64    8.67</time>
   <dipole>
    <v name="dipole">      0.00000000       0.00000000       0.59546065 </v>
    <i name="Tr[quadrupol]"> -11125.61922027 </i>
    <i name="Echarged">      0.00000000 </i>
    <i name="Edipol_quadrupol">      0.00000000 </i>
    <i name="Eion">      0.00000000 </i>
   </dipole>
   <energy>
    <i name="e_fr_energy">   -232.95514195 </i>
    <i name="e_wo_entrp">   -232.78055502 </i>
    <i name="e_0_energy">   -232.86784848 </i>
   </energy>
  </scstep>
  <scstep>
   <time name="diag">    1.94    1.95</time>
   <time name="diis">    5.91    5.95</time>
   <time name="orth">    0.41    0.41</time>
   <time name="total">    8.61    8.66</time>
   <dipole>
    <v name="dipole">      0.00000000       0.00000000       0.59703850 </v>
    <i name="Tr[quadrupol]"> -11125.67225019 </i>
    <i name="Echarged">      0.00000000 </i>
    <i name="Edipol_quadrupol">      0.00000000 </i>
    <i name="Eion">      0.00000000 </i>
   </dipole>
   <energy>
    <i name="e_fr_energy">   -232.95541559 </i>
    <i name="e_wo_entrp">   -232.78072386 </i>
    <i name="e_0_energy">   -232.86806972 </i>
   </energy>
  </scstep>
  <scstep>
   <time name="diag">    1.89    1.89</time>
   <time name="diis">    6.01    6.03</time>
   <time name="orth">    0.41    0.41</time>
   <time name="total">    8.66    8.69</time>
   <dipole>
    <v name="dipole">      0.00000000       0.00000000       0.59995727 </v>
    <i name="Tr[quadrupol]"> -11125.71584510 </i>
    <i name="Echarged">      0.00000000 </i>
    <i name="Edipol_quadrupol">      0.00000000 </i>
    <i name="Eion">      0.00000000 </i>
   </dipole>
   <energy>
    <i name="e_fr_energy">   -232.95572674 </i>
    <i name="e_wo_entrp">   -232.78111756 </i>
    <i name="e_0_energy">   -232.86842215 </i>
   </energy>
  </scstep>
  <scstep>
   <time name="diag">    1.90    1.91</time>
   <time name="diis">    6.06    6.07</time>
   <time name="orth">    0.41    0.41</time>
   <time name="total">    8.72    8.75</time>
   <dipole>
    <v name="dipole">      0.00000000       0.00000000       0.60072549 </v>
    <i name="Tr[quadrupol]"> -11125.75036964 </i>
    <i name="Echarged">      0.00000000 </i>
    <i name="Edipol_quadrupol">      0.00000000 </i>
    <i name="Eion">      0.00000000 </i>
   </dipole>
   <energy>
    <i name="e_fr_energy">   -232.95597141 </i>
    <i name="e_wo_entrp">   -232.78117054 </i>
    <i name="e_0_energy">   -232.86857097 </i>
   </energy>
  </scstep>
  <scstep>
   <time name="diag">    1.95    1.95</time>
   <time name="diis">    5.96    6.07</time>
   <time name="orth">    0.41    0.41</time>
   <time name="total">    8.67    8.79</time>
   <dipole>
    <v name="dipole">      0.00000000       0.00000000       0.60237711 </v>
    <i name="Tr[quadrupol]"> -11125.78582858 </i>
    <i name="Echarged">      0.00000000 </i>
    <i name="Edipol_quadrupol">      0.00000000 </i>
    <i name="Eion">      0.00000000 </i>
   </dipole>
   <energy>
    <i name="e_fr_energy">   -232.95625775 </i>
    <i name="e_wo_entrp">   -232.78140267 </i>
    <i name="e_0_energy">   -232.86883021 </i>
   </energy>
  </scstep>
  <scstep>
   <time name="diag">    1.95    1.95</time>
   <time name="diis">    5.94    5.96</time>
   <time name="orth">    0.41    0.41</time>
   <time name="total">    8.65    8.68</time>
   <dipole>
    <v name="dipole">      0.00000000       0.00000000       0.60493485 </v>
    <i name="Tr[quadrupol]"> -11125.83434392 </i>
    <i name="Echarged">      0.00000000 </i>
    <i name="Edipol_quadrupol">      0.00000000 </i>
    <i name="Eion">      0.00000000 </i>
   </dipole>
   <energy>
    <i name="e_fr_energy">   -232.95663727 </i>
    <i name="e_wo_entrp">   -232.78176150 </i>
    <i name="e_0_energy">   -232.86919938 </i>
   </energy>
  </scstep>
  <scstep>
   <time name="diag">    1.89    1.90</time>
   <time name="diis">    5.89    5.91</time>
   <time name="orth">    0.41    0.41</time>
   <time name="total">    8.54    8.57</time>
   <dipole>
    <v name="dipole">      0.00000000       0.00000000       0.60706027 </v>
    <i name="Tr[quadrupol]"> -11125.86852300 </i>
    <i name="Echarged">      0.00000000 </i>
    <i name="Edipol_quadrupol">      0.00000000 </i>
    <i name="Eion">      0.00000000 </i>
   </dipole>
   <energy>
    <i name="e_fr_energy">   -232.95689811 </i>
    <i name="e_wo_entrp">   -232.78193842 </i>
    <i name="e_0_energy">   -232.86941826 </i>
   </energy>
  </scstep>
  <scstep>
   <time name="diag">    1.92    1.93</time>
   <time name="diis">    5.78    5.79</time>
   <time name="orth">    0.41    0.41</time>
   <time name="total">    8.46    8.49</time>
   <dipole>
    <v name="dipole">      0.00000000       0.00000000       0.60899055 </v>
    <i name="Tr[quadrupol]"> -11125.90116190 </i>
    <i name="Echarged">      0.00000000 </i>
    <i name="Edipol_quadrupol">      0.00000000 </i>
    <i name="Eion">      0.00000000 </i>
   </dipole>
   <energy>
    <i name="e_fr_energy">   -232.95714339 </i>
    <i name="e_wo_entrp">   -232.78220754 </i>
    <i name="e_0_energy">   -232.86967547 </i>
   </energy>
  </scstep>
  <scstep>
   <time name="diag">    1.94    1.95</time>
   <time name="diis">    4.82    4.83</time>
   <time name="orth">    0.42    0.42</time>
   <time name="total">    7.53    7.56</time>
   <dipole>
    <v name="dipole">      0.00000000       0.00000000       0.61020015 </v>
    <i name="Tr[quadrupol]"> -11125.92159052 </i>
    <i name="Echarged">      0.00000000 </i>
    <i name="Edipol_quadrupol">      0.00000000 </i>
    <i name="Eion">      0.00000000 </i>
   </dipole>
   <energy>
    <i name="e_fr_energy">   -232.95729448 </i>
    <i name="e_wo_entrp">   -232.78235228 </i>
    <i name="e_0_energy">   -232.86982338 </i>
   </energy>
  </scstep>
  <scstep>
   <time name="diag">    1.96    1.96</time>
   <time name="diis">    5.62    5.73</time>
   <time name="orth">    0.41    0.41</time>
   <time name="total">    8.34    8.46</time>
   <dipole>
    <v name="dipole">      0.00000000       0.00000000       0.61257100 </v>
    <i name="Tr[quadrupol]"> -11125.95814364 </i>
    <i name="Echarged">      0.00000000 </i>
    <i name="Edipol_quadrupol">      0.00000000 </i>
    <i name="Eion">      0.00000000 </i>
   </dipole>
   <energy>
    <i name="e_fr_energy">   -232.95752676 </i>
    <i name="e_wo_entrp">   -232.78261245 </i>
    <i name="e_0_energy">   -232.87006961 </i>
   </energy>
  </scstep>
  <scstep>
   <time name="diag">    1.89    1.90</time>
   <time name="diis">    5.07    5.10</time>
   <time name="orth">    0.41    0.41</time>
   <time name="total">    7.72    7.77</time>
   <dipole>
    <v name="dipole">      0.00000000       0.00000000       0.61482717 </v>
    <i name="Tr[quadrupol]"> -11125.98779738 </i>
    <i name="Echarged">      0.00000000 </i>
    <i name="Edipol_quadrupol">      0.00000000 </i>
    <i name="Eion">      0.00000000 </i>
   </dipole>
   <energy>
    <i name="e_fr_energy">   -232.95766168 </i>
    <i name="e_wo_entrp">   -232.78275260 </i>
    <i name="e_0_energy">   -232.87020714 </i>
   </energy>
  </scstep>
  <scstep>
   <time name="diag">    1.92    2.03</time>
   <time name="diis">    4.18    4.19</time>
   <time name="orth">    0.40    0.40</time>
   <time name="total">    6.85    6.97</time>
   <dipole>
    <v name="dipole">      0.00000000       0.00000000       0.61596280 </v>
    <i name="Tr[quadrupol]"> -11126.00059001 </i>
    <i name="Echarged">      0.00000000 </i>
    <i name="Edipol_quadrupol">      0.00000000 </i>
    <i name="Eion">      0.00000000 </i>
   </dipole>
   <energy>
    <i name="e_fr_energy">   -232.95770359 </i>
    <i name="e_wo_entrp">   -232.78277596 </i>
    <i name="e_0_energy">   -232.87023978 </i>
   </energy>
  </scstep>
  <scstep>
   <time name="diag">    1.95    1.96</time>
   <time name="diis">    3.71    3.72</time>
   <time name="orth">    0.40    0.40</time>
   <time name="total">    6.42    6.44</time>
   <dipole>
    <v name="dipole">      0.00000000       0.00000000       0.61676612 </v>
    <i name="Tr[quadrupol]"> -11126.00792424 </i>
    <i name="Echarged">      0.00000000 </i>
    <i name="Edipol_quadrupol">      0.00000000 </i>
    <i name="Eion">      0.00000000 </i>
   </dipole>
   <energy>
    <i name="e_fr_energy">   -232.95772588 </i>
    <i name="e_wo_entrp">   -232.78278785 </i>
    <i name="e_0_energy">   -232.87025686 </i>
   </energy>
  </scstep>
  <scstep>
   <time name="diag">    1.97    1.97</time>
   <time name="diis">    3.72    3.73</time>
   <time name="orth">    0.40    0.40</time>
   <time name="total">    6.44    6.46</time>
   <dipole>
    <v name="dipole">      0.00000000       0.00000000       0.61792787 </v>
    <i name="Tr[quadrupol]"> -11126.01722252 </i>
    <i name="Echarged">      0.00000000 </i>
    <i name="Edipol_quadrupol">      0.00000000 </i>
    <i name="Eion">      0.00000000 </i>
   </dipole>
   <energy>
    <i name="e_fr_energy">   -232.95775078 </i>
    <i name="e_wo_entrp">   -232.78281530 </i>
    <i name="e_0_energy">   -232.87028304 </i>
   </energy>
  </scstep>
  <scstep>
   <time name="diag">    1.89    1.90</time>
   <time name="diis">    3.61    3.62</time>
   <time name="orth">    0.40    0.40</time>
   <time name="total">    6.26    6.27</time>
   <dipole>
    <v name="dipole">      0.00000000       0.00000000       0.61871551 </v>
    <i name="Tr[quadrupol]"> -11126.02261509 </i>
    <i name="Echarged">      0.00000000 </i>
    <i name="Edipol_quadrupol">      0.00000000 </i>
    <i name="Eion">      0.00000000 </i>
   </dipole>
   <energy>
    <i name="e_fr_energy">   -232.95776404 </i>
    <i name="e_wo_entrp">   -232.78282366 </i>
    <i name="e_0_energy">   -232.87029385 </i>
   </energy>
  </scstep>
  <scstep>
   <time name="diag">    1.93    1.93</time>
   <time name="diis">    3.59    3.69</time>
   <time name="orth">    0.40    0.40</time>
   <time name="total">    6.28    6.38</time>
   <dipole>
    <v name="dipole">      0.00000000       0.00000000       0.61981607 </v>
    <i name="Tr[quadrupol]"> -11126.02951519 </i>
    <i name="Echarged">      0.00000000 </i>
    <i name="Edipol_quadrupol">      0.00000000 </i>
    <i name="Eion">      0.00000000 </i>
   </dipole>
   <energy>
    <i name="e_fr_energy">   -232.95777844 </i>
    <i name="e_wo_entrp">   -232.78283321 </i>
    <i name="e_0_energy">   -232.87030583 </i>
   </energy>
  </scstep>
  <scstep>
   <time name="diag">    1.95    1.95</time>
   <time name="diis">    3.01    3.02</time>
   <time name="orth">    0.40    0.40</time>
   <time name="total">    5.71    5.73</time>
   <dipole>
    <v name="dipole">      0.00000000       0.00000000       0.62059525 </v>
    <i name="Tr[quadrupol]"> -11126.03349644 </i>
    <i name="Echarged">      0.00000000 </i>
    <i name="Edipol_quadrupol">      0.00000000 </i>
    <i name="Eion">      0.00000000 </i>
   </dipole>
   <energy>
    <i name="e_fr_energy">   -232.95778562 </i>
    <i name="e_wo_entrp">   -232.78284128 </i>
    <i name="e_0_energy">   -232.87031345 </i>
   </energy>
  </scstep>
  <scstep>
   <time name="diag">    1.97    1.98</time>
   <time name="diis">    3.41    3.42</time>
   <time name="orth">    0.40    0.40</time>
   <time name="total">    6.14    6.16</time>
   <dipole>
    <v name="dipole">      0.00000000       0.00000000       0.62134332 </v>
    <i name="Tr[quadrupol]"> -11126.03711953 </i>
    <i name="Echarged">      0.00000000 </i>
    <i name="Edipol_quadrupol">      0.00000000 </i>
    <i name="Eion">      0.00000000 </i>
   </dipole>
   <energy>
    <i name="e_fr_energy">   -232.95779076 </i>
    <i name="e_wo_entrp">   -232.78284480 </i>
    <i name="e_0_energy">   -232.87031778 </i>
   </energy>
  </scstep>
  <scstep>
   <time name="diag">    1.90    1.90</time>
   <time name="diis">    2.72    2.73</time>
   <time name="orth">    0.40    0.40</time>
   <time name="total">    5.37    5.39</time>
   <dipole>
    <v name="dipole">      0.00000000       0.00000000       0.62179383 </v>
    <i name="Tr[quadrupol]"> -11126.03921724 </i>
    <i name="Echarged">      0.00000000 </i>
    <i name="Edipol_quadrupol">      0.00000000 </i>
    <i name="Eion">      0.00000000 </i>
   </dipole>
   <energy>
    <i name="e_fr_energy">   -232.95779318 </i>
    <i name="e_wo_entrp">   -232.78284651 </i>
    <i name="e_0_energy">   -232.87031985 </i>
   </energy>
  </scstep>
  <scstep>
   <time name="diag">    1.93    1.93</time>
   <time name="diis">    2.56    2.57</time>
   <time name="orth">    0.40    0.40</time>
   <time name="total">    5.24    5.26</time>
   <dipole>
    <v name="dipole">      0.00000000       0.00000000       0.62211610 </v>
    <i name="Tr[quadrupol]"> -11126.04055760 </i>
    <i name="Echarged">      0.00000000 </i>
    <i name="Edipol_quadrupol">      0.00000000 </i>
    <i name="Eion">      0.00000000 </i>
   </dipole>
   <energy>
    <i name="e_fr_energy">   -232.95779478 </i>
    <i name="e_wo_entrp">   -232.78284780 </i>
    <i name="e_0_energy">   -232.87032129 </i>
   </energy>
  </scstep>
  <scstep>
   <time name="diag">    1.95    1.95</time>
   <time name="diis">    2.80    2.81</time>
   <time name="orth">    0.40    0.40</time>
   <time name="total">    5.51    5.52</time>
   <dipole>
    <v name="dipole">      0.00000000       0.00000000       0.62244853 </v>
    <i name="Tr[quadrupol]"> -11126.04189138 </i>
    <i name="Echarged">      0.00000000 </i>
    <i name="Edipol_quadrupol">      0.00000000 </i>
    <i name="Eion">      0.00000000 </i>
   </dipole>
   <energy>
    <i name="e_fr_energy">   -232.95779630 </i>
    <i name="e_wo_entrp">   -232.78284985 </i>
    <i name="e_0_energy">   -232.87032308 </i>
   </energy>
  </scstep>
  <scstep>
   <time name="diag">    1.96    1.97</time>
   <time name="diis">    2.56    2.57</time>
   <time name="orth">    0.40    0.40</time>
   <time name="total">    4.99    5.00</time>
   <dipole>
    <v name="dipole">      0.00000000       0.00000000       0.62265511 </v>
    <i name="Tr[quadrupol]"> -11126.04267789 </i>
    <i name="Echarged">      0.00000000 </i>
    <i name="Edipol_quadrupol">      0.00000000 </i>
    <i name="Eion">      0.00000000 </i>
   </dipole>
   <energy>
    <i name="alphaZ">    868.59971656 </i>
    <i name="ewald"> 236048.39770376 </i>
    <i name="hartreedc">-281277.23802754 </i>
    <i name="XCdc">   -128.17778223 </i>
    <i name="pawpsdc">  52065.60574981 </i>
    <i name="pawaedc"> -50158.77056332 </i>
    <i name="eentropy">     -0.17494705 </i>
    <i name="bandstr">  -2769.09108772 </i>
    <i name="atom">  45117.89144060 </i>
    <i name="e_fr_energy">   -232.95779711 </i>
    <i name="e_wo_entrp">   -232.78285007 </i>
    <i name="e_0_energy">   -232.87032359 </i>
   </energy>
  </scstep>
  <structure>
   <crystal>
    <varray name="basis" >
     <v>      11.00258152       0.00000000       0.00000000 </v>
     <v>       5.50129076       9.52851510       0.00000000 </v>
     <v>       0.00000000       0.00000000      26.19178509 </v>
    </varray>
    <i name="volume">   2745.90128299 </i>
    <varray name="rec_basis" >
     <v>       0.09088776      -0.05247407       0.00000000 </v>
     <v>       0.00000000       0.10494815       0.00000000 </v>
     <v>       0.00000000       0.00000000       0.03817991 </v>
    </varray>
   </crystal>
   <varray name="positions" >
    <v>       0.08333333       0.08333333       0.38179910 </v>
    <v>       0.33333333       0.83333333       0.38179910 </v>
    <v>       0.91210142       0.17084009       0.47751262 </v>
    <v>       0.01406150       0.99402972       0.57045229 </v>
    <v>       0.66528831       0.91389197       0.48350253 </v>
    <v>       0.08333333       0.33333333       0.38179910 </v>
    <v>       0.83333333       0.83333333       0.38179910 </v>
    <v>       0.77509411       0.27756003       0.60218796 </v>
    <v>       0.91710715       0.66273405       0.47374029 </v>
    <v>       0.75840214       0.00051096       0.56768772 </v>
    <v>       0.83333333       0.08333333       0.38179910 </v>
    <v>       0.91683804       0.91655049       0.47702543 </v>
    <v>       0.58333333       0.83333333       0.38179910 </v>
    <v>       0.58333333       0.58333333       0.38179910 </v>
    <v>       0.33333333       0.08333333       0.38179910 </v>
    <v>       0.17147551       0.16497959       0.47611727 </v>
    <v>       0.42316439       0.41147156       0.48235504 </v>
    <v>       0.33333333       0.33333333       0.38179910 </v>
    <v>       0.24829487       0.25560410       0.57592833 </v>
    <v>       0.49590943       0.99224314       0.57782130 </v>
    <v>       0.33333333       0.58333333       0.38179910 </v>
    <v>       0.16908947       0.66326972       0.47450010 </v>
    <v>       0.24483235       0.49859869       0.57364082 </v>
    <v>       0.58333333       0.08333333       0.38179910 </v>
    <v>       0.93620974       0.75225462       0.63847995 </v>
    <v>       0.15379136       0.14554128       0.61567862 </v>
    <v>       0.32544141       0.61302238       0.61590121 </v>
    <v>       0.56562962       0.80156133       0.62243542 </v>
    <v>       0.58799327       0.08049582       0.62516029 </v>
    <v>       0.84251523       0.55839302       0.61558383 </v>
    <v>       0.57160873       0.34738452       0.62541793 </v>
    <v>       0.87441108       0.07840868       0.63024622 </v>
    <v>       0.41891298       0.91482721       0.47529034 </v>
    <v>       0.49971714       0.25215695       0.58107126 </v>
    <v>       0.25667037       0.99378030       0.56493839 </v>
    <v>       0.42120036       0.16385859       0.48737132 </v>
    <v>       0.42237911       0.66346140       0.47552320 </v>
    <v>       0.50851566       0.50791313       0.57759858 </v>
    <v>       0.76063720       0.76238022       0.62731244 </v>
    <v>       0.99861039       0.74551700       0.56932292 </v>
    <v>       0.50778237       0.74179394       0.55994556 </v>
    <v>       0.16771987       0.91527819       0.47625183 </v>
    <v>       0.08333333       0.83333333       0.38179910 </v>
    <v>       0.66587147       0.16733622       0.47628373 </v>
    <v>       0.99521266       0.50560809       0.56415570 </v>
    <v>       0.08333333       0.58333333       0.38179910 </v>
    <v>       0.83333333       0.33333333       0.38179910 </v>
    <v>       0.66675256       0.41707171       0.47960210 </v>
    <v>       0.83333333       0.58333333       0.38179910 </v>
    <v>       0.66895422       0.66505717       0.47143092 </v>
    <v>       0.75216137       0.50693327       0.55930120 </v>
    <v>       0.00098449       0.25523931       0.56422934 </v>
    <v>       0.91630840       0.41616707       0.47161755 </v>
    <v>       0.25194776       0.75145705       0.56122973 </v>
    <v>       0.58333333       0.33333333       0.38179910 </v>
    <v>       0.17074345       0.41370676       0.48006177 </v>
   </varray>
  </structure>
  <varray name="forces" >
   <v>      -0.27674311      -0.11036865      -0.25245035 </v>
   <v>      -0.24764997      -0.00237357      -0.00377049 </v>
   <v>      -0.00452887       0.01781346      -0.07484406 </v>
   <v>      -0.01550116      -0.06438394      -0.01957143 </v>
   <v>      -0.02339046      -0.03270260      -0.01431470 </v>
   <v>      -0.05041827       0.46848557      -0.04245311 </v>
   <v>       0.13754862      -0.22004388      -0.29493154 </v>
   <v>      -0.04158964       0.06115553       0.02444260 </v>
   <v>      -0.03089552      -0.02852640       0.04389951 </v>
   <v>      -0.06372349       0.00031186       0.03026048 </v>
   <v>       0.03697784       0.18194043      -0.13662481 </v>
   <v>       0.06152280      -0.02573385      -0.00990913 </v>
   <v>       0.18524549      -0.03566160      -0.14016189 </v>
   <v>       0.12620179      -0.50975528      -0.06060436 </v>
   <v>       0.24485605       0.05823203      -0.01293442 </v>
   <v>      -0.01996734       0.03547481      -0.06555727 </v>
   <v>       0.06511440      -0.02730337       0.01427992 </v>
   <v>       0.04772782       0.09892279       0.20913976 </v>
   <v>      -0.04317721       0.01599362      -0.02466882 </v>
   <v>       0.07827755       0.10649135       0.03317658 </v>
   <v>      -0.09142004      -0.10541266      -0.14989708 </v>
   <v>       0.00009902       0.09755087      -0.04506781 </v>
   <v>       0.12544318      -0.02822671      -0.02232881 </v>
   <v>      -0.00787084       0.21653258       0.09197107 </v>
   <v>      -0.06177862      -0.02540265      -0.06421498 </v>
   <v>       0.00263418       0.08495193      -0.01829103 </v>
   <v>      -0.03631745      -0.09626534      -0.01412476 </v>
   <v>       0.14214618       0.05125743      -0.05436261 </v>
   <v>      -0.05876707      -0.00765044      -0.15477012 </v>
   <v>      -0.06267632      -0.12629401       0.04841161 </v>
   <v>       0.06044528      -0.00746726       0.09108677 </v>
   <v>      -0.08311295       0.00514142      -0.07367835 </v>
   <v>      -0.02737021      -0.02212117       0.04394609 </v>
   <v>      -0.03453711      -0.04634147       0.01906908 </v>
   <v>       0.04434276      -0.02017288      -0.05101923 </v>
   <v>       0.02429157       0.01985320      -0.05857971 </v>
   <v>      -0.03029265       0.01546918       0.00099554 </v>
   <v>      -0.01316780       0.00285429      -0.02532089 </v>
   <v>       0.12918328       0.00674626       0.00999388 </v>
   <v>       0.04818353       0.09456480      -0.03048729 </v>
   <v>       0.02044810       0.04066967      -0.00621377 </v>
   <v>      -0.01709348      -0.03676920       0.04016129 </v>
   <v>      -0.06941942       0.01635779       0.24843823 </v>
   <v>      -0.02829375       0.02135193      -0.02509661 </v>
   <v>      -0.00819452       0.01681877      -0.11232493 </v>
   <v>      -0.00692160      -0.10378740       0.26045378 </v>
   <v>      -0.14340602       0.13242116       0.36438341 </v>
   <v>      -0.01839703       0.03565410      -0.01539005 </v>
   <v>       0.03733596      -0.15334122      -0.01267721 </v>
   <v>      -0.00037966       0.00208036       0.01421202 </v>
   <v>      -0.08308016       0.00728667       0.01787340 </v>
   <v>       0.01382670      -0.10814341       0.07927314 </v>
   <v>      -0.03240382      -0.04256789      -0.03366950 </v>
   <v>      -0.00063510       0.05402823      -0.05147383 </v>
   <v>       0.10421911       0.00943331       0.55070449 </v>
   <v>      -0.00295054       0.01097144      -0.06438767 </v>
  </varray>
  <energy>
   <i name="e_fr_energy">   -232.95779711 </i>
   <i name="e_wo_entrp">   -232.87032359 </i>
   <i name="e_0_energy">     -0.17494705 </i>
  </energy>
  <time name="totalsc">  372.63  374.83</time>
 </calculation>
 <calculation>
  <scstep>
   <time name="dav">   11.64   11.69</time>
   <time name="total">   11.99   12.04</time>
   <dipole>
    <v name="dipole">      0.00000000       0.00000000       0.62275343 </v>
    <i name="Tr[quadrupol]"> -11126.15498484 </i>
    <i name="Echarged">      0.00000000 </i>
    <i name="Edipol_quadrupol">      0.00000000 </i>
    <i name="Eion">      0.00000000 </i>
   </dipole>
   <energy>
    <i name="alphaZ">    868.60808887 </i>
    <i name="ewald"> 236068.46535706 </i>
    <i name="hartreedc">-281297.00346035 </i>
    <i name="XCdc">   -128.15507482 </i>
    <i name="pawpsdc">  52065.60648490 </i>
    <i name="pawaedc"> -50158.77125456 </i>
    <i name="eentropy">     -0.17496920 </i>
    <i name="bandstr">  -2769.42883686 </i>
    <i name="atom">  45117.89144060 </i>
    <i name="e_fr_energy">   -232.96222437 </i>
    <i name="e_wo_entrp">   -232.78725516 </i>
    <i name="e_0_energy">   -232.87473977 </i>
   </energy>
  </scstep>
  <scstep>
   <time name="diag">    1.90    1.90</time>
   <time name="diis">    5.95    5.96</time>
   <time name="orth">    0.40    0.40</time>
   <time name="total">    8.59    8.62</time>
   <dipole>
    <v name="dipole">      0.00000000       0.00000000       0.61825877 </v>
    <i name="Tr[quadrupol]"> -11126.17022953 </i>
    <i name="Echarged">      0.00000000 </i>
    <i name="Edipol_quadrupol">      0.00000000 </i>
    <i name="Eion">      0.00000000 </i>
   </dipole>
   <energy>
    <i name="e_fr_energy">   -232.96801483 </i>
    <i name="e_wo_entrp">   -232.79264881 </i>
    <i name="e_0_energy">   -232.88033182 </i>
   </energy>
  </scstep>
  <scstep>
   <time name="diag">    1.90    1.91</time>
   <time name="diis">    5.95    5.97</time>
   <time name="orth">    0.40    0.40</time>
   <time name="total">    8.60    8.63</time>
   <dipole>
    <v name="dipole">      0.00000000       0.00000000       0.62423385 </v>
    <i name="Tr[quadrupol]"> -11126.15916091 </i>
    <i name="Echarged">      0.00000000 </i>
    <i name="Edipol_quadrupol">      0.00000000 </i>
    <i name="Eion">      0.00000000 </i>
   </dipole>
   <energy>
    <i name="e_fr_energy">   -232.96692929 </i>
    <i name="e_wo_entrp">   -232.79227023 </i>
    <i name="e_0_energy">   -232.87959976 </i>
   </energy>
  </scstep>
  <scstep>
   <time name="diag">    1.95    1.95</time>
   <time name="diis">    5.93    5.96</time>
   <time name="orth">    0.40    0.40</time>
   <time name="total">    8.62    8.67</time>
   <dipole>
    <v name="dipole">      0.00000000       0.00000000       0.61234439 </v>
    <i name="Tr[quadrupol]"> -11126.17223274 </i>
    <i name="Echarged">      0.00000000 </i>
    <i name="Edipol_quadrupol">      0.00000000 </i>
    <i name="Eion">      0.00000000 </i>
   </dipole>
   <energy>
    <i name="e_fr_energy">   -232.96768095 </i>
    <i name="e_wo_entrp">   -232.79172130 </i>
    <i name="e_0_energy">   -232.87970113 </i>
   </energy>
  </scstep>
  <scstep>
   <time name="diag">    1.86    1.94</time>
   <time name="diis">    5.91    5.94</time>
   <time name="orth">    0.40    0.40</time>
   <time name="total">    8.51    8.63</time>
   <dipole>
    <v name="dipole">      0.00000000       0.00000000       0.62496850 </v>
    <i name="Tr[quadrupol]"> -11126.17288697 </i>
    <i name="Echarged">      0.00000000 </i>
    <i name="Edipol_quadrupol">      0.00000000 </i>
    <i name="Eion">      0.00000000 </i>
   </dipole>
   <energy>
    <i name="e_fr_energy">   -232.96694497 </i>
    <i name="e_wo_entrp">   -232.79242667 </i>
    <i name="e_0_energy">   -232.87968582 </i>
   </energy>
  </scstep>
  <scstep>
   <time name="diag">    1.90    1.90</time>
   <time name="diis">    5.98    6.00</time>
   <time name="orth">    0.40    0.40</time>
   <time name="total">    8.63    8.65</time>
   <dipole>
    <v name="dipole">      0.00000000       0.00000000       0.61668615 </v>
    <i name="Tr[quadrupol]"> -11126.16773140 </i>
    <i name="Echarged">      0.00000000 </i>
    <i name="Edipol_quadrupol">      0.00000000 </i>
    <i name="Eion">      0.00000000 </i>
   </dipole>
   <energy>
    <i name="e_fr_energy">   -232.96677191 </i>
    <i name="e_wo_entrp">   -232.79126652 </i>
    <i name="e_0_energy">   -232.87901922 </i>
   </energy>
  </scstep>
  <scstep>
   <time name="diag">    1.90    1.90</time>
   <time name="diis">    5.93    5.96</time>
   <time name="orth">    0.40    0.40</time>
   <time name="total">    8.58    8.62</time>
   <dipole>
    <v name="dipole">      0.00000000       0.00000000       0.62089584 </v>
    <i name="Tr[quadrupol]"> -11126.17298828 </i>
    <i name="Echarged">      0.00000000 </i>
    <i name="Edipol_quadrupol">      0.00000000 </i>
    <i name="Eion">      0.00000000 </i>
   </dipole>
   <energy>
    <i name="e_fr_energy">   -232.96656225 </i>
    <i name="e_wo_entrp">   -232.79171964 </i>
    <i name="e_0_energy">   -232.87914095 </i>
   </energy>
  </scstep>
  <scstep>
   <time name="diag">    1.94    1.96</time>
   <time name="diis">    6.02    6.04</time>
   <time name="orth">    0.41    0.41</time>
   <time name="total">    8.71    8.75</time>
   <dipole>
    <v name="dipole">      0.00000000       0.00000000       0.62018994 </v>
    <i name="Tr[quadrupol]"> -11126.17159604 </i>
    <i name="Echarged">      0.00000000 </i>
    <i name="Edipol_quadrupol">      0.00000000 </i>
    <i name="Eion">      0.00000000 </i>
   </dipole>
   <energy>
    <i name="e_fr_energy">   -232.96651412 </i>
    <i name="e_wo_entrp">   -232.79151721 </i>
    <i name="e_0_energy">   -232.87901567 </i>
   </energy>
  </scstep>
  <scstep>
   <time name="diag">    1.91    1.92</time>
   <time name="diis">    5.88    5.99</time>
   <time name="orth">    0.40    0.40</time>
   <time name="total">    8.54    8.66</time>
   <dipole>
    <v name="dipole">      0.00000000       0.00000000       0.62004898 </v>
    <i name="Tr[quadrupol]"> -11126.17175702 </i>
    <i name="Echarged">      0.00000000 </i>
    <i name="Edipol_quadrupol">      0.00000000 </i>
    <i name="Eion">      0.00000000 </i>
   </dipole>
   <energy>
    <i name="e_fr_energy">   -232.96650751 </i>
    <i name="e_wo_entrp">   -232.79154118 </i>
    <i name="e_0_energy">   -232.87902434 </i>
   </energy>
  </scstep>
  <scstep>
   <time name="diag">    1.89    1.90</time>
   <time name="diis">    4.13    4.15</time>
   <time name="orth">    0.41    0.41</time>
   <time name="total">    6.78    6.81</time>
   <dipole>
    <v name="dipole">      0.00000000       0.00000000       0.62024944 </v>
    <i name="Tr[quadrupol]"> -11126.17231111 </i>
    <i name="Echarged">      0.00000000 </i>
    <i name="Edipol_quadrupol">      0.00000000 </i>
    <i name="Eion">      0.00000000 </i>
   </dipole>
   <energy>
    <i name="e_fr_energy">   -232.96650620 </i>
    <i name="e_wo_entrp">   -232.79151396 </i>
    <i name="e_0_energy">   -232.87901008 </i>
   </energy>
  </scstep>
  <scstep>
   <time name="diag">    1.89    1.90</time>
   <time name="diis">    4.95    4.98</time>
   <time name="orth">    0.40    0.40</time>
   <time name="total">    7.31    7.34</time>
   <dipole>
    <v name="dipole">      0.00000000       0.00000000       0.62001701 </v>
    <i name="Tr[quadrupol]"> -11126.17227796 </i>
    <i name="Echarged">      0.00000000 </i>
    <i name="Edipol_quadrupol">      0.00000000 </i>
    <i name="Eion">      0.00000000 </i>
   </dipole>
   <energy>
    <i name="alphaZ">    868.58164142 </i>
    <i name="ewald"> 236068.46535706 </i>
    <i name="hartreedc">-281297.71871577 </i>
    <i name="XCdc">   -128.14999112 </i>
    <i name="pawpsdc">  52070.09540906 </i>
    <i name="pawaedc"> -50163.29728223 </i>
    <i name="eentropy">     -0.17498762 </i>
    <i name="bandstr">  -2768.65937736 </i>
    <i name="atom">  45117.89144060 </i>
    <i name="e_fr_energy">   -232.96650597 </i>
    <i name="e_wo_entrp">   -232.79151836 </i>
    <i name="e_0_energy">   -232.87901216 </i>
   </energy>
  </scstep>
  <structure>
   <crystal>
    <varray name="basis" >
     <v>      11.00258152       0.00000000       0.00000000 </v>
     <v>       5.50129076       9.52851510       0.00000000 </v>
     <v>       0.00000000       0.00000000      26.19178509 </v>
    </varray>
    <i name="volume">   2745.90128299 </i>
    <varray name="rec_basis" >
     <v>       0.09088776      -0.05247407       0.00000000 </v>
     <v>       0.00000000       0.10494815       0.00000000 </v>
     <v>       0.00000000       0.00000000       0.03817991 </v>
    </varray>
   </crystal>
   <varray name="positions" >
    <v>       0.08333333       0.08333333       0.38179910 </v>
    <v>       0.33333333       0.83333333       0.38179910 </v>
    <v>       0.91205595       0.17090322       0.47741612 </v>
    <v>       0.01412801       0.99380154       0.57042706 </v>
    <v>       0.66527447       0.91377607       0.48348408 </v>
    <v>       0.08333333       0.33333333       0.38179910 </v>
    <v>       0.83333333       0.83333333       0.38179910 </v>
    <v>       0.77485809       0.27777677       0.60221947 </v>
    <v>       0.91706287       0.66263295       0.47379689 </v>
    <v>       0.75820600       0.00051206       0.56772673 </v>
    <v>       0.83333333       0.08333333       0.38179910 </v>
    <v>       0.91707248       0.91645929       0.47701265 </v>
    <v>       0.58333333       0.83333333       0.38179910 </v>
    <v>       0.58333333       0.58333333       0.38179910 </v>
    <v>       0.33333333       0.08333333       0.38179910 </v>
    <v>       0.17135137       0.16510531       0.47603274 </v>
    <v>       0.42341262       0.41137480       0.48237346 </v>
    <v>       0.33333333       0.33333333       0.38179910 </v>
    <v>       0.24813401       0.25566078       0.57589652 </v>
    <v>       0.49596098       0.99262055       0.57786407 </v>
    <v>       0.33333333       0.58333333       0.38179910 </v>
    <v>       0.16891691       0.66361545       0.47444199 </v>
    <v>       0.24526739       0.49849865       0.57361203 </v>
    <v>       0.58333333       0.08333333       0.38179910 </v>
    <v>       0.93606514       0.75216459       0.63839716 </v>
    <v>       0.15364891       0.14584236       0.61565504 </v>
    <v>       0.32550053       0.61268121       0.61588299 </v>
    <v>       0.56597508       0.80174299       0.62236533 </v>
    <v>       0.58782646       0.08046871       0.62496074 </v>
    <v>       0.84254665       0.55794543       0.61564625 </v>
    <v>       0.57180749       0.34735806       0.62553537 </v>
    <v>       0.87414687       0.07842690       0.63015122 </v>
    <v>       0.41886817       0.91474882       0.47534700 </v>
    <v>       0.49969326       0.25199271       0.58109584 </v>
    <v>       0.25684221       0.99370881       0.56487261 </v>
    <v>       0.42123973       0.16392895       0.48729579 </v>
    <v>       0.42225872       0.66351622       0.47552448 </v>
    <v>       0.50847019       0.50792324       0.57756593 </v>
    <v>       0.76102174       0.76240413       0.62732533 </v>
    <v>       0.99859071       0.74585214       0.56928362 </v>
    <v>       0.50777306       0.74193808       0.55993755 </v>
    <v>       0.16773256       0.91514788       0.47630361 </v>
    <v>       0.08333333       0.83333333       0.38179910 </v>
    <v>       0.66574680       0.16741189       0.47625137 </v>
    <v>       0.99515771       0.50566770       0.56401087 </v>
    <v>       0.08333333       0.58333333       0.38179910 </v>
    <v>       0.83333333       0.33333333       0.38179910 </v>
    <v>       0.66663291       0.41719807       0.47958226 </v>
    <v>       0.83333333       0.58333333       0.38179910 </v>
    <v>       0.66894937       0.66506454       0.47144925 </v>
    <v>       0.75189346       0.50695910       0.55932424 </v>
    <v>       0.00121856       0.25485604       0.56433155 </v>
    <v>       0.91628437       0.41601620       0.47157414 </v>
    <v>       0.25185008       0.75164853       0.56116337 </v>
    <v>       0.58333333       0.33333333       0.38179910 </v>
    <v>       0.17071495       0.41374565       0.47997875 </v>
   </varray>
  </structure>
  <varray name="forces" >
   <v>      -0.27656253      -0.11443411      -0.25477739 </v>
   <v>      -0.24678053      -0.00113854      -0.00353951 </v>
   <v>      -0.00909090       0.01270466      -0.05851033 </v>
   <v>      -0.01928946      -0.02697817      -0.00698856 </v>
   <v>      -0.00962970      -0.02077239      -0.01289597 </v>
   <v>      -0.04964551       0.47077079      -0.04903746 </v>
   <v>       0.13758935      -0.22205067      -0.29118084 </v>
   <v>      -0.00297008       0.02437171       0.01605891 </v>
   <v>      -0.02226130      -0.01485467       0.02969276 </v>
   <v>      -0.02517662      -0.01347478      -0.01074770 </v>
   <v>       0.03491775       0.18029171      -0.13804095 </v>
   <v>       0.02078341      -0.00159256      -0.00866930 </v>
   <v>       0.18308156      -0.03569068      -0.13891194 </v>
   <v>       0.12629723      -0.50773821      -0.06081434 </v>
   <v>       0.24580367       0.05498299      -0.01246559 </v>
   <v>      -0.01342925       0.01842517      -0.05145562 </v>
   <v>       0.03044841      -0.00347221       0.01031016 </v>
   <v>       0.04858697       0.10022606       0.20864225 </v>
   <v>      -0.02558258       0.03580575      -0.03370628 </v>
   <v>      -0.00054462       0.05697959       0.00183461 </v>
   <v>      -0.09169888      -0.10693065      -0.15017397 </v>
   <v>      -0.00375675       0.04818772      -0.04022328 </v>
   <v>       0.06587578      -0.02155672      -0.04057249 </v>
   <v>      -0.00839682       0.21538361       0.09144392 </v>
   <v>       0.02868501      -0.02926855      -0.02929027 </v>
   <v>       0.01739810       0.04581225      -0.00044929 </v>
   <v>      -0.03380214      -0.05448071      -0.03603633 </v>
   <v>       0.14025871       0.05892508      -0.05569582 </v>
   <v>      -0.03102494      -0.00277402      -0.07060579 </v>
   <v>      -0.03743952      -0.08592820       0.02145515 </v>
   <v>       0.01952803       0.00377276       0.05733114 </v>
   <v>      -0.08056022       0.00785113      -0.07464719 </v>
   <v>      -0.02219302      -0.00951090       0.02968929 </v>
   <v>      -0.00288501       0.01902962       0.02435207 </v>
   <v>       0.04487490       0.00314144      -0.03175823 </v>
   <v>       0.00789389       0.01225495      -0.05738891 </v>
   <v>      -0.02136385       0.00999026       0.00028296 </v>
   <v>      -0.01244375      -0.00507581      -0.00966075 </v>
   <v>       0.03208668      -0.04660662      -0.02024065 </v>
   <v>       0.04399435       0.04940249      -0.03891348 </v>
   <v>       0.02955540       0.03999206       0.00954825 </v>
   <v>      -0.00116921      -0.00698756       0.02108025 </v>
   <v>      -0.06887127       0.01852843       0.24185097 </v>
   <v>      -0.00764067      -0.00498995      -0.02162108 </v>
   <v>      -0.02101914       0.01312469      -0.07845797 </v>
   <v>      -0.00843777      -0.10298801       0.26108464 </v>
   <v>      -0.14478876       0.13346018       0.35834764 </v>
   <v>      -0.00965369       0.03176134      -0.01685852 </v>
   <v>       0.03707409      -0.15175183      -0.01082640 </v>
   <v>      -0.00723379      -0.00252627       0.01247243 </v>
   <v>      -0.04403332      -0.00443912       0.01379330 </v>
   <v>      -0.03409765      -0.07050859       0.03900450 </v>
   <v>      -0.03148735      -0.02473985      -0.02001726 </v>
   <v>       0.01037610      -0.00125510      -0.00544626 </v>
   <v>       0.10404454       0.01041742       0.54847624 </v>
   <v>       0.01580666       0.01892158      -0.05612570 </v>
  </varray>
  <energy>
   <i name="e_fr_energy">   -232.96650597 </i>
   <i name="e_wo_entrp">   -232.87901216 </i>
   <i name="e_0_energy">     -0.17498762 </i>
  </energy>
  <time name="totalsc">   98.73   99.29</time>
 </calculation>
 <calculation>
  <scstep>
   <time name="dav">   11.75   11.79</time>
   <time name="total">   12.10   12.14</time>
   <dipole>
    <v name="dipole">      0.00000000       0.00000000       0.62008612 </v>
    <i name="Tr[quadrupol]"> -11126.32995244 </i>
    <i name="Echarged">      0.00000000 </i>
    <i name="Edipol_quadrupol">      0.00000000 </i>
    <i name="Eion">      0.00000000 </i>
   </dipole>
   <energy>
    <i name="alphaZ">    868.59214190 </i>
    <i name="ewald"> 236095.29194904 </i>
    <i name="hartreedc">-281324.12039139 </i>
    <i name="XCdc">   -128.11744175 </i>
    <i name="pawpsdc">  52070.06893945 </i>
    <i name="pawaedc"> -50163.27081852 </i>
    <i name="eentropy">     -0.17499688 </i>
    <i name="bandstr">  -2769.12394981 </i>
    <i name="atom">  45117.89144060 </i>
    <i name="e_fr_energy">   -232.96312736 </i>
    <i name="e_wo_entrp">   -232.78813048 </i>
    <i name="e_0_energy">   -232.87562892 </i>
   </energy>
  </scstep>
  <scstep>
   <time name="diag">    1.95    1.95</time>
   <time name="diis">    5.83    5.87</time>
   <time name="orth">    0.39    0.42</time>
   <time name="total">    8.51    8.62</time>
   <dipole>
    <v name="dipole">      0.00000000       0.00000000       0.61360777 </v>
    <i name="Tr[quadrupol]"> -11126.35035507 </i>
    <i name="Echarged">      0.00000000 </i>
[...]
       <r>   -19.2653    14.7504    13.8195 </r>
       <r>   -19.1718    16.4171    15.3547 </r>
       <r>   -19.0782     6.2441    15.9386 </r>
       <r>   -18.9847     0.6418    15.9986 </r>
       <r>   -18.8912     0.0144    16.0000 </r>
       <r>   -18.7977     0.0001    16.0000 </r>
       <r>   -18.7042     0.0000    16.0000 </r>
       <r>   -18.6107     0.0000    16.0000 </r>
       <r>   -18.5171     0.0000    16.0000 </r>
       <r>   -18.4236     0.0000    16.0000 </r>
       <r>   -18.3301     0.0000    16.0000 </r>
       <r>   -18.2366     0.0000    16.0000 </r>
       <r>   -18.1431     0.0000    16.0000 </r>
       <r>   -18.0496     0.0000    16.0000 </r>
       <r>   -17.9561     0.0000    16.0000 </r>
       <r>   -17.8625     0.0000    16.0000 </r>
       <r>   -17.7690     0.0000    16.0000 </r>
       <r>   -17.6755     0.0000    16.0000 </r>
       <r>   -17.5820     0.0000    16.0000 </r>
       <r>   -17.4885     0.0000    16.0000 </r>
       <r>   -17.3950     0.0000    16.0000 </r>
       <r>   -17.3015     0.0000    16.0000 </r>
       <r>   -17.2079     0.0000    16.0000 </r>
       <r>   -17.1144     0.0000    16.0000 </r>
       <r>   -17.0209     0.0000    16.0000 </r>
       <r>   -16.9274     0.0000    16.0000 </r>
       <r>   -16.8339     0.0000    16.0000 </r>
       <r>   -16.7404     0.0000    16.0000 </r>
       <r>   -16.6468     0.0000    16.0000 </r>
       <r>   -16.5533     0.0000    16.0000 </r>
       <r>   -16.4598     0.0000    16.0000 </r>
       <r>   -16.3663     0.0000    16.0000 </r>
       <r>   -16.2728     0.0000    16.0000 </r>
       <r>   -16.1793     0.0000    16.0000 </r>
       <r>   -16.0858     0.0000    16.0000 </r>
       <r>   -15.9922     0.0000    16.0000 </r>
       <r>   -15.8987     0.0000    16.0000 </r>
       <r>   -15.8052     0.0000    16.0000 </r>
       <r>   -15.7117     0.0000    16.0000 </r>
       <r>   -15.6182     0.0000    16.0000 </r>
       <r>   -15.5247     0.0000    16.0000 </r>
       <r>   -15.4311     0.0000    16.0000 </r>
       <r>   -15.3376     0.0000    16.0000 </r>
       <r>   -15.2441     0.0000    16.0000 </r>
       <r>   -15.1506     0.0000    16.0000 </r>
       <r>   -15.0571     0.0000    16.0000 </r>
       <r>   -14.9636     0.0000    16.0000 </r>
       <r>   -14.8701     0.0000    16.0000 </r>
       <r>   -14.7765     0.0000    16.0000 </r>
       <r>   -14.6830     0.0000    16.0000 </r>
       <r>   -14.5895     0.0000    16.0000 </r>
       <r>   -14.4960     0.0000    16.0000 </r>
       <r>   -14.4025     0.0000    16.0000 </r>
       <r>   -14.3090     0.0000    16.0000 </r>
       <r>   -14.2154     0.0000    16.0000 </r>
       <r>   -14.1219     0.0000    16.0000 </r>
       <r>   -14.0284     0.0000    16.0000 </r>
       <r>   -13.9349     0.0000    16.0000 </r>
       <r>   -13.8414     0.0000    16.0000 </r>
       <r>   -13.7479     0.0000    16.0000 </r>
       <r>   -13.6544     0.0000    16.0000 </r>
       <r>   -13.5608     0.0000    16.0000 </r>
       <r>   -13.4673     0.0000    16.0000 </r>
       <r>   -13.3738     0.0000    16.0000 </r>
       <r>   -13.2803     0.0000    16.0000 </r>
       <r>   -13.1868     0.0000    16.0000 </r>
       <r>   -13.0933     0.0000    16.0000 </r>
       <r>   -12.9998     0.0000    16.0000 </r>
       <r>   -12.9062     0.0000    16.0000 </r>
       <r>   -12.8127     0.0000    16.0000 </r>
       <r>   -12.7192     0.0000    16.0000 </r>
       <r>   -12.6257     0.0000    16.0000 </r>
       <r>   -12.5322     0.0000    16.0000 </r>
       <r>   -12.4387     0.0000    16.0000 </r>
       <r>   -12.3451     0.0000    16.0000 </r>
       <r>   -12.2516     0.0000    16.0000 </r>
       <r>   -12.1581     0.0000    16.0000 </r>
       <r>   -12.0646     0.0000    16.0000 </r>
       <r>   -11.9711     0.0000    16.0000 </r>
       <r>   -11.8776     0.0000    16.0000 </r>
       <r>   -11.7841     0.0000    16.0000 </r>
       <r>   -11.6905     0.0000    16.0000 </r>
       <r>   -11.5970     0.0000    16.0000 </r>
       <r>   -11.5035     0.0000    16.0000 </r>
       <r>   -11.4100     0.0000    16.0000 </r>
       <r>   -11.3165     0.0000    16.0000 </r>
       <r>   -11.2230     0.0000    16.0000 </r>
       <r>   -11.1294     0.0000    16.0000 </r>
       <r>   -11.0359     0.0000    16.0000 </r>
       <r>   -10.9424     0.0000    16.0000 </r>
       <r>   -10.8489     0.0000    16.0000 </r>
       <r>   -10.7554     0.0000    16.0000 </r>
       <r>   -10.6619     0.0000    16.0000 </r>
       <r>   -10.5684     0.0000    16.0000 </r>
       <r>   -10.4748     0.0000    16.0000 </r>
       <r>   -10.3813     0.0000    16.0000 </r>
       <r>   -10.2878     0.0000    16.0000 </r>
       <r>   -10.1943     0.0000    16.0000 </r>
       <r>   -10.1008     0.0000    16.0000 </r>
       <r>   -10.0073     0.0000    16.0000 </r>
       <r>    -9.9137     0.0000    16.0000 </r>
       <r>    -9.8202     0.0000    16.0000 </r>
       <r>    -9.7267     0.0000    16.0000 </r>
       <r>    -9.6332     0.0000    16.0000 </r>
       <r>    -9.5397     0.0000    16.0000 </r>
       <r>    -9.4462     0.0046    16.0004 </r>
       <r>    -9.3527     0.2306    16.0220 </r>
       <r>    -9.2591     2.3768    16.2443 </r>
       <r>    -9.1656     5.4765    16.7564 </r>
       <r>    -9.0721     4.8727    17.2121 </r>
       <r>    -8.9786     5.4312    17.7200 </r>
       <r>    -8.8851     2.7190    17.9742 </r>
       <r>    -8.7916     1.0840    18.0756 </r>
       <r>    -8.6980     3.5482    18.4074 </r>
       <r>    -8.6045     5.7332    18.9436 </r>
       <r>    -8.5110     6.0103    19.5056 </r>
       <r>    -8.4175     5.5087    20.0208 </r>
       <r>    -8.3240     8.2042    20.7880 </r>
       <r>    -8.2305    12.9113    21.9954 </r>
       <r>    -8.1370    14.2052    23.3238 </r>
       <r>    -8.0434    17.7918    24.9876 </r>
       <r>    -7.9499    24.7657    27.3036 </r>
       <r>    -7.8564    28.4047    29.9599 </r>
       <r>    -7.7629    28.5014    32.6252 </r>
       <r>    -7.6694    32.6040    35.6741 </r>
       <r>    -7.5759    36.2659    39.0655 </r>
       <r>    -7.4824    45.9069    43.3585 </r>
       <r>    -7.3888    55.1874    48.5194 </r>
       <r>    -7.2953    57.3161    53.8793 </r>
       <r>    -7.2018    61.3988    59.6210 </r>
       <r>    -7.1083    65.7861    65.7730 </r>
       <r>    -7.0148    68.7139    72.1988 </r>
       <r>    -6.9213    68.9784    78.6494 </r>
       <r>    -6.8277    66.2161    84.8416 </r>
       <r>    -6.7342    70.4139    91.4264 </r>
       <r>    -6.6407    77.6476    98.6876 </r>
       <r>    -6.5472    82.6079   106.4127 </r>
       <r>    -6.4537    84.9262   114.3546 </r>
       <r>    -6.3602    82.4373   122.0637 </r>
       <r>    -6.2667    78.0906   129.3664 </r>
       <r>    -6.1731    75.4950   136.4263 </r>
       <r>    -6.0796    78.3548   143.7537 </r>
       <r>    -5.9861    81.5604   151.3808 </r>
       <r>    -5.8926    83.7301   159.2109 </r>
       <r>    -5.7991    85.5895   167.2148 </r>
       <r>    -5.7056    88.4734   175.4884 </r>
       <r>    -5.6120    88.4668   183.7614 </r>
       <r>    -5.5185    86.4393   191.8448 </r>
       <r>    -5.4250    88.8461   200.1533 </r>
       <r>    -5.3315    92.5858   208.8114 </r>
       <r>    -5.2380    91.8541   217.4012 </r>
       <r>    -5.1445    90.3535   225.8506 </r>
       <r>    -5.0510    89.5863   234.2283 </r>
       <r>    -4.9574    91.5348   242.7882 </r>
       <r>    -4.8639    92.9669   251.4820 </r>
       <r>    -4.7704    94.4577   260.3153 </r>
       <r>    -4.6769    94.0739   269.1126 </r>
       <r>    -4.5834    89.9756   277.5267 </r>
       <r>    -4.4899    88.0612   285.7618 </r>
       <r>    -4.3963    88.4190   294.0303 </r>
       <r>    -4.3028    89.6652   302.4153 </r>
       <r>    -4.2093    94.7796   311.2787 </r>
       <r>    -4.1158   100.1379   320.6431 </r>
       <r>    -4.0223    98.1906   329.8254 </r>
       <r>    -3.9288    98.5266   339.0392 </r>
       <r>    -3.8353    97.2557   348.1341 </r>
       <r>    -3.7417    91.2158   356.6641 </r>
       <r>    -3.6482    89.5235   365.0359 </r>
       <r>    -3.5547    88.2489   373.2885 </r>
       <r>    -3.4612    86.4807   381.3758 </r>
       <r>    -3.3677    88.6396   389.6650 </r>
       <r>    -3.2742    92.4422   398.3097 </r>
       <r>    -3.1806    94.9103   407.1853 </r>
       <r>    -3.0871    96.4334   416.2033 </r>
       <r>    -2.9936    96.6083   425.2376 </r>
       <r>    -2.9001    92.4043   433.8788 </r>
       <r>    -2.8066    91.3468   442.4212 </r>
       <r>    -2.7131    93.3667   451.1524 </r>
       <r>    -2.6196    90.4471   459.6106 </r>
       <r>    -2.5260    88.4013   467.8774 </r>
       <r>    -2.4325    89.3695   476.2348 </r>
       <r>    -2.3390    88.8351   484.5423 </r>
       <r>    -2.2455    94.2225   493.3535 </r>
       <r>    -2.1520    97.8522   502.5042 </r>
       <r>    -2.0585    88.9396   510.8214 </r>
       <r>    -1.9650    76.9088   518.0135 </r>
       <r>    -1.8714    73.5688   524.8933 </r>
       <r>    -1.7779    74.2158   531.8337 </r>
       <r>    -1.6844    70.2578   538.4038 </r>
       <r>    -1.5909    58.3637   543.8617 </r>
       <r>    -1.4974    43.6654   547.9451 </r>
       <r>    -1.4039    35.8590   551.2985 </r>
       <r>    -1.3103    33.0692   554.3909 </r>
       <r>    -1.2168    30.5161   557.2447 </r>
       <r>    -1.1233    29.6624   560.0185 </r>
       <r>    -1.0298    31.2996   562.9455 </r>
       <r>    -0.9363    31.9044   565.9291 </r>
       <r>    -0.8428    31.6568   568.8895 </r>
       <r>    -0.7493    29.7828   571.6746 </r>
       <r>    -0.6557    31.8303   574.6512 </r>
       <r>    -0.5622    29.8329   577.4411 </r>
       <r>    -0.4687    22.1234   579.5099 </r>
       <r>    -0.3752    15.7082   580.9789 </r>
       <r>    -0.2817    11.3649   582.0417 </r>
       <r>    -0.1882     9.8873   582.9663 </r>
       <r>    -0.0946    11.3574   584.0284 </r>
       <r>    -0.0011    11.7478   585.1270 </r>
       <r>     0.0924    11.9604   586.2455 </r>
       <r>     0.1859    12.7669   587.4394 </r>
       <r>     0.2794    16.1617   588.9507 </r>
       <r>     0.3729    19.4971   590.7740 </r>
       <r>     0.4664    18.4867   592.5028 </r>
       <r>     0.5600    16.9058   594.0838 </r>
       <r>     0.6535    17.7932   595.7477 </r>
       <r>     0.7470    14.2517   597.0804 </r>
       <r>     0.8405    10.8715   598.0971 </r>
       <r>     0.9340     9.9408   599.0267 </r>
       <r>     1.0275    10.5413   600.0125 </r>
       <r>     1.1211    11.4754   601.0856 </r>
       <r>     1.2146    12.6303   602.2667 </r>
       <r>     1.3081    11.8162   603.3717 </r>
       <r>     1.4016    13.3092   604.6164 </r>
       <r>     1.4951    16.6065   606.1693 </r>
       <r>     1.5886    16.5354   607.7156 </r>
       <r>     1.6821    15.0620   609.1241 </r>
       <r>     1.7757    15.1413   610.5401 </r>
       <r>     1.8692    17.1562   612.1445 </r>
       <r>     1.9627    19.5315   613.9710 </r>
       <r>     2.0562    18.1588   615.6691 </r>
       <r>     2.1497    14.9038   617.0628 </r>
       <r>     2.2432    13.3309   618.3095 </r>
       <r>     2.3368    12.2238   619.4526 </r>
       <r>     2.4303    11.8379   620.5596 </r>
       <r>     2.5238    13.1549   621.7898 </r>
       <r>     2.6173     9.8593   622.7118 </r>
       <r>     2.7108     8.3964   623.4970 </r>
       <r>     2.8043    11.3170   624.5553 </r>
       <r>     2.8978    15.2414   625.9806 </r>
       <r>     2.9914    15.9564   627.4728 </r>
       <r>     3.0849    14.9633   628.8720 </r>
       <r>     3.1784    17.1452   630.4754 </r>
       <r>     3.2719    16.9997   632.0651 </r>
       <r>     3.3654    14.3851   633.4103 </r>
       <r>     3.4589    13.2726   634.6515 </r>
       <r>     3.5524    14.9932   636.0536 </r>
       <r>     3.6460    14.4278   637.4029 </r>
       <r>     3.7395    15.0534   638.8106 </r>
       <r>     3.8330    15.8695   640.2946 </r>
       <r>     3.9265    15.5005   641.7442 </r>
       <r>     4.0200    18.4998   643.4742 </r>
       <r>     4.1135    19.6369   645.3105 </r>
       <r>     4.2071    20.8347   647.2589 </r>
       <r>     4.3006    20.7869   649.2028 </r>
       <r>     4.3941    21.4673   651.2103 </r>
       <r>     4.4876    24.4713   653.4987 </r>
       <r>     4.5811    25.5157   655.8848 </r>
       <r>     4.6746    24.6404   658.1891 </r>
       <r>     4.7681    26.1180   660.6315 </r>
       <r>     4.8617    28.7453   663.3196 </r>
       <r>     4.9552    29.8216   666.1084 </r>
       <r>     5.0487    29.5744   668.8741 </r>
       <r>     5.1422    22.8821   671.0139 </r>
       <r>     5.2357     9.0092   671.8564 </r>
       <r>     5.3292     1.4574   671.9927 </r>
       <r>     5.4228     0.0772   671.9999 </r>
       <r>     5.5163     0.0010   672.0000 </r>
       <r>     5.6098     0.0000   672.0000 </r>
       <r>     5.7033     0.0000   672.0000 </r>
       <r>     5.7968     0.0000   672.0000 </r>
       <r>     5.8903     0.0000   672.0000 </r>
       <r>     5.9838     0.0000   672.0000 </r>
       <r>     6.0774     0.0000   672.0000 </r>
       <r>     6.1709     0.0000   672.0000 </r>
       <r>     6.2644     0.0000   672.0000 </r>
       <r>     6.3579     0.0000   672.0000 </r>
       <r>     6.4514     0.0000   672.0000 </r>
      </set>
     </set>
    </array>
   </total>
  </dos>
 </calculation>
 <structure name="finalpos" >
  <crystal>
   <varray name="basis" >
    <v>      11.00258152       0.00000000       0.00000000 </v>
    <v>       5.50129076       9.52851510       0.00000000 </v>
    <v>       0.00000000       0.00000000      26.19178509 </v>
   </varray>
   <i name="volume">   2745.90128299 </i>
   <varray name="rec_basis" >
    <v>       0.09088776      -0.05247407       0.00000000 </v>
    <v>       0.00000000       0.10494815       0.00000000 </v>
    <v>       0.00000000       0.00000000       0.03817991 </v>
   </varray>
  </crystal>
  <varray name="positions" >
   <v>       0.08333333       0.08333333       0.38179910 </v>
   <v>       0.33333333       0.83333333       0.38179910 </v>
   <v>       0.91067654       0.17245075       0.47689565 </v>
   <v>       0.01391477       0.99331971       0.57051911 </v>
   <v>       0.66435535       0.91468799       0.48253514 </v>
   <v>       0.08333333       0.33333333       0.38179910 </v>
   <v>       0.83333333       0.83333333       0.38179910 </v>
   <v>       0.77239459       0.27674932       0.60205575 </v>
   <v>       0.91581505       0.66402059       0.47319130 </v>
   <v>       0.75562220      -0.00195739       0.56693539 </v>
   <v>       0.83333333       0.08333333       0.38179910 </v>
   <v>       0.91635807       0.91816378       0.47626494 </v>
   <v>       0.58333333       0.83333333       0.38179910 </v>
   <v>       0.58333333       0.58333333       0.38179910 </v>
   <v>       0.33333333       0.08333333       0.38179910 </v>
   <v>       0.16980358       0.16666278       0.47554506 </v>
   <v>       0.42335356       0.41319224       0.48216036 </v>
   <v>       0.33333333       0.33333333       0.38179910 </v>
   <v>       0.24624141       0.25670793       0.57210311 </v>
   <v>       0.49355423       0.99715031       0.57669526 </v>
   <v>       0.33333333       0.58333333       0.38179910 </v>
   <v>       0.16850131       0.66616832       0.47336923 </v>
   <v>       0.24401088       0.49922154       0.57123234 </v>
   <v>       0.58333333       0.08333333       0.38179910 </v>
   <v>       0.95193142       0.74002590       0.63675762 </v>
   <v>       0.15414321       0.14845479       0.61546380 </v>
   <v>       0.32106574       0.61232500       0.61541948 </v>
   <v>       0.57771237       0.80430245       0.61981121 </v>
   <v>       0.58176238       0.08569815       0.62385054 </v>
   <v>       0.84591344       0.55145149       0.61545295 </v>
   <v>       0.56971069       0.34923392       0.62622897 </v>
   <v>       0.86141443       0.07366732       0.62694980 </v>
   <v>       0.41757520       0.91622716       0.47566313 </v>
   <v>       0.49692371       0.25604621       0.58063764 </v>
   <v>       0.25659413       0.99386403       0.56541934 </v>
   <v>       0.42060096       0.16585033       0.48427318 </v>
   <v>       0.42159127       0.66549752       0.47572716 </v>
   <v>       0.50646776       0.51168645       0.57910840 </v>
   <v>       0.77470256       0.75596184       0.62511156 </v>
   <v>       0.00028977       0.74657462       0.56650159 </v>
   <v>       0.50969887       0.74364870       0.56024771 </v>
   <v>       0.16708964       0.91709557       0.47654504 </v>
   <v>       0.08333333       0.83333333       0.38179910 </v>
   <v>       0.66506788       0.16867451       0.47595185 </v>
   <v>       0.99355715       0.50468424       0.56175268 </v>
   <v>       0.08333333       0.58333333       0.38179910 </v>
   <v>       0.83333333       0.33333333       0.38179910 </v>
   <v>       0.66505898       0.41904170       0.47929932 </v>
   <v>       0.83333333       0.58333333       0.38179910 </v>
   <v>       0.66805655       0.66585629       0.47170919 </v>
   <v>       0.75085946       0.50462871       0.55952969 </v>
   <v>      -0.00005089       0.25224792       0.56456361 </v>
   <v>       0.91466603       0.41679788       0.47116060 </v>
   <v>       0.25286813       0.75209758       0.56091504 </v>
   <v>       0.58333333       0.33333333       0.38179910 </v>
   <v>       0.16975807       0.41614192       0.47762962 </v>
  </varray>
  <varray name="selective"  type="logical" >
   <v type="logical" >  F  F  F </v>
   <v type="logical" >  F  F  F </v>
   <v type="logical" >  T  T  T </v>
   <v type="logical" >  T  T  T </v>
   <v type="logical" >  T  T  T </v>
   <v type="logical" >  F  F  F </v>
   <v type="logical" >  F  F  F </v>
   <v type="logical" >  T  T  T </v>
   <v type="logical" >  T  T  T </v>
   <v type="logical" >  T  T  T </v>
   <v type="logical" >  F  F  F </v>
   <v type="logical" >  T  T  T </v>
   <v type="logical" >  F  F  F </v>
   <v type="logical" >  F  F  F </v>
   <v type="logical" >  F  F  F </v>
   <v type="logical" >  T  T  T </v>
   <v type="logical" >  T  T  T </v>
   <v type="logical" >  F  F  F </v>
   <v type="logical" >  T  T  T </v>
   <v type="logical" >  T  T  T </v>
   <v type="logical" >  F  F  F </v>
   <v type="logical" >  T  T  T </v>
   <v type="logical" >  T  T  T </v>
   <v type="logical" >  F  F  F </v>
   <v type="logical" >  T  T  T </v>
   <v type="logical" >  T  T  T </v>
   <v type="logical" >  T  T  T </v>
   <v type="logical" >  T  T  T </v>
   <v type="logical" >  T  T  T </v>
   <v type="logical" >  T  T  T </v>
   <v type="logical" >  T  T  T </v>
   <v type="logical" >  T  T  T </v>
   <v type="logical" >  T  T  T </v>
   <v type="logical" >  T  T  T </v>
   <v type="logical" >  T  T  T </v>
   <v type="logical" >  T  T  T </v>
   <v type="logical" >  T  T  T </v>
   <v type="logical" >  T  T  T </v>
   <v type="logical" >  T  T  T </v>
   <v type="logical" >  T  T  T </v>
   <v type="logical" >  T  T  T </v>
   <v type="logical" >  T  T  T </v>
   <v type="logical" >  F  F  F </v>
   <v type="logical" >  T  T  T </v>
   <v type="logical" >  T  T  T </v>
   <v type="logical" >  F  F  F </v>
   <v type="logical" >  F  F  F </v>
   <v type="logical" >  T  T  T </v>
   <v type="logical" >  F  F  F </v>
   <v type="logical" >  T  T  T </v>
   <v type="logical" >  T  T  T </v>
   <v type="logical" >  T  T  T </v>
   <v type="logical" >  T  T  T </v>
   <v type="logical" >  T  T  T </v>
   <v type="logical" >  F  F  F </v>
   <v type="logical" >  T  T  T </v>
  </varray>
  <nose>
   <v>      -3.00000000       0.00000000       0.00010000       0.00010000 </v>
  </nose>
 </structure>
</modeling>
