unknown system                          
           1
    11.002582    0.000000    0.000000
     5.501291    9.528515    0.000000
     0.000000    0.000000   26.191785
   Au   O    Pd
  24   8  24
Direct configuration=     1
   0.08333333  0.08333333  0.38179910
   0.33333333  0.83333333  0.38179910
   0.91210142  0.17084009  0.47751262
   0.01406150  0.99402972  0.57045229
   0.66528831  0.91389197  0.48350253
   0.08333333  0.33333333  0.38179910
   0.83333333  0.83333333  0.38179910
   0.77509411  0.27756003  0.60218796
   0.91710715  0.66273405  0.47374029
   0.75840214  0.00051096  0.56768772
   0.83333333  0.08333333  0.38179910
   0.91683804  0.91655049  0.47702543
   0.58333333  0.83333333  0.38179910
   0.58333333  0.58333333  0.38179910
   0.33333333  0.08333333  0.38179910
   0.17147551  0.16497959  0.47611727
   0.42316439  0.41147156  0.48235504
   0.33333333  0.33333333  0.38179910
   0.24829487  0.25560410  0.57592833
   0.49590943  0.99224314  0.57782130
   0.33333333  0.58333333  0.38179910
   0.16908947  0.66326972  0.47450010
   0.24483235  0.49859869  0.57364082
   0.58333333  0.08333333  0.38179910
   0.93620974  0.75225462  0.63847995
   0.15379136  0.14554128  0.61567862
   0.32544141  0.61302238  0.61590121
   0.56562962  0.80156133  0.62243542
   0.58799327  0.08049582  0.62516029
   0.84251523  0.55839302  0.61558383
   0.57160873  0.34738452  0.62541793
   0.87441108  0.07840868  0.63024622
   0.41891298  0.91482721  0.47529034
   0.49971714  0.25215695  0.58107126
   0.25667037  0.99378030  0.56493839
   0.42120036  0.16385859  0.48737132
   0.42237911  0.66346140  0.47552320
   0.50851566  0.50791313  0.57759858
   0.76063720  0.76238022  0.62731244
   0.99861039  0.74551700  0.56932292
   0.50778237  0.74179394  0.55994556
   0.16771987  0.91527819  0.47625183
   0.08333333  0.83333333  0.38179910
   0.66587147  0.16733622  0.47628373
   0.99521266  0.50560809  0.56415570
   0.08333333  0.58333333  0.38179910
   0.83333333  0.33333333  0.38179910
   0.66675256  0.41707171  0.47960210
   0.83333333  0.58333333  0.38179910
   0.66895422  0.66505717  0.47143092
   0.75216137  0.50693327  0.55930120
   0.00098449  0.25523931  0.56422934
   0.91630840  0.41616707  0.47161755
   0.25194776  0.75145705  0.56122973
   0.58333333  0.33333333  0.38179910
   0.17074345  0.41370676  0.48006177
Direct configuration=     2
   0.08333333  0.08333333  0.38179910
   0.33333333  0.83333333  0.38179910
   0.91205595  0.17090322  0.47741612
   0.01412801  0.99380154  0.57042706
   0.66527447  0.91377607  0.48348408
   0.08333333  0.33333333  0.38179910
   0.83333333  0.83333333  0.38179910
   0.77485809  0.27777677  0.60221947
   0.91706287  0.66263295  0.47379689
   0.75820600  0.00051206  0.56772673
   0.83333333  0.08333333  0.38179910
   0.91707248  0.91645929  0.47701265
   0.58333333  0.83333333  0.38179910
   0.58333333  0.58333333  0.38179910
   0.33333333  0.08333333  0.38179910
   0.17135137  0.16510531  0.47603274
   0.42341262  0.41137480  0.48237346
   0.33333333  0.33333333  0.38179910
   0.24813401  0.25566078  0.57589652
   0.49596098  0.99262055  0.57786407
   0.33333333  0.58333333  0.38179910
   0.16891691  0.66361545  0.47444199
   0.24526739  0.49849865  0.57361203
   0.58333333  0.08333333  0.38179910
   0.93606514  0.75216459  0.63839716
   0.15364891  0.14584236  0.61565504
   0.32550053  0.61268121  0.61588299
   0.56597508  0.80174299  0.62236533
   0.58782646  0.08046871  0.62496074
   0.84254665  0.55794543  0.61564625
   0.57180749  0.34735806  0.62553537
   0.87414687  0.07842690  0.63015122
   0.41886817  0.91474882  0.47534700
   0.49969326  0.25199271  0.58109584
   0.25684221  0.99370881  0.56487261
   0.42123973  0.16392895  0.48729579
   0.42225872  0.66351622  0.47552448
   0.50847019  0.50792324  0.57756593
   0.76102174  0.76240413  0.62732533
   0.99859071  0.74585214  0.56928362
   0.50777306  0.74193808  0.55993755
   0.16773256  0.91514788  0.47630361
   0.08333333  0.83333333  0.38179910
   0.66574680  0.16741189  0.47625137
   0.99515771  0.50566770  0.56401087
   0.08333333  0.58333333  0.38179910
   0.83333333  0.33333333  0.38179910
   0.66663291  0.41719807  0.47958226
   0.83333333  0.58333333  0.38179910
   0.66894937  0.66506454  0.47144925
   0.75189346  0.50695910  0.55932424
   0.00121856  0.25485604  0.56433155
   0.91628437  0.41601620  0.47157414
   0.25185008  0.75164853  0.56116337
   0.58333333  0.33333333  0.38179910
   0.17071495  0.41374565  0.47997875
Direct configuration=     3
   0.08333333  0.08333333  0.38179910
   0.33333333  0.83333333  0.38179910
   0.91199547  0.17098721  0.47728775
   0.01421649  0.99349800  0.57039349
   0.66525606  0.91362190  0.48345952
   0.08333333  0.33333333  0.38179910
   0.83333333  0.83333333  0.38179910
   0.77454413  0.27806510  0.60226139
   0.91700397  0.66249846  0.47387219
   0.75794509  0.00051353  0.56777863
   0.83333333  0.08333333  0.38179910
   0.91738433  0.91633797  0.47699566
   0.58333333  0.83333333  0.38179910
   0.58333333  0.58333333  0.38179910
   0.33333333  0.08333333  0.38179910
   0.17118622  0.16527256  0.47592030
   0.42374284  0.41124607  0.48239795
   0.33333333  0.33333333  0.38179910
   0.24792002  0.25573619  0.57585421
   0.49602955  0.99312261  0.57792098
   0.33333333  0.58333333  0.38179910
   0.16868736  0.66407536  0.47436470
   0.24584610  0.49836558  0.57357374
   0.58333333  0.08333333  0.38179910
   0.93587279  0.75204483  0.63828702
   0.15345941  0.14624287  0.61562366
   0.32557917  0.61222736  0.61585877
   0.56643462  0.80198465  0.62227209
   0.58760455  0.08043264  0.62469529
   0.84258846  0.55735001  0.61572928
   0.57207188  0.34732285  0.62569160
   0.87379541  0.07845114  0.63002485
   0.41880856  0.91464452  0.47542237
   0.49966149  0.25177423  0.58112855
   0.25707081  0.99361370  0.56478510
   0.42129212  0.16402255  0.48719532
   0.42209857  0.66358915  0.47552619
   0.50840969  0.50793670  0.57752250
   0.76153329  0.76243593  0.62734247
   0.99856452  0.74629797  0.56923133
   0.50776068  0.74212982  0.55992689
   0.16774944  0.91497453  0.47637249
   0.08333333  0.83333333  0.38179910
   0.66558094  0.16751255  0.47620833
   0.99508460  0.50574699  0.56381822
   0.08333333  0.58333333  0.38179910
   0.83333333  0.33333333  0.38179910
   0.66647375  0.41736616  0.47955586
   0.83333333  0.58333333  0.38179910
   0.66894292  0.66507435  0.47147362
   0.75153708  0.50699345  0.55935490
   0.00152994  0.25434619  0.56446751
   0.91625241  0.41581551  0.47151639
   0.25172012  0.75190324  0.56107508
   0.58333333  0.33333333  0.38179910
   0.17067704  0.41379737  0.47986832
Direct configuration=     4
   0.08333333  0.08333333  0.38179910
   0.33333333  0.83333333  0.38179910
   0.91188879  0.17105049  0.47715964
   0.01413171  0.99342147  0.57038403
   0.66529061  0.91351080  0.48342757
   0.08333333  0.33333333  0.38179910
   0.83333333  0.83333333  0.38179910
   0.77459773  0.27812656  0.60229768
   0.91692216  0.66241863  0.47393189
   0.75795066  0.00037588  0.56771359
   0.83333333  0.08333333  0.38179910
   0.91737895  0.91640461  0.47697347
   0.58333333  0.83333333  0.38179910
   0.58333333  0.58333333  0.38179910
   0.33333333  0.08333333  0.38179910
   0.17107884  0.16535431  0.47580614
   0.42384168  0.41128900  0.48242093
   0.33333333  0.33333333  0.38179910
   0.24764576  0.25604991  0.57575637
   0.49568642  0.99338180  0.57788038
   0.33333333  0.58333333  0.38179910
   0.16855398  0.66425895  0.47426494
   0.24617518  0.49822001  0.57344786
   0.58333333  0.08333333  0.38179910
   0.93642872  0.75182155  0.63825036
   0.15351132  0.14645105  0.61564735
   0.32551289  0.61195963  0.61574318
   0.56707598  0.80242875  0.62212356
   0.58749926  0.08043181  0.62461095
   0.84266787  0.55685656  0.61575316
   0.57205399  0.34738375  0.62580932
   0.87326627  0.07851586  0.62982667
   0.41869897  0.91461174  0.47548610
   0.49951785  0.25212891  0.58118423
   0.25731719  0.99369716  0.56471738
   0.42126843  0.16409430  0.48704689
   0.42196137  0.66364002  0.47552588
   0.50837578  0.50786590  0.57751656
   0.76167454  0.76195662  0.62725249
   0.99870172  0.74653320  0.56912724
   0.50781259  0.74242155  0.55996402
   0.16777532  0.91500243  0.47640969
   0.08333333  0.83333333  0.38179910
   0.66562643  0.16740849  0.47615078
   0.99486473  0.50582316  0.56365454
   0.08333333  0.58333333  0.38179910
   0.83333333  0.33333333  0.38179910
   0.66633397  0.41757779  0.47950767
   0.83333333  0.58333333  0.38179910
   0.66889577  0.66504191  0.47150396
   0.75140137  0.50694955  0.55940165
   0.00139601  0.25396925  0.56452080
   0.91613676  0.41567717  0.47147957
   0.25191144  0.75171271  0.56110644
   0.58333333  0.33333333  0.38179910
   0.17073995  0.41396664  0.47972935
Direct configuration=     5
   0.08333333  0.08333333  0.38179910
   0.33333333  0.83333333  0.38179910
   0.91176879  0.17112168  0.47701555
   0.01403634  0.99333538  0.57037339
   0.66532948  0.91338583  0.48339162
   0.08333333  0.33333333  0.38179910
   0.83333333  0.83333333  0.38179910
   0.77465803  0.27819569  0.60233849
   0.91683013  0.66232883  0.47399905
   0.75795693  0.00022104  0.56764042
   0.83333333  0.08333333  0.38179910
   0.91737291  0.91647958  0.47694852
   0.58333333  0.83333333  0.38179910
   0.58333333  0.58333333  0.38179910
   0.33333333  0.08333333  0.38179910
   0.17095806  0.16544625  0.47567773
   0.42395285  0.41133728  0.48244678
   0.33333333  0.33333333  0.38179910
   0.24733727  0.25640280  0.57564631
   0.49530045  0.99367335  0.57783471
   0.33333333  0.58333333  0.38179910
   0.16840396  0.66446545  0.47415273
   0.24654533  0.49805627  0.57330626
   0.58333333  0.08333333  0.38179910
   0.93705406  0.75157039  0.63820912
   0.15356972  0.14668522  0.61567399
   0.32543834  0.61165849  0.61561316
   0.56779741  0.80292829  0.62195649
   0.58738082  0.08043087  0.62451608
   0.84275720  0.55630152  0.61578002
   0.57203385  0.34745225  0.62594174
   0.87267108  0.07858866  0.62960374
   0.41857569  0.91457486  0.47555778
   0.49935629  0.25252787  0.58124686
   0.25759432  0.99379104  0.56464120
   0.42124179  0.16417500  0.48687993
   0.42180703  0.66369724  0.47552553
   0.50833762  0.50778627  0.57750987
   0.76183342  0.76141747  0.62715128
   0.99885605  0.74679779  0.56901017
   0.50787099  0.74274969  0.56000579
   0.16780443  0.91503382  0.47645154
   0.08333333  0.83333333  0.38179910
   0.66567759  0.16729144  0.47608605
   0.99461741  0.50590883  0.56347044
   0.08333333  0.58333333  0.38179910
   0.83333333  0.33333333  0.38179910
   0.66617674  0.41781584  0.47945346
   0.83333333  0.58333333  0.38179910
   0.66884273  0.66500543  0.47153809
   0.75124872  0.50690016  0.55945423
   0.00124536  0.25354525  0.56458074
   0.91600666  0.41552155  0.47143815
   0.25212664  0.75149839  0.56114172
   0.58333333  0.33333333  0.38179910
   0.17081071  0.41415704  0.47957303
Direct configuration=     6
   0.08333333  0.08333333  0.38179910
   0.33333333  0.83333333  0.38179910
   0.91167082  0.17115249  0.47692368
   0.01411879  0.99331036  0.57034466
   0.66532033  0.91335013  0.48336095
   0.08333333  0.33333333  0.38179910
   0.83333333  0.83333333  0.38179910
   0.77460225  0.27831186  0.60238371
   0.91675184  0.66233620  0.47400922
   0.75789872  0.00010741  0.56755028
   0.83333333  0.08333333  0.38179910
   0.91724231  0.91657702  0.47691312
   0.58333333  0.83333333  0.38179910
   0.58333333  0.58333333  0.38179910
   0.33333333  0.08333333  0.38179910
   0.17089752  0.16550431  0.47560888
   0.42395219  0.41142122  0.48244547
   0.33333333  0.33333333  0.38179910
   0.24706309  0.25671785  0.57552712
   0.49492055  0.99407116  0.57773994
   0.33333333  0.58333333  0.38179910
   0.16834670  0.66450566  0.47407441
   0.24645991  0.49798407  0.57312407
   0.58333333  0.08333333  0.38179910
   0.93740872  0.75129969  0.63813777
   0.15376773  0.14672031  0.61568863
   0.32534021  0.61147585  0.61556103
   0.56804706  0.80332396  0.62184994
   0.58731830  0.08049593  0.62447801
   0.84287140  0.55590229  0.61577949
   0.57198609  0.34755375  0.62601642
   0.87214179  0.07856156  0.62945082
   0.41849317  0.91461619  0.47557671
   0.49927880  0.25281558  0.58131490
   0.25751255  0.99401524  0.56461337
   0.42119322  0.16420465  0.48675007
   0.42172601  0.66375401  0.47553553
   0.50842444  0.50773597  0.57751354
   0.76283448  0.76080183  0.62706075
   0.99905364  0.74674824  0.56893871
   0.50793506  0.74284411  0.56003486
   0.16779940  0.91514518  0.47647517
   0.08333333  0.83333333  0.38179910
   0.66575778  0.16717881  0.47603125
   0.99443534  0.50594979  0.56336154
   0.08333333  0.58333333  0.38179910
   0.83333333  0.33333333  0.38179910
   0.66609811  0.41794085  0.47941452
   0.83333333  0.58333333  0.38179910
   0.66876675  0.66497842  0.47156097
   0.75121209  0.50677236  0.55946675
   0.00110498  0.25329393  0.56455261
   0.91590420  0.41549604  0.47142468
   0.25230280  0.75144481  0.56116185
   0.58333333  0.33333333  0.38179910
   0.17087343  0.41429730  0.47945092
Direct configuration=     7
   0.08333333  0.08333333  0.38179910
   0.33333333  0.83333333  0.38179910
   0.91149339  0.17120830  0.47675732
   0.01426810  0.99326505  0.57029262
   0.66530375  0.91328548  0.48330541
   0.08333333  0.33333333  0.38179910
   0.83333333  0.83333333  0.38179910
   0.77450123  0.27852224  0.60246560
   0.91661005  0.66234954  0.47402765
   0.75779331 -0.00009836  0.56738704
   0.83333333  0.08333333  0.38179910
   0.91700580  0.91675348  0.47684900
   0.58333333  0.83333333  0.38179910
   0.58333333  0.58333333  0.38179910
   0.33333333  0.08333333  0.38179910
   0.17078787  0.16560946  0.47548419
   0.42395100  0.41157323  0.48244309
   0.33333333  0.33333333  0.38179910
   0.24656655  0.25728842  0.57531127
   0.49423256  0.99479159  0.57756832
   0.33333333  0.58333333  0.38179910
   0.16824299  0.66457848  0.47393257
   0.24630520  0.49785333  0.57279411
   0.58333333  0.08333333  0.38179910
   0.93805102  0.75080946  0.63800854
   0.15412634  0.14678386  0.61571513
   0.32516251  0.61114508  0.61546661
   0.56849918  0.80404053  0.62165696
   0.58720506  0.08061375  0.62440908
   0.84307821  0.55517928  0.61577852
   0.57189959  0.34773756  0.62615167
   0.87118325  0.07851247  0.62917390
   0.41834373  0.91469103  0.47561101
   0.49913847  0.25333662  0.58143814
   0.25736448  0.99442125  0.56456295
   0.42110526  0.16425834  0.48651489
   0.42157927  0.66385681  0.47555363
   0.50858166  0.50764486  0.57752018
   0.76464740  0.75968691  0.62689681
   0.99941149  0.74665852  0.56880929
   0.50805108  0.74301510  0.56008750
   0.16779031  0.91534687  0.47651797
   0.08333333  0.83333333  0.38179910
   0.66590301  0.16697483  0.47593201
   0.99410560  0.50602397  0.56316432
   0.08333333  0.58333333  0.38179910
   0.83333333  0.33333333  0.38179910
   0.66595572  0.41816726  0.47934400
   0.83333333  0.58333333  0.38179910
   0.66862913  0.66492951  0.47160242
   0.75114576  0.50654092  0.55948943
   0.00085076  0.25283880  0.56450167
   0.91571863  0.41544984  0.47140029
   0.25262183  0.75134777  0.56119829
   0.58333333  0.33333333  0.38179910
   0.17098700  0.41455130  0.47922979
Direct configuration=     8
   0.08333333  0.08333333  0.38179910
   0.33333333  0.83333333  0.38179910
   0.91144306  0.17122413  0.47671014
   0.01431044  0.99325220  0.57027786
   0.66529905  0.91326714  0.48328965
   0.08333333  0.33333333  0.38179910
   0.83333333  0.83333333  0.38179910
   0.77447258  0.27858192  0.60248883
   0.91656983  0.66235333  0.47403288
   0.75776341 -0.00015672  0.56734074
   0.83333333  0.08333333  0.38179910
   0.91693872  0.91680353  0.47683082
   0.58333333  0.83333333  0.38179910
   0.58333333  0.58333333  0.38179910
   0.33333333  0.08333333  0.38179910
   0.17075677  0.16563928  0.47544882
   0.42395066  0.41161635  0.48244242
   0.33333333  0.33333333  0.38179910
   0.24642571  0.25745025  0.57525005
   0.49403742  0.99499594  0.57751964
   0.33333333  0.58333333  0.38179910
   0.16821357  0.66459914  0.47389234
   0.24626131  0.49781625  0.57270052
   0.58333333  0.08333333  0.38179910
   0.93823320  0.75067041  0.63797189
   0.15422805  0.14680188  0.61572265
   0.32511210  0.61105126  0.61543983
   0.56862742  0.80424377  0.62160223
   0.58717295  0.08064716  0.62438952
   0.84313687  0.55497420  0.61577824
   0.57187505  0.34778970  0.62619004
   0.87091136  0.07849855  0.62909535
   0.41830135  0.91471226  0.47562074
   0.49909867  0.25348441  0.58147309
   0.25732248  0.99453641  0.56454865
   0.42108031  0.16427356  0.48644818
   0.42153765  0.66388597  0.47555877
   0.50862626  0.50761902  0.57752206
   0.76516162  0.75937067  0.62685031
   0.99951299  0.74663307  0.56877258
   0.50808399  0.74306359  0.56010243
   0.16778773  0.91540407  0.47653010
   0.08333333  0.83333333  0.38179910
   0.66594420  0.16691697  0.47590386
   0.99401208  0.50604501  0.56310839
   0.08333333  0.58333333  0.38179910
   0.83333333  0.33333333  0.38179910
   0.66591533  0.41823148  0.47932400
   0.83333333  0.58333333  0.38179910
   0.66859010  0.66491564  0.47161418
   0.75112695  0.50647528  0.55949586
   0.00077865  0.25270970  0.56448722
   0.91566600  0.41543674  0.47139337
   0.25271231  0.75132024  0.56120863
   0.58333333  0.33333333  0.38179910
   0.17101922  0.41462335  0.47916706
Direct configuration=     9
   0.08333333  0.08333333  0.38179910
   0.33333333  0.83333333  0.38179910
   0.91134533  0.17124536  0.47663461
   0.01449449  0.99322497  0.57023910
   0.66517325  0.91328352  0.48324069
   0.08333333  0.33333333  0.38179910
   0.83333333  0.83333333  0.38179910
   0.77424796  0.27870930  0.60258143
   0.91644450  0.66246524  0.47397621
   0.75753357 -0.00023223  0.56723589
   0.83333333  0.08333333  0.38179910
   0.91684287  0.91682108  0.47677200
   0.58333333  0.83333333  0.38179910
   0.58333333  0.58333333  0.38179910
   0.33333333  0.08333333  0.38179910
   0.17068139  0.16577734  0.47542019
   0.42399575  0.41163982  0.48240479
   0.33333333  0.33333333  0.38179910
   0.24606329  0.25771825  0.57506244
   0.49375372  0.99567337  0.57741651
   0.33333333  0.58333333  0.38179910
   0.16817581  0.66470722  0.47383279
   0.24589456  0.49797629  0.57242193
   0.58333333  0.08333333  0.38179910
   0.93931779  0.75013402  0.63794269
   0.15450596  0.14681338  0.61569854
   0.32497700  0.61080884  0.61541063
   0.56921258  0.80456650  0.62146282
   0.58704725  0.08080667  0.62429034
   0.84339114  0.55443325  0.61578401
   0.57183742  0.34801464  0.62627109
   0.87024176  0.07827954  0.62889932
   0.41827783  0.91481022  0.47559358
   0.49906401  0.25354024  0.58157155
   0.25691991  0.99484901  0.56454318
   0.42104478  0.16431597  0.48629404
   0.42148852  0.66399193  0.47558369
   0.50867114  0.50772653  0.57755088
   0.76576121  0.75891657  0.62667841
   0.99985772  0.74638347  0.56864260
   0.50819293  0.74299295  0.56014770
   0.16771476  0.91553372  0.47654260
   0.08333333  0.83333333  0.38179910
   0.66588219  0.16694647  0.47583220
   0.99385158  0.50595626  0.56299819
   0.08333333  0.58333333  0.38179910
   0.83333333  0.33333333  0.38179910
   0.66586639  0.41823665  0.47927926
   0.83333333  0.58333333  0.38179910
   0.66845479  0.66494314  0.47163634
   0.75108048  0.50629856  0.55945364
   0.00076979  0.25248082  0.56439552
   0.91559014  0.41551762  0.47138942
   0.25286049  0.75144685  0.56120267
   0.58333333  0.33333333  0.38179910
   0.17098264  0.41472732  0.47900255
Direct configuration=    10
   0.08333333  0.08333333  0.38179910
   0.33333333  0.83333333  0.38179910
   0.91117390  0.17128261  0.47650211
   0.01481735  0.99317722  0.57017110
   0.66495257  0.91331227  0.48315480
   0.08333333  0.33333333  0.38179910
   0.83333333  0.83333333  0.38179910
   0.77385392  0.27893277  0.60274387
   0.91622464  0.66266156  0.47387678
   0.75713039 -0.00036467  0.56705196
   0.83333333  0.08333333  0.38179910
   0.91667473  0.91685188  0.47666883
   0.58333333  0.83333333  0.38179910
   0.58333333  0.58333333  0.38179910
   0.33333333  0.08333333  0.38179910
   0.17054916  0.16601954  0.47536996
   0.42407486  0.41168098  0.48233879
   0.33333333  0.33333333  0.38179910
   0.24542753  0.25818838  0.57473333
   0.49325604  0.99686176  0.57723560
   0.33333333  0.58333333  0.38179910
   0.16810955  0.66489682  0.47372831
   0.24525120  0.49825704  0.57193321
   0.58333333  0.08333333  0.38179910
   0.94122042  0.74919308  0.63789145
   0.15499348  0.14683354  0.61565624
   0.32474000  0.61038359  0.61535941
   0.57023909  0.80513264  0.62121826
   0.58682674  0.08108649  0.62411636
   0.84383719  0.55348428  0.61579412
   0.57177142  0.34840924  0.62641328
   0.86906711  0.07789534  0.62855543
   0.41823657  0.91498207  0.47554594
   0.49900321  0.25363817  0.58174428
   0.25621371  0.99539738  0.56453359
   0.42098246  0.16439036  0.48602365
   0.42140235  0.66417782  0.47562742
   0.50874987  0.50791513  0.57760144
   0.76681305  0.75811998  0.62637687
   0.00046245  0.74594561  0.56841457
   0.50838405  0.74286903  0.56022712
   0.16758675  0.91576116  0.47656453
   0.08333333  0.83333333  0.38179910
   0.66577340  0.16699821  0.47570650
   0.99357003  0.50580056  0.56280489
   0.08333333  0.58333333  0.38179910
   0.83333333  0.33333333  0.38179910
   0.66578054  0.41824573  0.47920077
   0.83333333  0.58333333  0.38179910
   0.66821741  0.66499140  0.47167521
   0.75099895  0.50598856  0.55937958
   0.00075425  0.25207930  0.56423465
   0.91545708  0.41565950  0.47138249
   0.25312042  0.75166896  0.56119223
   0.58333333  0.33333333  0.38179910
   0.17091846  0.41490971  0.47871395
Direct configuration=    11
   0.08333333  0.08333333  0.38179910
   0.33333333  0.83333333  0.38179910
   0.91110762  0.17131076  0.47647996
   0.01459420  0.99321022  0.57018083
   0.66471949  0.91340089  0.48307626
   0.08333333  0.33333333  0.38179910
   0.83333333  0.83333333  0.38179910
   0.77389317  0.27874152  0.60283869
   0.91607362  0.66286649  0.47374699
   0.75715747 -0.00061448  0.56692983
   0.83333333  0.08333333  0.38179910
   0.91666300  0.91677996  0.47660960
   0.58333333  0.83333333  0.38179910
   0.58333333  0.58333333  0.38179910
   0.33333333  0.08333333  0.38179910
   0.17045968  0.16620161  0.47538239
   0.42414120  0.41164687  0.48226474
   0.33333333  0.33333333  0.38179910
   0.24517327  0.25832037  0.57446850
   0.49299666  0.99733888  0.57711239
   0.33333333  0.58333333  0.38179910
   0.16816268  0.66510014  0.47371514
   0.24506070  0.49860641  0.57163362
   0.58333333  0.08333333  0.38179910
   0.94241066  0.74831205  0.63778961
   0.15509559  0.14704409  0.61562641
   0.32449063  0.61019761  0.61524233
   0.57100105  0.80526761  0.62095883
   0.58673321  0.08126953  0.62408945
   0.84410923  0.55293853  0.61578855
   0.57153579  0.34882157  0.62649344
   0.86834786  0.07738970  0.62825189
   0.41818707  0.91512041  0.47551425
   0.49866633  0.25391366  0.58179722
   0.25614591  0.99534733  0.56451152
   0.42091243  0.16456767  0.48584228
   0.42141835  0.66431813  0.47566485
   0.50843899  0.50826013  0.57770410
   0.76784735  0.75795544  0.62618474
   0.00060164  0.74582484  0.56827955
   0.50845348  0.74300817  0.56031540
   0.16747426  0.91586670  0.47652746
   0.08333333  0.83333333  0.38179910
   0.66552500  0.16722095  0.47563863
   0.99338786  0.50560204  0.56270501
   0.08333333  0.58333333  0.38179910
   0.83333333  0.33333333  0.38179910
   0.66577577  0.41810220  0.47914594
   0.83333333  0.58333333  0.38179910
   0.66809845  0.66508303  0.47167324
   0.75104054  0.50575120  0.55930487
   0.00064832  0.25203312  0.56412921
   0.91541887  0.41584663  0.47136126
   0.25330130  0.75171121  0.56123001
   0.58333333  0.33333333  0.38179910
   0.17068376  0.41499696  0.47851327
Direct configuration=    12
   0.08333333  0.08333333  0.38179910
   0.33333333  0.83333333  0.38179910
   0.91101477  0.17135020  0.47644893
   0.01428159  0.99325645  0.57019445
   0.66439297  0.91352505  0.48296625
   0.08333333  0.33333333  0.38179910
   0.83333333  0.83333333  0.38179910
   0.77394815  0.27847360  0.60297153
   0.91586205  0.66315357  0.47356516
   0.75719541 -0.00096443  0.56675875
   0.83333333  0.08333333  0.38179910
   0.91664656  0.91667921  0.47652662
   0.58333333  0.83333333  0.38179910
   0.58333333  0.58333333  0.38179910
   0.33333333  0.08333333  0.38179910
   0.17033434  0.16645667  0.47539980
   0.42423413  0.41159909  0.48216101
   0.33333333  0.33333333  0.38179910
   0.24481708  0.25850528  0.57409750
   0.49263329  0.99800727  0.57693979
   0.33333333  0.58333333  0.38179910
   0.16823711  0.66538496  0.47369670
   0.24479384  0.49909584  0.57121392
   0.58333333  0.08333333  0.38179910
   0.94407804  0.74707783  0.63764694
   0.15523862  0.14733905  0.61558461
   0.32414130  0.60993708  0.61507832
   0.57206846  0.80545668  0.62059539
   0.58660218  0.08152595  0.62405175
   0.84449033  0.55217400  0.61578074
   0.57120570  0.34939918  0.62660575
   0.86734028  0.07668135  0.62782665
   0.41811773  0.91531422  0.47546986
   0.49819439  0.25429959  0.58187140
   0.25605092  0.99527721  0.56448060
   0.42081432  0.16481607  0.48558821
   0.42144076  0.66451469  0.47571728
   0.50800348  0.50874344  0.57784791
   0.76929628  0.75772494  0.62591558
   0.00079664  0.74565566  0.56809040
   0.50855075  0.74320310  0.56043906
   0.16731669  0.91601456  0.47647553
   0.08333333  0.83333333  0.38179910
   0.66517700  0.16753298  0.47554355
   0.99313265  0.50532392  0.56256510
   0.08333333  0.58333333  0.38179910
   0.83333333  0.33333333  0.38179910
   0.66576909  0.41790114  0.47906912
   0.83333333  0.58333333  0.38179910
   0.66793178  0.66521139  0.47167048
   0.75109880  0.50541869  0.55920021
   0.00049991  0.25196843  0.56398151
   0.91536536  0.41610877  0.47133152
   0.25355469  0.75177041  0.56128293
   0.58333333  0.33333333  0.38179910
   0.17035497  0.41511920  0.47823213
Direct configuration=    13
   0.08333333  0.08333333  0.38179910
   0.33333333  0.83333333  0.38179910
   0.91103590  0.17136578  0.47649784
   0.01423688  0.99308647  0.57011238
   0.66424810  0.91375778  0.48287864
   0.08333333  0.33333333  0.38179910
   0.83333333  0.83333333  0.38179910
   0.77394005  0.27839787  0.60295986
   0.91585754  0.66328962  0.47346768
   0.75710743 -0.00122448  0.56664746
   0.83333333  0.08333333  0.38179910
   0.91658201  0.91677671  0.47647076
   0.58333333  0.83333333  0.38179910
   0.58333333  0.58333333  0.38179910
   0.33333333  0.08333333  0.38179910
   0.17027709  0.16641614  0.47541692
   0.42403849  0.41178704  0.48207271
   0.33333333  0.33333333  0.38179910
   0.24494455  0.25851898  0.57382287
   0.49266343  0.99796160  0.57690167
   0.33333333  0.58333333  0.38179910
   0.16841894  0.66542610  0.47371759
   0.24493614  0.49897501  0.57095594
   0.58333333  0.08333333  0.38179910
   0.94522622  0.74600093  0.63760123
   0.15496022  0.14774150  0.61546330
   0.32365202  0.61002279  0.61508430
   0.57319529  0.80544996  0.62033289
   0.58650712  0.08170511  0.62404584
   0.84446904  0.55221596  0.61575006
   0.57091377  0.34962796  0.62660451
   0.86660638  0.07593262  0.62768660
   0.41790194  0.91545929  0.47546696
   0.49777121  0.25484883  0.58191515
   0.25633903  0.99491703  0.56450318
   0.42062446  0.16512915  0.48541893
   0.42156616  0.66456581  0.47576633
   0.50790357  0.50899230  0.57793315
   0.77006139  0.75761718  0.62571991
   0.00059973  0.74583667  0.56787997
   0.50862821  0.74342134  0.56041456
   0.16726342  0.91611232  0.47641266
   0.08333333  0.83333333  0.38179910
   0.66513078  0.16757260  0.47553006
   0.99313795  0.50522164  0.56245275
   0.08333333  0.58333333  0.38179910
   0.83333333  0.33333333  0.38179910
   0.66576618  0.41787244  0.47901799
   0.83333333  0.58333333  0.38179910
   0.66787864  0.66527021  0.47165635
   0.75093580  0.50525355  0.55920784
   0.00041835  0.25192324  0.56400585
   0.91524803  0.41626597  0.47125538
   0.25334508  0.75214588  0.56127392
   0.58333333  0.33333333  0.38179910
   0.17003803  0.41537552  0.47809239
Direct configuration=    14
   0.08333333  0.08333333  0.38179910
   0.33333333  0.83333333  0.38179910
   0.91105496  0.17137984  0.47654195
   0.01419655  0.99293314  0.57003835
   0.66411742  0.91396770  0.48279961
   0.08333333  0.33333333  0.38179910
   0.83333333  0.83333333  0.38179910
   0.77393274  0.27832956  0.60294934
   0.91585347  0.66341234  0.47337975
   0.75702808 -0.00145904  0.56654708
   0.83333333  0.08333333  0.38179910
   0.91652378  0.91686466  0.47642038
   0.58333333  0.83333333  0.38179910
   0.58333333  0.58333333  0.38179910
   0.33333333  0.08333333  0.38179910
   0.17022545  0.16637958  0.47543237
   0.42386203  0.41195658  0.48199306
   0.33333333  0.33333333  0.38179910
   0.24505954  0.25853135  0.57357516
   0.49269062  0.99792040  0.57686729
   0.33333333  0.58333333  0.38179910
   0.16858296  0.66546321  0.47373644
   0.24506450  0.49886602  0.57072323
   0.58333333  0.08333333  0.38179910
   0.94626188  0.74502955  0.63756001
   0.15470910  0.14810451  0.61535386
   0.32321068  0.61010010  0.61508969
   0.57421170  0.80544389  0.62009612
   0.58642138  0.08186670  0.62404052
   0.84444984  0.55225380  0.61572239
   0.57065044  0.34983431  0.62660339
   0.86594440  0.07525726  0.62756027
   0.41770730  0.91559015  0.47546436
   0.49738950  0.25534424  0.58195462
   0.25659890  0.99459215  0.56452355
   0.42045320  0.16541154  0.48526623
   0.42167927  0.66461192  0.47581057
   0.50781346  0.50921677  0.57801003
   0.77075153  0.75751998  0.62554341
   0.00042212  0.74599994  0.56769016
   0.50869809  0.74361819  0.56039247
   0.16721538  0.91620051  0.47635596
   0.08333333  0.83333333  0.38179910
   0.66508909  0.16760833  0.47551789
   0.99314272  0.50512937  0.56235142