 vasp.5.4.1 24Jun15 (build Mar 14 2019 10:18:33) complex                        
  
 executed on INTEL-19.0.2+OPENMPI date 2022.07.15  15:16:24
 running on   36 total cores
 distrk:  each k-point on   36 cores,    1 groups
 distr:  one band on NCORES_PER_BAND=   6 cores,    6 groups


--------------------------------------------------------------------------------------------------------


 INCAR:
 POTCAR:    PAW_PBE Au 04Oct2007                  
 POTCAR:    PAW_PBE Pd 04Jan2005                  
 POTCAR:    PAW_PBE Au 04Oct2007                  
  local pseudopotential read in
  partial core-charges read in
  partial kinetic energy density read in
  atomic valenz-charges read in
  non local Contribution for L=           2  read in
    real space projection operators read in
  non local Contribution for L=           2  read in
    real space projection operators read in
  non local Contribution for L=           0  read in
    real space projection operators read in
  non local Contribution for L=           0  read in
    real space projection operators read in
  non local Contribution for L=           1  read in
    real space projection operators read in
  non local Contribution for L=           1  read in
    real space projection operators read in
    PAW grid and wavefunctions read in
 
   number of l-projection  operators is LMAX  =           6
   number of lm-projection operators is LMMAX =          18
 
 POTCAR:    PAW_PBE Pd 04Jan2005                  
  local pseudopotential read in
  partial core-charges read in
  partial kinetic energy density read in
  atomic valenz-charges read in
  non local Contribution for L=           2  read in
    real space projection operators read in
  non local Contribution for L=           2  read in
    real space projection operators read in
  non local Contribution for L=           0  read in
    real space projection operators read in
  non local Contribution for L=           0  read in
    real space projection operators read in
  non local Contribution for L=           1  read in
    real space projection operators read in
  non local Contribution for L=           1  read in
    real space projection operators read in
    PAW grid and wavefunctions read in
 
   number of l-projection  operators is LMAX  =           6
   number of lm-projection operators is LMMAX =          18
 
 Optimization of the real space projectors (new method)

 maximal supplied QI-value         = 15.12
 optimisation between [QCUT,QGAM] = [ 10.13, 20.41] = [ 28.73,116.64] Ry 
 Optimized for a Real-space Cutoff    1.51 Angstroem

   l    n(q)    QCUT    max X(q) W(low)/X(q) W(high)/X(q)  e(spline) 
   2      8    10.129    60.898    0.46E-03    0.46E-03    0.14E-06
   2      8    10.129    58.894    0.47E-03    0.47E-03    0.14E-06
   0      9    10.129   109.617    0.16E-03    0.11E-03    0.54E-07
   0      9    10.129    75.026    0.15E-03    0.11E-03    0.52E-07
   1      9    10.129    16.344    0.96E-04    0.15E-03    0.14E-06
   1      9    10.129    10.160    0.81E-04    0.12E-03    0.11E-06
 Optimization of the real space projectors (new method)

 maximal supplied QI-value         = 14.36
 optimisation between [QCUT,QGAM] = [ 10.20, 20.39] = [ 29.12,116.47] Ry 
 Optimized for a Real-space Cutoff    1.51 Angstroem

   l    n(q)    QCUT    max X(q) W(low)/X(q) W(high)/X(q)  e(spline) 
   2      8    10.197    59.108    0.26E-03    0.14E-03    0.96E-07
   2      8    10.197    58.101    0.27E-03    0.14E-03    0.98E-07
   0      9    10.197   102.235    0.54E-04    0.60E-05    0.72E-07
   0      9    10.197    58.388    0.52E-04    0.60E-05    0.68E-07
   1      9    10.197    22.191    0.18E-03    0.25E-03    0.79E-07
   1      9    10.197    15.590    0.15E-03    0.21E-03    0.69E-07
  PAW_PBE Au 04Oct2007                  :
 energy of atom  1       EATOM= -926.0867
 kinetic energy error for atom=    0.0062 (will be added to EATOM!!)
  PAW_PBE Pd 04Jan2005                  :
 energy of atom  2       EATOM= -809.7530
 kinetic energy error for atom=    0.0091 (will be added to EATOM!!)
 
 
 POSCAR: Au Pd                                   
  positions in cartesian coordinates
  No initial velocities read in
 exchange correlation table for  LEXCH =        8
   RHO(1)=    0.500       N(1)  =     2000
   RHO(2)=  100.500       N(2)  =     4000

 VTST: version 3.2, (02/03/18)

 CHAIN: initializing optimizer
 
 OPT: Using VASP Conjugate-Gradient optimizer
 CHAIN: Read ICHAIN            0
 
 POSCAR: Au Pd                                   
  positions in cartesian coordinates
  No initial velocities read in
 


--------------------------------------------------------------------------------------------------------


 ion  position               nearest neighbor table
   1  0.083  0.083  0.408-  19 2.75  26 2.75  29 2.75  40 2.75  43 2.75  22 2.75  25 2.75  13 2.75
                            32 2.75
   2  0.833  0.833  0.408-  24 2.75  12 2.75  23 2.75   4 2.75  25 2.75  40 2.75  47 2.75  36 2.75
                            42 2.75
   3  0.750  0.500  0.592-  30 2.75  20 2.75  18 2.75   7 2.75  28 2.75  16 2.75   8 2.75  21 2.75
                            33 2.75
   4  0.833  0.583  0.408-  36 2.75  26 2.75  29 2.75   2 2.75  47 2.75  38 2.75  23 2.75  20 2.75
                            30 2.75
   5  0.750  0.000  0.592-   6 2.75  24 2.75  17 2.75  16 2.75  28 2.75  39 2.75  31 2.75  41 2.75
                            42 2.75
   6  0.667  0.167  0.500-  12 2.75   5 2.75  39 2.75  24 2.75  33 2.75   9 2.75  42 2.75  32 2.75
                            11 2.75  10 2.75  25 2.75  28 2.75
   7  0.500  0.750  0.592-  34 2.75  30 2.75   3 2.75   8 2.75  41 2.75  45 2.75  16 2.75  48 2.75
                            35 2.75
   8  0.500  0.500  0.592-  35 2.75  33 2.75   7 2.75  28 2.75  39 2.75  48 2.75  44 2.75   3 2.75
                             9 2.75
   9  0.417  0.417  0.500-  37 2.75  39 2.75  44 2.75  35 2.75   6 2.75  11 2.75  14 2.75  27 2.75
                            33 2.75  15 2.75  10 2.75   8 2.75
  10  0.583  0.333  0.408-  33 2.75  15 2.75  25 2.75  12 2.75  38 2.75  37 2.75  26 2.75   6 2.75
                             9 2.75
  11  0.417  0.167  0.500-  22 2.75  41 2.75  46 2.75  34 2.75   9 2.75  42 2.75  27 2.75   6 2.75
                            19 2.75  37 2.75  39 2.75  12 2.75
  12  0.583  0.083  0.408-   6 2.75   2 2.75  10 2.75  37 2.75  47 2.75  22 2.75  25 2.75  42 2.75
                            11 2.75
  13  0.167  0.917  0.500-  40 2.75  48 2.75  31 2.75  32 2.75  35 2.75  19 2.75  14 2.75  34 2.75
                            24 2.75   1 2.75  45 2.75  43 2.75
  14  0.167  0.667  0.500-  23 2.75  44 2.75  17 2.75  13 2.75  24 2.75  27 2.75   9 2.75  36 2.75
                            35 2.75  40 2.75  15 2.75  48 2.75
  15  0.333  0.583  0.408-  35 2.75  10 2.75  37 2.75  40 2.75  43 2.75  23 2.75  38 2.75   9 2.75
                            14 2.75
  16  0.750  0.750  0.592-  42 2.75  36 2.75  21 2.75   3 2.75  41 2.75   5 2.75   7 2.75  17 2.75
                            30 2.75
  17  0.000  0.750  0.592-  24 2.75  14 2.75  21 2.75   5 2.75  31 2.75  44 2.75  16 2.75  48 2.75
                            36 2.75
  18  0.000  0.250  0.592-  20 2.75  19 2.75   3 2.75  21 2.75  31 2.75  45 2.75  28 2.75  46 2.75
                            32 2.75
  19  0.167  0.167  0.500-   1 2.75  45 2.75  18 2.75  20 2.75  27 2.75  34 2.75  13 2.75  11 2.75
                            32 2.75  29 2.75  22 2.75  46 2.75
  20  0.917  0.417  0.500-  26 2.75  18 2.75   3 2.75  19 2.75  30 2.75  32 2.75  36 2.75  33 2.75
                            27 2.75   4 2.75  21 2.75  29 2.75
  21  0.000  0.500  0.592-  36 2.75  27 2.75  18 2.75  16 2.75  17 2.75  46 2.75  44 2.75   3 2.75
                            20 2.75
  22  0.333  0.083  0.408-  11 2.75  29 2.75  37 2.75  43 2.75  47 2.75   1 2.75  12 2.75  34 2.75
                            19 2.75
  23  0.083  0.583  0.408-  14 2.75   2 2.75  29 2.75  37 2.75  40 2.75  15 2.75   4 2.75  27 2.75
                            36 2.75
  24  0.917  0.917  0.500-   2 2.75  17 2.75   5 2.75  14 2.75   6 2.75  32 2.75  36 2.75  13 2.75
                            42 2.75  25 2.75  40 2.75  31 2.75
  25  0.833  0.083  0.408-  32 2.75  10 2.75  26 2.75   2 2.75  40 2.75  12 2.75   1 2.75  24 2.75
                             6 2.75
  26  0.833  0.333  0.408-  20 2.75   4 2.75   1 2.75  25 2.75  38 2.75  29 2.75  10 2.75  32 2.75
                            33 2.75
  27  0.167  0.417  0.500-  29 2.75  46 2.75  21 2.75  11 2.75  14 2.75  36 2.75  19 2.75   9 2.75
                            20 2.75  23 2.75  44 2.75  37 2.75
  28  0.750  0.250  0.592-  33 2.75  32 2.75   8 2.75  31 2.75   3 2.75   5 2.75  18 2.75  39 2.75
                             6 2.75
  29  0.083  0.333  0.408-  27 2.75   4 2.75  22 2.75  23 2.75   1 2.75  26 2.75  37 2.75  19 2.75
                            20 2.75
  30  0.667  0.667  0.500-  38 2.75   3 2.75   7 2.75  33 2.75  34 2.75  20 2.75  42 2.75  35 2.75
                            36 2.75  47 2.75   4 2.75  16 2.75
  31  0.000  0.000  0.592-  32 2.75  13 2.75  18 2.75  28 2.75  17 2.75  48 2.75  45 2.75   5 2.75
                            24 2.75
  32  0.917  0.167  0.500-  25 2.75  31 2.75  28 2.75  13 2.75  20 2.75  24 2.75  33 2.75   6 2.75
                            19 2.75  26 2.75   1 2.75  18 2.75
  33  0.667  0.417  0.500-  10 2.75  28 2.75   8 2.75   6 2.75  30 2.75  32 2.75  35 2.75   9 2.75
                            20 2.75  38 2.75  26 2.75   3 2.75
  34  0.417  0.917  0.500-  43 2.75   7 2.75  45 2.75  30 2.75  35 2.75  11 2.75  19 2.75  13 2.75
                            42 2.75  22 2.75  41 2.75  47 2.75
  35  0.417  0.667  0.500-  15 2.75   8 2.75  48 2.75   9 2.75  33 2.75  34 2.75  13 2.75  30 2.75
                            14 2.75  43 2.75   7 2.75  38 2.75
  36  0.917  0.667  0.500-   4 2.75  21 2.75  16 2.75  20 2.75  24 2.75  27 2.75  42 2.75  30 2.75
                            14 2.75   2 2.75  17 2.75  23 2.75
  37  0.333  0.333  0.408-   9 2.75  12 2.75  15 2.75  22 2.75  23 2.75  10 2.75  29 2.75  11 2.75
                            27 2.75
  38  0.583  0.583  0.408-  30 2.75  26 2.75  10 2.75  43 2.75  47 2.75   4 2.75  15 2.75  33 2.75
                            35 2.75
  39  0.500  0.250  0.592-   9 2.75   6 2.75   8 2.75   5 2.75  41 2.75  44 2.75  28 2.75  46 2.75
                            11 2.75
  40  0.083  0.833  0.408-  13 2.75   1 2.75  15 2.75  23 2.75  25 2.75   2 2.75  43 2.75  14 2.75
                            24 2.75
  41  0.500  0.000  0.592-  11 2.75  42 2.75  16 2.75  39 2.75   7 2.75  46 2.75  45 2.75   5 2.75
                            34 2.75
  42  0.667  0.917  0.500-  47 2.75  16 2.75  41 2.75  30 2.75  36 2.75  11 2.75   6 2.75  34 2.75
                            24 2.75  12 2.75   2 2.75   5 2.75
  43  0.333  0.833  0.408-  34 2.75  15 2.75  22 2.75   1 2.75  38 2.75  40 2.75  47 2.75  35 2.75
                            13 2.75
  44  0.250  0.500  0.592-  14 2.75   9 2.75  17 2.75  39 2.75  46 2.75  48 2.75  21 2.75   8 2.75
                            27 2.75
  45  0.250  0.000  0.592-  19 2.75  34 2.75   7 2.75  18 2.75  46 2.75  48 2.75  31 2.75  41 2.75
                            13 2.75
  46  0.250  0.250  0.592-  27 2.75  11 2.75  21 2.75  41 2.75  44 2.75  45 2.75  39 2.75  18 2.75
                            19 2.75
  47  0.583  0.833  0.408-  42 2.75  12 2.75  22 2.75  38 2.75   4 2.75   2 2.75  43 2.75  30 2.75
                            34 2.75
  48  0.250  0.750  0.592-  13 2.75  35 2.75  31 2.75   8 2.75  44 2.75  45 2.75   7 2.75  17 2.75
                            14 2.75
 
  LATTYP: Found a hexagonal cell.
 ALAT       =    11.0025815153
 C/A-ratio  =     2.2260035120
  
  Lattice vectors:
  
 A1 = (   5.5012907576,  -9.5285150994,   0.0000000000)
 A2 = ( -11.0025815153,   0.0000000000,   0.0000000000)
 A3 = (   0.0000000000,   0.0000000000, -24.4917850943)


Analysis of symmetry for initial positions (statically):
=====================================================================
 Subroutine PRICEL returns:
 Original cell was already a primitive cell.
 

 Routine SETGRP: Setting up the symmetry group for a 
 hexagonal supercell.


 Subroutine GETGRP returns: Found  1 space group operations
 (whereof  1 operations were pure point group operations)
 out of a pool of 24 trial point group operations.


The static configuration has the point symmetry C_1 .


Analysis of symmetry for dynamics (positions and initial velocities):
=====================================================================
 Subroutine PRICEL returns:
 Original cell was already a primitive cell.
 

 Routine SETGRP: Setting up the symmetry group for a 
 hexagonal supercell.


 Subroutine GETGRP returns: Found  1 space group operations
 (whereof  1 operations were pure point group operations)
 out of a pool of 24 trial point group operations.


The dynamic configuration has the point symmetry C_1 .
 
 
 KPOINTS: Automatic mesh                          

Automatic generation of k-mesh.
Space group operators:
 irot       det(A)        alpha          n_x          n_y          n_z        tau_x        tau_y        tau_z
    1     1.000000     0.000000     1.000000     0.000000     0.000000     0.000000     0.000000     0.000000
 
 Subroutine IBZKPT returns following result:
 ===========================================
 
 Found      6 irreducible k-points:
 
 Following reciprocal coordinates:
            Coordinates               Weight
  0.250000  0.250000  0.000000     16.000000
  0.000000  0.250000  0.000000     16.000000
 -0.250000  0.000000  0.000000     16.000000
 -0.250000  0.250000  0.000000     16.000000
  0.500000 -0.250000  0.000000     16.000000
 -0.250000  0.500000  0.000000     16.000000
 
 Following cartesian coordinates:
            Coordinates               Weight
  0.022722  0.013119  0.000000     16.000000
  0.000000  0.026237  0.000000     16.000000
 -0.022722  0.013119  0.000000     16.000000
 -0.022722  0.039356  0.000000     16.000000
  0.045444 -0.052474  0.000000     16.000000
 -0.022722  0.065593  0.000000     16.000000
 


--------------------------------------------------------------------------------------------------------




 Dimension of arrays:
   k-points           NKPTS =      6   k-points in BZ     NKDIM =      6   number of bands    NBANDS=    306
   number of dos      NEDOS =    301   number of ions     NIONS =     48
   non local maximal  LDIM  =      6   non local SUM 2l+1 LMDIM =     18
   total plane-waves  NPLWV = 349920
   max r-space proj   IRMAX =   2009   max aug-charges    IRDMAX=   8532
   dimension x,y,z NGX =    54 NGY =   54 NGZ =  120
   dimension x,y,z NGXF=   108 NGYF=  108 NGZF=  240
   support grid    NGXF=   108 NGYF=  108 NGZF=  240
   ions per type =              24  24
 NGX,Y,Z   is equivalent  to a cutoff of   8.16,  8.16,  8.15 a.u.
 NGXF,Y,Z  is equivalent  to a cutoff of  16.32, 16.32, 16.29 a.u.


 I would recommend the setting:
   dimension x,y,z NGX =    54 NGY =   54 NGZ =  120
 SYSTEM =  unknown system                          
 POSCAR =  Au Pd                                   

 Startparameter for this run:
   NWRITE =      1    write-flag & timer
   PREC   = normal    normal or accurate (medium, high low for compatibility)
   ISTART =      0    job   : 0-new  1-cont  2-samecut
   ICHARG =      2    charge: 1-file 2-atom 10-const
   ISPIN  =      1    spin polarized calculation?
   LNONCOLLINEAR =      F non collinear calculations
   LSORBIT =      F    spin-orbit coupling
   INIWAV =      1    electr: 0-lowe 1-rand  2-diag
   LASPH  =      F    aspherical Exc in radial PAW
   METAGGA=      F    non-selfconsistent MetaGGA calc.

 Electronic Relaxation 1
   ENCUT  =  400.0 eV  29.40 Ry    5.42 a.u.  17.94 17.94 39.94*2*pi/ulx,y,z
   ENINI  =  400.0     initial cutoff
   ENAUG  =  416.2 eV  augmentation charge cutoff
   NELM   =    500;   NELMIN=  2; NELMDL= -5     # of ELM steps 
   EDIFF  = 0.1E-05   stopping-criterion for ELM
   LREAL  =      T    real-space projection
   NLSPLINE    = F    spline interpolate recip. space projectors
   LCOMPAT=      F    compatible to vasp.4.4
   GGA_COMPAT  = T    GGA compatible to vasp.4.4-vasp.4.6
   LMAXPAW     = -100 max onsite density
   LMAXMIX     =    2 max onsite mixed and CHGCAR
   VOSKOWN=      1    Vosko Wilk Nusair interpolation
   ROPT   =   -0.00050  -0.00050
 Ionic relaxation
   EDIFFG = -.2E-01   stopping-criterion for IOM
   NSW    =    500    number of steps for IOM
   NBLOCK =      1;   KBLOCK =    500    inner block; outer block 
   IBRION =      2    ionic relax: 0-MD 1-quasi-New 2-CG
   NFREE  =      2    steps in history (QN), initial steepest desc. (CG)
   ISIF   =      0    stress and relaxation
   IWAVPR =     11    prediction:  0-non 1-charg 2-wave 3-comb
   ISYM   =      2    0-nonsym 1-usesym 2-fastsym
   LCORR  =      T    Harris-Foulkes like correction to forces

   POTIM  = 0.3500    time-step for ionic-motion
   TEIN   =    0.0    initial temperature
   TEBEG  =    0.0;   TEEND  =   0.0 temperature during run
   SMASS  =  -3.00    Nose mass-parameter (am)
   estimated Nose-frequenzy (Omega)   =  0.10E-29 period in steps =****** mass=  -0.277E-26a.u.
   SCALEE = 1.0000    scale energy and forces
   NPACO  =    256;   APACO  = 16.0  distance and # of slots for P.C.
   PSTRESS=    0.0 pullay stress

  Mass of Ions in am
   POMASS = 196.97106.42
  Ionic Valenz
   ZVAL   =  11.00 10.00
  Atomic Wigner-Seitz radii
   RWIGS  =  -1.00 -1.00
  virtual crystal weights 
   VCA    =   1.00  1.00
   NELECT =     504.0000    total number of electrons
   NUPDOWN=      -1.0000    fix difference up-down

 DOS related values:
   EMIN   =  10.00;   EMAX   =-10.00  energy-range for DOS
   EFERMI =   0.00
   ISMEAR =     0;   SIGMA  =   0.10  broadening in eV -4-tet -1-fermi 0-gaus

 Electronic relaxation 2 (details)
   IALGO  =     68    algorithm
   LDIAG  =      T    sub-space diagonalisation (order eigenvalues)
   LSUBROT=      F    optimize rotation matrix (better conditioning)
   TURBO    =      0    0=normal 1=particle mesh
   IRESTART =      0    0=no restart 2=restart with 2 vectors
   NREBOOT  =      0    no. of reboots
   NMIN     =      0    reboot dimension
   EREF     =   0.00    reference energy to select bands
   IMIX   =      4    mixing-type and parameters
     AMIX     =   0.40;   BMIX     =  1.00
     AMIX_MAG =   1.60;   BMIX_MAG =  1.00
     AMIN     =   0.10
     WC   =   100.;   INIMIX=   1;  MIXPRE=   1;  MAXMIX= -45

 Intra band minimization:
   WEIMIN = 0.0010     energy-eigenvalue tresh-hold
   EBREAK =  0.82E-09  absolut break condition
   DEPER  =   0.30     relativ break condition  

   TIME   =   0.40     timestep for ELM

  volume/ion in A,a.u.               =      53.49       360.99
  Fermi-wavevector in a.u.,A,eV,Ry     =   0.951418  1.797920 12.315955  0.905197
  Thomas-Fermi vector in A             =   2.079887
 
 Write flags
   LWAVE  =      F    write WAVECAR
   LCHARG =      F    write CHGCAR
   LVTOT  =      F    write LOCPOT, total local potential
   LVHAR  =      F    write LOCPOT, Hartree potential only
   LELF   =      F    write electronic localiz. function (ELF)
   LORBIT =      0    0 simple, 1 ext, 2 COOP (PROOUT)


 Dipole corrections
   LMONO  =      F    monopole corrections only (constant potential shift)
   LDIPOL =      T    correct potential (dipole corrections)
   IDIPOL =      3    1-x, 2-y, 3-z, 4-all directions 
   EPSILON=  1.0000000 bulk dielectric constant

 Exchange correlation treatment:
   GGA     =    PE    GGA type
   LEXCH   =     8    internal setting for exchange type
   VOSKOWN=      1    Vosko Wilk Nusair interpolation
   LHFCALC =     F    Hartree Fock is set to
   LHFONE  =     F    Hartree Fock one center treatment
   AEXX    =    0.0000 exact exchange contribution

 Linear response parameters
   LEPSILON=     F    determine dielectric tensor
   LRPA    =     F    only Hartree local field effects (RPA)
   LNABLA  =     F    use nabla operator in PAW spheres
   LVEL    =     F    velocity operator in full k-point grid
   LINTERFAST=   F  fast interpolation
   KINTER  =     0    interpolate to denser k-point grid
   CSHIFT  =0.1000    complex shift for real part using Kramers Kronig
   OMEGAMAX=  -1.0    maximum frequency
   DEG_THRESHOLD= 0.2000000E-02 threshold for treating states as degnerate
   RTIME   =    0.100 relaxation time in fs

 Orbital magnetization related:
   ORBITALMAG=     F  switch on orbital magnetization
   LCHIMAG   =     F  perturbation theory with respect to B field
   DQ        =  0.001000  dq finite difference perturbation B field



--------------------------------------------------------------------------------------------------------


 conjugate gradient relaxation of ions
 charge density and potential will be updated during run
 non-spin polarized calculation
 RMM-DIIS sequential band-by-band and
  variant of blocked Davidson during initial phase
 perform sub-space diagonalisation
    before iterative eigenvector-optimisation
 modified Broyden-mixing scheme, WC =      100.0
 initial mixing is a Kerker type mixing with AMIX =  0.4000 and BMIX =      1.0000
 Hartree-type preconditioning will be used
 using additional bands           54
 real space projection scheme for non local part
 use partial core corrections
 calculate Harris-corrections to forces 
   (improved forces if not selfconsistent)
 use gradient corrections 
 use of overlap-Matrix (Vanderbilt PP)
 Gauss-broadening in eV      SIGMA  =   0.10


--------------------------------------------------------------------------------------------------------


  energy-cutoff  :      400.00
  volume of cell :     2567.68
      direct lattice vectors                 reciprocal lattice vectors
    11.002581515  0.000000000  0.000000000     0.090887761 -0.052474073  0.000000000
     5.501290758  9.528515099  0.000000000     0.000000000  0.104948147  0.000000000
     0.000000000  0.000000000 24.491785094     0.000000000  0.000000000  0.040830017

  length of vectors
    11.002581515 11.002581515 24.491785094     0.104948147  0.104948147  0.040830017


 
 k-points in units of 2pi/SCALE and weight: Automatic mesh                          
   0.02272194  0.01311852  0.00000000       0.167
   0.00000000  0.02623704  0.00000000       0.167
  -0.02272194  0.01311852  0.00000000       0.167
  -0.02272194  0.03935555  0.00000000       0.167
   0.04544388 -0.05247407  0.00000000       0.167
  -0.02272194  0.06559259  0.00000000       0.167
 
 k-points in reciprocal lattice and weights: Automatic mesh                          
   0.25000000  0.25000000  0.00000000       0.167
   0.00000000  0.25000000  0.00000000       0.167
  -0.25000000  0.00000000  0.00000000       0.167
  -0.25000000  0.25000000  0.00000000       0.167
   0.50000000 -0.25000000  0.00000000       0.167
  -0.25000000  0.50000000  0.00000000       0.167
 
 position of ions in fractional coordinates (direct lattice) 
   0.08333333  0.08333333  0.40830017
   0.83333333  0.83333333  0.40830017
   0.75000000  0.50000000  0.59169983
   0.83333333  0.58333333  0.40830017
   0.75000000  0.00000000  0.59169983
   0.66666667  0.16666667  0.50000000
   0.50000000  0.75000000  0.59169983
   0.50000000  0.50000000  0.59169983
   0.41666667  0.41666667  0.50000000
   0.58333333  0.33333333  0.40830017
   0.41666667  0.16666667  0.50000000
   0.58333333  0.08333333  0.40830017
   0.16666667  0.91666667  0.50000000
   0.16666667  0.66666667  0.50000000
   0.33333333  0.58333333  0.40830017
   0.75000000  0.75000000  0.59169983
   0.00000000  0.75000000  0.59169983
   0.00000000  0.25000000  0.59169983
   0.16666667  0.16666667  0.50000000
   0.91666667  0.41666667  0.50000000
   0.00000000  0.50000000  0.59169983
   0.33333333  0.08333333  0.40830017
   0.08333333  0.58333333  0.40830017
   0.91666667  0.91666667  0.50000000
   0.83333333  0.08333333  0.40830017
   0.83333333  0.33333333  0.40830017
   0.16666667  0.41666667  0.50000000
   0.75000000  0.25000000  0.59169983
   0.08333333  0.33333333  0.40830017
   0.66666667  0.66666667  0.50000000
   0.00000000  0.00000000  0.59169983
   0.91666667  0.16666667  0.50000000
   0.66666667  0.41666667  0.50000000
   0.41666667  0.91666667  0.50000000
   0.41666667  0.66666667  0.50000000
   0.91666667  0.66666667  0.50000000
   0.33333333  0.33333333  0.40830017
   0.58333333  0.58333333  0.40830017
   0.50000000  0.25000000  0.59169983
   0.08333333  0.83333333  0.40830017
   0.50000000  0.00000000  0.59169983
   0.66666667  0.91666667  0.50000000
   0.33333333  0.83333333  0.40830017
   0.25000000  0.50000000  0.59169983
   0.25000000  0.00000000  0.59169983
   0.25000000  0.25000000  0.59169983
   0.58333333  0.83333333  0.40830017
   0.25000000  0.75000000  0.59169983
 
 position of ions in cartesian coordinates  (Angst):
   1.37532269  0.79404292 10.00000000
  13.75322689  7.94042925 10.00000000
  11.00258152  4.76425755 14.49178509
  12.37790420  5.55830047 10.00000000
   8.25193614  0.00000000 14.49178509
   8.25193614  1.58808585 12.24589255
   9.62725883  7.14638632 14.49178509
   8.25193614  4.76425755 14.49178509
   6.87661345  3.97021462 12.24589255
   8.25193614  3.17617170 10.00000000
   5.50129076  1.58808585 12.24589255
   6.87661345  0.79404292 10.00000000
   6.87661345  8.73447217 12.24589255
   5.50129076  6.35234340 12.24589255
   6.87661345  5.55830047 10.00000000
  12.37790420  7.14638632 14.49178509
   4.12596807  7.14638632 14.49178509
   1.37532269  2.38212877 14.49178509
   2.75064538  1.58808585 12.24589255
  12.37790420  3.97021462 12.24589255
   2.75064538  4.76425755 14.49178509
   4.12596807  0.79404292 10.00000000
   4.12596807  5.55830047 10.00000000
  15.12854958  8.73447217 12.24589255
   9.62725883  0.79404292 10.00000000
  11.00258152  3.17617170 10.00000000
   4.12596807  3.97021462 12.24589255
   9.62725883  2.38212877 14.49178509
   2.75064538  3.17617170 10.00000000
  11.00258152  6.35234340 12.24589255
   0.00000000  0.00000000 14.49178509
  11.00258152  1.58808585 12.24589255
   9.62725883  3.97021462 12.24589255
   9.62725883  8.73447217 12.24589255
   8.25193614  6.35234340 12.24589255
  13.75322689  6.35234340 12.24589255
   5.50129076  3.17617170 10.00000000
   9.62725883  5.55830047 10.00000000
   6.87661345  2.38212877 14.49178509
   5.50129076  7.94042925 10.00000000
   5.50129076  0.00000000 14.49178509
  12.37790420  8.73447217 12.24589255
   8.25193614  7.94042925 10.00000000
   5.50129076  4.76425755 14.49178509
   2.75064538  0.00000000 14.49178509
   4.12596807  2.38212877 14.49178509
  11.00258152  7.94042925 10.00000000
   6.87661345  7.14638632 14.49178509
 


--------------------------------------------------------------------------------------------------------


 k-point  1 :   0.2500 0.2500 0.0000  plane waves:   46635
 k-point  2 :   0.0000 0.2500 0.0000  plane waves:   46635
 k-point  3 :  -0.2500 0.0000 0.0000  plane waves:   46635
 k-point  4 :  -0.2500 0.2500 0.0000  plane waves:   46644
 k-point  5 :   0.5000-0.2500 0.0000  plane waves:   46644
 k-point  6 :  -0.2500 0.5000 0.0000  plane waves:   46644

 maximum and minimum number of plane-waves per node :      7818     7732

 maximum number of plane-waves:     46644
 maximum index in each direction: 
   IXMAX=   18   IYMAX=   18   IZMAX=   39
   IXMIN=  -18   IYMIN=  -18   IZMIN=  -39

 WARNING: aliasing errors must be expected set NGX to  74 to avoid them
 WARNING: aliasing errors must be expected set NGY to  74 to avoid them
 WARNING: aliasing errors must be expected set NGZ to 158 to avoid them
 aliasing errors are usually negligible using standard VASP settings
 and one can safely disregard these warnings

 real space projection operators:
  total allocation   :      12803.06 KBytes
  max/ min on nodes  :       2145.66       2127.94


 parallel 3D FFT for wavefunctions:
    minimum data exchange during FFTs selected (reduces bandwidth)
 parallel 3D FFT for charge:
    minimum data exchange during FFTs selected (reduces bandwidth)


 total amount of memory used by VASP on root node    84353. kBytes
========================================================================

   base      :      30000. kBytes
   nonlr-proj:       4285. kBytes
   fftplans  :       4447. kBytes
   grid      :       6721. kBytes
   one-center:        124. kBytes
   wavefun   :      38776. kBytes
 
     INWAV:  cpu time    0.0000: real time    0.0000
 Broyden mixing: mesh for mixing (old mesh)
   NGX = 35   NGY = 35   NGZ = 79
  (NGX  =108   NGY  =108   NGZ  =240)
  gives a total of  96775 points

 initial charge density was supplied:
 charge density of overlapping atoms calculated
 number of electron     504.0000000 magnetization 
 keeping initial charge density in first step


--------------------------------------------------------------------------------------------------------


 Maximum index for non-local projection operator          355
 Maximum index for augmentation-charges          437 (set IRDMAX)


--------------------------------------------------------------------------------------------------------


 First call to EWALD:  gamma=   0.129
 Maximum number of real-space cells 4x 4x 2
 Maximum number of reciprocal cells 2x 2x 5

 FEWALD executed in parallel
    FEWALD:  cpu time    0.0022: real time    0.0026


----------------------------------------- Iteration    1(   1)  ---------------------------------------


    POTLOK:  cpu time    0.0485: real time    0.0486
    SETDIJ:  cpu time    0.0059: real time    0.0059
     EDDAV:  cpu time    8.5213: real time    8.5635
       DOS:  cpu time    0.0013: real time    0.0014
    --------------------------------------------
      LOOP:  cpu time    8.5797: real time    8.6252

 eigenvalue-minimisations  :  3672
 total energy-change (2. order) : 0.3202020E+04  (-0.1898164E+05)
 number of electron     504.0000000 magnetization 
 augmentation part      504.0000000 magnetization 

 DIPCOR: dipole corrections for dipol
 direction  3 min pos     1,
 dipolmoment           0.000000      0.000000      0.000000 electrons x Angstroem
 Tr[quadrupol]    -10279.003461

 energy correction for charged system         0.000000 eV
 dipol+quadrupol energy correction           -0.000000 eV
 added-field ion interaction          0.000000 eV  (added to PSCEN)


 Free energy of the ion-electron system (eV)
  ---------------------------------------------------
  alpha Z        PSCENC =       805.86936429
  Ewald energy   TEWEN  =    200157.47075089
  -Hartree energ DENC   =   -242571.48358422
  -exchange      EXHF   =         0.00000000
  -V(xc)+E(xc)   XCENC  =      -327.62726736
  PAW double counting   =     40340.05962942   -38292.62782345
  entropy T*S    EENTRO =        -0.12155477
  eigenvalues    EBANDS =      1430.69482482
  atomic energy  EATOM  =     41659.78587232
  Solvation  Ediel_sol  =         0.00000000
  ---------------------------------------------------
  free energy    TOTEN  =      3202.02021194 eV

  energy without entropy =     3202.14176671  energy(sigma->0) =     3202.08098933


--------------------------------------------------------------------------------------------------------




----------------------------------------- Iteration    1(   2)  ---------------------------------------


     EDDAV:  cpu time   10.2826: real time   10.3926
       DOS:  cpu time    0.0015: real time    0.0015
    --------------------------------------------
      LOOP:  cpu time   10.2848: real time   10.3982

 eigenvalue-minimisations  :  4404
 total energy-change (2. order) :-0.3188366E+04  (-0.2930975E+04)
 number of electron     504.0000000 magnetization 
 augmentation part      504.0000000 magnetization 

 DIPCOR: dipole corrections for dipol
 direction  3 min pos     1,
 dipolmoment           0.000000      0.000000      0.000000 electrons x Angstroem
 Tr[quadrupol]    -10279.003461

 energy correction for charged system         0.000000 eV
 dipol+quadrupol energy correction           -0.000000 eV
 added-field ion interaction          0.000000 eV  (added to PSCEN)


 Free energy of the ion-electron system (eV)
  ---------------------------------------------------
  alpha Z        PSCENC =       805.86936429
  Ewald energy   TEWEN  =    200157.47075089
  -Hartree energ DENC   =   -242571.48358422
  -exchange      EXHF   =         0.00000000
  -V(xc)+E(xc)   XCENC  =      -327.62726736
  PAW double counting   =     40340.05962942   -38292.62782345
  entropy T*S    EENTRO =        -0.13858256
  eigenvalues    EBANDS =     -1757.65383076
  atomic energy  EATOM  =     41659.78587232
  Solvation  Ediel_sol  =         0.00000000
  ---------------------------------------------------
  free energy    TOTEN  =        13.65452858 eV

  energy without entropy =       13.79311113  energy(sigma->0) =       13.72381985


--------------------------------------------------------------------------------------------------------




----------------------------------------- Iteration    1(   3)  ---------------------------------------


     EDDAV:  cpu time    9.8215: real time    9.8547
       DOS:  cpu time    0.0015: real time    0.0015
    --------------------------------------------
      LOOP:  cpu time    9.8247: real time    9.8614

 eigenvalue-minimisations  :  4140
 total energy-change (2. order) :-0.2141706E+03  (-0.1990023E+03)
 number of electron     504.0000000 magnetization 
 augmentation part      504.0000000 magnetization 

 DIPCOR: dipole corrections for dipol
 direction  3 min pos     1,
 dipolmoment           0.000000      0.000000      0.000000 electrons x Angstroem
 Tr[quadrupol]    -10279.003461

 energy correction for charged system         0.000000 eV
 dipol+quadrupol energy correction           -0.000000 eV
 added-field ion interaction          0.000000 eV  (added to PSCEN)


 Free energy of the ion-electron system (eV)
  ---------------------------------------------------
  alpha Z        PSCENC =       805.86936429
  Ewald energy   TEWEN  =    200157.47075089
  -Hartree energ DENC   =   -242571.48358422
  -exchange      EXHF   =         0.00000000
  -V(xc)+E(xc)   XCENC  =      -327.62726736
  PAW double counting   =     40340.05962942   -38292.62782345
  entropy T*S    EENTRO =        -0.20267868
  eigenvalues    EBANDS =     -1971.76030122
  atomic energy  EATOM  =     41659.78587232
  Solvation  Ediel_sol  =         0.00000000
  ---------------------------------------------------
  free energy    TOTEN  =      -200.51603801 eV

  energy without entropy =     -200.31335932  energy(sigma->0) =     -200.41469867


--------------------------------------------------------------------------------------------------------




----------------------------------------- Iteration    1(   4)  ---------------------------------------


     EDDAV:  cpu time   10.0421: real time   10.0759
       DOS:  cpu time    0.0016: real time    0.0016
    --------------------------------------------
      LOOP:  cpu time   10.0452: real time   10.0809

 eigenvalue-minimisations  :  4212
 total energy-change (2. order) :-0.5720162E+01  (-0.5659408E+01)
 number of electron     504.0000000 magnetization 
 augmentation part      504.0000000 magnetization 

 DIPCOR: dipole corrections for dipol
 direction  3 min pos     1,
 dipolmoment           0.000000      0.000000      0.000000 electrons x Angstroem
 Tr[quadrupol]    -10279.003461

 energy correction for charged system         0.000000 eV
 dipol+quadrupol energy correction           -0.000000 eV
 added-field ion interaction          0.000000 eV  (added to PSCEN)


 Free energy of the ion-electron system (eV)
  ---------------------------------------------------
  alpha Z        PSCENC =       805.86936429
  Ewald energy   TEWEN  =    200157.47075089
  -Hartree energ DENC   =   -242571.48358422
  -exchange      EXHF   =         0.00000000
  -V(xc)+E(xc)   XCENC  =      -327.62726736
  PAW double counting   =     40340.05962942   -38292.62782345
  entropy T*S    EENTRO =        -0.20643183
  eigenvalues    EBANDS =     -1977.47670976
  atomic energy  EATOM  =     41659.78587232
  Solvation  Ediel_sol  =         0.00000000
  ---------------------------------------------------
  free energy    TOTEN  =      -206.23619970 eV

  energy without entropy =     -206.02976787  energy(sigma->0) =     -206.13298378


--------------------------------------------------------------------------------------------------------




----------------------------------------- Iteration    1(   5)  ---------------------------------------


     EDDAV:  cpu time   10.3808: real time   10.4125
       DOS:  cpu time    0.0015: real time    0.0015
    CHARGE:  cpu time    0.2218: real time    0.2226
    MIXING:  cpu time    0.0023: real time    0.0025
    --------------------------------------------
      LOOP:  cpu time   10.6082: real time   10.6423

 eigenvalue-minimisations  :  4428
 total energy-change (2. order) :-0.1860029E+00  (-0.1853784E+00)
 number of electron     503.9998405 magnetization 
 augmentation part      191.2836670 magnetization 

 DIPCOR: dipole corrections for dipol
 direction  3 min pos     1,
 dipolmoment           0.000000      0.000000      0.000000 electrons x Angstroem
 Tr[quadrupol]    -10279.003461

 energy correction for charged system         0.000000 eV
 dipol+quadrupol energy correction           -0.000000 eV
 added-field ion interaction          0.000000 eV  (added to PSCEN)


 Broyden mixing:
  rms(total) = 0.62300E+01    rms(broyden)= 0.62299E+01
  rms(prec ) = 0.63412E+01
  weight for this iteration     100.00

 Free energy of the ion-electron system (eV)
  ---------------------------------------------------
  alpha Z        PSCENC =       805.86936429
  Ewald energy   TEWEN  =    200157.47075089
  -Hartree energ DENC   =   -242571.48358422
  -exchange      EXHF   =         0.00000000
  -V(xc)+E(xc)   XCENC  =      -327.62726736
  PAW double counting   =     40340.05962942   -38292.62782345
  entropy T*S    EENTRO =        -0.20615287
  eigenvalues    EBANDS =     -1977.66299160
  atomic energy  EATOM  =     41659.78587232
  Solvation  Ediel_sol  =         0.00000000
  ---------------------------------------------------
  free energy    TOTEN  =      -206.42220258 eV

  energy without entropy =     -206.21604971  energy(sigma->0) =     -206.31912614


--------------------------------------------------------------------------------------------------------




----------------------------------------- Iteration    1(   6)  ---------------------------------------


    POTLOK:  cpu time    0.0437: real time    0.0446
    SETDIJ:  cpu time    0.0059: real time    0.0059
    EDDIAG:  cpu time    1.3930: real time    1.4755
  RMM-DIIS:  cpu time    4.6995: real time    4.7173
    ORTHCH:  cpu time    0.3838: real time    0.3858
       DOS:  cpu time    0.0014: real time    0.0014
    CHARGE:  cpu time    0.2208: real time    0.2216
    MIXING:  cpu time    0.0023: real time    0.0024
    --------------------------------------------
      LOOP:  cpu time    6.7510: real time    6.8585

 eigenvalue-minimisations  :  3678
 total energy-change (2. order) : 0.8398874E+01  (-0.9143083E+01)
 number of electron     503.9998417 magnetization 
 augmentation part      192.3502398 magnetization 

 DIPCOR: dipole corrections for dipol
 direction  3 min pos     1,
 dipolmoment           0.000000      0.000000     -0.008215 electrons x Angstroem
 Tr[quadrupol]    -10280.418564

 energy correction for charged system         0.000000 eV
 dipol+quadrupol energy correction           -0.000002 eV
 added-field ion interaction         -0.000000 eV  (added to PSCEN)


 Broyden mixing:
  rms(total) = 0.51923E+01    rms(broyden)= 0.51921E+01
  rms(prec ) = 0.53290E+01
  weight for this iteration     100.00

 eigenvalues of (default mixing * dielectric matrix)
  average eigenvalue GAMMA=   0.8463
  0.8463

 Free energy of the ion-electron system (eV)
  ---------------------------------------------------
  alpha Z        PSCENC =       805.86936191
  Ewald energy   TEWEN  =    200157.47075089
  -Hartree energ DENC   =   -242323.38759645
  -exchange      EXHF   =         0.00000000
  -V(xc)+E(xc)   XCENC  =      -340.21018205
  PAW double counting   =     43917.45163234   -41929.32425198
  entropy T*S    EENTRO =        -0.24954935
  eigenvalues    EBANDS =     -2145.42936668
  atomic energy  EATOM  =     41659.78587232
  Solvation  Ediel_sol  =         0.00000000
  ---------------------------------------------------
  free energy    TOTEN  =      -198.02332904 eV

  energy without entropy =     -197.77377970  energy(sigma->0) =     -197.89855437


--------------------------------------------------------------------------------------------------------




----------------------------------------- Iteration    1(   7)  ---------------------------------------


    POTLOK:  cpu time    0.0439: real time    0.0440
    SETDIJ:  cpu time    0.0053: real time    0.0053
    EDDIAG:  cpu time    1.4411: real time    1.4507
  RMM-DIIS:  cpu time    4.7058: real time    4.7726
    ORTHCH:  cpu time    0.3837: real time    0.3851
       DOS:  cpu time    0.0014: real time    0.0014
    CHARGE:  cpu time    0.2205: real time    0.2211
    MIXING:  cpu time    0.0022: real time    0.0022
    --------------------------------------------
      LOOP:  cpu time    6.8047: real time    6.8871

 eigenvalue-minimisations  :  3684
 total energy-change (2. order) :-0.1974377E+01  (-0.5175803E+01)
 number of electron     503.9998359 magnetization 
 augmentation part      197.3244118 magnetization 

 DIPCOR: dipole corrections for dipol
 direction  3 min pos     1,
 dipolmoment           0.000000      0.000000     -0.001966 electrons x Angstroem
 Tr[quadrupol]    -10278.755449

 energy correction for charged system         0.000000 eV
 dipol+quadrupol energy correction           -0.000000 eV
 added-field ion interaction         -0.000000 eV  (added to PSCEN)


 Broyden mixing:
  rms(total) = 0.35904E+01    rms(broyden)= 0.35901E+01
  rms(prec ) = 0.38229E+01
  weight for this iteration     100.00

 eigenvalues of (default mixing * dielectric matrix)
  average eigenvalue GAMMA=   1.1320
  1.8223  0.4416

 Free energy of the ion-electron system (eV)
  ---------------------------------------------------
  alpha Z        PSCENC =       805.86936415
  Ewald energy   TEWEN  =    200157.47075089
  -Hartree energ DENC   =   -242155.46752580
  -exchange      EXHF   =         0.00000000
  -V(xc)+E(xc)   XCENC  =      -342.59074854
  PAW double counting   =     45612.14626521   -43652.53044470
  entropy T*S    EENTRO =        -0.19763852
  eigenvalues    EBANDS =     -2284.48360071
  atomic energy  EATOM  =     41659.78587232
  Solvation  Ediel_sol  =         0.00000000
  ---------------------------------------------------
  free energy    TOTEN  =      -199.99770570 eV

  energy without entropy =     -199.80006718  energy(sigma->0) =     -199.89888644


--------------------------------------------------------------------------------------------------------




----------------------------------------- Iteration    1(   8)  ---------------------------------------


    POTLOK:  cpu time    0.0431: real time    0.0441
    SETDIJ:  cpu time    0.0053: real time    0.0053
    EDDIAG:  cpu time    1.4596: real time    1.4660
  RMM-DIIS:  cpu time    4.7098: real time    4.7230
    ORTHCH:  cpu time    0.3834: real time    0.3844
       DOS:  cpu time    0.0013: real time    0.0013
    CHARGE:  cpu time    0.2198: real time    0.2204
    MIXING:  cpu time    0.0023: real time    0.0023
    --------------------------------------------
      LOOP:  cpu time    6.8252: real time    6.8500

 eigenvalue-minimisations  :  3681
 total energy-change (2. order) :-0.1546124E+01  (-0.5160703E+01)
 number of electron     503.9998343 magnetization 
 augmentation part      198.3112453 magnetization 

 DIPCOR: dipole corrections for dipol
 direction  3 min pos     1,
 dipolmoment           0.000000      0.000000      0.598472 electrons x Angstroem
 Tr[quadrupol]    -10281.486555

 energy correction for charged system         0.000000 eV
 dipol+quadrupol energy correction           -0.012621 eV
 added-field ion interaction          0.000000 eV  (added to PSCEN)


 Broyden mixing:
  rms(total) = 0.26627E+01    rms(broyden)= 0.26624E+01
  rms(prec ) = 0.29338E+01
  weight for this iteration     100.00

 eigenvalues of (default mixing * dielectric matrix)
  average eigenvalue GAMMA=   1.0443
  2.2327  0.5018  0.3983

 Free energy of the ion-electron system (eV)
  ---------------------------------------------------
  alpha Z        PSCENC =       805.85674339
  Ewald energy   TEWEN  =    200157.47075089
  -Hartree energ DENC   =   -242192.24456204
  -exchange      EXHF   =         0.00000000
  -V(xc)+E(xc)   XCENC  =      -344.61275386
  PAW double counting   =     48031.36218802   -46102.42180117
  entropy T*S    EENTRO =        -0.22526772
  eigenvalues    EBANDS =     -2216.51499969
  atomic energy  EATOM  =     41659.78587232
  Solvation  Ediel_sol  =         0.00000000
  ---------------------------------------------------
  free energy    TOTEN  =      -201.54382985 eV

  energy without entropy =     -201.31856213  energy(sigma->0) =     -201.43119599


--------------------------------------------------------------------------------------------------------




----------------------------------------- Iteration    1(   9)  ---------------------------------------


    POTLOK:  cpu time    0.0429: real time    0.0439
    SETDIJ:  cpu time    0.0054: real time    0.0054
    EDDIAG:  cpu time    1.4203: real time    1.4266
  RMM-DIIS:  cpu time    4.6458: real time    4.6633
    ORTHCH:  cpu time    0.3833: real time    0.3845
       DOS:  cpu time    0.0014: real time    0.0014
    CHARGE:  cpu time    0.2202: real time    0.2208
    MIXING:  cpu time    0.0025: real time    0.0025
    --------------------------------------------
      LOOP:  cpu time    6.7227: real time    6.7508

 eigenvalue-minimisations  :  3680
 total energy-change (2. order) : 0.7224092E+01  (-0.1621910E+01)
 number of electron     503.9998350 magnetization 
 augmentation part      197.9084314 magnetization 

 DIPCOR: dipole corrections for dipol
 direction  3 min pos     1,
 dipolmoment           0.000000      0.000000     -0.578430 electrons x Angstroem
 Tr[quadrupol]    -10281.991688

 energy correction for charged system         0.000000 eV
 dipol+quadrupol energy correction           -0.011790 eV
 added-field ion interaction         -0.000000 eV  (added to PSCEN)


 Broyden mixing:
  rms(total) = 0.18199E+01    rms(broyden)= 0.18196E+01
  rms(prec ) = 0.21942E+01
  weight for this iteration     100.00

 eigenvalues of (default mixing * dielectric matrix)
  average eigenvalue GAMMA=   0.9044
  2.2816  0.5037  0.4162  0.4162

 Free energy of the ion-electron system (eV)
  ---------------------------------------------------
  alpha Z        PSCENC =       805.85757454
  Ewald energy   TEWEN  =    200157.47075089
  -Hartree energ DENC   =   -242216.24239958
  -exchange      EXHF   =         0.00000000
  -V(xc)+E(xc)   XCENC  =      -344.92306943
  PAW double counting   =     49084.34355228   -47166.39822731
  entropy T*S    EENTRO =        -0.17579812
  eigenvalues    EBANDS =     -2174.03799340
  atomic energy  EATOM  =     41659.78587232
  Solvation  Ediel_sol  =         0.00000000
  ---------------------------------------------------
  free energy    TOTEN  =      -194.31973781 eV

  energy without entropy =     -194.14393969  energy(sigma->0) =     -194.23183875


--------------------------------------------------------------------------------------------------------




----------------------------------------- Iteration    1(  10)  ---------------------------------------


    POTLOK:  cpu time    0.0438: real time    0.0440
    SETDIJ:  cpu time    0.0055: real time    0.0061
    EDDIAG:  cpu time    1.4333: real time    1.4381
  RMM-DIIS:  cpu time    4.6149: real time    4.6291
    ORTHCH:  cpu time    0.3791: real time    0.3807
       DOS:  cpu time    0.0014: real time    0.0014
    CHARGE:  cpu time    0.2180: real time    0.2186
    MIXING:  cpu time    0.0027: real time    0.0027
    --------------------------------------------
      LOOP:  cpu time    6.6995: real time    6.7249

 eigenvalue-minimisations  :  3682
 total energy-change (2. order) : 0.1692610E+01  (-0.9830049E+00)
 number of electron     503.9998359 magnetization 
 augmentation part      197.5865373 magnetization 

 DIPCOR: dipole corrections for dipol
 direction  3 min pos     1,
 dipolmoment           0.000000      0.000000      0.439880 electrons x Angstroem
 Tr[quadrupol]    -10282.158853

 energy correction for charged system         0.000000 eV
 dipol+quadrupol energy correction           -0.006818 eV
 added-field ion interaction         -0.000000 eV  (added to PSCEN)


 Broyden mixing:
  rms(total) = 0.13711E+01    rms(broyden)= 0.13708E+01
  rms(prec ) = 0.17174E+01
  weight for this iteration     100.00

 eigenvalues of (default mixing * dielectric matrix)
  average eigenvalue GAMMA=   0.8251
  2.2855  0.5937  0.5937  0.4286  0.2241

 Free energy of the ion-electron system (eV)
  ---------------------------------------------------
  alpha Z        PSCENC =       805.86254606
  Ewald energy   TEWEN  =    200157.47075089
  -Hartree energ DENC   =   -242232.67989364
  -exchange      EXHF   =         0.00000000
  -V(xc)+E(xc)   XCENC  =      -344.69963329
  PAW double counting   =     49232.79365902   -47315.41580873
  entropy T*S    EENTRO =        -0.18235954
  eigenvalues    EBANDS =     -2155.56226111
  atomic energy  EATOM  =     41659.78587232
  Solvation  Ediel_sol  =         0.00000000
  ---------------------------------------------------
  free energy    TOTEN  =      -192.62712801 eV

  energy without entropy =     -192.44476847  energy(sigma->0) =     -192.53594824


--------------------------------------------------------------------------------------------------------




----------------------------------------- Iteration    1(  11)  ---------------------------------------


    POTLOK:  cpu time    0.0439: real time    0.0441
    SETDIJ:  cpu time    0.0054: real time    0.0054
    EDDIAG:  cpu time    1.4331: real time    1.4385
  RMM-DIIS:  cpu time    4.6894: real time    4.7136
    ORTHCH:  cpu time    0.3557: real time    0.3842
       DOS:  cpu time    0.0015: real time    0.0016
    CHARGE:  cpu time    0.2180: real time    0.2377
    MIXING:  cpu time    0.0027: real time    0.0028
    --------------------------------------------
      LOOP:  cpu time    6.7503: real time    6.8320

 eigenvalue-minimisations  :  3680
 total energy-change (2. order) : 0.2280536E+01  (-0.4192139E+00)
 number of electron     503.9998357 magnetization 
 augmentation part      197.4685942 magnetization 

 DIPCOR: dipole corrections for dipol
 direction  3 min pos     1,
 dipolmoment           0.000000      0.000000     -0.157565 electrons x Angstroem
 Tr[quadrupol]    -10282.298803

 energy correction for charged system         0.000000 eV
 dipol+quadrupol energy correction           -0.000875 eV
 added-field ion interaction         -0.000000 eV  (added to PSCEN)


 Broyden mixing:
  rms(total) = 0.10947E+01    rms(broyden)= 0.10944E+01
  rms(prec ) = 0.12446E+01
  weight for this iteration     100.00

 eigenvalues of (default mixing * dielectric matrix)
  average eigenvalue GAMMA=   0.7405
  2.2867  0.6981  0.4769  0.4769  0.2697  0.2350

 Free energy of the ion-electron system (eV)
  ---------------------------------------------------
  alpha Z        PSCENC =       805.86848946
  Ewald energy   TEWEN  =    200157.47075089
  -Hartree energ DENC   =   -242249.53198269
  -exchange      EXHF   =         0.00000000
  -V(xc)+E(xc)   XCENC  =      -344.36068378
  PAW double counting   =     49293.15343127   -47375.13743975
  entropy T*S    EENTRO =        -0.23424506
  eigenvalues    EBANDS =     -2137.36078424
  atomic energy  EATOM  =     41659.78587232
  Solvation  Ediel_sol  =         0.00000000
  ---------------------------------------------------
  free energy    TOTEN  =      -190.34659158 eV

  energy without entropy =     -190.11234652  energy(sigma->0) =     -190.22946905


--------------------------------------------------------------------------------------------------------




----------------------------------------- Iteration    1(  12)  ---------------------------------------


    POTLOK:  cpu time    0.0423: real time    0.0486
    SETDIJ:  cpu time    0.0053: real time    0.0055
    EDDIAG:  cpu time    1.4297: real time    1.4388
  RMM-DIIS:  cpu time    4.7064: real time    4.7225
    ORTHCH:  cpu time    0.3595: real time    0.3604
       DOS:  cpu time    0.0014: real time    0.0014
    CHARGE:  cpu time    0.2185: real time    0.2199
    MIXING:  cpu time    0.0028: real time    0.0028
    --------------------------------------------
      LOOP:  cpu time    6.7667: real time    6.8043

 eigenvalue-minimisations  :  3681
 total energy-change (2. order) : 0.1194328E+01  (-0.1581204E+00)
 number of electron     503.9998360 magnetization 
 augmentation part      197.3798393 magnetization 

 DIPCOR: dipole corrections for dipol
 direction  3 min pos     1,
 dipolmoment           0.000000      0.000000      0.067890 electrons x Angstroem
 Tr[quadrupol]    -10282.292710

 energy correction for charged system         0.000000 eV
 dipol+quadrupol energy correction           -0.000162 eV
 added-field ion interaction          0.000000 eV  (added to PSCEN)


 Broyden mixing:
  rms(total) = 0.53702E+00    rms(broyden)= 0.53680E+00
  rms(prec ) = 0.61523E+00
  weight for this iteration     100.00

 eigenvalues of (default mixing * dielectric matrix)
  average eigenvalue GAMMA=   0.7202
  2.2811  0.7694  0.5714  0.5714  0.3294  0.3294  0.1896

 Free energy of the ion-electron system (eV)
  ---------------------------------------------------
  alpha Z        PSCENC =       805.86920188
  Ewald energy   TEWEN  =    200157.47075089
  -Hartree energ DENC   =   -242255.99625820
  -exchange      EXHF   =         0.00000000
  -V(xc)+E(xc)   XCENC  =      -344.15744472
  PAW double counting   =     49319.03933865   -47400.46478147
  entropy T*S    EENTRO =        -0.23380784
  eigenvalues    EBANDS =     -2130.46513536
  atomic energy  EATOM  =     41659.78587232
  Solvation  Ediel_sol  =         0.00000000
  ---------------------------------------------------
  free energy    TOTEN  =      -189.15226385 eV

  energy without entropy =     -188.91845601  energy(sigma->0) =     -189.03535993


--------------------------------------------------------------------------------------------------------




----------------------------------------- Iteration    1(  13)  ---------------------------------------


    POTLOK:  cpu time    0.0430: real time    0.0431
    SETDIJ:  cpu time    0.0054: real time    0.0054
    EDDIAG:  cpu time    1.3889: real time    1.3937
  RMM-DIIS:  cpu time    4.6959: real time    4.7101
    ORTHCH:  cpu time    0.3588: real time    0.3596
       DOS:  cpu time    0.0014: real time    0.0014
    CHARGE:  cpu time    0.2214: real time    0.2219
    MIXING:  cpu time    0.0029: real time    0.0029
    --------------------------------------------
      LOOP:  cpu time    6.7185: real time    6.7411

 eigenvalue-minimisations  :  3679
 total energy-change (2. order) : 0.1466750E+00  (-0.6044663E-01)
 number of electron     503.9998362 magnetization 
 augmentation part      197.1917823 magnetization 

 DIPCOR: dipole corrections for dipol
 direction  3 min pos     1,
 dipolmoment           0.000000      0.000000     -0.022868 electrons x Angstroem
 Tr[quadrupol]    -10282.501094

 energy correction for charged system         0.000000 eV
 dipol+quadrupol energy correction           -0.000018 eV
 added-field ion interaction          0.000000 eV  (added to PSCEN)


 Broyden mixing:
  rms(total) = 0.43797E+00    rms(broyden)= 0.43788E+00
  rms(prec ) = 0.47570E+00
  weight for this iteration     100.00

 eigenvalues of (default mixing * dielectric matrix)
  average eigenvalue GAMMA=   0.7178
  2.2759  0.8255  0.7603  0.7603  0.3242  0.3058  0.3058  0.1847

 Free energy of the ion-electron system (eV)
  ---------------------------------------------------
  alpha Z        PSCENC =       805.86934586
  Ewald energy   TEWEN  =    200157.47075089
  -Hartree energ DENC   =   -242269.33103656
  -exchange      EXHF   =         0.00000000
  -V(xc)+E(xc)   XCENC  =      -343.96013380
  PAW double counting   =     49332.50806006   -47413.03461958
  entropy T*S    EENTRO =        -0.24945023
  eigenvalues    EBANDS =     -2118.06437779
  atomic energy  EATOM  =     41659.78587232
  Solvation  Ediel_sol  =         0.00000000
  ---------------------------------------------------
  free energy    TOTEN  =      -189.00558883 eV

  energy without entropy =     -188.75613859  energy(sigma->0) =     -188.88086371


--------------------------------------------------------------------------------------------------------




----------------------------------------- Iteration    1(  14)  ---------------------------------------


    POTLOK:  cpu time    0.0427: real time    0.0428
    SETDIJ:  cpu time    0.0053: real time    0.0053
    EDDIAG:  cpu time    1.4011: real time    1.4071
  RMM-DIIS:  cpu time    4.7068: real time    4.7207
    ORTHCH:  cpu time    0.3594: real time    0.3605
       DOS:  cpu time    0.0014: real time    0.0014
    CHARGE:  cpu time    0.2173: real time    0.2179
    MIXING:  cpu time    0.0030: real time    0.0030
    --------------------------------------------
      LOOP:  cpu time    6.7378: real time    6.7614

 eigenvalue-minimisations  :  3682
 total energy-change (2. order) : 0.5066203E-01  (-0.2374235E-01)
 number of electron     503.9998362 magnetization 
 augmentation part      197.0549807 magnetization 

 DIPCOR: dipole corrections for dipol
 direction  3 min pos     1,
 dipolmoment           0.000000      0.000000     -0.048488 electrons x Angstroem
 Tr[quadrupol]    -10282.776212

 energy correction for charged system         0.000000 eV
 dipol+quadrupol energy correction           -0.000083 eV
 added-field ion interaction          0.000000 eV  (added to PSCEN)


 Broyden mixing:
  rms(total) = 0.36145E+00    rms(broyden)= 0.36140E+00
  rms(prec ) = 0.40156E+00
  weight for this iteration     100.00

 eigenvalues of (default mixing * dielectric matrix)
  average eigenvalue GAMMA=   0.7151
  2.2663  0.8717  0.8717  0.8956  0.3947  0.3947  0.3263  0.2253  0.1900

 Free energy of the ion-electron system (eV)
  ---------------------------------------------------
  alpha Z        PSCENC =       805.86928144
  Ewald energy   TEWEN  =    200157.47075089
  -Hartree energ DENC   =   -242284.51705584
  -exchange      EXHF   =         0.00000000
  -V(xc)+E(xc)   XCENC  =      -343.76830749
  PAW double counting   =     49345.26938604   -47424.84638954
  entropy T*S    EENTRO =        -0.25378733
  eigenvalues    EBANDS =     -2103.96467729
  atomic energy  EATOM  =     41659.78587232
  Solvation  Ediel_sol  =         0.00000000
  ---------------------------------------------------
  free energy    TOTEN  =      -188.95492680 eV

  energy without entropy =     -188.70113946  energy(sigma->0) =     -188.82803313


--------------------------------------------------------------------------------------------------------




----------------------------------------- Iteration    1(  15)  ---------------------------------------


    POTLOK:  cpu time    0.0429: real time    0.0430
    SETDIJ:  cpu time    0.0054: real time    0.0054
    EDDIAG:  cpu time    1.4087: real time    1.4132
  RMM-DIIS:  cpu time    4.6032: real time    4.6191
    ORTHCH:  cpu time    0.3600: real time    0.3609
       DOS:  cpu time    0.0014: real time    0.0014
    CHARGE:  cpu time    0.2186: real time    0.2210
    MIXING:  cpu time    0.0033: real time    0.0033
    --------------------------------------------
      LOOP:  cpu time    6.6443: real time    6.6700

 eigenvalue-minimisations  :  3678
 total energy-change (2. order) : 0.3948502E-01  (-0.1436160E-01)
 number of electron     503.9998363 magnetization 
 augmentation part      197.0461085 magnetization 

 DIPCOR: dipole corrections for dipol
 direction  3 min pos     1,
 dipolmoment           0.000000      0.000000     -0.052421 electrons x Angstroem
 Tr[quadrupol]    -10282.943321

 energy correction for charged system         0.000000 eV
 dipol+quadrupol energy correction           -0.000097 eV
 added-field ion interaction          0.000000 eV  (added to PSCEN)


 Broyden mixing:
  rms(total) = 0.29512E+00    rms(broyden)= 0.29506E+00
  rms(prec ) = 0.32440E+00
  weight for this iteration     100.00

 eigenvalues of (default mixing * dielectric matrix)
  average eigenvalue GAMMA=   0.7625
  2.2606  1.3013  1.3013  0.7736  0.4871  0.4871  0.3087  0.3087  0.2087  0.1882

 Free energy of the ion-electron system (eV)
  ---------------------------------------------------
  alpha Z        PSCENC =       805.86926746
  Ewald energy   TEWEN  =    200157.47075089
  -Hartree energ DENC   =   -242292.35684306
  -exchange      EXHF   =         0.00000000
  -V(xc)+E(xc)   XCENC  =      -343.67363929
  PAW double counting   =     49348.66153486   -47427.72503809
  entropy T*S    EENTRO =        -0.25129729
  eigenvalues    EBANDS =     -2096.69604956
  atomic energy  EATOM  =     41659.78587232
  Solvation  Ediel_sol  =         0.00000000
  ---------------------------------------------------
  free energy    TOTEN  =      -188.91544178 eV

  energy without entropy =     -188.66414449  energy(sigma->0) =     -188.78979313


--------------------------------------------------------------------------------------------------------




----------------------------------------- Iteration    1(  16)  ---------------------------------------


    POTLOK:  cpu time    0.0435: real time    0.0445
    SETDIJ:  cpu time    0.0053: real time    0.0053
    EDDIAG:  cpu time    1.4133: real time    1.4509
  RMM-DIIS:  cpu time    4.5937: real time    4.6158
    ORTHCH:  cpu time    0.3618: real time    0.3627
       DOS:  cpu time    0.0016: real time    0.0016
    CHARGE:  cpu time    0.2189: real time    0.2194
    MIXING:  cpu time    0.0034: real time    0.0035
    --------------------------------------------
      LOOP:  cpu time    6.6423: real time    6.7083

 eigenvalue-minimisations  :  3682
 total energy-change (2. order) :-0.1437125E-01  (-0.1592779E-01)
 number of electron     503.9998362 magnetization 
 augmentation part      197.1256676 magnetization 

 DIPCOR: dipole corrections for dipol
 direction  3 min pos     1,
 dipolmoment           0.000000      0.000000      0.002267 electrons x Angstroem
 Tr[quadrupol]    -10283.240053

 energy correction for charged system         0.000000 eV
 dipol+quadrupol energy correction           -0.000000 eV
 added-field ion interaction          0.000000 eV  (added to PSCEN)


 Broyden mixing:
  rms(total) = 0.26829E+00    rms(broyden)= 0.26819E+00
  rms(prec ) = 0.31146E+00
  weight for this iteration     100.00

 eigenvalues of (default mixing * dielectric matrix)
  average eigenvalue GAMMA=   0.7377
  2.2034  1.4525  1.4525  0.7096  0.5074  0.5074  0.3351  0.3351  0.2152  0.2152
  0.1816

 Free energy of the ion-electron system (eV)
  ---------------------------------------------------
  alpha Z        PSCENC =       805.86936411
  Ewald energy   TEWEN  =    200157.47075089
  -Hartree energ DENC   =   -242303.79543017
  -exchange      EXHF   =         0.00000000
  -V(xc)+E(xc)   XCENC  =      -343.59576711
  PAW double counting   =     49352.73335538   -47431.22454546
  entropy T*S    EENTRO =        -0.25194590
  eigenvalues    EBANDS =     -2085.92146708
  atomic energy  EATOM  =     41659.78587232
  Solvation  Ediel_sol  =         0.00000000
  ---------------------------------------------------
  free energy    TOTEN  =      -188.92981303 eV

  energy without entropy =     -188.67786713  energy(sigma->0) =     -188.80384008


--------------------------------------------------------------------------------------------------------




----------------------------------------- Iteration    1(  17)  ---------------------------------------


    POTLOK:  cpu time    0.0434: real time    0.0437
    SETDIJ:  cpu time    0.0056: real time    0.0056
    EDDIAG:  cpu time    1.3892: real time    1.3941
  RMM-DIIS:  cpu time    4.5451: real time    4.5896
    ORTHCH:  cpu time    0.3555: real time    0.3801
       DOS:  cpu time    0.0014: real time    0.0014
    CHARGE:  cpu time    0.2152: real time    0.2191
    MIXING:  cpu time    0.0035: real time    0.0035
    --------------------------------------------
      LOOP:  cpu time    6.5597: real time    6.6404

 eigenvalue-minimisations  :  3679
 total energy-change (2. order) : 0.6596445E-01  (-0.5932102E-02)
 number of electron     503.9998362 magnetization 
 augmentation part      197.1368258 magnetization 

 DIPCOR: dipole corrections for dipol
 direction  3 min pos     1,
 dipolmoment           0.000000      0.000000     -0.002615 electrons x Angstroem
 Tr[quadrupol]    -10283.325831

 energy correction for charged system         0.000000 eV
 dipol+quadrupol energy correction           -0.000000 eV
 added-field ion interaction          0.000000 eV  (added to PSCEN)


 Broyden mixing:
  rms(total) = 0.12142E+00    rms(broyden)= 0.12136E+00
  rms(prec ) = 0.14470E+00
  weight for this iteration     100.00

 eigenvalues of (default mixing * dielectric matrix)
  average eigenvalue GAMMA=   0.7553
  2.0945  2.0945  1.3413  0.6876  0.6876  0.4574  0.4574  0.3089  0.3089  0.1859
  0.2294  0.2104

 Free energy of the ion-electron system (eV)
  ---------------------------------------------------
  alpha Z        PSCENC =       805.86936405
  Ewald energy   TEWEN  =    200157.47075089
  -Hartree energ DENC   =   -242308.25447188
  -exchange      EXHF   =         0.00000000
  -V(xc)+E(xc)   XCENC  =      -343.52894176
  PAW double counting   =     49351.53648523   -47429.64353314
  entropy T*S    EENTRO =        -0.25361645
  eigenvalues    EBANDS =     -2081.84575784
  atomic energy  EATOM  =     41659.78587232
  Solvation  Ediel_sol  =         0.00000000
  ---------------------------------------------------
  free energy    TOTEN  =      -188.86384858 eV

  energy without entropy =     -188.61023214  energy(sigma->0) =     -188.73704036


--------------------------------------------------------------------------------------------------------




----------------------------------------- Iteration    1(  18)  ---------------------------------------


    POTLOK:  cpu time    0.0439: real time    0.0442
    SETDIJ:  cpu time    0.0053: real time    0.0054
    EDDIAG:  cpu time    1.4049: real time    1.4097
  RMM-DIIS:  cpu time    4.6328: real time    4.6502
    ORTHCH:  cpu time    0.3612: real time    0.3623
       DOS:  cpu time    0.0014: real time    0.0014
    CHARGE:  cpu time    0.2175: real time    0.2183
    MIXING:  cpu time    0.0038: real time    0.0038
    --------------------------------------------
      LOOP:  cpu time    6.6716: real time    6.6995

 eigenvalue-minimisations  :  3680
 total energy-change (2. order) : 0.1370431E-01  (-0.1732570E-02)
 number of electron     503.9998362 magnetization 
 augmentation part      197.1020276 magnetization 

 DIPCOR: dipole corrections for dipol
 direction  3 min pos     1,
 dipolmoment           0.000000      0.000000     -0.014066 electrons x Angstroem
 Tr[quadrupol]    -10283.533543

 energy correction for charged system         0.000000 eV
 dipol+quadrupol energy correction           -0.000007 eV
 added-field ion interaction          0.000000 eV  (added to PSCEN)


 Broyden mixing:
  rms(total) = 0.65048E-01    rms(broyden)= 0.65022E-01
  rms(prec ) = 0.72357E-01
  weight for this iteration     100.00

 eigenvalues of (default mixing * dielectric matrix)
  average eigenvalue GAMMA=   0.7519
  2.2415  2.2415  1.3101  0.7145  0.7145  0.4474  0.4474  0.3566  0.3566  0.3301
  0.2281  0.1848  0.2014

 Free energy of the ion-electron system (eV)
  ---------------------------------------------------
  alpha Z        PSCENC =       805.86935731
  Ewald energy   TEWEN  =    200157.47075089
  -Hartree energ DENC   =   -242316.74630705
  -exchange      EXHF   =         0.00000000
  -V(xc)+E(xc)   XCENC  =      -343.47779112
  PAW double counting   =     49356.68506099   -47434.47899541
  entropy T*S    EENTRO =        -0.25728990
  eigenvalues    EBANDS =     -2073.70080231
  atomic energy  EATOM  =     41659.78587232
  Solvation  Ediel_sol  =         0.00000000
  ---------------------------------------------------
  free energy    TOTEN  =      -188.85014428 eV

  energy without entropy =     -188.59285438  energy(sigma->0) =     -188.72149933


--------------------------------------------------------------------------------------------------------




----------------------------------------- Iteration    1(  19)  ---------------------------------------


    POTLOK:  cpu time    0.0435: real time    0.0443
    SETDIJ:  cpu time    0.0059: real time    0.0059
    EDDIAG:  cpu time    1.4098: real time    1.4147
  RMM-DIIS:  cpu time    4.6402: real time    4.6542
    ORTHCH:  cpu time    0.3603: real time    0.3611
       DOS:  cpu time    0.0014: real time    0.0014
    CHARGE:  cpu time    0.2186: real time    0.2192
    MIXING:  cpu time    0.0039: real time    0.0039
    --------------------------------------------
      LOOP:  cpu time    6.6844: real time    6.7085

 eigenvalue-minimisations  :  3682
 total energy-change (2. order) : 0.2762092E-02  (-0.6080862E-03)
 number of electron     503.9998362 magnetization 
 augmentation part      197.0898513 magnetization 

 DIPCOR: dipole corrections for dipol
 direction  3 min pos     1,
 dipolmoment           0.000000      0.000000     -0.019203 electrons x Angstroem
 Tr[quadrupol]    -10283.635957

 energy correction for charged system         0.000000 eV
 dipol+quadrupol energy correction           -0.000013 eV
 added-field ion interaction         -0.000000 eV  (added to PSCEN)


 Broyden mixing:
  rms(total) = 0.37897E-01    rms(broyden)= 0.37883E-01
  rms(prec ) = 0.42957E-01
  weight for this iteration     100.00

 eigenvalues of (default mixing * dielectric matrix)
  average eigenvalue GAMMA=   0.7567
  2.2888  2.2888  1.2947  0.8066  0.8066  0.6194  0.4721  0.4721  0.3239  0.3239
  0.2838  0.2230  0.1851  0.2045

 Free energy of the ion-electron system (eV)
  ---------------------------------------------------
  alpha Z        PSCENC =       805.86935129
  Ewald energy   TEWEN  =    200157.47075089
  -Hartree energ DENC   =   -242320.90334401
  -exchange      EXHF   =         0.00000000
  -V(xc)+E(xc)   XCENC  =      -343.45456357
  PAW double counting   =     49359.18305945   -47436.87546182
  entropy T*S    EENTRO =        -0.25837949
  eigenvalues    EBANDS =     -2069.66466724
  atomic energy  EATOM  =     41659.78587232
  Solvation  Ediel_sol  =         0.00000000
  ---------------------------------------------------
  free energy    TOTEN  =      -188.84738219 eV

  energy without entropy =     -188.58900269  energy(sigma->0) =     -188.71819244


--------------------------------------------------------------------------------------------------------




----------------------------------------- Iteration    1(  20)  ---------------------------------------


    POTLOK:  cpu time    0.0436: real time    0.0445
    SETDIJ:  cpu time    0.0055: real time    0.0055
    EDDIAG:  cpu time    1.4372: real time    1.4413
  RMM-DIIS:  cpu time    4.7142: real time    4.7302
    ORTHCH:  cpu time    0.3601: real time    0.3610
       DOS:  cpu time    0.0014: real time    0.0014
    CHARGE:  cpu time    0.2190: real time    0.2195
    MIXING:  cpu time    0.0039: real time    0.0039
    --------------------------------------------
      LOOP:  cpu time    6.7858: real time    6.8111

 eigenvalue-minimisations  :  3684
 total energy-change (2. order) : 0.9655054E-03  (-0.1531621E-03)
 number of electron     503.9998362 magnetization 
 augmentation part      197.0846804 magnetization 

 DIPCOR: dipole corrections for dipol
 direction  3 min pos     1,
 dipolmoment           0.000000      0.000000     -0.020434 electrons x Angstroem
 Tr[quadrupol]    -10283.719956

 energy correction for charged system         0.000000 eV
 dipol+quadrupol energy correction           -0.000015 eV
 added-field ion interaction         -0.000000 eV  (added to PSCEN)


 Broyden mixing:
  rms(total) = 0.25836E-01    rms(broyden)= 0.25830E-01
  rms(prec ) = 0.28884E-01
  weight for this iteration     100.00

 eigenvalues of (default mixing * dielectric matrix)
  average eigenvalue GAMMA=   0.7617
  2.3364  2.3364  1.2450  0.9428  0.9428  0.7581  0.4912  0.4912  0.3421  0.3421
  0.3206  0.2614  0.2259  0.1851  0.2036

 Free energy of the ion-electron system (eV)
  ---------------------------------------------------
  alpha Z        PSCENC =       805.86934957
  Ewald energy   TEWEN  =    200157.47075089
  -Hartree energ DENC   =   -242324.11361234
  -exchange      EXHF   =         0.00000000
  -V(xc)+E(xc)   XCENC  =      -343.44329266
  PAW double counting   =     49360.77795555   -47438.47257050
  entropy T*S    EENTRO =        -0.25742254
  eigenvalues    EBANDS =     -2066.46344698
  atomic energy  EATOM  =     41659.78587232
  Solvation  Ediel_sol  =         0.00000000
  ---------------------------------------------------
  free energy    TOTEN  =      -188.84641668 eV

  energy without entropy =     -188.58899414  energy(sigma->0) =     -188.71770541


--------------------------------------------------------------------------------------------------------




----------------------------------------- Iteration    1(  21)  ---------------------------------------


    POTLOK:  cpu time    0.0432: real time    0.0433
    SETDIJ:  cpu time    0.0053: real time    0.0054
    EDDIAG:  cpu time    1.3902: real time    1.3950
  RMM-DIIS:  cpu time    4.6929: real time    4.7102
    ORTHCH:  cpu time    0.3598: real time    0.3609
       DOS:  cpu time    0.0014: real time    0.0014
    CHARGE:  cpu time    0.2208: real time    0.2213
    MIXING:  cpu time    0.0040: real time    0.0040
    --------------------------------------------
      LOOP:  cpu time    6.7185: real time    6.7445

 eigenvalue-minimisations  :  3681
 total energy-change (2. order) : 0.2606735E-03  (-0.1073187E-03)
 number of electron     503.9998362 magnetization 
 augmentation part      197.0807687 magnetization 

 DIPCOR: dipole corrections for dipol
 direction  3 min pos     1,
 dipolmoment           0.000000      0.000000     -0.019138 electrons x Angstroem
 Tr[quadrupol]    -10283.821718

 energy correction for charged system         0.000000 eV
 dipol+quadrupol energy correction           -0.000013 eV
 added-field ion interaction          0.000000 eV  (added to PSCEN)


 Broyden mixing:
  rms(total) = 0.19165E-01    rms(broyden)= 0.19160E-01
  rms(prec ) = 0.21732E-01
  weight for this iteration     100.00

 eigenvalues of (default mixing * dielectric matrix)
  average eigenvalue GAMMA=   0.7830
  2.6062  2.2359  1.3917  1.3917  0.7299  0.7299  0.6357  0.5024  0.5024  0.3323
  0.3323  0.2818  0.1851  0.2034  0.2224  0.2444

 Free energy of the ion-electron system (eV)
  ---------------------------------------------------
  alpha Z        PSCENC =       805.86935138
  Ewald energy   TEWEN  =    200157.47075089
  -Hartree energ DENC   =   -242328.06953264
  -exchange      EXHF   =         0.00000000
  -V(xc)+E(xc)   XCENC  =      -343.43097439
  PAW double counting   =     49362.23605693   -47439.94839985
  entropy T*S    EENTRO =        -0.25810327
  eigenvalues    EBANDS =     -2062.50117738
  atomic energy  EATOM  =     41659.78587232
  Solvation  Ediel_sol  =         0.00000000
  ---------------------------------------------------
  free energy    TOTEN  =      -188.84615601 eV

  energy without entropy =     -188.58805273  energy(sigma->0) =     -188.71710437


--------------------------------------------------------------------------------------------------------




----------------------------------------- Iteration    1(  22)  ---------------------------------------


    POTLOK:  cpu time    0.0435: real time    0.0436
    SETDIJ:  cpu time    0.0053: real time    0.0053
    EDDIAG:  cpu time    1.4030: real time    1.4068
  RMM-DIIS:  cpu time    4.7075: real time    4.7205
    ORTHCH:  cpu time    0.3597: real time    0.3606
       DOS:  cpu time    0.0015: real time    0.0015
    CHARGE:  cpu time    0.2168: real time    0.2176
    MIXING:  cpu time    0.0042: real time    0.0042
    --------------------------------------------
      LOOP:  cpu time    6.7422: real time    6.7632

 eigenvalue-minimisations  :  3680
 total energy-change (2. order) : 0.1769788E-04  (-0.6949404E-04)
 number of electron     503.9998362 magnetization 
 augmentation part      197.0753536 magnetization 

 DIPCOR: dipole corrections for dipol
 direction  3 min pos     1,
 dipolmoment           0.000000      0.000000     -0.018239 electrons x Angstroem
 Tr[quadrupol]    -10283.941474

 energy correction for charged system         0.000000 eV
 dipol+quadrupol energy correction           -0.000012 eV
 added-field ion interaction          0.000000 eV  (added to PSCEN)


 Broyden mixing:
  rms(total) = 0.12452E-01    rms(broyden)= 0.12448E-01
  rms(prec ) = 0.14973E-01
  weight for this iteration     100.00

 eigenvalues of (default mixing * dielectric matrix)
  average eigenvalue GAMMA=   0.7894
  2.5671  2.0438  2.0438  1.3710  0.7555  0.7555  0.7028  0.4926  0.4926  0.3721
  0.3721  0.3032  0.3032  0.1851  0.2031  0.2278  0.2278

 Free energy of the ion-electron system (eV)
  ---------------------------------------------------
  alpha Z        PSCENC =       805.86935256
  Ewald energy   TEWEN  =    200157.47075089
  -Hartree energ DENC   =   -242332.73719836
  -exchange      EXHF   =         0.00000000
  -V(xc)+E(xc)   XCENC  =      -343.41639721
  PAW double counting   =     49362.91019666   -47440.64648067
  entropy T*S    EENTRO =        -0.25785476
  eigenvalues    EBANDS =     -2057.82437976
  atomic energy  EATOM  =     41659.78587232
  Solvation  Ediel_sol  =         0.00000000
  ---------------------------------------------------
  free energy    TOTEN  =      -188.84613831 eV

  energy without entropy =     -188.58828355  energy(sigma->0) =     -188.71721093


--------------------------------------------------------------------------------------------------------




----------------------------------------- Iteration    1(  23)  ---------------------------------------


    POTLOK:  cpu time    0.0432: real time    0.0433
    SETDIJ:  cpu time    0.0054: real time    0.0054
    EDDIAG:  cpu time    1.4098: real time    1.4140
  RMM-DIIS:  cpu time    4.6622: real time    4.7390
    ORTHCH:  cpu time    0.3600: real time    0.3609
       DOS:  cpu time    0.0015: real time    0.0015
    CHARGE:  cpu time    0.2185: real time    0.2191
    MIXING:  cpu time    0.0043: real time    0.0043
    --------------------------------------------
      LOOP:  cpu time    6.7057: real time    6.7906

 eigenvalue-minimisations  :  3683
 total energy-change (2. order) :-0.1608336E-03  (-0.2243555E-04)
 number of electron     503.9998362 magnetization 
 augmentation part      197.0767896 magnetization 

 DIPCOR: dipole corrections for dipol
 direction  3 min pos     1,
 dipolmoment           0.000000      0.000000     -0.016339 electrons x Angstroem
 Tr[quadrupol]    -10284.000912

 energy correction for charged system         0.000000 eV
 dipol+quadrupol energy correction           -0.000009 eV
[...]
    275       1.7189      0.00000
    276       1.8286      0.00000
    277       2.1786      0.00000
    278       2.2136      0.00000
    279       2.3119      0.00000
    280       2.3767      0.00000
    281       2.4274      0.00000
    282       2.5393      0.00000
    283       2.6971      0.00000
    284       2.9711      0.00000
    285       3.1147      0.00000
    286       3.2552      0.00000
    287       3.5393      0.00000
    288       3.5948      0.00000
    289       3.7887      0.00000
    290       3.9907      0.00000
    291       4.0891      0.00000
    292       4.2161      0.00000
    293       4.4990      0.00000
    294       4.5557      0.00000
    295       4.5952      0.00000
    296       4.6281      0.00000
    297       4.7546      0.00000
    298       4.8324      0.00000
    299       4.8515      0.00000
    300       4.8936      0.00000
    301       4.9673      0.00000
    302       5.0332      0.00000
    303       5.0669      0.00000
    304       5.0835      0.00000
    305       5.2404      0.00000
    306       5.2638      0.00000


--------------------------------------------------------------------------------------------------------


 soft charge-density along one line, spin component           1
         0         1         2         3         4         5         6         7         8         9
 total charge-density along one line
 
 pseudopotential strength for first ion, spin component:           1
 -7.996   0.001   0.001  -0.002   0.001  -8.144   0.001   0.001
  0.001  -7.914  -0.000  -0.001  -0.002   0.001  -8.063  -0.000
  0.001  -0.000  -7.909  -0.001   0.003   0.001  -0.000  -8.059
 -0.002  -0.001  -0.001  -7.918   0.003  -0.002  -0.001  -0.001
  0.001  -0.002   0.003   0.003  -7.995   0.001  -0.002   0.003
 -8.144   0.001   0.001  -0.002   0.001  -8.276   0.001   0.001
  0.001  -8.063  -0.000  -0.001  -0.002   0.001  -8.197  -0.000
  0.001  -0.000  -8.059  -0.001   0.003   0.001  -0.000  -8.193
 -0.002  -0.001  -0.001  -8.067   0.003  -0.002  -0.001  -0.001
  0.001  -0.002   0.003   0.003  -8.143   0.001  -0.002   0.003
  0.000   0.000  -0.025  -0.001   0.002   0.000   0.000  -0.025
  0.000   0.000  -0.036  -0.002   0.003   0.000   0.000  -0.036
  0.003  -0.004   0.000   0.000   0.001   0.003  -0.004   0.000
  0.000  -0.001  -0.006   0.004  -0.000   0.000  -0.001  -0.006
 -0.001   0.000  -0.002  -0.004   0.004  -0.001   0.000  -0.002
  0.004  -0.004   0.000   0.000   0.001   0.004  -0.004   0.000
  0.000  -0.001  -0.007   0.004  -0.000   0.000  -0.001  -0.006
 -0.001   0.000  -0.002  -0.004   0.005  -0.001   0.000  -0.002
 total augmentation occupancy for first ion, spin component:           1
  3.900  -0.010   0.014   0.017   0.027  -2.115   0.010  -0.007  -0.049  -0.016  -0.008   0.010   0.010  -0.009  -0.025   0.003
 -0.010   4.142  -0.057   0.020   0.024   0.010  -1.864   0.053  -0.020  -0.055   0.014  -0.018  -0.191   0.012  -0.002   0.004
  0.014  -0.057   4.271   0.027  -0.133  -0.008   0.053  -2.157  -0.043   0.141   0.910  -0.070   0.009  -0.209   0.017  -0.000
  0.017   0.020   0.027   4.058   0.015  -0.048  -0.020  -0.043  -1.795   0.015   0.036   0.021  -0.003  -0.007  -0.150   0.000
  0.027   0.024  -0.133   0.015   4.182  -0.016  -0.056   0.141   0.015  -2.378  -0.118   0.046  -0.022   0.018  -0.053   0.002
 -2.115   0.010  -0.008  -0.048  -0.016   2.205  -0.010   0.001   0.071   0.007   0.010  -0.009  -0.014   0.006   0.024  -0.000
  0.010  -1.864   0.053  -0.020  -0.056  -0.010   1.560  -0.050   0.019   0.078  -0.014   0.016   0.180  -0.009   0.000  -0.006
 -0.007   0.053  -2.157  -0.043   0.141   0.001  -0.050   1.990   0.054  -0.146  -0.854   0.089  -0.008   0.214  -0.012   0.000
 -0.049  -0.020  -0.043  -1.795   0.015   0.071   0.019   0.054   1.503  -0.038  -0.036  -0.014   0.001   0.003   0.142  -0.000
 -0.016  -0.055   0.141   0.015  -2.378   0.007   0.078  -0.146  -0.038   2.454   0.107  -0.045   0.020  -0.017   0.042  -0.001
 -0.008   0.014   0.910   0.036  -0.118   0.010  -0.014  -0.854  -0.036   0.107   2.338  -0.453   0.001   0.120   0.004  -0.000
  0.010  -0.018  -0.070   0.021   0.046  -0.009   0.016   0.089  -0.014  -0.045  -0.453   0.129   0.002  -0.056  -0.016  -0.000
  0.010  -0.191   0.009  -0.003  -0.022  -0.014   0.180  -0.008   0.001   0.020   0.001   0.002   0.178  -0.001   0.001  -0.005
 -0.009   0.012  -0.209  -0.007   0.018   0.006  -0.009   0.214   0.003  -0.017   0.120  -0.056  -0.001   0.088  -0.004   0.000
 -0.025  -0.002   0.017  -0.150  -0.053   0.024   0.000  -0.012   0.142   0.042   0.004  -0.016   0.001  -0.004   0.188  -0.000
  0.003   0.004  -0.000   0.000   0.002  -0.000  -0.006   0.000  -0.000  -0.001  -0.000  -0.000  -0.005   0.000  -0.000   0.000
  0.000  -0.002   0.000   0.005  -0.000  -0.000   0.001  -0.006  -0.002   0.000  -0.008   0.003   0.000  -0.003   0.000  -0.000
  0.000   0.000  -0.002   0.004   0.006  -0.001  -0.000   0.001  -0.006  -0.002  -0.000   0.001  -0.000   0.000  -0.006   0.000


------------------------ aborting loop because EDIFF is reached ----------------------------------------


    CHARGE:  cpu time    0.2129: real time    0.2134
    FORLOC:  cpu time    0.0159: real time    0.0159
    FORNL :  cpu time    1.6854: real time    1.6900
    FORCOR:  cpu time    0.0579: real time    0.0593
    FORHAR:  cpu time    0.0247: real time    0.0248
    MIXING:  cpu time    0.0034: real time    0.0034
    OFIELD:  cpu time    0.0000: real time    0.0000

 VOLUME and BASIS-vectors are now :
 -----------------------------------------------------------------------------
  energy-cutoff  :      400.00
  volume of cell :     2567.68
      direct lattice vectors                 reciprocal lattice vectors
    11.002581515  0.000000000  0.000000000     0.090887761 -0.052474073  0.000000000
     5.501290758  9.528515099  0.000000000     0.000000000  0.104948147  0.000000000
     0.000000000  0.000000000 24.491785094     0.000000000  0.000000000  0.040830017

  length of vectors
    11.002581515 11.002581515 24.491785094     0.104948147  0.104948147  0.040830017


 FORCES acting on ions
    electron-ion (+dipol)            ewald-force                    non-local-force                 convergence-correction
 -----------------------------------------------------------------------------------------------
   0.709E+01 -.172E+01 0.228E+04   -.792E+01 0.187E+01 -.228E+04   0.828E+00 -.155E+00 -.366E-01   -.782E-03 -.836E-03 0.237E-02
   0.817E+00 0.357E+01 0.222E+04   -.787E+00 -.310E+01 -.222E+04   -.367E-01 -.469E+00 -.409E+00   0.427E-02 0.217E-03 0.623E-04
   0.549E+01 0.267E+01 -.225E+04   -.586E+01 -.305E+01 0.225E+04   0.392E+00 0.389E+00 0.365E+00   -.321E-02 -.275E-02 -.484E-03
   0.107E+02 0.126E+01 0.224E+04   -.116E+02 -.137E+01 -.224E+04   0.946E+00 0.112E+00 -.293E+00   0.663E-03 -.331E-02 -.774E-04
   0.641E+01 -.143E+02 -.230E+04   -.655E+01 0.149E+02 0.230E+04   0.150E+00 -.663E+00 0.943E-01   -.242E-02 0.668E-02 0.367E-02
   0.625E+01 0.289E+01 0.189E+02   -.536E+01 -.277E+01 -.183E+02   -.889E+00 -.114E+00 -.576E+00   0.108E-02 0.515E-02 0.129E-01
   0.864E+01 -.127E+02 -.224E+04   -.915E+01 0.136E+02 0.224E+04   0.507E+00 -.966E+00 0.434E+00   0.387E-02 -.186E-02 0.354E-02
   0.134E+02 0.599E+01 -.226E+04   -.139E+02 -.630E+01 0.225E+04   0.531E+00 0.309E+00 0.439E+00   0.398E-02 -.838E-02 0.149E-02
   -.104E+02 -.474E+01 0.373E+02   0.102E+02 0.497E+01 -.368E+02   0.194E+00 -.219E+00 -.555E+00   0.632E-02 -.309E-02 0.110E-01
   -.143E+02 -.517E+01 0.231E+04   0.149E+02 0.523E+01 -.231E+04   -.615E+00 -.688E-01 -.604E-01   0.983E-03 0.113E-02 0.580E-02
   -.192E+01 0.689E+01 0.413E+02   0.164E+01 -.712E+01 -.402E+02   0.267E+00 0.211E+00 -.110E+01   0.451E-02 0.240E-02 0.145E-01
   -.267E+01 0.955E+01 0.228E+04   0.260E+01 -.964E+01 -.228E+04   0.687E-01 0.928E-01 -.711E-02   0.187E-02 0.262E-02 0.256E-02
   -.112E+01 -.442E+01 0.161E+02   0.169E+01 0.423E+01 -.156E+02   -.567E+00 0.186E+00 -.483E+00   -.296E-02 0.127E-02 0.332E-02
   0.643E+01 0.434E+01 0.766E+01   -.657E+01 -.475E+01 -.711E+01   0.128E+00 0.405E+00 -.558E+00   0.133E-02 0.712E-03 0.281E-02
   -.690E+01 -.116E+02 0.229E+04   0.743E+01 0.121E+02 -.229E+04   -.530E+00 -.480E+00 0.106E-01   0.224E-04 0.115E-02 0.286E-02
   0.279E+01 -.631E+01 -.221E+04   -.322E+01 0.666E+01 0.221E+04   0.417E+00 -.354E+00 0.636E+00   -.173E-02 0.119E-02 0.354E-02
   -.117E+02 0.205E+01 -.228E+04   0.126E+02 -.208E+01 0.228E+04   -.925E+00 0.328E-01 0.176E-01   -.395E-02 0.286E-02 0.363E-02
   -.517E+01 0.122E+02 -.230E+04   0.479E+01 -.133E+02 0.230E+04   0.377E+00 0.105E+01 -.417E-02   -.452E-02 0.976E-03 0.244E-02
   0.426E+01 0.716E+00 0.262E+01   -.399E+01 -.520E+00 -.209E+01   -.269E+00 -.199E+00 -.542E+00   -.286E-02 0.150E-02 0.717E-02
   -.362E+00 -.616E+01 -.167E+02   0.612E-01 0.633E+01 0.156E+02   0.317E+00 -.161E+00 0.112E+01   -.625E-02 -.156E-02 0.639E-02
   -.104E+02 0.557E+01 -.224E+04   0.116E+02 -.596E+01 0.224E+04   -.115E+01 0.394E+00 0.342E+00   -.420E-02 -.309E-03 0.387E-02
   0.663E+01 0.553E+01 0.230E+04   -.644E+01 -.571E+01 -.230E+04   -.183E+00 0.184E+00 0.619E-01   -.228E-02 0.200E-02 0.107E-02
   0.690E+01 -.133E+00 0.224E+04   -.671E+01 -.633E+00 -.224E+04   -.183E+00 0.759E+00 -.303E+00   0.149E-02 0.140E-02 0.238E-03
   0.146E+02 0.726E+01 -.308E+02   -.147E+02 -.697E+01 0.302E+02   0.151E+00 -.291E+00 0.607E+00   0.122E-02 0.288E-02 0.606E-02
   -.117E+02 0.259E+01 0.198E+04   0.121E+02 -.230E+01 -.197E+04   -.379E+00 -.278E+00 -.134E+01   0.109E-02 -.435E-04 0.400E-02
   -.197E+01 -.470E+01 0.197E+04   0.175E+01 0.445E+01 -.197E+04   0.214E+00 0.245E+00 -.170E+01   -.969E-03 0.107E-03 0.681E-02
   0.473E+01 -.680E+01 -.671E+00   -.474E+01 0.680E+01 0.635E+00   0.588E-02 0.118E-01 0.162E-01   0.724E-03 -.932E-03 0.527E-02
   0.627E+01 0.250E+01 -.197E+04   -.616E+01 -.256E+01 0.196E+04   -.981E-01 0.600E-01 0.153E+01   -.333E-02 0.143E-02 0.205E-02
   0.601E+01 -.433E+01 0.198E+04   -.569E+01 0.443E+01 -.198E+04   -.313E+00 -.112E+00 -.156E+01   -.213E-02 -.237E-03 0.150E-02
   -.453E+01 0.256E+01 -.276E+02   0.416E+01 -.212E+01 0.267E+02   0.370E+00 -.445E+00 0.925E+00   -.256E-02 -.601E-02 0.102E-01
   -.797E+01 -.829E+00 -.200E+04   0.818E+01 0.110E+01 0.200E+04   -.199E+00 -.276E+00 0.141E+01   -.314E-02 0.554E-02 0.393E-02
   -.540E+01 -.315E+01 -.111E+02   0.483E+01 0.350E+01 0.111E+02   0.563E+00 -.356E+00 0.357E-01   -.241E-02 0.313E-02 0.795E-02
   0.293E+01 -.276E+01 -.546E+01   -.252E+01 0.289E+01 0.509E+01   -.407E+00 -.129E+00 0.374E+00   -.352E-03 -.101E-02 0.880E-02
   -.394E+01 0.250E+00 0.414E+01   0.433E+01 -.875E+00 -.414E+01   -.383E+00 0.634E+00 -.910E-02   -.364E-03 -.697E-03 0.786E-02
   -.118E+01 0.600E+01 -.116E+02   0.191E+01 -.577E+01 0.111E+02   -.731E+00 -.223E+00 0.453E+00   0.193E-02 -.581E-02 0.495E-02
   0.840E+00 -.830E+00 -.410E+01   -.120E+01 0.815E+00 0.412E+01   0.359E+00 0.717E-02 -.155E-01   -.495E-03 -.373E-03 0.835E-02
   0.958E+01 -.376E+01 0.199E+04   -.101E+02 0.376E+01 -.199E+04   0.465E+00 -.137E-01 -.130E+01   0.146E-02 0.719E-03 -.184E-03
   -.977E+01 -.656E+01 0.195E+04   0.984E+01 0.686E+01 -.195E+04   -.713E-01 -.293E+00 -.196E+01   -.229E-02 -.419E-02 0.621E-02
   0.795E+01 -.214E+01 -.199E+04   -.814E+01 0.203E+01 0.199E+04   0.200E+00 0.120E+00 0.126E+01   0.366E-02 -.278E-02 0.852E-03
   0.329E+00 -.629E+01 0.199E+04   -.630E-01 0.643E+01 -.199E+04   -.265E+00 -.143E+00 -.129E+01   0.807E-03 -.490E-04 0.166E-02
   0.718E+01 -.109E+02 -.198E+04   -.745E+01 0.111E+02 0.198E+04   0.261E+00 -.275E+00 0.183E+01   0.372E-02 0.428E-02 0.512E-02
   -.775E+01 0.785E+00 -.379E+01   0.695E+01 -.137E+01 0.378E+01   0.784E+00 0.573E+00 -.445E-02   0.177E-02 0.266E-02 0.103E-01
   -.601E+01 0.701E+01 0.198E+04   0.638E+01 -.738E+01 -.198E+04   -.371E+00 0.363E+00 -.172E+01   -.488E-02 -.337E-03 0.131E-02
   -.669E+01 0.109E+02 -.199E+04   0.648E+01 -.111E+02 0.199E+04   0.221E+00 0.184E+00 0.158E+01   0.323E-02 -.498E-02 0.174E-02
   -.680E+01 0.144E+00 -.200E+04   0.696E+01 -.258E+00 0.199E+04   -.157E+00 0.104E+00 0.169E+01   0.172E-02 0.233E-02 0.437E-02
   -.107E+02 0.539E+01 -.200E+04   0.111E+02 -.544E+01 0.200E+04   -.395E+00 0.545E-01 0.143E+01   0.443E-02 -.356E-02 0.254E-02
   0.439E+01 0.133E+02 0.195E+04   -.495E+01 -.135E+02 -.195E+04   0.552E+00 0.262E+00 -.192E+01   -.118E-03 -.300E-03 0.163E-02
   -.122E+01 -.179E+01 -.199E+04   0.134E+01 0.185E+01 0.198E+04   -.124E+00 -.611E-01 0.139E+01   0.197E-02 -.372E-04 0.317E-02
 -----------------------------------------------------------------------------------------------
   -.401E-01 -.287E-01 -.565E+00   -.293E-12 -.666E-13 0.000E+00   0.308E-01 0.340E-02 0.305E+00   -.636E-04 0.912E-03 0.211E+00
 
 
 POSITION                                       TOTAL-FORCE (eV/Angst)
 -----------------------------------------------------------------------------------
      1.34586      0.79360      9.71220         0.000032      0.000510      0.004606
     13.75163      7.94281      9.77944        -0.002312      0.004015     -0.009397
     10.98798      4.74913     14.77484         0.015569     -0.001226      0.009523
     12.34093      5.54981      9.77236        -0.001130      0.004027      0.012128
      8.24655      0.02997     14.81178         0.000884     -0.000932     -0.005260
      8.27136      1.59832     12.23368         0.007473      0.003497     -0.003691
      9.60833      7.17630     14.73491         0.006037      0.012652     -0.001010
      8.22712      4.75200     14.74297        -0.005241     -0.001797     -0.002725
      6.88564      3.98382     12.21561        -0.001901      0.006306     -0.005131
      8.28450      3.18239      9.65677        -0.002811     -0.008421     -0.001117
      5.49577      1.57298     12.21357        -0.004932     -0.017011     -0.009196
      6.87216      0.78741      9.68116         0.001168      0.010204      0.002532
      6.90115      8.73673     12.23708         0.000313     -0.002033      0.003657
      5.49838      6.34609     12.24376        -0.010412     -0.005847     -0.003273
      6.89733      5.57437      9.68715         0.000278      0.004964     -0.005718
     12.37550      7.16563     14.71350        -0.010019     -0.006702      0.015550
      4.15389      7.14298     14.80192        -0.002925      0.003388      0.005860
      1.37262      2.34184     14.81705        -0.000745      0.010034      0.001197
      2.75660      1.59684     12.25190        -0.001667     -0.001638     -0.009375
     12.36575      3.99049     12.25318         0.009463      0.003078      0.008544
      2.78190      4.73764     14.74749        -0.008310      0.001131      0.004681
      4.11314      0.77988      9.66356         0.005371      0.003871     -0.005187
      4.12173      5.53251      9.75524         0.006212     -0.005714     -0.001946
     15.12352      8.74362     12.27474         0.007587      0.001590     -0.010732
      9.63026      0.79554      9.86671        -0.005955      0.006460     -0.008415
     10.99638      3.16970      9.88509        -0.006945     -0.005654      0.005855
      4.11655      3.98434     12.24818        -0.004907      0.011832     -0.013233
      9.62215      2.37270     14.61205         0.004178      0.006158      0.012050
      2.74720      3.16689      9.86357         0.010423     -0.011011     -0.011688
     11.00111      6.36944     12.27658         0.002401     -0.004481     -0.003056
      0.00844     -0.00209     14.64878         0.001041     -0.000887      0.002539
     11.01290      1.60803     12.26140        -0.009535     -0.003001      0.005995
      9.63574      3.99192     12.25371        -0.005473     -0.002574      0.007130
      9.64108      8.71612     12.24807         0.010325      0.008585      0.001580
      8.28775      6.35015     12.26251         0.001352     -0.002446     -0.006751
     13.73719      6.35949     12.25024         0.002104     -0.007932      0.014140
      5.49839      3.17315      9.82666        -0.003119     -0.007186     -0.009602
      9.62444      5.56816      9.91827        -0.001357      0.003683     -0.007084
      6.86060      2.37930     14.61293         0.014343      0.003967      0.004780
      5.50706      7.93844      9.85163         0.002511     -0.000528     -0.001294
      5.49014      0.02374     14.61129        -0.004774     -0.005031      0.003631
     12.36843      8.72137     12.25298        -0.010126     -0.006476     -0.002836
      8.26230      7.93093      9.86801        -0.004525     -0.004376     -0.003606
      5.50385      4.75023     14.62687         0.010584      0.002479     -0.006093
      2.74787     -0.00051     14.62410         0.003522     -0.006492      0.010308
      4.15049      2.36543     14.63003        -0.007680      0.001240      0.000226
     10.97858      7.93406      9.90816        -0.009813      0.003300     -0.002380
      6.87697      7.15365     14.61918         0.003444      0.002424      0.013284
 -----------------------------------------------------------------------------------
    total drift:                               -0.009381     -0.024372     -0.049208


--------------------------------------------------------------------------------------------------------



  FREE ENERGIE OF THE ION-ELECTRON SYSTEM (eV)
  ---------------------------------------------------
  free  energy   TOTEN  =      -192.43318291 eV

  energy  without entropy=     -192.19755509  energy(sigma->0) =     -192.31536900
 
 d Force = 0.8386092E-03[ 0.438E-03, 0.124E-02]  d Energy = 0.8290318E-03 0.958E-05
 d Force =-0.1964952E+02[-0.195E+02,-0.198E+02]  d Ewald  =-0.1964953E+02 0.785E-05


--------------------------------------------------------------------------------------------------------


    POTLOK:  cpu time    0.0498: real time    0.0499


--------------------------------------------------------------------------------------------------------


 stress matrix after NEB project (eV)
      0.00000      0.00000      0.00000
      0.00000      0.00000      0.00000
      0.00000      0.00000      0.00000
  FORCES: max atom, RMS     0.019957    0.011591
  FORCE total and by dimension    0.080306    0.017011
  Stress total and by dimension    0.000000    0.000000
 Conjugate gradient step on ions:
 trial-energy change:   -0.000829  1 .order   -0.000839   -0.001239   -0.000438
  (g-gl).g = 0.544E-03      g.g   = 0.468E-03  gl.gl    = 0.712E-03
 g(Force)  = 0.468E-03   g(Stress)= 0.000E+00 ortho     = 0.372E-04
 gamma     =   0.76327
 trial     =   2.49671
 opt step  =   4.04006  (harmonic =   3.86098) maximal distance =0.01212648
 next E    =  -192.433316   (d E  =  -0.00096)


--------------------------------------------------------------------------------------------------------


  
 reached required accuracy - stopping structural energy minimisation
     LOOP+:  cpu time   81.3633: real time   81.8762
    4ORBIT:  cpu time    0.0000: real time    0.0000

 total amount of memory used by VASP on root node    84353. kBytes
========================================================================

   base      :      30000. kBytes
   nonlr-proj:       4285. kBytes
   fftplans  :       4447. kBytes
   grid      :       6721. kBytes
   one-center:        124. kBytes
   wavefun   :      38776. kBytes
 
  
  
 General timing and accounting informations for this job:
 ========================================================
  
                  Total CPU time used (sec):     2111.965
                            User time (sec):     2024.219
                          System time (sec):       87.746
                         Elapsed time (sec):     2125.427
  
                   Maximum memory used (kb):      899592.
                   Average memory used (kb):           0.
  
                          Minor page faults:       889507
                          Major page faults:            0
                 Voluntary context switches:        11804
