       N       E                     dE             d eps       ncg     rms          rms(c)
DAV:   1     0.320177526776E+04    0.32018E+04   -0.18982E+05  3672   0.112E+03
DAV:   2     0.140330243763E+02   -0.31877E+04   -0.29317E+04  4392   0.263E+02
DAV:   3    -0.200421892043E+03   -0.21445E+03   -0.19963E+03  4152   0.651E+01
DAV:   4    -0.206168372827E+03   -0.57465E+01   -0.56794E+01  4236   0.108E+01
DAV:   5    -0.206357163283E+03   -0.18879E+00   -0.18809E+00  4416   0.198E+00    0.623E+01
RMM:   6    -0.200916674415E+03    0.54405E+01   -0.90854E+01  3679   0.151E+01    0.540E+01
RMM:   7    -0.215753994109E+03   -0.14837E+02   -0.63884E+01  3683   0.130E+01    0.490E+01
RMM:   8    -0.225338455076E+03   -0.95845E+01   -0.90894E+01  3678   0.143E+01    0.459E+01
RMM:   9    -0.210938988026E+03    0.14399E+02   -0.54251E+01  3680   0.115E+01    0.345E+01
RMM:  10    -0.196711890922E+03    0.14227E+02   -0.19464E+01  3682   0.735E+00    0.202E+01
RMM:  11    -0.192583538786E+03    0.41284E+01   -0.12641E+01  3681   0.566E+00    0.133E+01
RMM:  12    -0.189897152640E+03    0.26864E+01   -0.49816E+00  3681   0.344E+00    0.962E+00
RMM:  13    -0.189271742872E+03    0.62541E+00   -0.15713E+00  3681   0.196E+00    0.619E+00
RMM:  14    -0.189445545450E+03   -0.17380E+00   -0.72210E-01  3681   0.127E+00    0.715E+00
RMM:  15    -0.189451159603E+03   -0.56142E-02   -0.47659E-01  3681   0.109E+00    0.632E+00
RMM:  16    -0.189163177006E+03    0.28798E+00   -0.27079E-01  3680   0.813E-01    0.372E+00
RMM:  17    -0.189084697450E+03    0.78480E-01   -0.16718E-01  3678   0.630E-01    0.305E+00
RMM:  18    -0.189008918299E+03    0.75779E-01   -0.78559E-02  3679   0.432E-01    0.179E+00
RMM:  19    -0.188975985607E+03    0.32933E-01   -0.26448E-02  3682   0.241E-01    0.992E-01
RMM:  20    -0.188968778220E+03    0.72074E-02   -0.91234E-03  3681   0.142E-01    0.727E-01
RMM:  21    -0.188965323389E+03    0.34548E-02   -0.33044E-03  3682   0.859E-02    0.540E-01
RMM:  22    -0.188963001450E+03    0.23219E-02   -0.22884E-03  3683   0.713E-02    0.388E-01
RMM:  23    -0.188961603500E+03    0.13980E-02   -0.20721E-03  3680   0.657E-02    0.242E-01
RMM:  24    -0.188961134374E+03    0.46913E-03   -0.86714E-04  3680   0.432E-02    0.917E-02
RMM:  25    -0.188961284998E+03   -0.15062E-03   -0.30359E-04  3684   0.252E-02    0.714E-02
RMM:  26    -0.188961680716E+03   -0.39572E-03   -0.22064E-04  3680   0.202E-02    0.691E-02
RMM:  27    -0.188961928901E+03   -0.24819E-03   -0.60941E-05  3677   0.119E-02    0.370E-02
RMM:  28    -0.188962513555E+03   -0.58465E-03   -0.45965E-05  3672   0.924E-03    0.310E-02
RMM:  29    -0.188963038938E+03   -0.52538E-03   -0.32597E-05  3672   0.817E-03    0.192E-02
RMM:  30    -0.188963802464E+03   -0.76353E-03   -0.43284E-05  3672   0.886E-03    0.139E-02
RMM:  31    -0.188964275558E+03   -0.47309E-03   -0.30717E-05  3539   0.729E-03    0.141E-02
RMM:  32    -0.188964507214E+03   -0.23166E-03   -0.15848E-05  3064   0.494E-03    0.685E-03
RMM:  33    -0.188964612288E+03   -0.10507E-03   -0.46658E-06  2652   0.272E-03    0.682E-03
RMM:  34    -0.188964706093E+03   -0.93805E-04   -0.24360E-06  2400   0.219E-03    0.241E-03
RMM:  35    -0.188964771509E+03   -0.65416E-04   -0.11960E-06  2187   0.150E-03    0.245E-03
RMM:  36    -0.188964801512E+03   -0.30003E-04   -0.59338E-07  2135   0.106E-03    0.139E-03
RMM:  37    -0.188964831119E+03   -0.29608E-04   -0.48773E-07  2139   0.103E-03    0.116E-03
RMM:  38    -0.188964843135E+03   -0.12016E-04   -0.26100E-07  1779   0.724E-04    0.971E-04
RMM:  39    -0.188964848038E+03   -0.49021E-05   -0.15203E-07  1516   0.554E-04    0.501E-04
RMM:  40    -0.188964849431E+03   -0.13936E-05   -0.49929E-08  1008   0.387E-04    0.359E-04
RMM:  41    -0.188964850046E+03   -0.61493E-06   -0.23646E-08   811   0.347E-04
   1 F= -.18896485E+03 E0= -.18882181E+03  d E =-.188965E+03
       N       E                     dE             d eps       ncg     rms          rms(c)
DAV:   1    -0.190004948408E+03   -0.10401E+01   -0.35333E+02  3672   0.288E+01    0.360E+00
RMM:   2    -0.190374462589E+03   -0.36951E+00   -0.37495E+00  3680   0.418E+00    0.226E+00
RMM:   3    -0.190556554753E+03   -0.18209E+00   -0.40915E-01  3707   0.110E+00    0.480E+00
RMM:   4    -0.190351213314E+03    0.20534E+00   -0.15995E-01  3687   0.674E-01    0.133E+00
RMM:   5    -0.190375760938E+03   -0.24548E-01   -0.84864E-02  3682   0.462E-01    0.188E+00
RMM:   6    -0.190344700788E+03    0.31060E-01   -0.42901E-02  3686   0.337E-01    0.668E-01
RMM:   7    -0.190343672551E+03    0.10282E-02   -0.11519E-02  3683   0.167E-01    0.624E-01
RMM:   8    -0.190341307646E+03    0.23649E-02   -0.48320E-03  3685   0.103E-01    0.507E-01
RMM:   9    -0.190338719670E+03    0.25880E-02   -0.21158E-03  3684   0.723E-02    0.157E-01
RMM:  10    -0.190338687020E+03    0.32650E-04   -0.77963E-04  3686   0.439E-02    0.113E-01
RMM:  11    -0.190338562419E+03    0.12460E-03   -0.23581E-04  3685   0.244E-02    0.573E-02
RMM:  12    -0.190338560401E+03    0.20180E-05   -0.50384E-05  3683   0.113E-02    0.470E-02
RMM:  13    -0.190338552607E+03    0.77939E-05   -0.26198E-05  3675   0.851E-03    0.266E-02
RMM:  14    -0.190338548218E+03    0.43883E-05   -0.12321E-05  3549   0.570E-03    0.123E-02
RMM:  15    -0.190338548188E+03    0.30515E-07   -0.32759E-06  2568   0.300E-03
   2 F= -.19033855E+03 E0= -.19019873E+03  d E =-.137370E+01
       N       E                     dE             d eps       ncg     rms          rms(c)
DAV:   1    -0.189119366097E+03    0.12192E+01   -0.33072E+03  3672   0.904E+01    0.871E+00
RMM:   2    -0.192369445613E+03   -0.32501E+01   -0.32907E+01  3680   0.125E+01    0.574E+00
RMM:   3    -0.193226280439E+03   -0.85683E+00   -0.26886E+00  3711   0.281E+00    0.110E+01
RMM:   4    -0.192170393165E+03    0.10559E+01   -0.88452E-01  3685   0.160E+00    0.407E+00
RMM:   5    -0.192425597864E+03   -0.25520E+00   -0.51476E-01  3687   0.111E+00    0.595E+00
RMM:   6    -0.192389541530E+03    0.36056E-01   -0.48756E-01  3685   0.104E+00    0.532E+00
RMM:   7    -0.192064010506E+03    0.32553E+00   -0.30086E-01  3680   0.859E-01    0.132E+00
RMM:   8    -0.192042651170E+03    0.21359E-01   -0.55493E-02  3681   0.368E-01    0.853E-01
RMM:   9    -0.192034779993E+03    0.78712E-02   -0.20480E-02  3685   0.223E-01    0.489E-01
RMM:  10    -0.192033563075E+03    0.12169E-02   -0.66189E-03  3682   0.126E-01    0.366E-01
RMM:  11    -0.192032551990E+03    0.10111E-02   -0.23124E-03  3684   0.766E-02    0.170E-01
RMM:  12    -0.192032483837E+03    0.68154E-04   -0.74325E-04  3686   0.433E-02    0.144E-01
RMM:  13    -0.192032351942E+03    0.13189E-03   -0.31078E-04  3679   0.289E-02    0.752E-02
RMM:  14    -0.192032339889E+03    0.12053E-04   -0.11958E-04  3679   0.176E-02    0.504E-02
RMM:  15    -0.192032320793E+03    0.19096E-04   -0.41867E-05  3676   0.104E-02    0.179E-02
RMM:  16    -0.192032328086E+03   -0.72921E-05   -0.84497E-06  3291   0.464E-03    0.129E-02
RMM:  17    -0.192032331252E+03   -0.31670E-05   -0.26592E-06  2391   0.272E-03    0.765E-03
RMM:  18    -0.192032339260E+03   -0.80078E-05   -0.11069E-06  2105   0.182E-03    0.549E-03
RMM:  19    -0.192032344946E+03   -0.56860E-05   -0.59998E-07  2076   0.136E-03    0.257E-03
RMM:  20    -0.192032349529E+03   -0.45824E-05   -0.22567E-07  1810   0.733E-04    0.182E-03
RMM:  21    -0.192032353263E+03   -0.37343E-05   -0.11823E-07  1329   0.564E-04    0.926E-04
RMM:  22    -0.192032359718E+03   -0.64549E-05   -0.19032E-07  1718   0.576E-04    0.113E-03
RMM:  23    -0.192032366231E+03   -0.65128E-05   -0.27800E-07  1622   0.616E-04    0.901E-04
RMM:  24    -0.192032370836E+03   -0.46055E-05   -0.28585E-07  1617   0.601E-04    0.473E-04
RMM:  25    -0.192032372137E+03   -0.13012E-05   -0.94303E-08  1072   0.417E-04    0.478E-04
RMM:  26    -0.192032373174E+03   -0.10363E-05   -0.90685E-08  1027   0.410E-04    0.375E-04
RMM:  27    -0.192032373593E+03   -0.41903E-06   -0.51435E-08   831   0.377E-04
   3 F= -.19203237E+03 E0= -.19190305E+03  d E =-.306752E+01
       N       E                     dE             d eps       ncg     rms          rms(c)
DAV:   1    -0.192022483237E+03    0.98899E-02   -0.26855E+01  3732   0.790E+00    0.687E-01
RMM:   2    -0.192052951487E+03   -0.30468E-01   -0.29753E-01  3683   0.118E+00    0.647E-01
RMM:   3    -0.192056826678E+03   -0.38752E-02   -0.25245E-02  3717   0.281E-01    0.936E-01
RMM:   4    -0.192049660406E+03    0.71663E-02   -0.57023E-03  3687   0.130E-01    0.318E-01
RMM:   5    -0.192053481644E+03   -0.38212E-02   -0.40262E-03  3685   0.965E-02    0.671E-01
RMM:   6    -0.192050499795E+03    0.29818E-02   -0.42697E-03  3683   0.998E-02    0.404E-01
RMM:   7    -0.192049052727E+03    0.14471E-02   -0.19945E-03  3682   0.717E-02    0.132E-01
RMM:   8    -0.192048934804E+03    0.11792E-03   -0.44882E-04  3680   0.337E-02    0.986E-02
RMM:   9    -0.192048828378E+03    0.10643E-03   -0.17605E-04  3683   0.208E-02    0.492E-02
RMM:  10    -0.192048805872E+03    0.22506E-04   -0.89139E-05  3684   0.145E-02    0.317E-02
RMM:  11    -0.192048794793E+03    0.11079E-04   -0.26350E-05  3676   0.796E-03    0.118E-02
RMM:  12    -0.192048795209E+03   -0.41586E-06   -0.34641E-06  2583   0.311E-03
   4 F= -.19204880E+03 E0= -.19192045E+03  d E =-.308395E+01
       N       E                     dE             d eps       ncg     rms          rms(c)
DAV:   1    -0.192155296157E+03   -0.10650E+00   -0.26320E+02  3672   0.251E+01    0.218E+00
RMM:   2    -0.192444392014E+03   -0.28910E+00   -0.29780E+00  3685   0.367E+00    0.167E+00
RMM:   3    -0.192528449402E+03   -0.84057E-01   -0.24053E-01  3702   0.837E-01    0.348E+00
RMM:   4    -0.192439196511E+03    0.89253E-01   -0.64808E-02  3687   0.423E-01    0.146E+00
RMM:   5    -0.192430902867E+03    0.82936E-02   -0.23226E-02  3684   0.237E-01    0.117E+00
RMM:   6    -0.192428810808E+03    0.20921E-02   -0.38013E-02  3684   0.305E-01    0.100E+00
RMM:   7    -0.192420056936E+03    0.87539E-02   -0.16899E-02  3682   0.207E-01    0.464E-01
RMM:   8    -0.192418873931E+03    0.11830E-02   -0.45701E-03  3682   0.107E-01    0.348E-01
RMM:   9    -0.192417265870E+03    0.16081E-02   -0.20887E-03  3681   0.728E-02    0.107E-01
RMM:  10    -0.192417175125E+03    0.90745E-04   -0.43552E-04  3681   0.324E-02    0.616E-02
RMM:  11    -0.192417133061E+03    0.42064E-04   -0.11822E-04  3684   0.167E-02    0.269E-02
RMM:  12    -0.192417137417E+03   -0.43567E-05   -0.40355E-05  3684   0.998E-03    0.285E-02
RMM:  13    -0.192417132741E+03    0.46769E-05   -0.14594E-05  3676   0.628E-03    0.137E-02
RMM:  14    -0.192417132624E+03    0.11604E-06   -0.28404E-06  2458   0.291E-03
   5 F= -.19241713E+03 E0= -.19229133E+03  d E =-.368337E+00
       N       E                     dE             d eps       ncg     rms          rms(c)
DAV:   1    -0.192413900433E+03    0.32323E-02   -0.21824E+01  3684   0.721E+00    0.573E-01
RMM:   2    -0.192438431163E+03   -0.24531E-01   -0.25015E-01  3685   0.106E+00    0.524E-01
RMM:   3    -0.192443083187E+03   -0.46520E-02   -0.19729E-02  3705   0.241E-01    0.889E-01
RMM:   4    -0.192437912149E+03    0.51710E-02   -0.46060E-03  3687   0.113E-01    0.462E-01
RMM:   5    -0.192436433363E+03    0.14788E-02   -0.15435E-03  3684   0.620E-02    0.266E-01
RMM:   6    -0.192436756983E+03   -0.32362E-03   -0.30840E-03  3682   0.868E-02    0.301E-01
RMM:   7    -0.192435983436E+03    0.77355E-03   -0.16172E-03  3683   0.641E-02    0.135E-01
RMM:   8    -0.192435887745E+03    0.95691E-04   -0.39569E-04  3683   0.316E-02    0.944E-02
RMM:   9    -0.192435766083E+03    0.12166E-03   -0.16775E-04  3682   0.207E-02    0.328E-02
RMM:  10    -0.192435754969E+03    0.11114E-04   -0.38334E-05  3679   0.958E-03    0.174E-02
RMM:  11    -0.192435751701E+03    0.32674E-05   -0.12116E-05  3672   0.523E-03    0.854E-03
RMM:  12    -0.192435752401E+03   -0.69966E-06   -0.43217E-06  2771   0.332E-03
   6 F= -.19243575E+03 E0= -.19231084E+03  d E =-.386957E+00
       N       E                     dE             d eps       ncg     rms          rms(c)
DAV:   1    -0.192447115901E+03   -0.11364E-01   -0.32679E+01  3684   0.884E+00    0.735E-01
RMM:   2    -0.192481686066E+03   -0.34570E-01   -0.36863E-01  3685   0.129E+00    0.510E-01
RMM:   3    -0.192485774217E+03   -0.40882E-02   -0.25270E-02  3703   0.278E-01    0.725E-01
RMM:   4    -0.192482305760E+03    0.34685E-02   -0.71924E-03  3687   0.140E-01    0.509E-01
RMM:   5    -0.192482815098E+03   -0.50934E-03   -0.34557E-03  3684   0.884E-02    0.547E-01
RMM:   6    -0.192481180025E+03    0.16351E-02   -0.43354E-03  3681   0.103E-01    0.358E-01
RMM:   7    -0.192479922893E+03    0.12571E-02   -0.20924E-03  3681   0.733E-02    0.112E-01
RMM:   8    -0.192479903753E+03    0.19139E-04   -0.39373E-04  3682   0.314E-02    0.116E-01
RMM:   9    -0.192479775229E+03    0.12852E-03   -0.17585E-04  3682   0.215E-02    0.571E-02
RMM:  10    -0.192479743894E+03    0.31336E-04   -0.65899E-05  3683   0.127E-02    0.266E-02
RMM:  11    -0.192479736119E+03    0.77750E-05   -0.18868E-05  3673   0.672E-03    0.132E-02
RMM:  12    -0.192479735620E+03    0.49904E-06   -0.78909E-06  3662   0.431E-03
   7 F= -.19247974E+03 E0= -.19235546E+03  d E =-.439832E-01
       N       E                     dE             d eps       ncg     rms          rms(c)
DAV:   1    -0.192479174681E+03    0.56144E-03   -0.30396E+00  3732   0.269E+00    0.217E-01
RMM:   2    -0.192482366694E+03   -0.31920E-02   -0.34324E-02  3685   0.395E-01    0.144E-01
RMM:   3    -0.192482641971E+03   -0.27528E-03   -0.21672E-03  3704   0.819E-02    0.196E-01
RMM:   4    -0.192482371792E+03    0.27018E-03   -0.56328E-04  3687   0.398E-02    0.132E-01
RMM:   5    -0.192482558500E+03   -0.18671E-03   -0.33554E-04  3683   0.275E-02    0.186E-01
RMM:   6    -0.192482325789E+03    0.23271E-03   -0.38922E-04  3681   0.308E-02    0.109E-01
RMM:   7    -0.192482218383E+03    0.10741E-03   -0.18151E-04  3680   0.216E-02    0.399E-02
RMM:   8    -0.192482213188E+03    0.51944E-05   -0.37795E-05  3681   0.100E-02    0.340E-02
RMM:   9    -0.192482203197E+03    0.99912E-05   -0.17107E-05  3672   0.644E-03    0.184E-02
RMM:  10    -0.192482199793E+03    0.34045E-05   -0.72301E-06  3525   0.425E-03    0.812E-03
RMM:  11    -0.192482198990E+03    0.80241E-06   -0.16009E-06  2013   0.209E-03
   8 F= -.19248220E+03 E0= -.19235815E+03  d E =-.464466E-01
       N       E                     dE             d eps       ncg     rms          rms(c)
DAV:   1    -0.192485353616E+03   -0.31538E-02   -0.59411E+00  3696   0.374E+00    0.217E-01
RMM:   2    -0.192491573830E+03   -0.62202E-02   -0.65081E-02  3683   0.547E-01    0.207E-01
RMM:   3    -0.192492221866E+03   -0.64804E-03   -0.40618E-03  3733   0.113E-01    0.302E-01
RMM:   4    -0.192491515212E+03    0.70665E-03   -0.70148E-04  3680   0.436E-02    0.177E-01
RMM:   5    -0.192491383606E+03    0.13161E-03   -0.41364E-04  3684   0.323E-02    0.155E-01
RMM:   6    -0.192491297827E+03    0.85779E-04   -0.72259E-04  3682   0.417E-02    0.143E-01
RMM:   7    -0.192491190722E+03    0.10710E-03   -0.55940E-04  3683   0.372E-02    0.806E-02
RMM:   8    -0.192491170452E+03    0.20271E-04   -0.12465E-04  3682   0.179E-02    0.545E-02
RMM:   9    -0.192491142377E+03    0.28075E-04   -0.33310E-05  3678   0.934E-03    0.310E-02
RMM:  10    -0.192491127691E+03    0.14686E-04   -0.26851E-05  3676   0.794E-03    0.198E-02
RMM:  11    -0.192491121643E+03    0.60484E-05   -0.12958E-05  3672   0.544E-03    0.945E-03
RMM:  12    -0.192491120531E+03    0.11116E-05   -0.10378E-05  3672   0.474E-03    0.518E-03
RMM:  13    -0.192491120508E+03    0.23370E-07   -0.18765E-06  1984   0.226E-03
   9 F= -.19249112E+03 E0= -.19236729E+03  d E =-.892152E-02
       N       E                     dE             d eps       ncg     rms          rms(c)
DAV:   1    -0.192490296883E+03    0.82365E-03   -0.29379E+00  3696   0.263E+00    0.150E-01
RMM:   2    -0.192493368058E+03   -0.30712E-02   -0.32132E-02  3683   0.385E-01    0.146E-01
RMM:   3    -0.192493673115E+03   -0.30506E-03   -0.20055E-03  3732   0.793E-02    0.211E-01
RMM:   4    -0.192493324986E+03    0.34813E-03   -0.33716E-04  3680   0.303E-02    0.122E-01
RMM:   5    -0.192493263456E+03    0.61530E-04   -0.19664E-04  3684   0.223E-02    0.108E-01
RMM:   6    -0.192493221686E+03    0.41771E-04   -0.35820E-04  3682   0.294E-02    0.998E-02
RMM:   7    -0.192493170972E+03    0.50714E-04   -0.28480E-04  3683   0.265E-02    0.570E-02
RMM:   8    -0.192493161791E+03    0.91809E-05   -0.62589E-05  3682   0.127E-02    0.392E-02
RMM:   9    -0.192493147405E+03    0.14386E-04   -0.16542E-05  3672   0.659E-03    0.219E-02
RMM:  10    -0.192493139694E+03    0.77111E-05   -0.14013E-05  3672   0.572E-03    0.136E-02
RMM:  11    -0.192493136901E+03    0.27924E-05   -0.63715E-06  3579   0.382E-03    0.675E-03
RMM:  12    -0.192493136376E+03    0.52510E-06   -0.52857E-06  3448   0.343E-03
  10 F= -.19249314E+03 E0= -.19236946E+03  d E =-.109374E-01
       N       E                     dE             d eps       ncg     rms          rms(c)
DAV:   1    -0.192493551075E+03   -0.41417E-03   -0.65073E+00  3672   0.392E+00    0.204E-01
RMM:   2    -0.192500351141E+03   -0.68001E-02   -0.70270E-02  3682   0.573E-01    0.213E-01
RMM:   3    -0.192500659279E+03   -0.30814E-03   -0.42276E-03  3760   0.116E-01    0.242E-01
RMM:   4    -0.192500329356E+03    0.32992E-03   -0.62000E-04  3675   0.411E-02    0.197E-01
RMM:   5    -0.192500090530E+03    0.23883E-03   -0.34166E-04  3685   0.294E-02    0.155E-01
RMM:   6    -0.192499950599E+03    0.13993E-03   -0.83946E-04  3681   0.451E-02    0.129E-01
RMM:   7    -0.192499910387E+03    0.40212E-04   -0.70379E-04  3685   0.413E-02    0.920E-02
RMM:   8    -0.192499870194E+03    0.40193E-04   -0.15682E-04  3683   0.200E-02    0.524E-02
RMM:   9    -0.192499849861E+03    0.20333E-04   -0.27210E-05  3681   0.841E-03    0.414E-02
RMM:  10    -0.192499829142E+03    0.20719E-04   -0.29568E-05  3672   0.849E-03    0.270E-02
RMM:  11    -0.192499819177E+03    0.99645E-05   -0.19817E-05  3673   0.669E-03    0.135E-02
RMM:  12    -0.192499816879E+03    0.22980E-05   -0.18824E-05  3672   0.643E-03    0.678E-03
RMM:  13    -0.192499816801E+03    0.77853E-07   -0.34832E-06  2348   0.300E-03
  11 F= -.19249982E+03 E0= -.19237601E+03  d E =-.668043E-02
       N       E                     dE             d eps       ncg     rms          rms(c)
DAV:   1    -0.192496782291E+03    0.30346E-02   -0.56076E+00  3672   0.364E+00    0.188E-01
RMM:   2    -0.192502639121E+03   -0.58568E-02   -0.60501E-02  3682   0.532E-01    0.198E-01
RMM:   3    -0.192502876893E+03   -0.23777E-03   -0.36388E-03  3760   0.108E-01    0.220E-01
RMM:   4    -0.192502614815E+03    0.26208E-03   -0.52236E-04  3675   0.377E-02    0.183E-01
RMM:   5    -0.192502408005E+03    0.20681E-03   -0.28088E-04  3685   0.267E-02    0.143E-01
RMM:   6    -0.192502284736E+03    0.12327E-03   -0.72370E-04  3681   0.419E-02    0.119E-01
RMM:   7    -0.192502248374E+03    0.36362E-04   -0.62374E-04  3685   0.388E-02    0.801E-02
RMM:   8    -0.192502217104E+03    0.31270E-04   -0.12926E-04  3684   0.182E-02    0.447E-02
RMM:   9    -0.192502200265E+03    0.16839E-04   -0.22470E-05  3680   0.767E-03    0.371E-02
RMM:  10    -0.192502183653E+03    0.16612E-04   -0.24420E-05  3672   0.769E-03    0.255E-02
RMM:  11    -0.192502175765E+03    0.78883E-05   -0.14531E-05  3672   0.574E-03    0.130E-02
RMM:  12    -0.192502173680E+03    0.20845E-05   -0.16242E-05  3672   0.598E-03    0.641E-03
RMM:  13    -0.192502173611E+03    0.68874E-07   -0.29666E-06  2139   0.281E-03
  12 F= -.19250217E+03 E0= -.19237824E+03  d E =-.903724E-02
       N       E                     dE             d eps       ncg     rms          rms(c)
DAV:   1    -0.192499461507E+03    0.27122E-02   -0.70072E+00  3672   0.407E+00    0.197E-01
RMM:   2    -0.192506822301E+03   -0.73608E-02   -0.76886E-02  3683   0.598E-01    0.201E-01
RMM:   3    -0.192506942701E+03   -0.12040E-03   -0.44504E-03  3738   0.120E-01    0.208E-01
RMM:   4    -0.192506657197E+03    0.28550E-03   -0.53562E-04  3674   0.402E-02    0.156E-01
RMM:   5    -0.192506630708E+03    0.26490E-04   -0.23486E-04  3687   0.242E-02    0.170E-01
RMM:   6    -0.192506497000E+03    0.13371E-03   -0.43919E-04  3683   0.319E-02    0.158E-01
RMM:   7    -0.192506338932E+03    0.15807E-03   -0.91977E-04  3679   0.469E-02    0.860E-02
RMM:   8    -0.192506328184E+03    0.10748E-04   -0.25893E-04  3679   0.253E-02    0.491E-02
RMM:   9    -0.192506310051E+03    0.18133E-04   -0.32537E-05  3678   0.930E-03    0.380E-02
RMM:  10    -0.192506289474E+03    0.20577E-04   -0.28026E-05  3677   0.815E-03    0.252E-02
RMM:  11    -0.192506281311E+03    0.81637E-05   -0.17455E-05  3674   0.631E-03    0.147E-02
RMM:  12    -0.192506278891E+03    0.24197E-05   -0.18133E-05  3677   0.627E-03    0.795E-03
RMM:  13    -0.192506278824E+03    0.67026E-07   -0.49733E-06  3083   0.344E-03
  13 F= -.19250628E+03 E0= -.19238181E+03  d E =-.410521E-02
       N       E                     dE             d eps       ncg     rms          rms(c)
DAV:   1    -0.192505896490E+03    0.38240E-03   -0.70438E-01  3744   0.129E+00    0.619E-02
RMM:   2    -0.192506629507E+03   -0.73302E-03   -0.76994E-03  3683   0.189E-01    0.643E-02
RMM:   3    -0.192506636447E+03   -0.69402E-05   -0.44504E-04  3741   0.378E-02    0.652E-02
RMM:   4    -0.192506608795E+03    0.27652E-04   -0.52149E-05  3674   0.125E-02    0.504E-02
RMM:   5    -0.192506605708E+03    0.30874E-05   -0.22441E-05  3679   0.751E-03    0.535E-02
RMM:   6    -0.192506594515E+03    0.11192E-04   -0.45155E-05  3680   0.102E-02    0.500E-02
RMM:   7    -0.192506581705E+03    0.12811E-04   -0.98161E-05  3677   0.153E-02    0.279E-02
RMM:   8    -0.192506581266E+03    0.43861E-06   -0.27045E-05  3672   0.817E-03    0.160E-02
RMM:   9    -0.192506579366E+03    0.18999E-05   -0.31735E-06  2589   0.298E-03    0.121E-02
RMM:  10    -0.192506576991E+03    0.23750E-05   -0.29396E-06  2059   0.286E-03    0.763E-03
RMM:  11    -0.192506576295E+03    0.69557E-06   -0.21388E-06  1943   0.260E-03
  14 F= -.19250658E+03 E0= -.19238194E+03  d E =-.440268E-02
       N       E                     dE             d eps       ncg     rms          rms(c)
DAV:   1    -0.192504779555E+03    0.17974E-02   -0.39590E+00  3672   0.306E+00    0.158E-01
RMM:   2    -0.192509051903E+03   -0.42723E-02   -0.43071E-02  3682   0.448E-01    0.197E-01
RMM:   3    -0.192509061599E+03   -0.96954E-05   -0.28023E-03  3734   0.942E-02    0.185E-01
RMM:   4    -0.192508792757E+03    0.26884E-03   -0.30428E-04  3677   0.308E-02    0.109E-01
RMM:   5    -0.192508827646E+03   -0.34889E-04   -0.15481E-04  3685   0.196E-02    0.137E-01
RMM:   6    -0.192508766705E+03    0.60941E-04   -0.27917E-04  3680   0.254E-02    0.127E-01
RMM:   7    -0.192508637957E+03    0.12875E-03   -0.54242E-04  3682   0.359E-02    0.582E-02
RMM:   8    -0.192508634481E+03    0.34756E-05   -0.11139E-04  3681   0.167E-02    0.355E-02
RMM:   9    -0.192508624712E+03    0.97697E-05   -0.16345E-05  3673   0.660E-03    0.260E-02
RMM:  10    -0.192508616584E+03    0.81278E-05   -0.11741E-05  3672   0.533E-03    0.191E-02
RMM:  11    -0.192508611352E+03    0.52317E-05   -0.10430E-05  3673   0.488E-03    0.991E-03
RMM:  12    -0.192508610258E+03    0.10946E-05   -0.82975E-06  3670   0.428E-03    0.591E-03
RMM:  13    -0.192508610075E+03    0.18261E-06   -0.18131E-06  1989   0.219E-03
  15 F= -.19250861E+03 E0= -.19238362E+03  d E =-.203378E-02
       N       E                     dE             d eps       ncg     rms          rms(c)
DAV:   1    -0.192508332138E+03    0.27812E-03   -0.49433E-01  3696   0.108E+00    0.554E-02
RMM:   2    -0.192508861193E+03   -0.52906E-03   -0.53640E-03  3682   0.158E-01    0.696E-02
RMM:   3    -0.192508858172E+03    0.30214E-05   -0.34790E-04  3734   0.332E-02    0.643E-02
RMM:   4    -0.192508825781E+03    0.32390E-04   -0.36940E-05  3679   0.107E-02    0.382E-02
RMM:   5    -0.192508830095E+03   -0.43131E-05   -0.19814E-05  3679   0.707E-03    0.473E-02
RMM:   6    -0.192508829063E+03    0.10312E-05   -0.36273E-05  3682   0.910E-03    0.491E-02
RMM:   7    -0.192508810256E+03    0.18808E-04   -0.68276E-05  3676   0.127E-02    0.213E-02
RMM:   8    -0.192508810491E+03   -0.23504E-06   -0.14167E-05  3672   0.597E-03    0.134E-02
RMM:   9    -0.192508809156E+03    0.13348E-05   -0.19980E-06  2195   0.241E-03    0.938E-03
RMM:  10    -0.192508808091E+03    0.10646E-05   -0.14416E-06  1950   0.208E-03    0.705E-03
RMM:  11    -0.192508807392E+03    0.69931E-06   -0.14339E-06  1934   0.210E-03
  16 F= -.19250881E+03 E0= -.19238370E+03  d E =-.223110E-02
       N       E                     dE             d eps       ncg     rms          rms(c)
DAV:   1    -0.192507448504E+03    0.13596E-02   -0.28033E+00  3672   0.257E+00    0.120E-01
RMM:   2    -0.192510468797E+03   -0.30203E-02   -0.30213E-02  3682   0.376E-01    0.167E-01
RMM:   3    -0.192510507559E+03   -0.38761E-04   -0.19347E-03  3760   0.782E-02    0.165E-01
RMM:   4    -0.192510312469E+03    0.19509E-03   -0.20588E-04  3675   0.246E-02    0.106E-01
RMM:   5    -0.192510265222E+03    0.47247E-04   -0.74729E-05  3685   0.142E-02    0.960E-02
RMM:   6    -0.192510238748E+03    0.26475E-04   -0.20196E-04  3679   0.220E-02    0.102E-01
RMM:   7    -0.192510151670E+03    0.87077E-04   -0.48296E-04  3681   0.337E-02    0.412E-02
RMM:   8    -0.192510161944E+03   -0.10274E-04   -0.89095E-05  3681   0.148E-02    0.324E-02
RMM:   9    -0.192510153963E+03    0.79810E-05   -0.10462E-05  3612   0.535E-03    0.242E-02
RMM:  10    -0.192510146678E+03    0.72852E-05   -0.86179E-06  3667   0.457E-03    0.177E-02
RMM:  11    -0.192510141283E+03    0.53947E-05   -0.13733E-05  3676   0.554E-03    0.891E-03
RMM:  12    -0.192510140553E+03    0.72995E-06   -0.64882E-06  3539   0.381E-03
  17 F= -.19251014E+03 E0= -.19238486E+03  d E =-.133316E-02
       N       E                     dE             d eps       ncg     rms          rms(c)
DAV:   1    -0.192510009675E+03    0.13161E-03   -0.25146E-01  3732   0.769E-01    0.356E-02
RMM:   2    -0.192510279716E+03   -0.27004E-03   -0.26986E-03  3681   0.113E-01    0.516E-02
RMM:   3    -0.192510279816E+03   -0.99943E-07   -0.17340E-04  3776   0.234E-02    0.490E-02
RMM:   4    -0.192510262155E+03    0.17661E-04   -0.17675E-05  3676   0.721E-03    0.318E-02
RMM:   5    -0.192510258486E+03    0.36683E-05   -0.60943E-06  3055   0.413E-03    0.291E-02
RMM:   6    -0.192510257399E+03    0.10878E-05   -0.19493E-05  3672   0.693E-03    0.320E-02
RMM:   7    -0.192510249840E+03    0.75583E-05   -0.47383E-05  3678   0.106E-02    0.124E-02
RMM:   8    -0.192510251113E+03   -0.12727E-05   -0.81578E-06  3561   0.448E-03    0.102E-02
RMM:   9    -0.192510250421E+03    0.69252E-06   -0.91587E-07  1963   0.168E-03
  18 F= -.19251025E+03 E0= -.19238488E+03  d E =-.144303E-02
       N       E                     dE             d eps       ncg     rms          rms(c)
DAV:   1    -0.192508838929E+03    0.14122E-02   -0.24667E+00  3672   0.241E+00    0.112E-01
RMM:   2    -0.192511450713E+03   -0.26118E-02   -0.26691E-02  3682   0.354E-01    0.126E-01
RMM:   3    -0.192511473264E+03   -0.22552E-04   -0.16010E-03  3772   0.718E-02    0.118E-01
RMM:   4    -0.192511419540E+03    0.53724E-04   -0.18266E-04  3675   0.229E-02    0.112E-01
RMM:   5    -0.192511339620E+03    0.79920E-04   -0.70835E-05  3685   0.136E-02    0.834E-02
RMM:   6    -0.192511340843E+03   -0.12227E-05   -0.27750E-04  3681   0.257E-02    0.106E-01
RMM:   7    -0.192511264389E+03    0.76454E-04   -0.29228E-04  3682   0.264E-02    0.431E-02
RMM:   8    -0.192511274395E+03   -0.10007E-04   -0.63313E-05  3682   0.125E-02    0.346E-02
RMM:   9    -0.192511265988E+03    0.84070E-05   -0.95385E-06  3424   0.509E-03    0.244E-02
RMM:  10    -0.192511260437E+03    0.55511E-05   -0.59624E-06  3197   0.389E-03    0.193E-02
RMM:  11    -0.192511253582E+03    0.68555E-05   -0.18878E-05  3674   0.656E-03    0.830E-03
RMM:  12    -0.192511252891E+03    0.69019E-06   -0.51492E-06  3211   0.343E-03
  19 F= -.19251125E+03 E0= -.19238574E+03  d E =-.100247E-02
       N       E                     dE             d eps       ncg     rms          rms(c)
DAV:   1    -0.192511161216E+03    0.92366E-04   -0.16530E-01  3696   0.624E-01    0.282E-02
RMM:   2    -0.192511334420E+03   -0.17320E-03   -0.17715E-03  3681   0.916E-02    0.341E-02
RMM:   3    -0.192511333983E+03    0.43703E-06   -0.10629E-04  3795   0.185E-02    0.313E-02
RMM:   4    -0.192511329369E+03    0.46146E-05   -0.11117E-05  3576   0.566E-03    0.285E-02
RMM:   5    -0.192511324683E+03    0.46854E-05   -0.40327E-06  2730   0.336E-03    0.223E-02
RMM:   6    -0.192511325656E+03   -0.97227E-06   -0.22181E-05  3676   0.735E-03    0.290E-02
RMM:   7    -0.192511320568E+03    0.50878E-05   -0.23279E-05  3673   0.744E-03    0.122E-02
RMM:   8    -0.192511321252E+03   -0.68390E-06   -0.44640E-06  2842   0.342E-03
  20 F= -.19251132E+03 E0= -.19238576E+03  d E =-.107083E-02
       N       E                     dE             d eps       ncg     rms          rms(c)
DAV:   1    -0.192510374031E+03    0.94654E-03   -0.16305E+00  3672   0.197E+00    0.922E-02
RMM:   2    -0.192512117038E+03   -0.17430E-02   -0.17990E-02  3681   0.289E-01    0.968E-02
RMM:   3    -0.192512149880E+03   -0.32843E-04   -0.11006E-03  3747   0.590E-02    0.103E-01
RMM:   4    -0.192512089668E+03    0.60213E-04   -0.12293E-04  3676   0.188E-02    0.823E-02
RMM:   5    -0.192512044213E+03    0.45455E-04   -0.43339E-05  3687   0.107E-02    0.616E-02
RMM:   6    -0.192512014733E+03    0.29480E-04   -0.20972E-04  3681   0.222E-02    0.492E-02
RMM:   7    -0.192512012104E+03    0.26288E-05   -0.13099E-04  3680   0.176E-02    0.369E-02
RMM:   8    -0.192512012965E+03   -0.86045E-06   -0.27298E-05  3682   0.825E-03    0.285E-02
RMM:   9    -0.192512006721E+03    0.62440E-05   -0.56557E-06  2966   0.397E-03    0.164E-02
RMM:  10    -0.192512003967E+03    0.27540E-05   -0.48186E-06  2977   0.347E-03    0.129E-02
RMM:  11    -0.192512001572E+03    0.23946E-05   -0.76206E-06  3651   0.425E-03    0.537E-03
RMM:  12    -0.192512001334E+03    0.23800E-06   -0.17274E-06  1960   0.216E-03
  21 F= -.19251200E+03 E0= -.19238635E+03  d E =-.680082E-03
