<?xml version="1.0" encoding="ISO-8859-1"?>
<modeling>
 <generator>
  <i name="program" type="string">vasp </i>
  <i name="version" type="string">5.4.1  </i>
  <i name="subversion" type="string">24Jun15 (build Mar 14 2019 10:18:33) complex                          parallel </i>
  <i name="platform" type="string">INTEL-19.0.2+OPENMPI-3.1.3 </i>
  <i name="date" type="string">2022 07 15 </i>
  <i name="time" type="string">21:54:35 </i>
 </generator>
 <incar>
  <i type="int" name="ISTART">     0</i>
  <i type="string" name="PREC">normal</i>
  <i type="string" name="ALGO"> Fast</i>
  <i type="int" name="NELM">   500</i>
  <i type="int" name="IBRION">     2</i>
  <i type="int" name="NFREE">     2</i>
  <i name="EDIFF">      0.00000100</i>
  <i name="EDIFFG">     -0.02000000</i>
  <i type="int" name="NSW">   500</i>
  <i type="int" name="ISIF">     0</i>
  <i type="int" name="ISYM">     2</i>
  <i name="ENCUT">    400.00000000</i>
  <i name="POTIM">      0.35000000</i>
  <i type="string" name="LREAL"> Auto</i>
  <i type="logical" name="LPLANE"> T  </i>
  <i type="int" name="ISMEAR">     0</i>
  <i name="SIGMA">      0.10000000</i>
  <i type="int" name="NWRITE">     1</i>
  <i type="logical" name="LWAVE"> F  </i>
  <i type="logical" name="LCHARG"> F  </i>
  <i type="logical" name="LVTOT"> F  </i>
  <i type="logical" name="LORBIT"> F  </i>
  <i type="logical" name="LAECHG"> F  </i>
  <v type="int" name="KPOINT_BSE">    -1     0     0     0</v>
  <i type="int" name="NELM">   500</i>
  <i type="string" name="GGA"> PE          ! optPBE-vdW XC-functional</i>
  <i type="int" name="VOSKOWN">     1</i>
  <i type="logical" name="LDIPOL"> T  </i>
  <i type="logical" name="LMONO"> F  </i>
  <i type="int" name="IDIPOL">     3</i>
  <v name="DIPOL">      0.00000000      0.00000000      0.50000000</v>
 </incar>
 <kpoints>
  <generation param="Monkhorst-Pack">
   <v type="int" name="divisions">       2        2        1 </v>
   <v name="usershift">      0.00000000       0.00000000       0.00000000 </v>
   <v name="genvec1">      0.50000000      -0.00000000       0.00000000 </v>
   <v name="genvec2">      0.00000000       0.50000000       0.00000000 </v>
   <v name="genvec3">      0.00000000       0.00000000       1.00000000 </v>
   <v name="shift">      0.50000000       0.50000000       0.00000000 </v>
  </generation>
  <varray name="kpointlist" >
   <v>       0.25000000       0.25000000       0.00000000 </v>
   <v>       0.00000000       0.25000000       0.00000000 </v>
   <v>      -0.25000000       0.00000000       0.00000000 </v>
   <v>      -0.25000000       0.25000000       0.00000000 </v>
   <v>       0.50000000      -0.25000000       0.00000000 </v>
   <v>      -0.25000000       0.50000000       0.00000000 </v>
  </varray>
  <varray name="weights" >
   <v>       0.16666667 </v>
   <v>       0.16666667 </v>
   <v>       0.16666667 </v>
   <v>       0.16666667 </v>
   <v>       0.16666667 </v>
   <v>       0.16666667 </v>
  </varray>
 </kpoints>
 <parameters>
  <separator name="general" >
   <i type="string" name="SYSTEM">unknown system</i>
   <i type="logical" name="LCOMPAT"> F  </i>
  </separator>
  <separator name="electronic" >
   <i type="string" name="PREC">normal</i>
   <i name="ENMAX">    400.00000000</i>
   <i name="ENAUG">    416.23000000</i>
   <i name="EDIFF">      0.00000100</i>
   <i type="int" name="IALGO">    68</i>
   <i type="int" name="IWAVPR">    11</i>
   <i type="int" name="NBANDS">   306</i>
   <i name="NELECT">    504.00000000</i>
   <i type="int" name="TURBO">     0</i>
   <i type="int" name="IRESTART">     0</i>
   <i type="int" name="NREBOOT">     0</i>
   <i type="int" name="NMIN">     0</i>
   <i name="EREF">      0.00000000</i>
   <separator name="electronic smearing" >
    <i type="int" name="ISMEAR">     0</i>
    <i name="SIGMA">      0.10000000</i>
    <i name="KSPACING">      0.50000000</i>
    <i type="logical" name="KGAMMA"> T  </i>
   </separator>
   <separator name="electronic projectors" >
    <i type="logical" name="LREAL"> T  </i>
    <v name="ROPT">     -0.00050000     -0.00050000</v>
    <i type="int" name="LMAXPAW">  -100</i>
    <i type="int" name="LMAXMIX">     2</i>
    <i type="logical" name="NLSPLINE"> F  </i>
   </separator>
   <separator name="electronic startup" >
    <i type="int" name="ISTART">     0</i>
    <i type="int" name="ICHARG">     2</i>
    <i type="int" name="INIWAV">     1</i>
   </separator>
   <separator name="electronic spin" >
    <i type="int" name="ISPIN">     1</i>
    <i type="logical" name="LNONCOLLINEAR"> F  </i>
    <v name="MAGMOM">      1.00000000      1.00000000      1.00000000      1.00000000      1.00000000      1.00000000      1.00000000      1.00000000      1.00000000      1.00000000      1.00000000      1.00000000      1.00000000      1.00000000      1.00000000      1.00000000      1.00000000      1.00000000      1.00000000      1.00000000
      1.00000000      1.00000000      1.00000000      1.00000000      1.00000000      1.00000000      1.00000000      1.00000000      1.00000000      1.00000000      1.00000000      1.00000000      1.00000000      1.00000000      1.00000000      1.00000000      1.00000000      1.00000000      1.00000000      1.00000000
      1.00000000      1.00000000      1.00000000      1.00000000      1.00000000      1.00000000      1.00000000      1.00000000</v>
    <i name="NUPDOWN">     -1.00000000</i>
    <i type="logical" name="LSORBIT"> F  </i>
    <v name="SAXIS">      0.00000000      0.00000000      1.00000000</v>
    <i type="logical" name="LSPIRAL"> F  </i>
    <v name="QSPIRAL">      0.00000000      0.00000000      0.00000000</v>
    <i type="logical" name="LZEROZ"> F  </i>
   </separator>
   <separator name="electronic exchange-correlation" >
    <i type="logical" name="LASPH"> F  </i>
    <i type="logical" name="LMETAGGA"> F  </i>
   </separator>
   <separator name="electronic convergence" >
    <i type="int" name="NELM">   500</i>
    <i type="int" name="NELMDL">    -5</i>
    <i type="int" name="NELMIN">     2</i>
    <i name="ENINI">    400.00000000</i>
    <separator name="electronic convergence detail" >
     <i type="logical" name="LDIAG"> T  </i>
     <i type="logical" name="LSUBROT"> F  </i>
     <i name="WEIMIN">      0.00100000</i>
     <i name="EBREAK">      0.00000000</i>
     <i name="DEPER">      0.30000000</i>
     <i type="int" name="NRMM">     4</i>
     <i name="TIME">      0.40000000</i>
    </separator>
   </separator>
   <separator name="electronic mixer" >
    <i name="AMIX">      0.40000000</i>
    <i name="BMIX">      1.00000000</i>
    <i name="AMIN">      0.10000000</i>
    <i name="AMIX_MAG">      1.60000000</i>
    <i name="BMIX_MAG">      1.00000000</i>
    <separator name="electronic mixer details" >
     <i type="int" name="IMIX">     4</i>
     <i type="logical" name="MIXFIRST"> F  </i>
     <i type="int" name="MAXMIX">   -45</i>
     <i name="WC">    100.00000000</i>
     <i type="int" name="INIMIX">     1</i>
     <i type="int" name="MIXPRE">     1</i>
     <i type="int" name="MREMOVE">     5</i>
    </separator>
   </separator>
   <separator name="electronic dipolcorrection" >
    <i type="logical" name="LDIPOL"> T  </i>
    <i type="logical" name="LMONO"> F  </i>
    <i type="int" name="IDIPOL">     3</i>
    <i name="EPSILON">      1.00000000</i>
    <v name="DIPOL">      0.00000000      0.00000000      0.50000000</v>
    <i name="EFIELD">      0.00000000</i>
   </separator>
  </separator>
  <separator name="grids" >
   <i type="int" name="NGX">    54</i>
   <i type="int" name="NGY">    54</i>
   <i type="int" name="NGZ">   120</i>
   <i type="int" name="NGXF">   108</i>
   <i type="int" name="NGYF">   108</i>
   <i type="int" name="NGZF">   240</i>
   <i type="logical" name="ADDGRID"> F  </i>
  </separator>
  <separator name="ionic" >
   <i type="int" name="NSW">   500</i>
   <i type="int" name="IBRION">     2</i>
   <i type="int" name="ISIF">     0</i>
   <i name="PSTRESS">      0.00000000</i>
   <i name="EDIFFG">     -0.02000000</i>
   <i type="int" name="NFREE">     2</i>
   <i name="POTIM">      0.35000000</i>
   <i name="SMASS">     -3.00000000</i>
   <i name="SCALEE">      1.00000000</i>
  </separator>
  <separator name="ionic md" >
   <i name="TEBEG">      0.00010000</i>
   <i name="TEEND">      0.00010000</i>
   <i type="int" name="NBLOCK">     1</i>
   <i type="int" name="KBLOCK">   500</i>
   <i type="int" name="NPACO">   256</i>
   <i name="APACO">     16.00000000</i>
  </separator>
  <separator name="symmetry" >
   <i type="int" name="ISYM">     2</i>
   <i name="SYMPREC">      0.00001000</i>
  </separator>
  <separator name="dos" >
   <i type="logical" name="LORBIT"> F  </i>
   <v name="RWIGS">     -1.00000000     -1.00000000</v>
   <i type="int" name="NEDOS">   301</i>
   <i name="EMIN">     10.00000000</i>
   <i name="EMAX">    -10.00000000</i>
   <i name="EFERMI">      0.00000000</i>
  </separator>
  <separator name="writing" >
   <i type="int" name="NWRITE">     1</i>
   <i type="logical" name="LWAVE"> F  </i>
   <i type="logical" name="LCHARG"> F  </i>
   <i type="logical" name="LPARD"> F  </i>
   <i type="logical" name="LVTOT"> F  </i>
   <i type="logical" name="LVHAR"> F  </i>
   <i type="logical" name="LELF"> F  </i>
   <i type="logical" name="LOPTICS"> F  </i>
   <v name="STM">      0.00000000      0.00000000      0.00000000      0.00000000      0.00000000      0.00000000      0.00000000</v>
  </separator>
  <separator name="performance" >
   <i type="int" name="NPAR">     6</i>
   <i type="int" name="NSIM">     4</i>
   <i type="int" name="NBLK">    -1</i>
   <i type="logical" name="LPLANE"> T  </i>
   <i type="logical" name="LSCALAPACK"> T  </i>
   <i type="logical" name="LSCAAWARE"> F  </i>
   <i type="logical" name="LSCALU"> F  </i>
   <i type="logical" name="LASYNC"> F  </i>
   <i type="logical" name="LORBITALREAL"> F  </i>
  </separator>
  <separator name="miscellaneous" >
   <i type="int" name="IDIOT">     3</i>
   <i type="logical" name="LMUSIC"> F  </i>
   <v name="POMASS">    196.96600000    106.42000000</v>
   <v name="DARWINR">      0.00000000      0.00000000</v>
   <v name="DARWINV">      1.00000000      1.00000000</v>
   <i type="logical" name="LCORR"> T  </i>
  </separator>
  <i type="logical" name="GGA_COMPAT"> T  </i>
  <i type="logical" name="LBERRY"> F  </i>
  <i type="int" name="ICORELEVEL">     0</i>
  <i type="logical" name="LDAU"> F  </i>
  <i type="int" name="I_CONSTRAINED_M">     0</i>
  <separator name="electronic exchange-correlation" >
   <i type="string" name="GGA">PE</i>
   <i type="int" name="VOSKOWN">     1</i>
   <i type="logical" name="LHFCALC"> F  </i>
   <i type="string" name="PRECFOCK"></i>
   <i type="logical" name="LSYMGRAD"> F  </i>
   <i type="logical" name="LHFONE"> F  </i>
   <i type="logical" name="LRHFCALC"> F  </i>
   <i type="logical" name="LTHOMAS"> F  </i>
   <i type="logical" name="LMODELHF"> F  </i>
   <i name="ENCUT4O">     -1.00000000</i>
   <i type="int" name="EXXOEP">     0</i>
   <i type="int" name="FOURORBIT">     0</i>
   <i name="AEXX">      0.00000000</i>
   <i name="HFALPHA">      0.00000000</i>
   <i name="MCALPHA">      0.00000000</i>
   <i name="ALDAX">      1.00000000</i>
   <i name="AGGAX">      1.00000000</i>
   <i name="ALDAC">      1.00000000</i>
   <i name="AGGAC">      1.00000000</i>
   <i type="int" name="NKREDX">     1</i>
   <i type="int" name="NKREDY">     1</i>
   <i type="int" name="NKREDZ">     1</i>
   <i type="logical" name="SHIFTRED"> F  </i>
   <i type="logical" name="ODDONLY"> F  </i>
   <i type="logical" name="EVENONLY"> F  </i>
   <i type="int" name="LMAXFOCK">     0</i>
   <i type="int" name="NMAXFOCKAE">     0</i>
   <i type="logical" name="LFOCKAEDFT"> F  </i>
   <i name="HFSCREEN">      0.00000000</i>
   <i name="HFSCREENC">      0.00000000</i>
   <i type="int" name="NBANDSGWLOW">     0</i>
  </separator>
  <separator name="vdW DFT" >
   <i type="logical" name="LUSE_VDW"> F  </i>
   <i name="Zab_VDW">     -0.84910000</i>
   <i name="PARAM1">      0.12340000</i>
   <i name="PARAM2">      1.00000000</i>
   <i name="PARAM3">      0.00000000</i>
  </separator>
  <separator name="model GW" >
   <i type="int" name="MODEL_GW">     0</i>
   <i name="MODEL_EPS0">     32.09595293</i>
   <i name="MODEL_ALPHA">      1.00000000</i>
  </separator>
  <separator name="linear response parameters" >
   <i type="logical" name="LEPSILON"> F  </i>
   <i type="logical" name="LRPA"> F  </i>
   <i type="logical" name="LNABLA"> F  </i>
   <i type="logical" name="LVEL"> F  </i>
   <i type="int" name="KINTER">     0</i>
   <i name="CSHIFT">      0.10000000</i>
   <i name="OMEGAMAX">     -1.00000000</i>
   <i name="DEG_THRESHOLD">      0.00200000</i>
  </separator>
  <separator name="orbital magnetization" >
   <i type="logical" name="NUCIND"> F  </i>
   <v name="MAGPOS">      0.00000000      0.00000000      0.00000000</v>
   <i type="logical" name="LNICSALL"> T  </i>
   <i type="logical" name="ORBITALMAG"> F  </i>
   <i type="logical" name="LMAGBLOCH"> F  </i>
   <i type="logical" name="LCHIMAG"> F  </i>
   <i type="logical" name="LGAUGE"> T  </i>
   <i type="int" name="MAGATOM">     0</i>
   <v name="MAGDIPOL">      0.00000000      0.00000000      0.00000000</v>
   <v name="AVECCONST">      0.00000000      0.00000000      0.00000000</v>
  </separator>
  <separator name="response functions" >
   <i type="logical" name="LADDER"> F  </i>
   <i type="logical" name="LFXC"> F  </i>
   <i type="logical" name="LHARTREE"> T  </i>
   <i type="int" name="IBSE">     0</i>
   <v type="int" name="KPOINT">    -1     0     0     0</v>
   <i type="logical" name="LTCTE"> F  </i>
   <i type="logical" name="LTETE"> F  </i>
   <i type="logical" name="LTRIPLET"> F  </i>
   <i type="logical" name="LFXCEPS"> F  </i>
   <i type="logical" name="LFXHEG"> F  </i>
   <i type="int" name="NATURALO">     0</i>
   <i type="logical" name="L2ORDER"> F  </i>
   <i type="logical" name="LUSEW"> F  </i>
   <i name="ENCUTGW">     -2.00000000</i>
   <i name="ENCUTGWSOFT">     -2.00000000</i>
   <i name="ENCUTLF">     -1.00000000</i>
   <i type="int" name="LMAXMP2">    -1</i>
   <i name="SCISSOR">      0.00000000</i>
   <i type="int" name="NOMEGA">     0</i>
   <i type="int" name="NOMEGAR">     0</i>
   <i type="int" name="NBANDSGW">    -1</i>
   <i type="int" name="NBANDSO">    -1</i>
   <i type="int" name="NBANDSV">    -1</i>
   <i type="int" name="NELM">   500</i>
   <i type="int" name="NELMHF">     1</i>
   <i type="int" name="DIM">     3</i>
   <i type="int" name="ANTIRES">     0</i>
   <i name="OMEGAMAX">    -30.00000000</i>
   <i name="OMEGAMIN">    -30.00000000</i>
   <i name="OMEGATL">   -200.00000000</i>
   <i type="int" name="OMEGAGRID">     0</i>
   <i name="CSHIFT">     -0.10000000</i>
   <i type="logical" name="SELFENERGY"> F  </i>
   <i type="logical" name="LSPECTRAL"> F  </i>
   <i type="logical" name="LSPECTRALGW"> F  </i>
   <i type="logical" name="LSINGLES"> F  </i>
   <i type="logical" name="LFERMIGW"> F  </i>
   <i type="logical" name="ODDONLYGW"> F  </i>
   <i type="logical" name="EVENONLYGW"> F  </i>
   <i type="int" name="NKREDLFX">     1</i>
   <i type="int" name="NKREDLFY">     1</i>
   <i type="int" name="NKREDLFZ">     1</i>
   <i type="int" name="MAXMEM">  1800</i>
   <i type="int" name="TELESCOPE">     0</i>
   <i type="int" name="TAUPAR">     1</i>
   <i type="int" name="OMEGAPAR">    -1</i>
   <i name="LAMBDA">      1.00000000</i>
  </separator>
  <separator name="External order field" >
   <i name="OFIELD_KAPPA">      0.00000000</i>
   <v name="OFIELD_K">      0.00000000      0.00000000      0.00000000</v>
   <i name="OFIELD_Q6_NEAR">      0.00000000</i>
   <i name="OFIELD_Q6_FAR">      0.00000000</i>
   <i name="OFIELD_A">      0.00000000</i>
  </separator>
 </parameters>
 <atominfo>
  <atoms>      48 </atoms>
  <types>       2 </types>
  <array name="atoms" >
   <dimension dim="1">ion</dimension>
   <field type="string">element</field>
   <field type="int">atomtype</field>
   <set>
    <rc><c>Au</c><c>   1</c></rc>
    <rc><c>Au</c><c>   1</c></rc>
    <rc><c>Au</c><c>   1</c></rc>
    <rc><c>Au</c><c>   1</c></rc>
    <rc><c>Au</c><c>   1</c></rc>
    <rc><c>Au</c><c>   1</c></rc>
    <rc><c>Au</c><c>   1</c></rc>
    <rc><c>Au</c><c>   1</c></rc>
    <rc><c>Au</c><c>   1</c></rc>
    <rc><c>Au</c><c>   1</c></rc>
    <rc><c>Au</c><c>   1</c></rc>
    <rc><c>Au</c><c>   1</c></rc>
    <rc><c>Au</c><c>   1</c></rc>
    <rc><c>Au</c><c>   1</c></rc>
    <rc><c>Au</c><c>   1</c></rc>
    <rc><c>Au</c><c>   1</c></rc>
    <rc><c>Au</c><c>   1</c></rc>
    <rc><c>Au</c><c>   1</c></rc>
    <rc><c>Au</c><c>   1</c></rc>
    <rc><c>Au</c><c>   1</c></rc>
    <rc><c>Au</c><c>   1</c></rc>
    <rc><c>Au</c><c>   1</c></rc>
    <rc><c>Au</c><c>   1</c></rc>
    <rc><c>Au</c><c>   1</c></rc>
    <rc><c>Pd</c><c>   2</c></rc>
    <rc><c>Pd</c><c>   2</c></rc>
    <rc><c>Pd</c><c>   2</c></rc>
    <rc><c>Pd</c><c>   2</c></rc>
    <rc><c>Pd</c><c>   2</c></rc>
    <rc><c>Pd</c><c>   2</c></rc>
    <rc><c>Pd</c><c>   2</c></rc>
    <rc><c>Pd</c><c>   2</c></rc>
    <rc><c>Pd</c><c>   2</c></rc>
    <rc><c>Pd</c><c>   2</c></rc>
    <rc><c>Pd</c><c>   2</c></rc>
    <rc><c>Pd</c><c>   2</c></rc>
    <rc><c>Pd</c><c>   2</c></rc>
    <rc><c>Pd</c><c>   2</c></rc>
    <rc><c>Pd</c><c>   2</c></rc>
    <rc><c>Pd</c><c>   2</c></rc>
    <rc><c>Pd</c><c>   2</c></rc>
    <rc><c>Pd</c><c>   2</c></rc>
    <rc><c>Pd</c><c>   2</c></rc>
    <rc><c>Pd</c><c>   2</c></rc>
    <rc><c>Pd</c><c>   2</c></rc>
    <rc><c>Pd</c><c>   2</c></rc>
    <rc><c>Pd</c><c>   2</c></rc>
    <rc><c>Pd</c><c>   2</c></rc>
   </set>
  </array>
  <array name="atomtypes" >
   <dimension dim="1">type</dimension>
   <field type="int">atomspertype</field>
   <field type="string">element</field>
   <field>mass</field>
   <field>valence</field>
   <field type="string">pseudopotential</field>
   <set>
    <rc><c>  24</c><c>Au</c><c>    196.96600000</c><c>     11.00000000</c><c>  PAW_PBE Au 04Oct2007                  </c></rc>
    <rc><c>  24</c><c>Pd</c><c>    106.42000000</c><c>     10.00000000</c><c>  PAW_PBE Pd 04Jan2005                  </c></rc>
   </set>
  </array>
 </atominfo>
 <structure name="initialpos" >
  <crystal>
   <varray name="basis" >
    <v>      11.00258152       0.00000000       0.00000000 </v>
    <v>       5.50129076       9.52851510       0.00000000 </v>
    <v>       0.00000000       0.00000000      24.49178509 </v>
   </varray>
   <i name="volume">   2567.67623402 </i>
   <varray name="rec_basis" >
    <v>       0.09088776      -0.05247407       0.00000000 </v>
    <v>       0.00000000       0.10494815       0.00000000 </v>
    <v>       0.00000000       0.00000000       0.04083002 </v>
   </varray>
  </crystal>
  <varray name="positions" >
   <v>       0.25000000       0.75000000       0.59169983 </v>
   <v>       0.50000000       0.50000000       0.59169983 </v>
   <v>       0.41666667       0.91666667       0.50000000 </v>
   <v>       0.58333333       0.08333333       0.40830017 </v>
   <v>       0.66666667       0.91666667       0.50000000 </v>
   <v>       0.16666667       0.91666667       0.50000000 </v>
   <v>       0.83333333       0.08333333       0.40830017 </v>
   <v>       0.75000000       0.00000000       0.59169983 </v>
   <v>       0.33333333       0.58333333       0.40830017 </v>
   <v>       0.25000000       0.25000000       0.59169983 </v>
   <v>       0.83333333       0.33333333       0.40830017 </v>
   <v>       0.50000000       0.25000000       0.59169983 </v>
   <v>       0.25000000       0.00000000       0.59169983 </v>
   <v>       0.33333333       0.33333333       0.40830017 </v>
   <v>       0.33333333       0.08333333       0.40830017 </v>
   <v>       0.91666667       0.16666667       0.50000000 </v>
   <v>       0.16666667       0.16666667       0.50000000 </v>
   <v>       0.08333333       0.58333333       0.40830017 </v>
   <v>       0.83333333       0.58333333       0.40830017 </v>
   <v>       0.08333333       0.83333333       0.40830017 </v>
   <v>       0.91666667       0.91666667       0.50000000 </v>
   <v>       0.66666667       0.41666667       0.50000000 </v>
   <v>       0.00000000       0.50000000       0.59169983 </v>
   <v>       0.41666667       0.66666667       0.50000000 </v>
   <v>       0.75000000       0.25000000       0.59169983 </v>
   <v>       0.66666667       0.16666667       0.50000000 </v>
   <v>       0.66666667       0.66666667       0.50000000 </v>
   <v>       0.75000000       0.50000000       0.59169983 </v>
   <v>       0.50000000       0.75000000       0.59169983 </v>
   <v>       0.83333333       0.83333333       0.40830017 </v>
   <v>       0.58333333       0.83333333       0.40830017 </v>
   <v>       0.08333333       0.08333333       0.40830017 </v>
   <v>       0.41666667       0.41666667       0.50000000 </v>
   <v>       0.58333333       0.33333333       0.40830017 </v>
   <v>       0.50000000       0.00000000       0.59169983 </v>
   <v>       0.41666667       0.16666667       0.50000000 </v>
   <v>       0.33333333       0.83333333       0.40830017 </v>
   <v>       0.25000000       0.50000000       0.59169983 </v>
   <v>       0.16666667       0.66666667       0.50000000 </v>
   <v>       0.16666667       0.41666667       0.50000000 </v>
   <v>       0.00000000       0.75000000       0.59169983 </v>
   <v>       0.91666667       0.66666667       0.50000000 </v>
   <v>       0.00000000       0.25000000       0.59169983 </v>
   <v>       0.91666667       0.41666667       0.50000000 </v>
   <v>       0.08333333       0.33333333       0.40830017 </v>
   <v>       0.00000000       0.00000000       0.59169983 </v>
   <v>       0.58333333       0.58333333       0.40830017 </v>
   <v>       0.75000000       0.75000000       0.59169983 </v>
  </varray>
 </structure>
 <calculation>
  <scstep>
   <time name="dav">    7.19    7.21</time>
   <time name="total">    7.25    7.27</time>
   <dipole>
    <v name="dipole">      0.00000000       0.00000000       0.00000148 </v>
    <i name="Tr[quadrupol]"> -10245.37657241 </i>
    <i name="Echarged">      0.00000000 </i>
    <i name="Edipol_quadrupol">      0.00000000 </i>
    <i name="Eion">      0.00000000 </i>
   </dipole>
   <energy>
    <i name="alphaZ">    805.86936475 </i>
    <i name="ewald"> 200157.89547955 </i>
    <i name="hartreedc">-242571.74260158 </i>
    <i name="XCdc">   -327.63182199 </i>
    <i name="pawpsdc">  40340.05962942 </i>
    <i name="pawaedc"> -38292.62782345 </i>
    <i name="eentropy">     -0.14520096 </i>
    <i name="bandstr">   1430.31236969 </i>
    <i name="atom">  41659.78587232 </i>
    <i name="e_fr_energy">   3201.77526776 </i>
    <i name="e_wo_entrp">   3201.92046872 </i>
    <i name="e_0_energy">   3201.84786824 </i>
   </energy>
  </scstep>
  <scstep>
   <time name="dav">    8.69    8.73</time>
   <time name="total">    8.70    8.73</time>
   <dipole>
    <v name="dipole">      0.00000000       0.00000000       0.00000148 </v>
    <i name="Tr[quadrupol]"> -10245.37657241 </i>
    <i name="Echarged">      0.00000000 </i>
    <i name="Edipol_quadrupol">      0.00000000 </i>
    <i name="Eion">      0.00000000 </i>
   </dipole>
   <energy>
    <i name="e_fr_energy">     14.03302438 </i>
    <i name="e_wo_entrp">     14.16183921 </i>
    <i name="e_0_energy">     14.09743179 </i>
   </energy>
  </scstep>
  <scstep>
   <time name="dav">    8.31    8.34</time>
   <time name="total">    8.32    8.35</time>
   <dipole>
    <v name="dipole">      0.00000000       0.00000000       0.00000148 </v>
    <i name="Tr[quadrupol]"> -10245.37657241 </i>
    <i name="Echarged">      0.00000000 </i>
    <i name="Edipol_quadrupol">      0.00000000 </i>
    <i name="Eion">      0.00000000 </i>
   </dipole>
   <energy>
    <i name="e_fr_energy">   -200.42189204 </i>
    <i name="e_wo_entrp">   -200.22614752 </i>
    <i name="e_0_energy">   -200.32401978 </i>
   </energy>
  </scstep>
  <scstep>
   <time name="dav">    8.43    8.45</time>
   <time name="total">    8.43    8.46</time>
   <dipole>
    <v name="dipole">      0.00000000       0.00000000       0.00000148 </v>
    <i name="Tr[quadrupol]"> -10245.37657241 </i>
    <i name="Echarged">      0.00000000 </i>
    <i name="Edipol_quadrupol">      0.00000000 </i>
    <i name="Eion">      0.00000000 </i>
   </dipole>
   <energy>
    <i name="e_fr_energy">   -206.16837283 </i>
    <i name="e_wo_entrp">   -205.96120995 </i>
    <i name="e_0_energy">   -206.06479139 </i>
   </energy>
  </scstep>
  <scstep>
   <time name="dav">    8.68    8.70</time>
   <time name="total">    8.90    8.93</time>
   <dipole>
    <v name="dipole">      0.00000000       0.00000000       0.00000148 </v>
    <i name="Tr[quadrupol]"> -10245.37657241 </i>
    <i name="Echarged">      0.00000000 </i>
    <i name="Edipol_quadrupol">      0.00000000 </i>
    <i name="Eion">      0.00000000 </i>
   </dipole>
   <energy>
    <i name="e_fr_energy">   -206.35716328 </i>
    <i name="e_wo_entrp">   -206.15019990 </i>
    <i name="e_0_energy">   -206.25368159 </i>
   </energy>
  </scstep>
  <scstep>
   <time name="diag">    1.31    1.31</time>
   <time name="diis">    3.50    3.51</time>
   <time name="orth">    0.36    0.36</time>
   <time name="total">    5.45    5.46</time>
   <dipole>
    <v name="dipole">      0.00000000       0.00000000       0.68385237 </v>
    <i name="Tr[quadrupol]"> -10246.78792606 </i>
    <i name="Echarged">      0.00000000 </i>
    <i name="Edipol_quadrupol">      0.00000000 </i>
    <i name="Eion">      0.00000000 </i>
   </dipole>
   <energy>
    <i name="e_fr_energy">   -200.91667442 </i>
    <i name="e_wo_entrp">   -200.67885411 </i>
    <i name="e_0_energy">   -200.79776426 </i>
   </energy>
  </scstep>
  <scstep>
   <time name="diag">    1.31    1.31</time>
   <time name="diis">    4.05    4.07</time>
   <time name="orth">    0.65    0.65</time>
   <time name="total">    6.56    6.60</time>
   <dipole>
    <v name="dipole">      0.00000000       0.00000000      -1.28299959 </v>
    <i name="Tr[quadrupol]"> -10245.25210051 </i>
    <i name="Echarged">      0.00000000 </i>
    <i name="Edipol_quadrupol">      0.00000000 </i>
    <i name="Eion">      0.00000000 </i>
   </dipole>
   <energy>
    <i name="e_fr_energy">   -215.75399411 </i>
    <i name="e_wo_entrp">   -215.56152550 </i>
    <i name="e_0_energy">   -215.65775980 </i>
   </energy>
  </scstep>
  <scstep>
   <time name="diag">    1.43    1.44</time>
   <time name="diis">    3.60    3.60</time>
   <time name="orth">    0.35    0.36</time>
   <time name="total">    5.70    5.72</time>
   <dipole>
    <v name="dipole">      0.00000000       0.00000000       1.77623905 </v>
    <i name="Tr[quadrupol]"> -10246.59778374 </i>
    <i name="Echarged">      0.00000000 </i>
    <i name="Edipol_quadrupol">      0.00000000 </i>
    <i name="Eion">      0.00000000 </i>
   </dipole>
   <energy>
    <i name="e_fr_energy">   -225.33845508 </i>
    <i name="e_wo_entrp">   -225.06147642 </i>
    <i name="e_0_energy">   -225.19996575 </i>
   </energy>
  </scstep>
  <scstep>
   <time name="diag">    1.30    1.31</time>
   <time name="diis">    3.59    3.60</time>
   <time name="orth">    0.35    0.36</time>
   <time name="total">    5.51    5.53</time>
   <dipole>
    <v name="dipole">      0.00000000       0.00000000      -0.50527252 </v>
    <i name="Tr[quadrupol]"> -10247.84584111 </i>
    <i name="Echarged">      0.00000000 </i>
    <i name="Edipol_quadrupol">      0.00000000 </i>
    <i name="Eion">      0.00000000 </i>
   </dipole>
   <energy>
    <i name="e_fr_energy">   -210.93898803 </i>
    <i name="e_wo_entrp">   -210.72830107 </i>
    <i name="e_0_energy">   -210.83364455 </i>
   </energy>
  </scstep>
  <scstep>
   <time name="diag">    1.30    1.31</time>
   <time name="diis">    3.65    3.65</time>
   <time name="orth">    0.35    0.36</time>
   <time name="total">    5.57    5.59</time>
   <dipole>
    <v name="dipole">      0.00000000       0.00000000       0.38091793 </v>
    <i name="Tr[quadrupol]"> -10246.53806640 </i>
    <i name="Echarged">      0.00000000 </i>
    <i name="Edipol_quadrupol">      0.00000000 </i>
    <i name="Eion">      0.00000000 </i>
   </dipole>
   <energy>
    <i name="e_fr_energy">   -196.71189092 </i>
    <i name="e_wo_entrp">   -196.52977416 </i>
    <i name="e_0_energy">   -196.62083254 </i>
   </energy>
  </scstep>
  <scstep>
   <time name="diag">    1.30    1.30</time>
   <time name="diis">    3.46    3.46</time>
   <time name="orth">    0.36    0.36</time>
   <time name="total">    5.38    5.39</time>
   <dipole>
    <v name="dipole">      0.00000000       0.00000000       0.03729037 </v>
    <i name="Tr[quadrupol]"> -10247.91888278 </i>
    <i name="Echarged">      0.00000000 </i>
    <i name="Edipol_quadrupol">      0.00000000 </i>
    <i name="Eion">      0.00000000 </i>
   </dipole>
   <energy>
    <i name="e_fr_energy">   -192.58353879 </i>
    <i name="e_wo_entrp">   -192.37642931 </i>
    <i name="e_0_energy">   -192.47998405 </i>
   </energy>
  </scstep>
  <scstep>
   <time name="diag">    1.31    1.31</time>
   <time name="diis">    3.52    3.53</time>
   <time name="orth">    0.36    0.36</time>
   <time name="total">    5.46    5.47</time>
   <dipole>
    <v name="dipole">      0.00000000       0.00000000       0.06805553 </v>
    <i name="Tr[quadrupol]"> -10247.84120185 </i>
    <i name="Echarged">      0.00000000 </i>
    <i name="Edipol_quadrupol">      0.00000000 </i>
    <i name="Eion">      0.00000000 </i>
   </dipole>
   <energy>
    <i name="e_fr_energy">   -189.89715264 </i>
    <i name="e_wo_entrp">   -189.66368970 </i>
    <i name="e_0_energy">   -189.78042117 </i>
   </energy>
  </scstep>
  <scstep>
   <time name="diag">    1.30    1.31</time>
   <time name="diis">    3.64    3.66</time>
   <time name="orth">    0.35    0.35</time>
   <time name="total">    5.57    5.59</time>
   <dipole>
    <v name="dipole">      0.00000000       0.00000000       0.08798926 </v>
    <i name="Tr[quadrupol]"> -10248.20275434 </i>
    <i name="Echarged">      0.00000000 </i>
    <i name="Edipol_quadrupol">      0.00000000 </i>
    <i name="Eion">      0.00000000 </i>
   </dipole>
   <energy>
    <i name="e_fr_energy">   -189.27174287 </i>
    <i name="e_wo_entrp">   -189.00919457 </i>
    <i name="e_0_energy">   -189.14046872 </i>
   </energy>
  </scstep>
  <scstep>
   <time name="diag">    1.29    1.30</time>
   <time name="diis">    3.54    3.56</time>
   <time name="orth">    0.35    0.35</time>
   <time name="total">    5.45    5.48</time>
   <dipole>
    <v name="dipole">      0.00000000       0.00000000       0.05290765 </v>
    <i name="Tr[quadrupol]"> -10248.50889486 </i>
    <i name="Echarged">      0.00000000 </i>
    <i name="Edipol_quadrupol">      0.00000000 </i>
    <i name="Eion">      0.00000000 </i>
   </dipole>
   <energy>
    <i name="e_fr_energy">   -189.44554545 </i>
    <i name="e_wo_entrp">   -189.18566303 </i>
    <i name="e_0_energy">   -189.31560424 </i>
   </energy>
  </scstep>
  <scstep>
   <time name="diag">    1.30    1.30</time>
   <time name="diis">    3.62    3.63</time>
   <time name="orth">    0.35    0.35</time>
   <time name="total">    5.54    5.55</time>
   <dipole>
    <v name="dipole">      0.00000000       0.00000000       0.04882194 </v>
    <i name="Tr[quadrupol]"> -10248.73239098 </i>
    <i name="Echarged">      0.00000000 </i>
    <i name="Edipol_quadrupol">      0.00000000 </i>
    <i name="Eion">      0.00000000 </i>
   </dipole>
   <energy>
    <i name="e_fr_energy">   -189.45115960 </i>
    <i name="e_wo_entrp">   -189.18874463 </i>
    <i name="e_0_energy">   -189.31995212 </i>
   </energy>
  </scstep>
  <scstep>
   <time name="diag">    1.29    1.30</time>
   <time name="diis">    3.64    3.65</time>
   <time name="orth">    0.35    0.35</time>
   <time name="total">    5.56    5.57</time>
   <dipole>
    <v name="dipole">      0.00000000       0.00000000       0.03430317 </v>
    <i name="Tr[quadrupol]"> -10248.91233150 </i>
    <i name="Echarged">      0.00000000 </i>
    <i name="Edipol_quadrupol">      0.00000000 </i>
    <i name="Eion">      0.00000000 </i>
   </dipole>
   <energy>
    <i name="e_fr_energy">   -189.16317701 </i>
    <i name="e_wo_entrp">   -188.87904426 </i>
    <i name="e_0_energy">   -189.02111063 </i>
   </energy>
  </scstep>
  <scstep>
   <time name="diag">    1.30    1.30</time>
   <time name="diis">    3.63    3.64</time>
   <time name="orth">    0.35    0.35</time>
   <time name="total">    5.55    5.57</time>
   <dipole>
    <v name="dipole">      0.00000000       0.00000000       0.05225454 </v>
    <i name="Tr[quadrupol]"> -10249.17421962 </i>
    <i name="Echarged">      0.00000000 </i>
    <i name="Edipol_quadrupol">      0.00000000 </i>
    <i name="Eion">      0.00000000 </i>
   </dipole>
   <energy>
    <i name="e_fr_energy">   -189.08469745 </i>
    <i name="e_wo_entrp">   -188.81048346 </i>
    <i name="e_0_energy">   -188.94759045 </i>
   </energy>
  </scstep>
  <scstep>
   <time name="diag">    1.29    1.30</time>
   <time name="diis">    4.60    4.62</time>
   <time name="orth">    0.35    0.35</time>
   <time name="total">    6.51    6.54</time>
   <dipole>
    <v name="dipole">      0.00000000       0.00000000       0.06348761 </v>
    <i name="Tr[quadrupol]"> -10249.45925043 </i>
    <i name="Echarged">      0.00000000 </i>
    <i name="Edipol_quadrupol">      0.00000000 </i>
    <i name="Eion">      0.00000000 </i>
   </dipole>
   <energy>
    <i name="e_fr_energy">   -189.00891830 </i>
    <i name="e_wo_entrp">   -188.72700918 </i>
    <i name="e_0_energy">   -188.86796374 </i>
   </energy>
  </scstep>
  <scstep>
   <time name="diag">    1.29    1.29</time>
   <time name="diis">    3.63    3.64</time>
   <time name="orth">    0.35    0.35</time>
   <time name="total">    5.54    5.55</time>
   <dipole>
    <v name="dipole">      0.00000000       0.00000000       0.05095370 </v>
    <i name="Tr[quadrupol]"> -10249.61065205 </i>
    <i name="Echarged">      0.00000000 </i>
    <i name="Edipol_quadrupol">      0.00000000 </i>
    <i name="Eion">      0.00000000 </i>
   </dipole>
   <energy>
    <i name="e_fr_energy">   -188.97598561 </i>
    <i name="e_wo_entrp">   -188.69116470 </i>
    <i name="e_0_energy">   -188.83357516 </i>
   </energy>
  </scstep>
  <scstep>
   <time name="diag">    1.30    1.30</time>
   <time name="diis">    3.60    3.61</time>
   <time name="orth">    0.35    0.35</time>
   <time name="total">    5.52    5.54</time>
   <dipole>
    <v name="dipole">      0.00000000       0.00000000       0.03714144 </v>
    <i name="Tr[quadrupol]"> -10249.72122302 </i>
    <i name="Echarged">      0.00000000 </i>
    <i name="Edipol_quadrupol">      0.00000000 </i>
    <i name="Eion">      0.00000000 </i>
   </dipole>
   <energy>
    <i name="e_fr_energy">   -188.96877822 </i>
    <i name="e_wo_entrp">   -188.68328838 </i>
    <i name="e_0_energy">   -188.82603330 </i>
   </energy>
  </scstep>
  <scstep>
   <time name="diag">    1.30    1.30</time>
   <time name="diis">    3.60    3.63</time>
   <time name="orth">    0.35    0.35</time>
   <time name="total">    5.51    5.56</time>
   <dipole>
    <v name="dipole">      0.00000000       0.00000000       0.03302843 </v>
    <i name="Tr[quadrupol]"> -10249.81429814 </i>
    <i name="Echarged">      0.00000000 </i>
    <i name="Edipol_quadrupol">      0.00000000 </i>
    <i name="Eion">      0.00000000 </i>
   </dipole>
   <energy>
    <i name="e_fr_energy">   -188.96532339 </i>
    <i name="e_wo_entrp">   -188.67912757 </i>
    <i name="e_0_energy">   -188.82222548 </i>
   </energy>
  </scstep>
  <scstep>
   <time name="diag">    1.29    1.30</time>
   <time name="diis">    3.52    3.53</time>
   <time name="orth">    0.35    0.35</time>
   <time name="total">    5.43    5.44</time>
   <dipole>
    <v name="dipole">      0.00000000       0.00000000       0.03440881 </v>
    <i name="Tr[quadrupol]"> -10249.94000892 </i>
    <i name="Echarged">      0.00000000 </i>
    <i name="Edipol_quadrupol">      0.00000000 </i>
    <i name="Eion">      0.00000000 </i>
   </dipole>
   <energy>
    <i name="e_fr_energy">   -188.96300145 </i>
    <i name="e_wo_entrp">   -188.67703958 </i>
    <i name="e_0_energy">   -188.82002052 </i>
   </energy>
  </scstep>
  <scstep>
   <time name="diag">    1.29    1.30</time>
   <time name="diis">    3.59    3.60</time>
   <time name="orth">    0.35    0.35</time>
   <time name="total">    5.49    5.51</time>
   <dipole>
    <v name="dipole">      0.00000000       0.00000000       0.03400614 </v>
    <i name="Tr[quadrupol]"> -10250.08190477 </i>
    <i name="Echarged">      0.00000000 </i>
    <i name="Edipol_quadrupol">      0.00000000 </i>
    <i name="Eion">      0.00000000 </i>
   </dipole>
   <energy>
    <i name="e_fr_energy">   -188.96160350 </i>
    <i name="e_wo_entrp">   -188.67538698 </i>
    <i name="e_0_energy">   -188.81849524 </i>
   </energy>
  </scstep>
  <scstep>
   <time name="diag">    1.29    1.30</time>
   <time name="diis">    3.54    3.55</time>
   <time name="orth">    0.35    0.35</time>
   <time name="total">    5.44    5.46</time>
   <dipole>
    <v name="dipole">      0.00000000       0.00000000       0.03152995 </v>
    <i name="Tr[quadrupol]"> -10250.20031411 </i>
    <i name="Echarged">      0.00000000 </i>
    <i name="Edipol_quadrupol">      0.00000000 </i>
    <i name="Eion">      0.00000000 </i>
   </dipole>
   <energy>
    <i name="e_fr_energy">   -188.96113437 </i>
    <i name="e_wo_entrp">   -188.67490408 </i>
    <i name="e_0_energy">   -188.81801923 </i>
   </energy>
  </scstep>
  <scstep>
   <time name="diag">    1.30    1.30</time>
   <time name="diis">    3.62    3.63</time>
   <time name="orth">    0.35    0.35</time>
   <time name="total">    5.53    5.55</time>
   <dipole>
    <v name="dipole">      0.00000000       0.00000000       0.02926807 </v>
    <i name="Tr[quadrupol]"> -10250.27161414 </i>
    <i name="Echarged">      0.00000000 </i>
    <i name="Edipol_quadrupol">      0.00000000 </i>
    <i name="Eion">      0.00000000 </i>
   </dipole>
   <energy>
    <i name="e_fr_energy">   -188.96128500 </i>
    <i name="e_wo_entrp">   -188.67516288 </i>
    <i name="e_0_energy">   -188.81822394 </i>
   </energy>
  </scstep>
  <scstep>
   <time name="diag">    1.29    1.29</time>
   <time name="diis">    3.61    3.62</time>
   <time name="orth">    0.35    0.35</time>
   <time name="total">    5.52    5.54</time>
   <dipole>
    <v name="dipole">      0.00000000       0.00000000       0.02624744 </v>
    <i name="Tr[quadrupol]"> -10250.38051731 </i>
    <i name="Echarged">      0.00000000 </i>
    <i name="Edipol_quadrupol">      0.00000000 </i>
    <i name="Eion">      0.00000000 </i>
   </dipole>
   <energy>
    <i name="e_fr_energy">   -188.96168072 </i>
    <i name="e_wo_entrp">   -188.67557316 </i>
    <i name="e_0_energy">   -188.81862694 </i>
   </energy>
  </scstep>
  <scstep>
   <time name="diag">    1.29    1.29</time>
   <time name="diis">    3.65    3.66</time>
   <time name="orth">    0.34    0.35</time>
   <time name="total">    5.56    5.57</time>
   <dipole>
    <v name="dipole">      0.00000000       0.00000000       0.02555881 </v>
    <i name="Tr[quadrupol]"> -10250.41589896 </i>
    <i name="Echarged">      0.00000000 </i>
    <i name="Edipol_quadrupol">      0.00000000 </i>
    <i name="Eion">      0.00000000 </i>
   </dipole>
   <energy>
    <i name="e_fr_energy">   -188.96192890 </i>
    <i name="e_wo_entrp">   -188.67574730 </i>
    <i name="e_0_energy">   -188.81883810 </i>
   </energy>
  </scstep>
  <scstep>
   <time name="diag">    1.29    1.29</time>
   <time name="diis">    3.65    3.68</time>
   <time name="orth">    0.35    0.35</time>
   <time name="total">    5.56    5.59</time>
   <dipole>
    <v name="dipole">      0.00000000       0.00000000       0.02366778 </v>
    <i name="Tr[quadrupol]"> -10250.49568667 </i>
    <i name="Echarged">      0.00000000 </i>
    <i name="Edipol_quadrupol">      0.00000000 </i>
    <i name="Eion">      0.00000000 </i>
   </dipole>
   <energy>
    <i name="e_fr_energy">   -188.96251356 </i>
    <i name="e_wo_entrp">   -188.67644352 </i>
    <i name="e_0_energy">   -188.81947854 </i>
   </energy>
  </scstep>
  <scstep>
   <time name="diag">    1.86    1.87</time>
   <time name="diis">    4.33    4.35</time>
   <time name="orth">    0.35    0.35</time>
   <time name="total">    6.81    6.85</time>
   <dipole>
    <v name="dipole">      0.00000000       0.00000000       0.02244594 </v>
    <i name="Tr[quadrupol]"> -10250.54603334 </i>
    <i name="Echarged">      0.00000000 </i>
    <i name="Edipol_quadrupol">      0.00000000 </i>
    <i name="Eion">      0.00000000 </i>
   </dipole>
   <energy>
    <i name="e_fr_energy">   -188.96303894 </i>
    <i name="e_wo_entrp">   -188.67691419 </i>
    <i name="e_0_energy">   -188.81997657 </i>
   </energy>
  </scstep>
  <scstep>
   <time name="diag">    1.29    1.29</time>
   <time name="diis">    3.57    3.58</time>
   <time name="orth">    0.35    0.35</time>
   <time name="total">    5.48    5.49</time>
   <dipole>
    <v name="dipole">      0.00000000       0.00000000       0.02027693 </v>
    <i name="Tr[quadrupol]"> -10250.62240248 </i>
    <i name="Echarged">      0.00000000 </i>
    <i name="Edipol_quadrupol">      0.00000000 </i>
    <i name="Eion">      0.00000000 </i>
   </dipole>
   <energy>
    <i name="e_fr_energy">   -188.96380246 </i>
    <i name="e_wo_entrp">   -188.67773597 </i>
    <i name="e_0_energy">   -188.82076922 </i>
   </energy>
  </scstep>
  <scstep>
   <time name="diag">    1.29    1.29</time>
   <time name="diis">    3.35    3.36</time>
   <time name="orth">    0.35    0.35</time>
   <time name="total">    5.26    5.28</time>
   <dipole>
    <v name="dipole">      0.00000000       0.00000000       0.01851547 </v>
    <i name="Tr[quadrupol]"> -10250.67225667 </i>
    <i name="Echarged">      0.00000000 </i>
    <i name="Edipol_quadrupol">      0.00000000 </i>
    <i name="Eion">      0.00000000 </i>
   </dipole>
   <energy>
    <i name="e_fr_energy">   -188.96427556 </i>
    <i name="e_wo_entrp">   -188.67814548 </i>
    <i name="e_0_energy">   -188.82121052 </i>
   </energy>
  </scstep>
  <scstep>
   <time name="diag">    1.29    1.30</time>
   <time name="diis">    2.95    2.95</time>
   <time name="orth">    0.35    0.35</time>
   <time name="total">    4.86    4.88</time>
   <dipole>
    <v name="dipole">      0.00000000       0.00000000       0.01739492 </v>
    <i name="Tr[quadrupol]"> -10250.70350212 </i>
    <i name="Echarged">      0.00000000 </i>
    <i name="Edipol_quadrupol">      0.00000000 </i>
    <i name="Eion">      0.00000000 </i>
   </dipole>
   <energy>
    <i name="e_fr_energy">   -188.96450721 </i>
    <i name="e_wo_entrp">   -188.67841406 </i>
    <i name="e_0_energy">   -188.82146064 </i>
   </energy>
  </scstep>
  <scstep>
   <time name="diag">    1.30    1.30</time>
   <time name="diis">    2.59    2.60</time>
   <time name="orth">    0.34    0.35</time>
   <time name="total">    4.50    4.52</time>
   <dipole>
    <v name="dipole">      0.00000000       0.00000000       0.01688222 </v>
    <i name="Tr[quadrupol]"> -10250.71598314 </i>
    <i name="Echarged">      0.00000000 </i>
    <i name="Edipol_quadrupol">      0.00000000 </i>
    <i name="Eion">      0.00000000 </i>
   </dipole>
   <energy>
    <i name="e_fr_energy">   -188.96461229 </i>
    <i name="e_wo_entrp">   -188.67850573 </i>
    <i name="e_0_energy">   -188.82155901 </i>
   </energy>
  </scstep>
  <scstep>
   <time name="diag">    1.29    1.30</time>
   <time name="diis">    2.36    2.37</time>
   <time name="orth">    0.34    0.35</time>
   <time name="total">    4.27    4.28</time>
   <dipole>
    <v name="dipole">      0.00000000       0.00000000       0.01636423 </v>
    <i name="Tr[quadrupol]"> -10250.72771251 </i>
    <i name="Echarged">      0.00000000 </i>
    <i name="Edipol_quadrupol">      0.00000000 </i>
    <i name="Eion">      0.00000000 </i>
   </dipole>
   <energy>
    <i name="e_fr_energy">   -188.96470609 </i>
    <i name="e_wo_entrp">   -188.67862083 </i>
    <i name="e_0_energy">   -188.82166346 </i>
   </energy>
  </scstep>
  <scstep>
   <time name="diag">    1.29    1.29</time>
   <time name="diis">    2.17    2.18</time>
   <time name="orth">    0.35    0.35</time>
   <time name="total">    4.08    4.09</time>
   <dipole>
    <v name="dipole">      0.00000000       0.00000000       0.01590006 </v>
    <i name="Tr[quadrupol]"> -10250.73614858 </i>
    <i name="Echarged">      0.00000000 </i>
    <i name="Edipol_quadrupol">      0.00000000 </i>
    <i name="Eion">      0.00000000 </i>
   </dipole>
   <energy>
    <i name="e_fr_energy">   -188.96477151 </i>
    <i name="e_wo_entrp">   -188.67867854 </i>
    <i name="e_0_energy">   -188.82172503 </i>
   </energy>
  </scstep>
  <scstep>
   <time name="diag">    1.29    1.29</time>
   <time name="diis">    2.14    2.16</time>
   <time name="orth">    0.34    0.34</time>
   <time name="total">    4.04    4.08</time>
   <dipole>
    <v name="dipole">      0.00000000       0.00000000       0.01559677 </v>
    <i name="Tr[quadrupol]"> -10250.74082345 </i>
    <i name="Echarged">      0.00000000 </i>
    <i name="Edipol_quadrupol">      0.00000000 </i>
    <i name="Eion">      0.00000000 </i>
   </dipole>
   <energy>
    <i name="e_fr_energy">   -188.96480151 </i>
    <i name="e_wo_entrp">   -188.67871288 </i>
    <i name="e_0_energy">   -188.82175720 </i>
   </energy>
  </scstep>
  <scstep>
   <time name="diag">    1.29    1.30</time>
   <time name="diis">    2.17    2.18</time>
   <time name="orth">    0.34    0.35</time>
   <time name="total">    4.08    4.10</time>
   <dipole>
    <v name="dipole">      0.00000000       0.00000000       0.01519574 </v>
    <i name="Tr[quadrupol]"> -10250.74642742 </i>
    <i name="Echarged">      0.00000000 </i>
    <i name="Edipol_quadrupol">      0.00000000 </i>
    <i name="Eion">      0.00000000 </i>
   </dipole>
   <energy>
    <i name="e_fr_energy">   -188.96483112 </i>
    <i name="e_wo_entrp">   -188.67874306 </i>
    <i name="e_0_energy">   -188.82178709 </i>
   </energy>
  </scstep>
  <scstep>
   <time name="diag">    1.29    1.29</time>
   <time name="diis">    1.97    1.98</time>
   <time name="orth">    0.34    0.34</time>
   <time name="total">    3.88    3.89</time>
   <dipole>
    <v name="dipole">      0.00000000       0.00000000       0.01495468 </v>
    <i name="Tr[quadrupol]"> -10250.75025012 </i>
    <i name="Echarged">      0.00000000 </i>
    <i name="Edipol_quadrupol">      0.00000000 </i>
    <i name="Eion">      0.00000000 </i>
   </dipole>
   <energy>
    <i name="e_fr_energy">   -188.96484314 </i>
    <i name="e_wo_entrp">   -188.67875545 </i>
    <i name="e_0_energy">   -188.82179929 </i>
   </energy>
  </scstep>
  <scstep>
   <time name="diag">    1.29    1.29</time>
   <time name="diis">    1.85    1.86</time>
   <time name="orth">    0.35    0.35</time>
   <time name="total">    3.76    3.77</time>
   <dipole>
    <v name="dipole">      0.00000000       0.00000000       0.01475964 </v>
    <i name="Tr[quadrupol]"> -10250.75351238 </i>
    <i name="Echarged">      0.00000000 </i>
    <i name="Edipol_quadrupol">      0.00000000 </i>
    <i name="Eion">      0.00000000 </i>
   </dipole>
   <energy>
    <i name="e_fr_energy">   -188.96484804 </i>
    <i name="e_wo_entrp">   -188.67876034 </i>
    <i name="e_0_energy">   -188.82180419 </i>
   </energy>
  </scstep>
  <scstep>
   <time name="diag">    1.28    1.29</time>
   <time name="diis">    1.63    1.63</time>
   <time name="orth">    0.34    0.34</time>
   <time name="total">    3.53    3.54</time>
   <dipole>
    <v name="dipole">      0.00000000       0.00000000       0.01462700 </v>
    <i name="Tr[quadrupol]"> -10250.75580449 </i>
    <i name="Echarged">      0.00000000 </i>
    <i name="Edipol_quadrupol">      0.00000000 </i>
    <i name="Eion">      0.00000000 </i>
   </dipole>
   <energy>
    <i name="e_fr_energy">   -188.96484943 </i>
    <i name="e_wo_entrp">   -188.67876175 </i>
    <i name="e_0_energy">   -188.82180559 </i>
   </energy>
  </scstep>
  <scstep>
   <time name="diag">    1.29    1.29</time>
   <time name="diis">    1.53    1.53</time>
   <time name="orth">    0.35    0.35</time>
   <time name="total">    3.21    3.22</time>
   <dipole>
    <v name="dipole">      0.00000000       0.00000000       0.01453635 </v>
    <i name="Tr[quadrupol]"> -10250.75740403 </i>
    <i name="Echarged">      0.00000000 </i>
    <i name="Edipol_quadrupol">      0.00000000 </i>
    <i name="Eion">      0.00000000 </i>
   </dipole>
   <energy>
    <i name="alphaZ">    805.87395842 </i>
    <i name="ewald"> 200157.89547955 </i>
    <i name="hartreedc">-242348.83044843 </i>
    <i name="XCdc">   -343.39858056 </i>
    <i name="pawpsdc">  49346.66293852 </i>
    <i name="pawaedc"> -47424.47169365 </i>
    <i name="eentropy">     -0.28608771 </i>
    <i name="bandstr">  -2042.19628851 </i>
    <i name="atom">  41659.78587232 </i>
    <i name="e_fr_energy">   -188.96485005 </i>
    <i name="e_wo_entrp">   -188.67876233 </i>
    <i name="e_0_energy">   -188.82180619 </i>
   </energy>
  </scstep>
  <structure>
   <crystal>
    <varray name="basis" >
     <v>      11.00258152       0.00000000       0.00000000 </v>
     <v>       5.50129076       9.52851510       0.00000000 </v>
     <v>       0.00000000       0.00000000      24.49178509 </v>
    </varray>
    <i name="volume">   2567.67623402 </i>
    <varray name="rec_basis" >
     <v>       0.09088776      -0.05247407       0.00000000 </v>
     <v>       0.00000000       0.10494815       0.00000000 </v>
     <v>       0.00000000       0.00000000       0.04083002 </v>
    </varray>
   </crystal>
   <varray name="positions" >
    <v>       0.25000000       0.75000000       0.59169983 </v>
    <v>       0.50000000       0.50000000       0.59169983 </v>
    <v>       0.41666667       0.91666667       0.50000000 </v>
    <v>       0.58333333       0.08333333       0.40830017 </v>
    <v>       0.66666667       0.91666667       0.50000000 </v>
    <v>       0.16666667       0.91666667       0.50000000 </v>
    <v>       0.83333333       0.08333333       0.40830017 </v>
    <v>       0.75000000       0.00000000       0.59169983 </v>
    <v>       0.33333333       0.58333333       0.40830017 </v>
    <v>       0.25000000       0.25000000       0.59169983 </v>
    <v>       0.83333333       0.33333333       0.40830017 </v>
    <v>       0.50000000       0.25000000       0.59169983 </v>
    <v>       0.25000000       0.00000000       0.59169983 </v>
    <v>       0.33333333       0.33333333       0.40830017 </v>
    <v>       0.33333333       0.08333333       0.40830017 </v>
    <v>       0.91666667       0.16666667       0.50000000 </v>
    <v>       0.16666667       0.16666667       0.50000000 </v>
    <v>       0.08333333       0.58333333       0.40830017 </v>
    <v>       0.83333333       0.58333333       0.40830017 </v>
    <v>       0.08333333       0.83333333       0.40830017 </v>
    <v>       0.91666667       0.91666667       0.50000000 </v>
    <v>       0.66666667       0.41666667       0.50000000 </v>
    <v>       0.00000000       0.50000000       0.59169983 </v>
    <v>       0.41666667       0.66666667       0.50000000 </v>
    <v>       0.75000000       0.25000000       0.59169983 </v>
    <v>       0.66666667       0.16666667       0.50000000 </v>
    <v>       0.66666667       0.66666667       0.50000000 </v>
    <v>       0.75000000       0.50000000       0.59169983 </v>
    <v>       0.50000000       0.75000000       0.59169983 </v>
    <v>       0.83333333       0.83333333       0.40830017 </v>
    <v>       0.58333333       0.83333333       0.40830017 </v>
    <v>       0.08333333       0.08333333       0.40830017 </v>
    <v>       0.41666667       0.41666667       0.50000000 </v>
    <v>       0.58333333       0.33333333       0.40830017 </v>
    <v>       0.50000000       0.00000000       0.59169983 </v>
    <v>       0.41666667       0.16666667       0.50000000 </v>
    <v>       0.33333333       0.83333333       0.40830017 </v>
    <v>       0.25000000       0.50000000       0.59169983 </v>
    <v>       0.16666667       0.66666667       0.50000000 </v>
    <v>       0.16666667       0.41666667       0.50000000 </v>
    <v>       0.00000000       0.75000000       0.59169983 </v>
    <v>       0.91666667       0.66666667       0.50000000 </v>
    <v>       0.00000000       0.25000000       0.59169983 </v>
    <v>       0.91666667       0.41666667       0.50000000 </v>
    <v>       0.08333333       0.33333333       0.40830017 </v>
    <v>       0.00000000       0.00000000       0.59169983 </v>
    <v>       0.58333333       0.58333333       0.40830017 </v>
    <v>       0.75000000       0.75000000       0.59169983 </v>
   </varray>
  </structure>
  <varray name="forces" >
   <v>      -0.39772426      -0.09044003       1.60871307 </v>
   <v>       0.11496103      -0.08664996       1.55517107 </v>
   <v>       0.52127211      -0.34188276      -0.01556000 </v>
   <v>       0.13366931      -0.02930549      -1.34047327 </v>
   <v>      -0.18575886      -0.31390337       0.04536864 </v>
   <v>      -0.15191672      -0.04619316      -0.21362375 </v>
   <v>      -0.12007540       0.08478566      -1.65108600 </v>
   <v>       0.10414960      -0.04869908       1.53379211 </v>
   <v>       0.32175272      -0.07623134      -1.33817455 </v>
   <v>       0.12860524       0.09464545       1.35710941 </v>
   <v>       0.10154678       0.09171234      -1.57798355 </v>
   <v>      -0.02687652       0.01017270       1.12211524 </v>
   <v>       0.02514008      -0.00187156       1.86759963 </v>
   <v>       0.03286582      -0.00539369      -1.10886686 </v>
   <v>      -0.23299112      -0.09315787      -1.54407685 </v>
   <v>       0.01989707       0.23591757       0.54329411 </v>
   <v>      -0.08131234       0.72161064      -0.26104319 </v>
   <v>      -0.24314062      -0.02839202      -1.10762003 </v>
   <v>      -0.10046780       0.16179944      -1.08278213 </v>
   <v>       0.11709299       0.03242287      -1.61515443 </v>
   <v>      -0.17016670      -0.46156047       0.32785557 </v>
   <v>       0.00784495      -0.00479820       0.03802808 </v>
   <v>      -0.13561906       0.27242158       1.06251619 </v>
   <v>       0.26683416      -0.09990078      -0.28736137 </v>
   <v>       0.26594114      -0.01759908       0.84734548 </v>
   <v>      -0.16462263       0.37387856       0.02761716 </v>
   <v>       0.24825217      -0.12236274       0.17669457 </v>
   <v>       0.12373773       0.09909735       0.62010856 </v>
   <v>       0.40023598      -0.02621141       0.86849512 </v>
   <v>      -0.18104689      -0.06883280      -0.87758833 </v>
   <v>      -0.06149564      -0.29648984      -0.82480908 </v>
   <v>       0.15567900       0.00607164      -1.07939516 </v>
   <v>      -0.28329914      -0.19393498      -0.03494955 </v>
   <v>      -0.00224708       0.11351836      -0.73993892 </v>
   <v>       0.00817102      -0.17753681       0.92526583 </v>
   <v>       0.18487963       0.23969328       0.11376500 </v>
   <v>       0.16151825      -0.02187093      -1.02149713 </v>
   <v>      -0.10562227       0.13382687       0.57073350 </v>
   <v>      -0.34943137      -0.39213235       0.32431872 </v>
   <v>       0.07867808       0.17295795       0.03406554 </v>
   <v>       0.00157566      -0.12131066       0.68972726 </v>
   <v>      -0.03186112      -0.13823216       0.22489730 </v>
   <v>      -0.33209913       0.08334883       0.85654238 </v>
   <v>       0.17981759       0.25006939       0.22947444 </v>
   <v>      -0.07812335      -0.02017039      -0.70420371 </v>
   <v>      -0.08442719       0.11480668       1.03656431 </v>
   <v>       0.03316612       0.17734867      -0.83407442 </v>
   <v>      -0.21695902      -0.14504189       0.65308400 </v>
  </varray>
  <energy>
   <i name="e_fr_energy">   -188.96485005 </i>
   <i name="e_wo_entrp">   -188.82180619 </i>
   <i name="e_0_energy">     -0.28608771 </i>
  </energy>
  <time name="totalsc">  230.79  231.64</time>
 </calculation>
 <calculation>
  <scstep>
   <time name="dav">    8.37    8.40</time>
   <time name="total">    8.65    8.68</time>
   <dipole>
    <v name="dipole">      0.00000000       0.00000000       0.01445135 </v>
    <i name="Tr[quadrupol]"> -10254.94409739 </i>
    <i name="Echarged">      0.00000000 </i>
    <i name="Edipol_quadrupol">      0.00000000 </i>
    <i name="Eion">      0.00000000 </i>
   </dipole>
   <energy>
    <i name="alphaZ">    805.87400322 </i>
    <i name="ewald"> 197482.21347147 </i>
    <i name="hartreedc">-239688.91038602 </i>
    <i name="XCdc">   -345.58522929 </i>
    <i name="pawpsdc">  49346.65924312 </i>
    <i name="pawaedc"> -47424.46794653 </i>
    <i name="eentropy">     -0.27709641 </i>
    <i name="bandstr">  -2025.29688029 </i>
    <i name="atom">  41659.78587232 </i>
    <i name="e_fr_energy">   -190.00494841 </i>
    <i name="e_wo_entrp">   -189.72785200 </i>
    <i name="e_0_energy">   -189.86640020 </i>
   </energy>
  </scstep>
  <scstep>
   <time name="diag">    1.29    1.29</time>
   <time name="diis">    3.62    3.63</time>
   <time name="orth">    0.34    0.35</time>
   <time name="total">    5.53    5.54</time>
   <dipole>
    <v name="dipole">      0.00000000       0.00000000       0.00745451 </v>
    <i name="Tr[quadrupol]"> -10254.68913153 </i>
    <i name="Echarged">      0.00000000 </i>
    <i name="Edipol_quadrupol">      0.00000000 </i>
    <i name="Eion">      0.00000000 </i>
   </dipole>
   <energy>
    <i name="e_fr_energy">   -190.37446259 </i>
    <i name="e_wo_entrp">   -190.10038410 </i>
    <i name="e_0_energy">   -190.23742334 </i>
   </energy>
  </scstep>
  <scstep>
   <time name="diag">    1.29    1.30</time>
   <time name="diis">    3.60    3.61</time>
   <time name="orth">    0.34    0.34</time>
   <time name="total">    5.50    5.52</time>
   <dipole>
    <v name="dipole">      0.00000000       0.00000000       0.04843538 </v>
    <i name="Tr[quadrupol]"> -10255.11971150 </i>
    <i name="Echarged">      0.00000000 </i>
    <i name="Edipol_quadrupol">      0.00000000 </i>
    <i name="Eion">      0.00000000 </i>
   </dipole>
   <energy>
    <i name="e_fr_energy">   -190.55655475 </i>
    <i name="e_wo_entrp">   -190.28692046 </i>
    <i name="e_0_energy">   -190.42173761 </i>
   </energy>
  </scstep>
  <scstep>
   <time name="diag">    1.28    1.31</time>
   <time name="diis">    3.69    3.70</time>
   <time name="orth">    0.34    0.35</time>
   <time name="total">    5.59    5.63</time>
   <dipole>
    <v name="dipole">      0.00000000       0.00000000       0.01323814 </v>
    <i name="Tr[quadrupol]"> -10255.04985507 </i>
    <i name="Echarged">      0.00000000 </i>
    <i name="Edipol_quadrupol">      0.00000000 </i>
    <i name="Eion">      0.00000000 </i>
   </dipole>
   <energy>
    <i name="e_fr_energy">   -190.35121331 </i>
    <i name="e_wo_entrp">   -190.07248029 </i>
    <i name="e_0_energy">   -190.21184680 </i>
   </energy>
  </scstep>
  <scstep>
   <time name="diag">    1.29    1.29</time>
   <time name="diis">    3.62    3.63</time>
   <time name="orth">    0.34    0.35</time>
   <time name="total">    5.53    5.54</time>
   <dipole>
    <v name="dipole">      0.00000000       0.00000000       0.01106303 </v>
    <i name="Tr[quadrupol]"> -10255.02595939 </i>
    <i name="Echarged">      0.00000000 </i>
    <i name="Edipol_quadrupol">      0.00000000 </i>
    <i name="Eion">      0.00000000 </i>
   </dipole>
   <energy>
    <i name="e_fr_energy">   -190.37576094 </i>
    <i name="e_wo_entrp">   -190.10420661 </i>
    <i name="e_0_energy">   -190.23998378 </i>
   </energy>
  </scstep>
  <scstep>
   <time name="diag">    1.29    1.29</time>
   <time name="diis">    3.65    3.66</time>
   <time name="orth">    0.35    0.35</time>
   <time name="total">    5.55    5.57</time>
   <dipole>
    <v name="dipole">      0.00000000       0.00000000       0.02149974 </v>
    <i name="Tr[quadrupol]"> -10255.04143448 </i>
    <i name="Echarged">      0.00000000 </i>
    <i name="Edipol_quadrupol">      0.00000000 </i>
    <i name="Eion">      0.00000000 </i>
   </dipole>
   <energy>
    <i name="e_fr_energy">   -190.34470079 </i>
    <i name="e_wo_entrp">   -190.06427107 </i>
    <i name="e_0_energy">   -190.20448593 </i>
   </energy>
  </scstep>
  <scstep>
   <time name="diag">    1.28    1.29</time>
   <time name="diis">    3.64    3.64</time>
   <time name="orth">    0.34    0.34</time>
   <time name="total">    5.53    5.55</time>
   <dipole>
    <v name="dipole">      0.00000000       0.00000000      -0.00082852 </v>
    <i name="Tr[quadrupol]"> -10255.00028538 </i>
    <i name="Echarged">      0.00000000 </i>
    <i name="Edipol_quadrupol">      0.00000000 </i>
    <i name="Eion">      0.00000000 </i>
   </dipole>
   <energy>
    <i name="e_fr_energy">   -190.34367255 </i>
    <i name="e_wo_entrp">   -190.06493937 </i>
    <i name="e_0_energy">   -190.20430596 </i>
   </energy>
  </scstep>
  <scstep>
   <time name="diag">    1.29    1.29</time>
   <time name="diis">    3.63    3.64</time>
   <time name="orth">    0.35    0.35</time>
   <time name="total">    5.54    5.55</time>
   <dipole>
    <v name="dipole">      0.00000000       0.00000000       0.02527727 </v>
    <i name="Tr[quadrupol]"> -10254.97770776 </i>
    <i name="Echarged">      0.00000000 </i>
    <i name="Edipol_quadrupol">      0.00000000 </i>
    <i name="Eion">      0.00000000 </i>
   </dipole>
   <energy>
    <i name="e_fr_energy">   -190.34130765 </i>
    <i name="e_wo_entrp">   -190.06373765 </i>
    <i name="e_0_energy">   -190.20252265 </i>
   </energy>
  </scstep>
  <scstep>
   <time name="diag">    1.29    1.29</time>
   <time name="diis">    3.63    3.64</time>
   <time name="orth">    0.34    0.34</time>
   <time name="total">    5.54    5.55</time>
   <dipole>
    <v name="dipole">      0.00000000       0.00000000       0.01297326 </v>
    <i name="Tr[quadrupol]"> -10254.97993237 </i>
    <i name="Echarged">      0.00000000 </i>
    <i name="Edipol_quadrupol">      0.00000000 </i>
    <i name="Eion">      0.00000000 </i>
   </dipole>
   <energy>
    <i name="e_fr_energy">   -190.33871967 </i>
    <i name="e_wo_entrp">   -190.05862621 </i>
    <i name="e_0_energy">   -190.19867294 </i>
   </energy>
  </scstep>
  <scstep>
   <time name="diag">    1.29    1.29</time>
   <time name="diis">    3.64    3.65</time>
   <time name="orth">    0.34    0.34</time>
   <time name="total">    5.54    5.55</time>
   <dipole>
    <v name="dipole">      0.00000000       0.00000000       0.01433791 </v>
    <i name="Tr[quadrupol]"> -10254.96975088 </i>
    <i name="Echarged">      0.00000000 </i>
    <i name="Edipol_quadrupol">      0.00000000 </i>
    <i name="Eion">      0.00000000 </i>
   </dipole>
   <energy>
    <i name="e_fr_energy">   -190.33868702 </i>
    <i name="e_wo_entrp">   -190.05942694 </i>
    <i name="e_0_energy">   -190.19905698 </i>
   </energy>
  </scstep>
  <scstep>
   <time name="diag">    1.29    1.30</time>
   <time name="diis">    5.38    5.40</time>
   <time name="orth">    0.34    0.35</time>
   <time name="total">    7.28    7.33</time>
   <dipole>
    <v name="dipole">      0.00000000       0.00000000       0.01416096 </v>
    <i name="Tr[quadrupol]"> -10254.97147812 </i>
    <i name="Echarged">      0.00000000 </i>
    <i name="Edipol_quadrupol">      0.00000000 </i>
    <i name="Eion">      0.00000000 </i>
   </dipole>
   <energy>
    <i name="e_fr_energy">   -190.33856242 </i>
    <i name="e_wo_entrp">   -190.05870557 </i>
    <i name="e_0_energy">   -190.19863400 </i>
   </energy>
  </scstep>
  <scstep>
   <time name="diag">    1.29    1.30</time>
   <time name="diis">    3.63    3.64</time>
   <time name="orth">    0.35    0.35</time>
   <time name="total">    5.54    5.55</time>
   <dipole>
    <v name="dipole">      0.00000000       0.00000000       0.01423516 </v>
    <i name="Tr[quadrupol]"> -10254.97339016 </i>
    <i name="Echarged">      0.00000000 </i>
    <i name="Edipol_quadrupol">      0.00000000 </i>
    <i name="Eion">      0.00000000 </i>
   </dipole>
   <energy>
    <i name="e_fr_energy">   -190.33856040 </i>
    <i name="e_wo_entrp">   -190.05878862 </i>
    <i name="e_0_energy">   -190.19867451 </i>
   </energy>
  </scstep>
  <scstep>
   <time name="diag">    1.29    1.29</time>
   <time name="diis">    3.64    3.65</time>
   <time name="orth">    0.35    0.35</time>
   <time name="total">    5.54    5.56</time>
   <dipole>
    <v name="dipole">      0.00000000       0.00000000       0.01419503 </v>
    <i name="Tr[quadrupol]"> -10254.97873154 </i>
    <i name="Echarged">      0.00000000 </i>
    <i name="Edipol_quadrupol">      0.00000000 </i>
    <i name="Eion">      0.00000000 </i>
   </dipole>
   <energy>
    <i name="e_fr_energy">   -190.33855261 </i>
    <i name="e_wo_entrp">   -190.05887632 </i>
    <i name="e_0_energy">   -190.19871446 </i>
   </energy>
  </scstep>
  <scstep>
   <time name="diag">    1.28    1.29</time>
   <time name="diis">    3.37    3.37</time>
   <time name="orth">    0.34    0.34</time>
   <time name="total">    5.26    5.28</time>
   <dipole>
    <v name="dipole">      0.00000000       0.00000000       0.01413410 </v>
    <i name="Tr[quadrupol]"> -10254.98154812 </i>
    <i name="Echarged">      0.00000000 </i>
    <i name="Edipol_quadrupol">      0.00000000 </i>
    <i name="Eion">      0.00000000 </i>
   </dipole>
   <energy>
    <i name="e_fr_energy">   -190.33854822 </i>
    <i name="e_wo_entrp">   -190.05884759 </i>
    <i name="e_0_energy">   -190.19869790 </i>
   </energy>
  </scstep>
  <scstep>
   <time name="diag">    1.29    1.29</time>
   <time name="diis">    2.51    2.51</time>
   <time name="orth">    0.34    0.35</time>
   <time name="total">    4.18    4.20</time>
   <dipole>
    <v name="dipole">      0.00000000       0.00000000       0.01423125 </v>
    <i name="Tr[quadrupol]"> -10254.98421412 </i>
    <i name="Echarged">      0.00000000 </i>
    <i name="Edipol_quadrupol">      0.00000000 </i>
    <i name="Eion">      0.00000000 </i>
   </dipole>
   <energy>
    <i name="alphaZ">    805.87393267 </i>
    <i name="ewald"> 197482.21347147 </i>
    <i name="hartreedc">-239691.02420050 </i>
    <i name="XCdc">   -345.52287123 </i>
    <i name="pawpsdc">  48910.58289173 </i>
    <i name="pawaedc"> -46985.20966553 </i>
    <i name="eentropy">     -0.27963368 </i>
    <i name="bandstr">  -2026.75834544 </i>
    <i name="atom">  41659.78587232 </i>
    <i name="e_fr_energy">   -190.33854819 </i>
    <i name="e_wo_entrp">   -190.05891451 </i>
    <i name="e_0_energy">   -190.19873135 </i>
   </energy>
  </scstep>
  <structure>
   <crystal>
    <varray name="basis" >
     <v>      11.00258152       0.00000000       0.00000000 </v>
     <v>       5.50129076       9.52851510       0.00000000 </v>
     <v>       0.00000000       0.00000000      24.49178509 </v>
    </varray>
    <i name="volume">   2567.67623402 </i>
    <varray name="rec_basis" >
     <v>       0.09088776      -0.05247407       0.00000000 </v>
     <v>       0.00000000       0.10494815       0.00000000 </v>
     <v>       0.00000000       0.00000000       0.04083002 </v>
    </varray>
   </crystal>
   <varray name="positions" >
    <v>       0.24893954       0.74967947       0.59391796 </v>
    <v>       0.50050639       0.49969291       0.59384414 </v>
    <v>       0.41887242       0.91545501       0.49997855 </v>
    <v>       0.58379553       0.08322947       0.40645189 </v>
    <v>       0.66665277       0.91555417       0.50006256 </v>
    <v>       0.16628225       0.91650295       0.49970545 </v>
    <v>       0.83281455       0.08363382       0.40602361 </v>
    <v>       0.75040596      -0.00017259       0.59381466 </v>
    <v>       0.33445596       0.58306316       0.40645506 </v>
    <v>       0.25022701       0.25033543       0.59357105 </v>
    <v>       0.83348249       0.33365837       0.40612441 </v>
    <v>       0.49989948       0.25003605       0.59324703 </v>
    <v>       0.25008048      -0.00000663       0.59427492 </v>
    <v>       0.33344377       0.33331422       0.40677124 </v>
    <v>       0.33278330       0.08300317       0.40617116 </v>
    <v>       0.91630968       0.16750278       0.50074911 </v>
    <v>       0.16513837       0.16922412       0.49964007 </v>
    <v>       0.08263738       0.58323271       0.40677296 </v>
    <v>       0.83273826       0.58390676       0.40680720 </v>
    <v>       0.08363527       0.83344824       0.40607316 </v>
    <v>       0.91696228       0.91503086       0.50045206 </v>
    <v>       0.66669925       0.41664966       0.50005243 </v>
    <v>      -0.00089899       0.50096548       0.59316485 </v>
    <v>       0.41766268       0.66631261       0.49960378 </v>
    <v>       0.75084743       0.24993763       0.59286817 </v>
    <v>       0.66549887       0.16799172       0.50003808 </v>
    <v>       0.66764545       0.66623300       0.50024363 </v>
    <v>       0.75020418       0.50035121       0.59255485 </v>
    <v>       0.50127488       0.74990710       0.59289733 </v>
    <v>       0.83289963       0.83308938       0.40709013 </v>
    <v>       0.58366998       0.83228255       0.40716290 </v>
    <v>       0.08380039       0.08335485       0.40681187 </v>
    <v>       0.41614081       0.41597934       0.49995181 </v>
    <v>       0.58312528       0.33373565       0.40727992 </v>
    <v>       0.50033968      -0.00062921       0.59297561 </v>
    <v>       0.41680937       0.16751616       0.50015686 </v>
    <v>       0.33386783       0.83325582       0.40689170 </v>
    <v>       0.24943867       0.50047429       0.59248677 </v>
    <v>       0.16628904       0.66527692       0.50044718 </v>
    <v>       0.16660166       0.41727964       0.50004697 </v>
    <v>       0.00021980       0.74957006       0.59265084 </v>
    <v>       0.91681383       0.66617676       0.50031009 </v>
    <v>      -0.00116700       0.25029540       0.59288085 </v>
    <v>       0.91677544       0.41755293       0.50031640 </v>
    <v>       0.08312929       0.33326185       0.40732920 </v>
    <v>      -0.00046257       0.00040688       0.59312907 </v>
    <v>       0.58312086       0.58396187       0.40715013 </v>
    <v>       0.74959112       0.74948596       0.59260032 </v>
   </varray>
  </structure>
  <varray name="forces" >
   <v>      -0.15371463      -0.02854100       1.10356248 </v>
   <v>       0.07411917      -0.00151987       1.09873440 </v>
   <v>       0.11298072       0.01186510       0.02949204 </v>
   <v>       0.03011647      -0.06444456      -0.95743204 </v>
   <v>       0.02293963      -0.05538959       0.01980726 </v>
   <v>       0.01206668      -0.03931700      -0.04347470 </v>
   <v>       0.00259277       0.03480328      -1.07324707 </v>
   <v>       0.04129203      -0.03442716       1.11448382 </v>
   <v>       0.15106071      -0.01050910      -0.96817370 </v>
   <v>       0.00187865       0.04770677       0.99300905 </v>
   <v>       0.05714374       0.02627702      -1.09806211 </v>
   <v>       0.02421535      -0.00379075       0.88996895 </v>
   <v>       0.00204379      -0.00502579       1.20535217 </v>
   <v>      -0.01287599      -0.02356801      -0.84323543 </v>
   <v>      -0.10427524      -0.09117269      -1.07566146 </v>
   <v>      -0.08146906       0.07888596       0.11120320 </v>
   <v>       0.08030069       0.23743646      -0.03357648 </v>
   <v>      -0.10997854       0.01412478      -0.83102228 </v>
   <v>      -0.07781956       0.07889063      -0.82242782 </v>
   <v>       0.04291476       0.00295507      -1.14562101 </v>
   <v>      -0.11698727      -0.14728862       0.06185804 </v>
   <v>       0.00757709       0.01553602      -0.00818976 </v>
   <v>      -0.06675234       0.12627271       0.87029094 </v>
   <v>       0.01713565      -0.08424807      -0.01594399 </v>
   <v>       0.13302400       0.00525055       0.70293179 </v>
   <v>      -0.08296210       0.07750156       0.00581163 </v>
   <v>       0.20648622      -0.19542331       0.06769483 </v>
   <v>       0.04434130       0.04261179       0.52848444 </v>
   <v>       0.17030788      -0.02881849       0.66476233 </v>
   <v>      -0.08412862      -0.00610696      -0.63112478 </v>
   <v>      -0.04575288      -0.15662740      -0.67725189 </v>
   <v>       0.03032846       0.01266070      -0.76991384 </v>
   <v>      -0.14561255      -0.04521987      -0.00135215 </v>
   <v>       0.04436972       0.09078346      -0.57416709 </v>
   <v>       0.01507395      -0.09197392       0.70659619 </v>
   <v>       0.04451995       0.10016105       0.00365356 </v>
   <v>       0.10034167       0.00660567      -0.76029849 </v>
   <v>      -0.05405194       0.05742678       0.49768093 </v>
   <v>      -0.09669968      -0.22531332       0.05088168 </v>
   <v>       0.04961933       0.10398369       0.02666778 </v>
   <v>      -0.04088310      -0.05546394       0.62767437 </v>
   <v>      -0.03671473      -0.15763158       0.08123550 </v>
   <v>      -0.13934207       0.05375861       0.71168973 </v>
   <v>       0.07864204       0.22387971       0.06505818 </v>
   <v>      -0.05875856       0.02403181      -0.59375944 </v>
   <v>      -0.01687599       0.03691441       0.77981930 </v>
   <v>       0.05273815       0.08716027      -0.67026449 </v>
   <v>      -0.12451571      -0.04566286       0.57579541 </v>
  </varray>
  <energy>
   <i name="e_fr_energy">   -190.33854819 </i>
   <i name="e_wo_entrp">   -190.19873135 </i>
   <i name="e_0_energy">     -0.27963368 </i>
  </energy>
  <time name="totalsc">   88.83   89.15</time>
 </calculation>
 <calculation>
  <scstep>
   <time name="dav">    7.33    7.39</time>
   <time name="total">    7.60    7.66</time>
   <dipole>
    <v name="dipole">      0.00000000       0.00000000       0.01422263 </v>
    <i name="Tr[quadrupol]"> -10268.26256352 </i>
    <i name="Echarged">      0.00000000 </i>
    <i name="Edipol_quadrupol">      0.00000000 </i>
    <i name="Eion">      0.00000000 </i>
   </dipole>
   <energy>
    <i name="alphaZ">    805.87414136 </i>
    <i name="ewald"> 189566.97221887 </i>
    <i name="hartreedc">-231817.25039658 </i>
    <i name="XCdc">   -351.08536954 </i>
    <i name="pawpsdc">  48910.48520124 </i>
    <i name="pawaedc"> -46985.11183541 </i>
    <i name="eentropy">     -0.25025528 </i>
    <i name="bandstr">  -1978.53894308 </i>
    <i name="atom">  41659.78587232 </i>
    <i name="e_fr_energy">   -189.11936610 </i>
    <i name="e_wo_entrp">   -188.86911081 </i>
    <i name="e_0_energy">   -188.99423845 </i>
   </energy>
  </scstep>
  <scstep>
   <time name="diag">    1.29    1.29</time>
   <time name="diis">    3.61    3.64</time>
   <time name="orth">    0.35    0.35</time>
   <time name="total">    5.51    5.55</time>
   <dipole>
    <v name="dipole">      0.00000000       0.00000000      -0.00067630 </v>
    <i name="Tr[quadrupol]"> -10267.42749464 </i>
    <i name="Echarged">      0.00000000 </i>
    <i name="Edipol_quadrupol">      0.00000000 </i>
    <i name="Eion">      0.00000000 </i>
   </dipole>
   <energy>
    <i name="e_fr_energy">   -192.36944561 </i>
    <i name="e_wo_entrp">   -192.13351932 </i>
    <i name="e_0_energy">   -192.25148247 </i>
   </energy>
  </scstep>
  <scstep>
   <time name="diag">    1.29    1.29</time>
   <time name="diis">    3.68    3.70</time>
   <time name="orth">    0.34    0.34</time>
   <time name="total">    5.57    5.61</time>
   <dipole>
    <v name="dipole">      0.00000000       0.00000000       0.06474365 </v>
    <i name="Tr[quadrupol]"> -10268.54922844 </i>
    <i name="Echarged">      0.00000000 </i>
    <i name="Edipol_quadrupol">      0.00000000 </i>
    <i name="Eion">      0.00000000 </i>
   </dipole>
   <energy>
    <i name="e_fr_energy">   -193.22628044 </i>
    <i name="e_wo_entrp">   -193.02187914 </i>
    <i name="e_0_energy">   -193.12407979 </i>
   </energy>
  </scstep>
  <scstep>
   <time name="diag">    1.29    1.29</time>
   <time name="diis">    3.65    3.66</time>
   <time name="orth">    0.34    0.34</time>
   <time name="total">    5.55    5.56</time>
   <dipole>
    <v name="dipole">      0.00000000       0.00000000       0.04670484 </v>
    <i name="Tr[quadrupol]"> -10268.32420847 </i>
    <i name="Echarged">      0.00000000 </i>
    <i name="Edipol_quadrupol">      0.00000000 </i>
    <i name="Eion">      0.00000000 </i>
   </dipole>
   <energy>
    <i name="e_fr_energy">   -192.17039316 </i>
    <i name="e_wo_entrp">   -191.92942125 </i>
    <i name="e_0_energy">   -192.04990721 </i>
   </energy>
  </scstep>
  <scstep>
   <time name="diag">    1.29    1.29</time>
   <time name="diis">    3.67    3.68</time>
   <time name="orth">    0.34    0.34</time>
   <time name="total">    5.57    5.58</time>
   <dipole>
    <v name="dipole">      0.00000000       0.00000000      -0.13341276 </v>
    <i name="Tr[quadrupol]"> -10268.49587346 </i>
    <i name="Echarged">      0.00000000 </i>
    <i name="Edipol_quadrupol">      0.00000000 </i>
    <i name="Eion">      0.00000000 </i>
   </dipole>
   <energy>
    <i name="e_fr_energy">   -192.42559786 </i>
    <i name="e_wo_entrp">   -192.20167425 </i>
    <i name="e_0_energy">   -192.31363606 </i>
   </energy>
  </scstep>
  <scstep>
   <time name="diag">    1.57    1.58</time>
   <time name="diis">    4.55    4.57</time>
   <time name="orth">    0.34    0.34</time>
   <time name="total">    6.74    6.76</time>
   <dipole>
    <v name="dipole">      0.00000000       0.00000000       0.13908485 </v>
    <i name="Tr[quadrupol]"> -10268.52447920 </i>
    <i name="Echarged">      0.00000000 </i>
    <i name="Edipol_quadrupol">      0.00000000 </i>
    <i name="Eion">      0.00000000 </i>
   </dipole>
   <energy>
    <i name="e_fr_energy">   -192.38954153 </i>
    <i name="e_wo_entrp">   -192.14364369 </i>
    <i name="e_0_energy">   -192.26659261 </i>
   </energy>
  </scstep>
  <scstep>
   <time name="diag">    1.29    1.29</time>
   <time name="diis">    3.63    3.65</time>
   <time name="orth">    0.34    0.34</time>
   <time name="total">    5.54    5.56</time>
   <dipole>
    <v name="dipole">      0.00000000       0.00000000       0.00065479 </v>
    <i name="Tr[quadrupol]"> -10268.46909812 </i>
    <i name="Echarged">      0.00000000 </i>
    <i name="Edipol_quadrupol">      0.00000000 </i>
    <i name="Eion">      0.00000000 </i>
   </dipole>
   <energy>
    <i name="e_fr_energy">   -192.06401051 </i>
    <i name="e_wo_entrp">   -191.80684990 </i>
    <i name="e_0_energy">   -191.93543020 </i>
   </energy>
  </scstep>
  <scstep>
   <time name="diag">    1.29    1.29</time>
   <time name="diis">    3.51    3.51</time>
   <time name="orth">    0.34    0.34</time>
   <time name="total">    5.41    5.42</time>
   <dipole>
    <v name="dipole">      0.00000000       0.00000000       0.01110820 </v>
    <i name="Tr[quadrupol]"> -10268.33489499 </i>
    <i name="Echarged">      0.00000000 </i>
    <i name="Edipol_quadrupol">      0.00000000 </i>
    <i name="Eion">      0.00000000 </i>
   </dipole>
   <energy>
    <i name="e_fr_energy">   -192.04265117 </i>
    <i name="e_wo_entrp">   -191.78154623 </i>
    <i name="e_0_energy">   -191.91209870 </i>
   </energy>
  </scstep>
  <scstep>
   <time name="diag">    1.29    1.29</time>
   <time name="diis">    3.62    3.63</time>
   <time name="orth">    0.34    0.34</time>
   <time name="total">    5.52    5.53</time>
   <dipole>
    <v name="dipole">      0.00000000       0.00000000       0.01095022 </v>
    <i name="Tr[quadrupol]"> -10268.27782731 </i>
    <i name="Echarged">      0.00000000 </i>
    <i name="Edipol_quadrupol">      0.00000000 </i>
    <i name="Eion">      0.00000000 </i>
[...]
       <r>    2.2914    0.0000 </r>
       <r>    2.3704    0.0000 </r>
       <r>    2.4902    0.0000 </r>
       <r>    2.5638    0.0000 </r>
       <r>    2.7116    0.0000 </r>
       <r>    2.9627    0.0000 </r>
       <r>    3.1547    0.0000 </r>
       <r>    3.2082    0.0000 </r>
       <r>    3.5068    0.0000 </r>
       <r>    3.6206    0.0000 </r>
       <r>    3.7480    0.0000 </r>
       <r>    4.0212    0.0000 </r>
       <r>    4.0914    0.0000 </r>
       <r>    4.2241    0.0000 </r>
       <r>    4.4928    0.0000 </r>
       <r>    4.5480    0.0000 </r>
       <r>    4.5660    0.0000 </r>
       <r>    4.6241    0.0000 </r>
       <r>    4.7049    0.0000 </r>
       <r>    4.8390    0.0000 </r>
       <r>    4.8697    0.0000 </r>
       <r>    4.9198    0.0000 </r>
       <r>    4.9776    0.0000 </r>
       <r>    5.0497    0.0000 </r>
       <r>    5.0693    0.0000 </r>
       <r>    5.1213    0.0000 </r>
       <r>    5.2419    0.0000 </r>
       <r>    5.2592    0.0000 </r>
      </set>
     </set>
    </set>
   </array>
  </eigenvalues>
  <separator name="orbital magnetization" >
   <v name="MAGDIPOLOUT">      0.00000000      0.00000000      0.00000000</v>
  </separator>
  <dos>
   <i name="efermi">     -1.10051011 </i>
   <total>
    <array>
     <dimension dim="1">gridpoints</dimension>
     <dimension dim="2">spin</dimension>
     <field>energy</field>
     <field>total</field>
     <field>integrated</field>
     <set>
      <set comment="spin 1">
       <r>    -9.7894     0.0000     0.0000 </r>
       <r>    -9.7354     0.0000     0.0000 </r>
       <r>    -9.6814     0.0000     0.0000 </r>
       <r>    -9.6274     0.0000     0.0000 </r>
       <r>    -9.5734     0.0000     0.0000 </r>
       <r>    -9.5195     0.0000     0.0000 </r>
       <r>    -9.4655     0.0000     0.0000 </r>
       <r>    -9.4115     0.0000     0.0000 </r>
       <r>    -9.3575     0.0000     0.0000 </r>
       <r>    -9.3035     0.0000     0.0000 </r>
       <r>    -9.2495     0.0000     0.0000 </r>
       <r>    -9.1955     0.0000     0.0000 </r>
       <r>    -9.1416     0.0000     0.0000 </r>
       <r>    -9.0876     0.0002     0.0000 </r>
       <r>    -9.0336     0.0037     0.0002 </r>
       <r>    -8.9796     0.0478     0.0028 </r>
       <r>    -8.9256     0.3577     0.0221 </r>
       <r>    -8.8716     1.5384     0.1052 </r>
       <r>    -8.8177     3.8249     0.3116 </r>
       <r>    -8.7637     5.6025     0.6141 </r>
       <r>    -8.7097     5.3319     0.9019 </r>
       <r>    -8.6557     4.7284     1.1572 </r>
       <r>    -8.6017     5.3356     1.4452 </r>
       <r>    -8.5477     5.2818     1.7304 </r>
       <r>    -8.4937     3.3748     1.9126 </r>
       <r>    -8.4398     1.2895     1.9822 </r>
       <r>    -8.3858     0.2904     1.9979 </r>
       <r>    -8.3318     0.0525     2.0007 </r>
       <r>    -8.2778     0.1270     2.0075 </r>
       <r>    -8.2238     0.6228     2.0412 </r>
       <r>    -8.1698     1.8989     2.1437 </r>
       <r>    -8.1158     3.6578     2.3411 </r>
       <r>    -8.0619     4.7598     2.5981 </r>
       <r>    -8.0079     4.9018     2.8627 </r>
       <r>    -7.9539     5.6711     3.1689 </r>
       <r>    -7.8999     8.2910     3.6165 </r>
       <r>    -7.8459    10.4703     4.1817 </r>
       <r>    -7.7919     9.1975     4.6782 </r>
       <r>    -7.7380     6.3171     5.0193 </r>
       <r>    -7.6840     5.6133     5.3223 </r>
       <r>    -7.6300     6.8369     5.6914 </r>
       <r>    -7.5760     7.6977     6.1069 </r>
       <r>    -7.5220     8.2612     6.5529 </r>
       <r>    -7.4680     9.9207     7.0885 </r>
       <r>    -7.4140    12.1504     7.7444 </r>
       <r>    -7.3601    12.5314     8.4209 </r>
       <r>    -7.3061    10.9724     9.0133 </r>
       <r>    -7.2521    10.6921     9.5905 </r>
       <r>    -7.1981    13.0864    10.2970 </r>
       <r>    -7.1441    16.2100    11.1720 </r>
       <r>    -7.0901    18.7629    12.1850 </r>
       <r>    -7.0361    21.8332    13.3636 </r>
       <r>    -6.9822    25.6687    14.7493 </r>
       <r>    -6.9282    29.0483    16.3175 </r>
       <r>    -6.8742    31.5888    18.0228 </r>
       <r>    -6.8202    33.6183    19.8377 </r>
       <r>    -6.7662    35.1662    21.7362 </r>
       <r>    -6.7122    36.3055    23.6961 </r>
       <r>    -6.6583    37.7272    25.7328 </r>
       <r>    -6.6043    40.9599    27.9440 </r>
       <r>    -6.5503    47.3483    30.5001 </r>
       <r>    -6.4963    55.3588    33.4887 </r>
       <r>    -6.4423    62.2252    36.8479 </r>
       <r>    -6.3883    66.5910    40.4428 </r>
       <r>    -6.3343    68.0632    44.1172 </r>
       <r>    -6.2804    68.6311    47.8222 </r>
       <r>    -6.2264    71.4934    51.6818 </r>
       <r>    -6.1724    75.5158    55.7585 </r>
       <r>    -6.1184    77.1046    59.9210 </r>
       <r>    -6.0644    76.7719    64.0655 </r>
       <r>    -6.0104    77.6227    68.2560 </r>
       <r>    -5.9565    79.4964    72.5476 </r>
       <r>    -5.9025    80.2403    76.8793 </r>
       <r>    -5.8485    79.5261    81.1725 </r>
       <r>    -5.7945    77.4822    85.3554 </r>
       <r>    -5.7405    74.1448    89.3581 </r>
       <r>    -5.6865    71.2460    93.2043 </r>
       <r>    -5.6325    69.9857    96.9825 </r>
       <r>    -5.5786    68.7848   100.6958 </r>
       <r>    -5.5246    67.1486   104.3208 </r>
       <r>    -5.4706    66.3490   107.9027 </r>
       <r>    -5.4166    67.1965   111.5303 </r>
       <r>    -5.3626    70.4136   115.3315 </r>
       <r>    -5.3086    75.4919   119.4070 </r>
       <r>    -5.2546    79.8201   123.7160 </r>
       <r>    -5.2007    82.0661   128.1464 </r>
       <r>    -5.1467    84.3116   132.6979 </r>
       <r>    -5.0927    87.6558   137.4300 </r>
       <r>    -5.0387    89.5684   142.2654 </r>
       <r>    -4.9847    88.8280   147.0607 </r>
       <r>    -4.9307    87.5681   151.7881 </r>
       <r>    -4.8768    87.6100   156.5177 </r>
       <r>    -4.8228    88.5104   161.2959 </r>
       <r>    -4.7688    88.5318   166.0753 </r>
       <r>    -4.7148    86.9406   170.7688 </r>
       <r>    -4.6608    85.2611   175.3716 </r>
       <r>    -4.6068    85.3367   179.9785 </r>
       <r>    -4.5528    86.6316   184.6553 </r>
       <r>    -4.4989    88.1803   189.4157 </r>
       <r>    -4.4449    90.1716   194.2836 </r>
       <r>    -4.3909    90.9831   199.1953 </r>
       <r>    -4.3369    89.4941   204.0266 </r>
       <r>    -4.2829    87.5346   208.7522 </r>
       <r>    -4.2289    85.6902   213.3782 </r>
       <r>    -4.1749    83.5336   217.8877 </r>
       <r>    -4.1210    83.0691   222.3722 </r>
       <r>    -4.0670    86.1619   227.0236 </r>
       <r>    -4.0130    91.3437   231.9548 </r>
       <r>    -3.9590    95.3952   237.1047 </r>
       <r>    -3.9050    95.8534   242.2793 </r>
       <r>    -3.8510    92.8791   247.2934 </r>
       <r>    -3.7971    89.6808   252.1348 </r>
       <r>    -3.7431    89.9540   256.9910 </r>
       <r>    -3.6891    93.0611   262.0149 </r>
       <r>    -3.6351    94.9936   267.1431 </r>
       <r>    -3.5811    95.4481   272.2959 </r>
       <r>    -3.5271    96.3966   277.4998 </r>
       <r>    -3.4731    98.3013   282.8066 </r>
       <r>    -3.4192   100.9318   288.2554 </r>
       <r>    -3.3652   102.4880   293.7882 </r>
       <r>    -3.3112   101.2515   299.2543 </r>
       <r>    -3.2572    97.6949   304.5283 </r>
       <r>    -3.2032    93.2623   309.5631 </r>
       <r>    -3.1492    89.2871   314.3832 </r>
       <r>    -3.0953    86.7851   319.0683 </r>
       <r>    -3.0413    86.8463   323.7567 </r>
       <r>    -2.9873    89.7953   328.6043 </r>
       <r>    -2.9333    93.7293   333.6642 </r>
       <r>    -2.8793    95.8431   338.8383 </r>
       <r>    -2.8253    95.7789   344.0089 </r>
       <r>    -2.7713    95.7176   349.1763 </r>
       <r>    -2.7174    96.1879   354.3689 </r>
       <r>    -2.6634    95.6374   359.5319 </r>
       <r>    -2.6094    93.7327   364.5921 </r>
       <r>    -2.5554    91.3838   369.5254 </r>
       <r>    -2.5014    88.6116   374.3091 </r>
       <r>    -2.4474    86.2848   378.9672 </r>
       <r>    -2.3934    87.0591   383.6671 </r>
       <r>    -2.3395    89.8865   388.5196 </r>
       <r>    -2.2855    91.5836   393.4637 </r>
       <r>    -2.2315    92.3344   398.4484 </r>
       <r>    -2.1775    92.9087   403.4640 </r>
       <r>    -2.1235    93.4005   408.5062 </r>
       <r>    -2.0695    94.8530   413.6269 </r>
       <r>    -2.0156    97.2810   418.8786 </r>
       <r>    -1.9616    99.6538   424.2584 </r>
       <r>    -1.9076   102.4675   429.7901 </r>
       <r>    -1.8536   105.8154   435.5025 </r>
       <r>    -1.7996   108.1082   441.3387 </r>
       <r>    -1.7456   109.1646   447.2320 </r>
       <r>    -1.6916   109.3958   453.1377 </r>
       <r>    -1.6377   107.9089   458.9631 </r>
       <r>    -1.5837   104.2847   464.5929 </r>
       <r>    -1.5297    98.9511   469.9348 </r>
       <r>    -1.4757    93.0275   474.9569 </r>
       <r>    -1.4217    87.7381   479.6934 </r>
       <r>    -1.3677    83.7619   484.2153 </r>
       <r>    -1.3137    82.2092   488.6533 </r>
       <r>    -1.2598    82.1689   493.0892 </r>
       <r>    -1.2058    78.9747   497.3527 </r>
       <r>    -1.1518    69.4031   501.0994 </r>
       <r>    -1.0978    56.2281   504.1349 </r>
       <r>    -1.0438    43.3089   506.4729 </r>
       <r>    -0.9898    30.8980   508.1409 </r>
       <r>    -0.9359    19.4864   509.1929 </r>
       <r>    -0.8819    11.1122   509.7928 </r>
       <r>    -0.8279     7.1432   510.1784 </r>
       <r>    -0.7739     6.9111   510.5515 </r>
       <r>    -0.7199     7.9821   510.9824 </r>
       <r>    -0.6659     9.4558   511.4929 </r>
       <r>    -0.6119    12.3036   512.1571 </r>
       <r>    -0.5580    16.5315   513.0495 </r>
       <r>    -0.5040    20.2378   514.1421 </r>
       <r>    -0.4500    21.7976   515.3188 </r>
       <r>    -0.3960    21.1226   516.4591 </r>
       <r>    -0.3420    18.7219   517.4698 </r>
       <r>    -0.2880    17.3196   518.4048 </r>
       <r>    -0.2341    19.2556   519.4443 </r>
       <r>    -0.1801    20.8739   520.5712 </r>
       <r>    -0.1261    18.1118   521.5490 </r>
       <r>    -0.0721    13.4697   522.2761 </r>
       <r>    -0.0181    10.8037   522.8593 </r>
       <r>     0.0359    11.0724   523.4571 </r>
       <r>     0.0899    13.4291   524.1821 </r>
       <r>     0.1438    15.6252   525.0256 </r>
       <r>     0.1978    16.0706   525.8932 </r>
       <r>     0.2518    15.7716   526.7446 </r>
       <r>     0.3058    16.8328   527.6533 </r>
       <r>     0.3598    19.2818   528.6942 </r>
       <r>     0.4138    21.0839   529.8324 </r>
       <r>     0.4678    21.2788   530.9812 </r>
       <r>     0.5217    21.3349   532.1329 </r>
       <r>     0.5757    22.7448   533.3608 </r>
       <r>     0.6297    24.6118   534.6895 </r>
       <r>     0.6837    24.8498   536.0310 </r>
       <r>     0.7377    22.3278   537.2364 </r>
       <r>     0.7917    17.4223   538.1769 </r>
       <r>     0.8456    12.3899   538.8458 </r>
       <r>     0.8996     9.9085   539.3807 </r>
       <r>     0.9536    10.1007   539.9260 </r>
       <r>     1.0076    10.9103   540.5149 </r>
       <r>     1.0616    11.2657   541.1231 </r>
       <r>     1.1156    11.2028   541.7279 </r>
       <r>     1.1696    10.0149   542.2686 </r>
       <r>     1.2235     7.9571   542.6981 </r>
       <r>     1.2775     6.7891   543.0646 </r>
       <r>     1.3315     6.5534   543.4184 </r>
       <r>     1.3855     6.2077   543.7535 </r>
       <r>     1.4395     6.8854   544.1252 </r>
       <r>     1.4935    11.0452   544.7215 </r>
       <r>     1.5475    16.9986   545.6392 </r>
       <r>     1.6014    19.2299   546.6773 </r>
       <r>     1.6554    17.4430   547.6190 </r>
       <r>     1.7094    16.7459   548.5230 </r>
       <r>     1.7634    18.5999   549.5271 </r>
       <r>     1.8174    19.0736   550.5568 </r>
       <r>     1.8714    15.1862   551.3766 </r>
       <r>     1.9253     9.3311   551.8804 </r>
       <r>     1.9793     6.3955   552.2256 </r>
       <r>     2.0333     7.3907   552.6246 </r>
       <r>     2.0873     9.8625   553.1570 </r>
       <r>     2.1413    13.2155   553.8705 </r>
       <r>     2.1953    17.7698   554.8298 </r>
       <r>     2.2493    21.7477   556.0038 </r>
       <r>     2.3032    23.6838   557.2824 </r>
       <r>     2.3572    24.1535   558.5863 </r>
       <r>     2.4112    23.5190   559.8560 </r>
       <r>     2.4652    21.3391   561.0080 </r>
       <r>     2.5192    19.2386   562.0466 </r>
       <r>     2.5732    20.1442   563.1341 </r>
       <r>     2.6271    23.6405   564.4103 </r>
       <r>     2.6811    26.4890   565.8403 </r>
       <r>     2.7351    25.3847   567.2107 </r>
       <r>     2.7891    18.9629   568.2344 </r>
       <r>     2.8431    10.7639   568.8155 </r>
       <r>     2.8971     6.2047   569.1504 </r>
       <r>     2.9511     5.7963   569.4633 </r>
       <r>     3.0050     5.7641   569.7745 </r>
       <r>     3.0590     5.1294   570.0514 </r>
       <r>     3.1130     6.8590   570.4217 </r>
       <r>     3.1670    11.3656   571.0353 </r>
       <r>     3.2210    14.0951   571.7962 </r>
       <r>     3.2750    11.7963   572.4330 </r>
       <r>     3.3290     7.4823   572.8370 </r>
       <r>     3.3829     5.7023   573.1448 </r>
       <r>     3.4369     7.3480   573.5415 </r>
       <r>     3.4909    10.2099   574.0927 </r>
       <r>     3.5449    12.4937   574.7671 </r>
       <r>     3.5989    15.0699   575.5807 </r>
       <r>     3.6529    18.6793   576.5891 </r>
       <r>     3.7068    21.4115   577.7450 </r>
       <r>     3.7608    20.9902   578.8781 </r>
       <r>     3.8148    17.3618   579.8154 </r>
       <r>     3.8688    12.6969   580.5008 </r>
       <r>     3.9228     9.7659   581.0281 </r>
       <r>     3.9768    10.6725   581.6042 </r>
       <r>     4.0308    13.8918   582.3542 </r>
       <r>     4.0847    15.0503   583.1666 </r>
       <r>     4.1387    13.6105   583.9014 </r>
       <r>     4.1927    12.6610   584.5849 </r>
       <r>     4.2467    12.1317   585.2398 </r>
       <r>     4.3007     9.7388   585.7656 </r>
       <r>     4.3547     7.6503   586.1786 </r>
       <r>     4.4087     9.2830   586.6797 </r>
       <r>     4.4626    13.4846   587.4077 </r>
       <r>     4.5166    18.1077   588.3852 </r>
       <r>     4.5706    22.8444   589.6185 </r>
       <r>     4.6246    26.5236   591.0504 </r>
       <r>     4.6786    27.2897   592.5236 </r>
       <r>     4.7326    25.3922   593.8944 </r>
       <r>     4.7865    23.1603   595.1447 </r>
       <r>     4.8405    23.0370   596.3883 </r>
       <r>     4.8945    25.1059   597.7437 </r>
       <r>     4.9485    27.3810   599.2218 </r>
       <r>     5.0025    29.6849   600.8244 </r>
       <r>     5.0565    32.3136   602.5688 </r>
       <r>     5.1105    32.7633   604.3375 </r>
       <r>     5.1644    30.8454   606.0027 </r>
       <r>     5.2184    30.2858   607.6377 </r>
       <r>     5.2724    29.5217   609.2314 </r>
       <r>     5.3264    23.6340   610.5073 </r>
       <r>     5.3804    14.8326   611.3080 </r>
       <r>     5.4344     7.8898   611.7340 </r>
       <r>     5.4883     3.5197   611.9240 </r>
       <r>     5.5423     1.1396   611.9855 </r>
       <r>     5.5963     0.2365   611.9983 </r>
       <r>     5.6503     0.0296   611.9999 </r>
       <r>     5.7043     0.0022   612.0000 </r>
       <r>     5.7583     0.0001   612.0000 </r>
       <r>     5.8123     0.0000   612.0000 </r>
       <r>     5.8662     0.0000   612.0000 </r>
       <r>     5.9202     0.0000   612.0000 </r>
       <r>     5.9742     0.0000   612.0000 </r>
       <r>     6.0282     0.0000   612.0000 </r>
       <r>     6.0822     0.0000   612.0000 </r>
       <r>     6.1362     0.0000   612.0000 </r>
       <r>     6.1902     0.0000   612.0000 </r>
       <r>     6.2441     0.0000   612.0000 </r>
       <r>     6.2981     0.0000   612.0000 </r>
       <r>     6.3521     0.0000   612.0000 </r>
       <r>     6.4061     0.0000   612.0000 </r>
      </set>
     </set>
    </array>
   </total>
  </dos>
 </calculation>
 <structure name="finalpos" >
  <crystal>
   <varray name="basis" >
    <v>      11.00258152       0.00000000       0.00000000 </v>
    <v>       5.50129076       9.52851510       0.00000000 </v>
    <v>       0.00000000       0.00000000      24.49178509 </v>
   </varray>
   <i name="volume">   2567.67623402 </i>
   <varray name="rec_basis" >
    <v>       0.09088776      -0.05247407       0.00000000 </v>
    <v>       0.00000000       0.10494815       0.00000000 </v>
    <v>       0.00000000       0.00000000       0.04083002 </v>
   </varray>
  </crystal>
  <varray name="positions" >
   <v>       0.24765978       0.74964875       0.60418027 </v>
   <v>       0.50150915       0.49992801       0.60552096 </v>
   <v>       0.41841327       0.91665204       0.50120104 </v>
   <v>       0.58415725       0.08246517       0.39866193 </v>
   <v>       0.66733441       0.91583896       0.50075249 </v>
   <v>       0.16687331       0.91544843       0.50031407 </v>
   <v>       0.83306668       0.08430118       0.39561934 </v>
   <v>       0.75161166      -0.00135828       0.60406215 </v>
   <v>       0.33599781       0.58338567       0.39855191 </v>
   <v>       0.24899665       0.25095853       0.60278607 </v>
   <v>       0.83350731       0.33413534       0.39369978 </v>
   <v>       0.50034592       0.25016980       0.60069038 </v>
   <v>       0.24972380      -0.00021954       0.60730614 </v>
   <v>       0.33329960       0.33300825       0.39987761 </v>
   <v>       0.33205659       0.08189006       0.39748437 </v>
   <v>       0.91507708       0.16840451       0.49925305 </v>
   <v>       0.16610161       0.17023038       0.50078514 </v>
   <v>       0.08188309       0.58382581       0.39938382 </v>
   <v>       0.83146827       0.58475037       0.39901066 </v>
   <v>       0.08418754       0.83433116       0.39416552 </v>
   <v>       0.91725642       0.91378148       0.49973194 </v>
   <v>       0.66674732       0.41644795       0.50001546 </v>
   <v>      -0.00269590       0.50216609       0.60081289 </v>
   <v>       0.41793675       0.66417424       0.50132153 </v>
   <v>       0.75210450       0.24967279       0.59739390 </v>
   <v>       0.66517510       0.16666414       0.50053845 </v>
   <v>       0.67036474       0.66459189       0.49972004 </v>
   <v>       0.74983472       0.50036380       0.59645094 </v>
   <v>       0.50189516       0.74989202       0.59812260 </v>
   <v>       0.83216817       0.83407612       0.40239233 </v>
   <v>       0.58314773       0.83200421       0.40284066 </v>
   <v>       0.08386465       0.08356101       0.40168154 </v>
   <v>       0.41601309       0.41505128       0.50028024 </v>
   <v>       0.58386178       0.33429898       0.40365397 </v>
   <v>       0.50007623      -0.00053148       0.59864730 </v>
   <v>       0.41630854       0.16926041       0.50013179 </v>
   <v>       0.33473871       0.83323093       0.40280591 </v>
   <v>       0.24902661       0.50130817       0.59623905 </v>
   <v>       0.16721017       0.66406386       0.49884846 </v>
   <v>       0.16695430       0.41797667       0.50065851 </v>
   <v>      -0.00018970       0.74930946       0.59605965 </v>
   <v>       0.91864029       0.66260947       0.50014016 </v>
   <v>      -0.00264437       0.25029877       0.59739154 </v>
   <v>       0.91638700       0.41959684       0.49978953 </v>
   <v>       0.08238079       0.33319555       0.40344026 </v>
   <v>      -0.00069158       0.00059780       0.59793848 </v>
   <v>       0.58299611       0.58458468       0.40260074 </v>
   <v>       0.74786188       0.74995829       0.59704540 </v>
  </varray>
 </structure>
</modeling>
