unknown system                          
           1
    11.002582    0.000000    0.000000
     5.501291    9.528515    0.000000
     0.000000    0.000000   24.491785
   Au   Pd
  24  24
Direct configuration=     1
   0.25000000  0.75000000  0.59169983
   0.50000000  0.50000000  0.59169983
   0.41666667  0.91666667  0.50000000
   0.58333333  0.08333333  0.40830017
   0.66666667  0.91666667  0.50000000
   0.16666667  0.91666667  0.50000000
   0.83333333  0.08333333  0.40830017
   0.75000000  0.00000000  0.59169983
   0.33333333  0.58333333  0.40830017
   0.25000000  0.25000000  0.59169983
   0.83333333  0.33333333  0.40830017
   0.50000000  0.25000000  0.59169983
   0.25000000  0.00000000  0.59169983
   0.33333333  0.33333333  0.40830017
   0.33333333  0.08333333  0.40830017
   0.91666667  0.16666667  0.50000000
   0.16666667  0.16666667  0.50000000
   0.08333333  0.58333333  0.40830017
   0.83333333  0.58333333  0.40830017
   0.08333333  0.83333333  0.40830017
   0.91666667  0.91666667  0.50000000
   0.66666667  0.41666667  0.50000000
   0.00000000  0.50000000  0.59169983
   0.41666667  0.66666667  0.50000000
   0.75000000  0.25000000  0.59169983
   0.66666667  0.16666667  0.50000000
   0.66666667  0.66666667  0.50000000
   0.75000000  0.50000000  0.59169983
   0.50000000  0.75000000  0.59169983
   0.83333333  0.83333333  0.40830017
   0.58333333  0.83333333  0.40830017
   0.08333333  0.08333333  0.40830017
   0.41666667  0.41666667  0.50000000
   0.58333333  0.33333333  0.40830017
   0.50000000  0.00000000  0.59169983
   0.41666667  0.16666667  0.50000000
   0.33333333  0.83333333  0.40830017
   0.25000000  0.50000000  0.59169983
   0.16666667  0.66666667  0.50000000
   0.16666667  0.41666667  0.50000000
   0.00000000  0.75000000  0.59169983
   0.91666667  0.66666667  0.50000000
   0.00000000  0.25000000  0.59169983
   0.91666667  0.41666667  0.50000000
   0.08333333  0.33333333  0.40830017
   0.00000000  0.00000000  0.59169983
   0.58333333  0.58333333  0.40830017
   0.75000000  0.75000000  0.59169983
Direct configuration=     2
   0.24893954  0.74967947  0.59391796
   0.50050639  0.49969291  0.59384414
   0.41887242  0.91545501  0.49997855
   0.58379553  0.08322947  0.40645189
   0.66665277  0.91555417  0.50006256
   0.16628225  0.91650295  0.49970545
   0.83281455  0.08363382  0.40602361
   0.75040596 -0.00017259  0.59381466
   0.33445596  0.58306316  0.40645506
   0.25022701  0.25033543  0.59357105
   0.83348249  0.33365837  0.40612441
   0.49989948  0.25003605  0.59324703
   0.25008048 -0.00000663  0.59427492
   0.33344377  0.33331422  0.40677124
   0.33278330  0.08300317  0.40617116
   0.91630968  0.16750278  0.50074911
   0.16513837  0.16922412  0.49964007
   0.08263738  0.58323271  0.40677296
   0.83273826  0.58390676  0.40680720
   0.08363527  0.83344824  0.40607316
   0.91696228  0.91503086  0.50045206
   0.66669925  0.41664966  0.50005243
  -0.00089899  0.50096548  0.59316485
   0.41766268  0.66631261  0.49960378
   0.75084743  0.24993763  0.59286817
   0.66549887  0.16799172  0.50003808
   0.66764545  0.66623300  0.50024363
   0.75020418  0.50035121  0.59255485
   0.50127488  0.74990710  0.59289733
   0.83289963  0.83308938  0.40709013
   0.58366998  0.83228255  0.40716290
   0.08380039  0.08335485  0.40681187
   0.41614081  0.41597934  0.49995181
   0.58312528  0.33373565  0.40727992
   0.50033968 -0.00062921  0.59297561
   0.41680937  0.16751616  0.50015686
   0.33386783  0.83325582  0.40689170
   0.24943867  0.50047429  0.59248677
   0.16628904  0.66527692  0.50044718
   0.16660166  0.41727964  0.50004697
   0.00021980  0.74957006  0.59265084
   0.91681383  0.66617676  0.50031009
  -0.00116700  0.25029540  0.59288085
   0.91677544  0.41755293  0.50031640
   0.08312929  0.33326185  0.40732920
  -0.00046257  0.00040688  0.59312907
   0.58312086  0.58396187  0.40715013
   0.74959112  0.74948596  0.59260032
Direct configuration=     3
   0.24575817  0.74871789  0.60057236
   0.50202557  0.49877162  0.60027706
   0.42548968  0.91182002  0.49991418
   0.58518212  0.08291789  0.40090706
   0.66661109  0.91221667  0.50025022
   0.16512900  0.91601182  0.49882180
   0.83125818  0.08453528  0.39919394
   0.75162384 -0.00069037  0.60015915
   0.33782385  0.58225265  0.40091974
   0.25090803  0.25134173  0.59918469
   0.83392996  0.33463348  0.39959712
   0.49959793  0.25014421  0.59788863
   0.25032191 -0.00002653  0.60200019
   0.33377506  0.33325687  0.40218444
   0.33113320  0.08201270  0.39978413
   0.91523872  0.17001111  0.50299643
   0.16055349  0.17689646  0.49856027
   0.08054953  0.58293084  0.40219132
   0.83095302  0.58562706  0.40232831
   0.08454107  0.83379297  0.39939212
   0.91784914  0.91012343  0.50180822
   0.66679699  0.41659865  0.50020974
  -0.00359597  0.50386194  0.59755992
   0.42065072  0.66525044  0.49841512
   0.75338972  0.24975051  0.59637319
   0.66199547  0.17196689  0.50015232
   0.67058180  0.66493201  0.50097452
   0.75081672  0.50140484  0.59511991
   0.50509951  0.74962842  0.59648984
   0.83159851  0.83235754  0.40346001
   0.58467992  0.82913019  0.40375110
   0.08520158  0.08341941  0.40234699
   0.41456323  0.41391738  0.49980724
   0.58250111  0.33494261  0.40421919
   0.50135873 -0.00251682  0.59680295
   0.41723746  0.17006464  0.50062745
   0.33547133  0.83302328  0.40266631
   0.24775468  0.50189717  0.59484759
   0.16515617  0.66110767  0.50178871
   0.16640665  0.41911858  0.50018788
   0.00087921  0.74828026  0.59550388
   0.91725532  0.66470704  0.50124038
  -0.00466799  0.25118158  0.59642392
   0.91710177  0.42021173  0.50126562
   0.08251718  0.33304739  0.40441628
  -0.00185029  0.00162754  0.59741679
   0.58248344  0.58584749  0.40370000
   0.74836446  0.74794384  0.59530178
Direct configuration=     4
   0.24546548  0.74862943  0.60118457
   0.50216534  0.49868686  0.60086889
   0.42609848  0.91148560  0.49990826
   0.58530969  0.08288922  0.40039693
   0.66660726  0.91190961  0.50026749
   0.16502290  0.91596663  0.49874051
   0.83111500  0.08461822  0.39856561
   0.75173588 -0.00073801  0.60074285
   0.33813370  0.58217808  0.40041049
   0.25097069  0.25143431  0.59970115
   0.83397112  0.33472319  0.39899661
   0.49957019  0.25015416  0.59831566
   0.25034412 -0.00002836  0.60271093
   0.33380554  0.33325159  0.40176245
   0.33098139  0.08192157  0.39919652
   0.91514019  0.17024188  0.50320318
   0.16013168  0.17760232  0.49846093
   0.08035744  0.58290307  0.40176980
   0.83078878  0.58578532  0.40191624
   0.08462441  0.83382469  0.39877745
   0.91793073  0.90967194  0.50193299
   0.66680598  0.41659395  0.50022421
  -0.00384410  0.50412842  0.59796427
   0.42092562  0.66515272  0.49830576
   0.75362362  0.24973329  0.59669566
   0.66167315  0.17233261  0.50016283
   0.67085195  0.66481232  0.50104177
   0.75087307  0.50150177  0.59535590
   0.50545138  0.74960278  0.59682035
   0.83147880  0.83229021  0.40312604
   0.58477283  0.82884017  0.40343722
   0.08533049  0.08342535  0.40193621
   0.41441809  0.41372768  0.49979394
   0.58244368  0.33505365  0.40393760
   0.50145248 -0.00269048  0.59715506
   0.41727685  0.17029910  0.50067074
   0.33561885  0.83300189  0.40227757
   0.24759975  0.50202808  0.59506479
   0.16505195  0.66072409  0.50191214
   0.16638871  0.41928776  0.50020085
   0.00093988  0.74816160  0.59576636
   0.91729594  0.66457183  0.50132596
  -0.00499009  0.25126311  0.59674988
   0.91713179  0.42045635  0.50135295
   0.08246086  0.33302766  0.40414829
  -0.00197796  0.00173984  0.59781126
   0.58242480  0.58602097  0.40338259
   0.74825161  0.74780196  0.59555032
Direct configuration=     5
   0.24699618  0.74943068  0.60219445
   0.50164349  0.49978510  0.60201496
   0.41989779  0.91556984  0.50005359
   0.58436714  0.08213069  0.39948831
   0.66831554  0.91496682  0.50015853
   0.16663150  0.91583293  0.49902900
   0.83271043  0.08431682  0.39777003
   0.75126992 -0.00089108  0.60194595
   0.33642020  0.58304598  0.39939199
   0.24953507  0.25113656  0.60074867
   0.83385937  0.33416592  0.39786311
   0.50056859  0.24987255  0.59955207
   0.25018756 -0.00033162  0.60365685
   0.33338839  0.33285223  0.40068236
   0.33246521  0.08150920  0.39821373
   0.91480328  0.16841889  0.50205950
   0.16421132  0.17338397  0.49903031
   0.08120750  0.58349308  0.40084655
   0.83107149  0.58478717  0.40094790
   0.08425232  0.83353250  0.39757116
   0.91621403  0.91266721  0.50131618
   0.66658834  0.41716281  0.50003225
  -0.00266369  0.50270742  0.59941683
   0.41855718  0.66493511  0.49905716
   0.75216134  0.25017435  0.59782247
   0.66378519  0.16917732  0.50013323
   0.67248355  0.66222305  0.50065536
   0.75030483  0.50079823  0.59627866
   0.50353781  0.74934272  0.59760512
   0.83177301  0.83321359  0.40261752
   0.58393451  0.83033804  0.40241963
   0.08391179  0.08349249  0.40131666
   0.41426306  0.41567947  0.49982742
   0.58335924  0.33509629  0.40331251
   0.50134983 -0.00207025  0.59797328
   0.41659588  0.16882394  0.50041693
   0.33524084  0.83334893  0.40151762
   0.24847578  0.50096779  0.59604002
   0.16707531  0.66166143  0.50102875
   0.16645750  0.41888026  0.50019405
  -0.00037498  0.74896497  0.59707199
   0.91757492  0.66339270  0.50088253
  -0.00307540  0.25129998  0.59794865
   0.91572932  0.42178325  0.50094577
   0.08204949  0.33374846  0.40313444
  -0.00085277  0.00090476  0.59867012
   0.58348909  0.58504056  0.40248328
   0.74825272  0.74923693  0.59666255
Direct configuration=     6
   0.24743760  0.74966174  0.60248568
   0.50149300  0.50010180  0.60234545
   0.41810966  0.91674763  0.50009551
   0.58409533  0.08191195  0.39922628
   0.66880816  0.91584844  0.50012711
   0.16709538  0.91579437  0.49911219
   0.83317052  0.08422991  0.39754060
   0.75113555 -0.00093522  0.60229289
   0.33592607  0.58329625  0.39909829
   0.24912108  0.25105070  0.60105075
   0.83382714  0.33400522  0.39753624
   0.50085651  0.24979134  0.59990862
   0.25014241 -0.00041907  0.60392963
   0.33326809  0.33273706  0.40037088
   0.33289311  0.08139029  0.39793032
   0.91470612  0.16789318  0.50172969
   0.16538779  0.17216750  0.49919451
   0.08145263  0.58366323  0.40058030
   0.83115301  0.58449933  0.40066865
   0.08414502  0.83344824  0.39722330
   0.91571898  0.91353097  0.50113830
   0.66652557  0.41732686  0.49997689
  -0.00232329  0.50229764  0.59983572
   0.41787417  0.66487236  0.49927385
   0.75173965  0.25030153  0.59814741
   0.66439425  0.16826741  0.50012469
   0.67295407  0.66147637  0.50054393
   0.75014096  0.50059534  0.59654476
   0.50298598  0.74926773  0.59783143
   0.83185785  0.83347987  0.40247088
   0.58369276  0.83076998  0.40212618
   0.08350267  0.08351185  0.40113800
   0.41421836  0.41624232  0.49983708
   0.58362326  0.33510859  0.40313225
   0.50132023 -0.00189139  0.59820924
   0.41639950  0.16839854  0.50034374
   0.33513183  0.83344901  0.40129847
   0.24872840  0.50066202  0.59632126
   0.16765880  0.66193173  0.50077400
   0.16647734  0.41876274  0.50019208
  -0.00075415  0.74919664  0.59744850
   0.91765538  0.66305268  0.50075465
  -0.00252325  0.25131061  0.59829434
   0.91532489  0.42216589  0.50082835
   0.08193086  0.33395631  0.40284207
  -0.00052829  0.00066394  0.59891780
   0.58379600  0.58475783  0.40222395
   0.74825305  0.74965073  0.59698330
Direct configuration=     7
   0.24782040  0.74976621  0.60276964
   0.50108660  0.50039278  0.60276493
   0.41843587  0.91664923  0.50025741
   0.58407191  0.08210175  0.39892936
   0.66730337  0.91599220  0.50015452
   0.16657753  0.91581059  0.49934147
   0.83331341  0.08406807  0.39731178
   0.75120839 -0.00091893  0.60284676
   0.33552338  0.58345387  0.39873920
   0.24921558  0.25058335  0.60140864
   0.83395230  0.33359186  0.39712563
   0.50072939  0.24988809  0.60022765
   0.25014002 -0.00048615  0.60429385
   0.33337267  0.33263040  0.40009597
   0.33268681  0.08164582  0.39756021
   0.91525283  0.16783027  0.50123669
   0.16532795  0.17126878  0.49949372
   0.08173824  0.58392301  0.40027842
   0.83155006  0.58449669  0.40017707
   0.08394179  0.83357848  0.39680040
   0.91720668  0.91373605  0.50088198
   0.66644714  0.41652825  0.49994761
  -0.00209056  0.50199598  0.60042511
   0.41746673  0.66518640  0.49966873
   0.75162975  0.25027605  0.59836116
   0.66446794  0.16791234  0.50009056
   0.67084349  0.66394037  0.50030060
   0.75003618  0.50020381  0.59697316
   0.50221165  0.74950132  0.59780702
   0.83211587  0.83377746  0.40236921
   0.58349431  0.83127029  0.40212308
   0.08340986  0.08358183  0.40115868
   0.41515667  0.41578920  0.49985682
   0.58373077  0.33478298  0.40308163
   0.50091522 -0.00155310  0.59829380
   0.41642460  0.16847166  0.50024564
   0.33488389  0.83336288  0.40121334
   0.24918270  0.50049178  0.59666476
   0.16724971  0.66369388  0.50037696
   0.16668752  0.41818527  0.50021597
  -0.00077766  0.74946155  0.59766891
   0.91827791  0.66322571  0.50059443
  -0.00210188  0.25096497  0.59839146
   0.91647289  0.42003241  0.50060272
   0.08211843  0.33366766  0.40264882
  -0.00026024  0.00048515  0.59896449
   0.58349304  0.58461493  0.40200136
   0.74805889  0.75014657  0.59725867
Direct configuration=     8
   0.24793719  0.74979809  0.60285627
   0.50096261  0.50048156  0.60289290
   0.41853540  0.91661920  0.50030681
   0.58406477  0.08215965  0.39883877
   0.66684426  0.91603606  0.50016289
   0.16641954  0.91581554  0.49941142
   0.83335701  0.08401869  0.39724197
   0.75123062 -0.00091396  0.60301574
   0.33540052  0.58350195  0.39862965
   0.24924442  0.25044077  0.60151784
   0.83399048  0.33346574  0.39700036
   0.50069061  0.24991761  0.60032499
   0.25013929 -0.00050662  0.60440498
   0.33340458  0.33259786  0.40001209
   0.33262387  0.08172378  0.39744729
   0.91541962  0.16781107  0.50108628
   0.16530970  0.17099458  0.49958501
   0.08182538  0.58400226  0.40018632
   0.83167120  0.58449588  0.40002710
   0.08387978  0.83361821  0.39667137
   0.91766057  0.91379862  0.50080377
   0.66642321  0.41628460  0.49993868
  -0.00201955  0.50190394  0.60060493
   0.41734242  0.66528221  0.49978920
   0.75159622  0.25026827  0.59842637
   0.66449043  0.16780402  0.50008015
   0.67019956  0.66469213  0.50022637
   0.75000422  0.50008435  0.59710386
   0.50197540  0.74957259  0.59779957
   0.83219458  0.83386826  0.40233819
   0.58343376  0.83142294  0.40212213
   0.08338154  0.08360318  0.40116499
   0.41544295  0.41565096  0.49986285
   0.58376357  0.33468363  0.40306619
   0.50079165 -0.00144989  0.59831960
   0.41643226  0.16849397  0.50021571
   0.33480825  0.83333660  0.40118737
   0.24932131  0.50043984  0.59676956
   0.16712490  0.66423150  0.50025582
   0.16675164  0.41800909  0.50022326
  -0.00078483  0.74954237  0.59773615
   0.91846784  0.66327850  0.50054554
  -0.00197333  0.25085952  0.59842109
   0.91682314  0.41938149  0.50053389
   0.08217565  0.33357960  0.40258986
  -0.00017846  0.00043061  0.59897874
   0.58340060  0.58457133  0.40193344
   0.74799965  0.75029785  0.59734268
Direct configuration=     9
   0.24770001  0.74971890  0.60305600
   0.50099911  0.50031947  0.60314945
   0.41843968  0.91651396  0.50034615
   0.58425543  0.08235804  0.39867789
   0.66712790  0.91581596  0.50025711
   0.16667356  0.91590048  0.49952998
   0.83309888  0.08396991  0.39707037
   0.75137949 -0.00087819  0.60327246
   0.33566294  0.58333648  0.39848969
   0.24953198  0.25037297  0.60170164
   0.83391808  0.33365921  0.39672546
   0.50048488  0.24998377  0.60044017
   0.25013151 -0.00050583  0.60470660
   0.33346023  0.33268785  0.39993148
   0.33219924  0.08183794  0.39728005
   0.91529695  0.16818911  0.50093811
   0.16545646  0.17059727  0.49972727
   0.08189542  0.58382392  0.40004745
   0.83168573  0.58463869  0.39984444
   0.08390579  0.83393415  0.39629604
   0.91731946  0.91373835  0.50075418
   0.66659412  0.41640521  0.50001351
  -0.00227720  0.50214580  0.60079822
   0.41762228  0.66515199  0.49991215
   0.75191842  0.25005064  0.59834581
   0.66466589  0.16734596  0.50013780
   0.66989986  0.66496434  0.50010862
   0.75004122  0.50013230  0.59710731
   0.50201286  0.74969189  0.59774870
   0.83215587  0.83396933  0.40239940
   0.58344077  0.83145997  0.40217689
   0.08375336  0.08348842  0.40124074
   0.41552030  0.41535538  0.49989506
   0.58359706  0.33454298  0.40307586
   0.50056825 -0.00124013  0.59833819
   0.41621136  0.16907068  0.50016828
   0.33471437  0.83330809  0.40133848
   0.24922663  0.50066577  0.59675654
   0.16703861  0.66426465  0.50011783
   0.16695658  0.41799090  0.50029406
  -0.00046685  0.74944105  0.59763978
   0.91851540  0.66335812  0.50056766
  -0.00217130  0.25059058  0.59833700
   0.91670970  0.41916375  0.50046697
   0.08243213  0.33333801  0.40259283
  -0.00036191  0.00059900  0.59888785
   0.58310384  0.58461464  0.40196041
   0.74795561  0.75011827  0.59733207
Direct configuration=    10
   0.24753324  0.74966321  0.60319643
   0.50102478  0.50020549  0.60332984
   0.41837238  0.91643996  0.50037381
   0.58438949  0.08249754  0.39856477
   0.66732734  0.91566120  0.50032337
   0.16685217  0.91596020  0.49961335
   0.83291739  0.08393561  0.39694972
   0.75148416 -0.00085304  0.60345296
   0.33584746  0.58322013  0.39839128
   0.24973418  0.25032530  0.60183088
   0.83386716  0.33379525  0.39653217
   0.50034023  0.25003028  0.60052115
   0.25012604 -0.00050527  0.60491869
   0.33349935  0.33275113  0.39987480
   0.33190067  0.08191820  0.39716246
   0.91521069  0.16845492  0.50083393
   0.16555965  0.17031791  0.49982731
   0.08194467  0.58369853  0.39994981
   0.83169595  0.58473910  0.39971600
   0.08392409  0.83415630  0.39603213
   0.91707961  0.91369596  0.50071931
   0.66671429  0.41649002  0.50006612
  -0.00245836  0.50231586  0.60093414
   0.41781906  0.66506043  0.49999860
   0.75214498  0.24989761  0.59828916
   0.66478927  0.16702388  0.50017834
   0.66968913  0.66515573  0.50002582
   0.75006723  0.50016602  0.59710973
   0.50203920  0.74977577  0.59771292
   0.83212865  0.83404041  0.40244244
   0.58344570  0.83148601  0.40221539
   0.08401479  0.08340772  0.40129401
   0.41557470  0.41514754  0.49991770
   0.58347998  0.33444408  0.40308267
   0.50041117 -0.00109263  0.59835126
   0.41605604  0.16947619  0.50013493
   0.33464837  0.83328804  0.40144473
   0.24916006  0.50082462  0.59674738
   0.16697794  0.66428795  0.50002080
   0.16710068  0.41797811  0.50034384
  -0.00024326  0.74936981  0.59757202
   0.91854884  0.66341411  0.50058321
  -0.00231049  0.25040148  0.59827787
   0.91662994  0.41901065  0.50041991
   0.08261248  0.33316815  0.40259492
  -0.00049090  0.00071740  0.59882394
   0.58289518  0.58464510  0.40197937
   0.74792465  0.74999201  0.59732460
Direct configuration=    11
   0.24739257  0.74970045  0.60341765
   0.50124786  0.50000761  0.60362662
   0.41846053  0.91673053  0.50039773
   0.58414543  0.08251770  0.39842000
   0.66725032  0.91568214  0.50046919
   0.16676633  0.91580448  0.49976311
   0.83296473  0.08409982  0.39673209
   0.75149887 -0.00090713  0.60373568
   0.33589057  0.58321923  0.39830452
   0.24950829  0.25060517  0.60202375
   0.83376280  0.33399347  0.39617766
   0.50042627  0.25003710  0.60062951
   0.25007124 -0.00055231  0.60532720
   0.33350922  0.33275046  0.39976894
   0.33196435  0.08190260  0.39701995
   0.91502641  0.16835908  0.50059758
   0.16582198  0.17041812  0.50001365
   0.08194959  0.58368366  0.39981980
   0.83162577  0.58480863  0.39958363
   0.08399909  0.83425863  0.39560418
   0.91700229  0.91377861  0.50067384
   0.66663642  0.41669110  0.50013729
  -0.00253043  0.50228562  0.60104778
   0.41793327  0.66459976  0.50014473
   0.75220421  0.24978395  0.59814406
   0.66497910  0.16678598  0.50030729
   0.67013666  0.66477887  0.49989546
   0.75005589  0.50028879  0.59701797
   0.50208309  0.74980217  0.59769056
   0.83217656  0.83395650  0.40252052
   0.58331772  0.83170075  0.40229651
   0.08397109  0.08338466  0.40139226
   0.41572187  0.41517321  0.49997652
   0.58348293  0.33440316  0.40317001
   0.50042930 -0.00097858  0.59833421
   0.41603224  0.16952490  0.50004572
   0.33467115  0.83319054  0.40165989
   0.24892972  0.50104404  0.59666294
   0.16714208  0.66410890  0.49981386
   0.16693956  0.41805444  0.50045056
  -0.00015076  0.74931299  0.59737712
   0.91858761  0.66300559  0.50062123
  -0.00236087  0.25033010  0.59816546
   0.91649873  0.41949473  0.50034268
   0.08271317  0.33309021  0.40270252
  -0.00057316  0.00073048  0.59865204
   0.58281547  0.58464979  0.40205501
   0.74787286  0.74990929  0.59726952
Direct configuration=    12
   0.24726201  0.74973502  0.60362299
   0.50145492  0.49982395  0.60390209
   0.41854235  0.91700025  0.50041993
   0.58391890  0.08253642  0.39828562
   0.66717884  0.91570158  0.50060453
   0.16668665  0.91565993  0.49990212
   0.83300867  0.08425224  0.39653009
   0.75151252 -0.00095734  0.60399810
   0.33593059  0.58321839  0.39822399
   0.24929863  0.25086494  0.60220278
   0.83366593  0.33417745  0.39584861
   0.50050613  0.25004343  0.60073008
   0.25002037 -0.00059596  0.60570638
   0.33351839  0.33274983  0.39967069
   0.33202345  0.08188812  0.39688767
   0.91485536  0.16827012  0.50037819
   0.16606547  0.17051113  0.50018662
   0.08195417  0.58366987  0.39969913
   0.83156063  0.58487318  0.39946077
   0.08406870  0.83435362  0.39520696
   0.91693053  0.91385532  0.50063163
   0.66656414  0.41687774  0.50020334
  -0.00259733  0.50225755  0.60115327
   0.41803928  0.66417218  0.50028037
   0.75225919  0.24967844  0.59800938
   0.66515531  0.16656516  0.50042698
   0.67055206  0.66442908  0.49977446
   0.75004537  0.50040275  0.59693281
   0.50212383  0.74982667  0.59766980
   0.83222102  0.83387862  0.40259298
   0.58319894  0.83190006  0.40237180
   0.08393052  0.08336325  0.40148346
   0.41585848  0.41519704  0.50003110
   0.58348567  0.33436518  0.40325108
   0.50044614 -0.00087273  0.59831839
   0.41601016  0.16957012  0.49996293
   0.33469229  0.83310004  0.40185960
   0.24871592  0.50124770  0.59658455
   0.16729443  0.66394270  0.49962178
   0.16679001  0.41812529  0.50054963
  -0.00006490  0.74926025  0.59719622
   0.91862359  0.66262640  0.50065652
  -0.00240762  0.25026384  0.59806112
   0.91637694  0.41994404  0.50027098
   0.08280663  0.33301787  0.40280240
  -0.00064951  0.00074262  0.59849247
   0.58274148  0.58465414  0.40212521
   0.74782479  0.74983251  0.59721840
Direct configuration=    13
   0.24753025  0.74969564  0.60381192
   0.50149224  0.49990402  0.60425343
   0.41846537  0.91683148  0.50049094
   0.58404373  0.08228547  0.39825159
   0.66724720  0.91579487  0.50069130
   0.16684150  0.91536556  0.50002937
   0.83299504  0.08436832  0.39629831
   0.75151365 -0.00124605  0.60424318
   0.33574075  0.58329508  0.39818707
   0.24903533  0.25104540  0.60239535
   0.83360866  0.33429893  0.39544801
   0.50048343  0.25009385  0.60078101
   0.25005568 -0.00059883  0.60613367
   0.33338792  0.33286924  0.39960247
   0.33213426  0.08178953  0.39680404
   0.91496529  0.16839106  0.50004887
   0.16580184  0.17076675  0.50035605
   0.08195487  0.58380807  0.39961459
   0.83150996  0.58484482  0.39931871
   0.08406892  0.83417192  0.39483457
   0.91713537  0.91349878  0.50049106
   0.66678657  0.41642181  0.50019441
  -0.00255675  0.50204624  0.60122976
   0.41771546  0.66459838  0.50048140
   0.75214669  0.24971520  0.59786336
   0.66498326  0.16674738  0.50051446
   0.67055761  0.66443040  0.49965019
   0.75000808  0.50038926  0.59683481
   0.50200190  0.74980636  0.59763157
   0.83223352  0.83400695  0.40269115
   0.58317073  0.83197707  0.40247036
   0.08376602  0.08350780  0.40162535
   0.41590325  0.41510568  0.50009680
   0.58367939  0.33434479  0.40342536
   0.50034883 -0.00070680  0.59832883
   0.41623851  0.16949636  0.49990568
   0.33470155  0.83314155  0.40215098
   0.24878132  0.50123164  0.59648287
   0.16730604  0.66391987  0.49934481
   0.16678287  0.41814349  0.50062937
  -0.00032826  0.74934596  0.59693940
   0.91871961  0.66259205  0.50064550
  -0.00236767  0.25035699  0.59787686
   0.91659578  0.41978237  0.50017452
   0.08269581  0.33307738  0.40299242
  -0.00058405  0.00062090  0.59834608
   0.58289147  0.58464614  0.40221432
   0.74781117  0.74998088  0.59717391
Direct configuration=    14
   0.24761529  0.74968315  0.60387181
   0.50150407  0.49992941  0.60436481
   0.41844097  0.91677799  0.50051345
   0.58408330  0.08220592  0.39824081
   0.66726888  0.91582445  0.50071881
   0.16689059  0.91527223  0.50006971
   0.83299072  0.08440512  0.39622483
   0.75151401 -0.00133757  0.60432088
   0.33568056  0.58331939  0.39817537
   0.24895186  0.25110261  0.60245639
   0.83359050  0.33433744  0.39532102
   0.50047623  0.25010983  0.60079715
   0.25006688 -0.00059974  0.60626912
   0.33334656  0.33290710  0.39958084
   0.33216939  0.08175827  0.39677753
   0.91500014  0.16842940  0.49994447
   0.16571827  0.17084779  0.50040976
   0.08195509  0.58385189  0.39958779
   0.83149389  0.58483583  0.39927367
   0.08406899  0.83411432  0.39471652
   0.91720031  0.91338576  0.50044650
   0.66685709  0.41627727  0.50019158
  -0.00254389  0.50197925  0.60125400
   0.41761280  0.66473350  0.50054512
   0.75211103  0.24972685  0.59781707
   0.66492872  0.16680514  0.50054220
   0.67055937  0.66443082  0.49961079
   0.74999626  0.50038499  0.59680374
   0.50196324  0.74979993  0.59761945
   0.83223748  0.83404763  0.40272226
   0.58316178  0.83200148  0.40250160
   0.08371387  0.08355362  0.40167033
   0.41591745  0.41507672  0.50011762
   0.58374081  0.33433833  0.40348061
   0.50031799 -0.00065420  0.59833214
   0.41631090  0.16947298  0.49988753
   0.33470448  0.83315471  0.40224335
   0.24880205  0.50122655  0.59645064
   0.16730972  0.66391263  0.49925700
   0.16678061  0.41814926  0.50065465
  -0.00041174  0.74937313  0.59685798
   0.91875005  0.66258116  0.50064200
  -0.00235500  0.25038652  0.59781845
   0.91666516  0.41973111  0.50014393
   0.08266068  0.33309624  0.40305266
  -0.00056330  0.00058231  0.59829967
   0.58293901  0.58464360  0.40224257
   0.74780685  0.75002792  0.59715980
Direct configuration=    15
   0.24775051  0.74957889  0.60399424
   0.50144514  0.50007201  0.60465877
   0.41824617  0.91688151  0.50064679
   0.58430044  0.08219195  0.39830251
   0.66727920  0.91592722  0.50072783
   0.16672608  0.91544826  0.50014705
   0.83299198  0.08428297  0.39607558
   0.75149457 -0.00135803  0.60441967
   0.33582364  0.58329180  0.39822235
   0.24908344  0.25091901  0.60258032
   0.83358187  0.33436015  0.39492672
   0.50034590  0.25013368  0.60079816
   0.25009508 -0.00046181  0.60657579
   0.33335477  0.33289098  0.39959910
   0.33205718  0.08182584  0.39682968
   0.91529539  0.16815895  0.49970619
   0.16588627  0.17054986  0.50051450
   0.08176233  0.58387161  0.39954266
   0.83160071  0.58487675  0.39917731
   0.08396269  0.83423141  0.39449925
   0.91734473  0.91348714  0.50026299
   0.66675198  0.41633878  0.50014174
  -0.00264506  0.50207135  0.60126136
   0.41777156  0.66459820  0.50071613
   0.75211109  0.24967271  0.59772342
   0.66499252  0.16675526  0.50056340
   0.67037103  0.66449785  0.49957944
   0.74994364  0.50036207  0.59670685
   0.50194122  0.74981405  0.59762377
   0.83218544  0.83417961  0.40274734
   0.58330041  0.83185938  0.40258322
   0.08373728  0.08356232  0.40177042
   0.41582020  0.41518715  0.50015903
   0.58377610  0.33432837  0.40361642
   0.50003676 -0.00049778  0.59835264
   0.41630057  0.16931655  0.49988693
   0.33458359  0.83324269  0.40242695
   0.24896549  0.50123143  0.59636742
   0.16731668  0.66388028  0.49908221
   0.16702437  0.41807849  0.50067168
  -0.00040530  0.74929642  0.59664849
   0.91876465  0.66264718  0.50056882
  -0.00242683  0.25037098  0.59767601
   0.91661002  0.41960001  0.50006582
   0.08256545  0.33321775  0.40319669
  -0.00052904  0.00055059  0.59818062
   0.58294432  0.58464295  0.40234530
   0.74776375  0.75003520  0.59713040
Direct configuration=    16
   0.24779829  0.74954205  0.60403750
   0.50142432  0.50012239  0.60476263
   0.41817735  0.91691808  0.50069390
   0.58437715  0.08218701  0.39832431
   0.66728285  0.91596353  0.50073102
   0.16666797  0.91551045  0.50017438
   0.83299243  0.08423981  0.39602285
   0.75148770 -0.00136526  0.60445457
   0.33587419  0.58328206  0.39823895
   0.24912992  0.25085415  0.60262410
   0.83357882  0.33436817  0.39478742
   0.50029985  0.25014210  0.60079852
   0.25010504 -0.00041308  0.60668413
   0.33335767  0.33288528  0.39960555
   0.33201754  0.08184972  0.39684811
   0.91539970  0.16806341  0.49962201
   0.16594562  0.17044461  0.50055151
   0.08169424  0.58387858  0.39952671
   0.83163844  0.58489121  0.39914327
   0.08392513  0.83427277  0.39442249
   0.91739575  0.91352295  0.50019816
   0.66671484  0.41636051  0.50012413
  -0.00268080  0.50210389  0.60126396
   0.41782765  0.66455040  0.50077655
   0.75211111  0.24965358  0.59769033
   0.66501506  0.16673764  0.50057089
   0.67030449  0.66452154  0.49956837
   0.74992505  0.50035397  0.59667262
   0.50193344  0.74981904  0.59762530
   0.83216705  0.83422623  0.40275620
   0.58334938  0.83180918  0.40261205
   0.08374556  0.08356539  0.40180578
   0.41578585  0.41522617  0.50017366
   0.58378857  0.33432485  0.40366440
   0.49993741 -0.00044253  0.59835988
   0.41629692  0.16926129  0.49988671
   0.33454088  0.83327377  0.40249181
   0.24902323  0.50123316  0.59633802
   0.16731914  0.66386885  0.49902046
   0.16711049  0.41805349  0.50067770
  -0.00040303  0.74926932  0.59657448
   0.91876980  0.66267051  0.50054297
  -0.00245220  0.25036549  0.59762568
   0.91659054  0.41955370  0.50003822
   0.08253181  0.33326068  0.40324757
  -0.00051693  0.00053939  0.59813856
   0.58294619  0.58464272  0.40238160
   0.74774853  0.75003777  0.59712001
Direct configuration=    17
   0.24764277  0.74966099  0.60409724
   0.50153244  0.50001255  0.60503632
   0.41816010  0.91696921  0.50083184
   0.58422833  0.08241381  0.39842371