<?xml version="1.0" encoding="ISO-8859-1"?>
<modeling>
 <generator>
  <i name="program" type="string">vasp </i>
  <i name="version" type="string">5.4.1  </i>
  <i name="subversion" type="string">24Jun15 (build Mar 14 2019 10:18:33) complex                          parallel </i>
  <i name="platform" type="string">INTEL-19.0.2+OPENMPI-3.1.3 </i>
  <i name="date" type="string">2022 07 15 </i>
  <i name="time" type="string">17:49:11 </i>
 </generator>
 <incar>
  <i type="int" name="ISTART">     0</i>
  <i type="string" name="PREC">normal</i>
  <i type="string" name="ALGO"> Fast</i>
  <i type="int" name="NELM">   500</i>
  <i type="int" name="IBRION">     2</i>
  <i type="int" name="NFREE">     2</i>
  <i name="EDIFF">      0.00000100</i>
  <i name="EDIFFG">     -0.02000000</i>
  <i type="int" name="NSW">   500</i>
  <i type="int" name="ISIF">     0</i>
  <i type="int" name="ISYM">     2</i>
  <i name="ENCUT">    400.00000000</i>
  <i name="POTIM">      0.35000000</i>
  <i type="string" name="LREAL"> Auto</i>
  <i type="logical" name="LPLANE"> T  </i>
  <i type="int" name="ISMEAR">     0</i>
  <i name="SIGMA">      0.10000000</i>
  <i type="int" name="NWRITE">     1</i>
  <i type="logical" name="LWAVE"> F  </i>
  <i type="logical" name="LCHARG"> F  </i>
  <i type="logical" name="LVTOT"> F  </i>
  <i type="logical" name="LORBIT"> F  </i>
  <i type="logical" name="LAECHG"> F  </i>
  <v type="int" name="KPOINT_BSE">    -1     0     0     0</v>
  <i type="int" name="NELM">   500</i>
  <i type="string" name="GGA"> PE          ! optPBE-vdW XC-functional</i>
  <i type="int" name="VOSKOWN">     1</i>
  <i type="logical" name="LDIPOL"> T  </i>
  <i type="logical" name="LMONO"> F  </i>
  <i type="int" name="IDIPOL">     3</i>
  <v name="DIPOL">      0.00000000      0.00000000      0.50000000</v>
 </incar>
 <kpoints>
  <generation param="Monkhorst-Pack">
   <v type="int" name="divisions">       2        2        1 </v>
   <v name="usershift">      0.00000000       0.00000000       0.00000000 </v>
   <v name="genvec1">      0.50000000      -0.00000000       0.00000000 </v>
   <v name="genvec2">      0.00000000       0.50000000       0.00000000 </v>
   <v name="genvec3">      0.00000000       0.00000000       1.00000000 </v>
   <v name="shift">      0.50000000       0.50000000       0.00000000 </v>
  </generation>
  <varray name="kpointlist" >
   <v>       0.25000000       0.25000000       0.00000000 </v>
   <v>       0.00000000       0.25000000       0.00000000 </v>
   <v>      -0.25000000       0.00000000       0.00000000 </v>
   <v>      -0.25000000       0.25000000       0.00000000 </v>
   <v>       0.50000000      -0.25000000       0.00000000 </v>
   <v>      -0.25000000       0.50000000       0.00000000 </v>
  </varray>
  <varray name="weights" >
   <v>       0.16666667 </v>
   <v>       0.16666667 </v>
   <v>       0.16666667 </v>
   <v>       0.16666667 </v>
   <v>       0.16666667 </v>
   <v>       0.16666667 </v>
  </varray>
 </kpoints>
 <parameters>
  <separator name="general" >
   <i type="string" name="SYSTEM">unknown system</i>
   <i type="logical" name="LCOMPAT"> F  </i>
  </separator>
  <separator name="electronic" >
   <i type="string" name="PREC">normal</i>
   <i name="ENMAX">    400.00000000</i>
   <i name="ENAUG">    416.23000000</i>
   <i name="EDIFF">      0.00000100</i>
   <i type="int" name="IALGO">    68</i>
   <i type="int" name="IWAVPR">    11</i>
   <i type="int" name="NBANDS">   306</i>
   <i name="NELECT">    504.00000000</i>
   <i type="int" name="TURBO">     0</i>
   <i type="int" name="IRESTART">     0</i>
   <i type="int" name="NREBOOT">     0</i>
   <i type="int" name="NMIN">     0</i>
   <i name="EREF">      0.00000000</i>
   <separator name="electronic smearing" >
    <i type="int" name="ISMEAR">     0</i>
    <i name="SIGMA">      0.10000000</i>
    <i name="KSPACING">      0.50000000</i>
    <i type="logical" name="KGAMMA"> T  </i>
   </separator>
   <separator name="electronic projectors" >
    <i type="logical" name="LREAL"> T  </i>
    <v name="ROPT">     -0.00050000     -0.00050000</v>
    <i type="int" name="LMAXPAW">  -100</i>
    <i type="int" name="LMAXMIX">     2</i>
    <i type="logical" name="NLSPLINE"> F  </i>
   </separator>
   <separator name="electronic startup" >
    <i type="int" name="ISTART">     0</i>
    <i type="int" name="ICHARG">     2</i>
    <i type="int" name="INIWAV">     1</i>
   </separator>
   <separator name="electronic spin" >
    <i type="int" name="ISPIN">     1</i>
    <i type="logical" name="LNONCOLLINEAR"> F  </i>
    <v name="MAGMOM">      1.00000000      1.00000000      1.00000000      1.00000000      1.00000000      1.00000000      1.00000000      1.00000000      1.00000000      1.00000000      1.00000000      1.00000000      1.00000000      1.00000000      1.00000000      1.00000000      1.00000000      1.00000000      1.00000000      1.00000000
      1.00000000      1.00000000      1.00000000      1.00000000      1.00000000      1.00000000      1.00000000      1.00000000      1.00000000      1.00000000      1.00000000      1.00000000      1.00000000      1.00000000      1.00000000      1.00000000      1.00000000      1.00000000      1.00000000      1.00000000
      1.00000000      1.00000000      1.00000000      1.00000000      1.00000000      1.00000000      1.00000000      1.00000000</v>
    <i name="NUPDOWN">     -1.00000000</i>
    <i type="logical" name="LSORBIT"> F  </i>
    <v name="SAXIS">      0.00000000      0.00000000      1.00000000</v>
    <i type="logical" name="LSPIRAL"> F  </i>
    <v name="QSPIRAL">      0.00000000      0.00000000      0.00000000</v>
    <i type="logical" name="LZEROZ"> F  </i>
   </separator>
   <separator name="electronic exchange-correlation" >
    <i type="logical" name="LASPH"> F  </i>
    <i type="logical" name="LMETAGGA"> F  </i>
   </separator>
   <separator name="electronic convergence" >
    <i type="int" name="NELM">   500</i>
    <i type="int" name="NELMDL">    -5</i>
    <i type="int" name="NELMIN">     2</i>
    <i name="ENINI">    400.00000000</i>
    <separator name="electronic convergence detail" >
     <i type="logical" name="LDIAG"> T  </i>
     <i type="logical" name="LSUBROT"> F  </i>
     <i name="WEIMIN">      0.00100000</i>
     <i name="EBREAK">      0.00000000</i>
     <i name="DEPER">      0.30000000</i>
     <i type="int" name="NRMM">     4</i>
     <i name="TIME">      0.40000000</i>
    </separator>
   </separator>
   <separator name="electronic mixer" >
    <i name="AMIX">      0.40000000</i>
    <i name="BMIX">      1.00000000</i>
    <i name="AMIN">      0.10000000</i>
    <i name="AMIX_MAG">      1.60000000</i>
    <i name="BMIX_MAG">      1.00000000</i>
    <separator name="electronic mixer details" >
     <i type="int" name="IMIX">     4</i>
     <i type="logical" name="MIXFIRST"> F  </i>
     <i type="int" name="MAXMIX">   -45</i>
     <i name="WC">    100.00000000</i>
     <i type="int" name="INIMIX">     1</i>
     <i type="int" name="MIXPRE">     1</i>
     <i type="int" name="MREMOVE">     5</i>
    </separator>
   </separator>
   <separator name="electronic dipolcorrection" >
    <i type="logical" name="LDIPOL"> T  </i>
    <i type="logical" name="LMONO"> F  </i>
    <i type="int" name="IDIPOL">     3</i>
    <i name="EPSILON">      1.00000000</i>
    <v name="DIPOL">      0.00000000      0.00000000      0.50000000</v>
    <i name="EFIELD">      0.00000000</i>
   </separator>
  </separator>
  <separator name="grids" >
   <i type="int" name="NGX">    54</i>
   <i type="int" name="NGY">    54</i>
   <i type="int" name="NGZ">   120</i>
   <i type="int" name="NGXF">   108</i>
   <i type="int" name="NGYF">   108</i>
   <i type="int" name="NGZF">   240</i>
   <i type="logical" name="ADDGRID"> F  </i>
  </separator>
  <separator name="ionic" >
   <i type="int" name="NSW">   500</i>
   <i type="int" name="IBRION">     2</i>
   <i type="int" name="ISIF">     0</i>
   <i name="PSTRESS">      0.00000000</i>
   <i name="EDIFFG">     -0.02000000</i>
   <i type="int" name="NFREE">     2</i>
   <i name="POTIM">      0.35000000</i>
   <i name="SMASS">     -3.00000000</i>
   <i name="SCALEE">      1.00000000</i>
  </separator>
  <separator name="ionic md" >
   <i name="TEBEG">      0.00010000</i>
   <i name="TEEND">      0.00010000</i>
   <i type="int" name="NBLOCK">     1</i>
   <i type="int" name="KBLOCK">   500</i>
   <i type="int" name="NPACO">   256</i>
   <i name="APACO">     16.00000000</i>
  </separator>
  <separator name="symmetry" >
   <i type="int" name="ISYM">     2</i>
   <i name="SYMPREC">      0.00001000</i>
  </separator>
  <separator name="dos" >
   <i type="logical" name="LORBIT"> F  </i>
   <v name="RWIGS">     -1.00000000     -1.00000000</v>
   <i type="int" name="NEDOS">   301</i>
   <i name="EMIN">     10.00000000</i>
   <i name="EMAX">    -10.00000000</i>
   <i name="EFERMI">      0.00000000</i>
  </separator>
  <separator name="writing" >
   <i type="int" name="NWRITE">     1</i>
   <i type="logical" name="LWAVE"> F  </i>
   <i type="logical" name="LCHARG"> F  </i>
   <i type="logical" name="LPARD"> F  </i>
   <i type="logical" name="LVTOT"> F  </i>
   <i type="logical" name="LVHAR"> F  </i>
   <i type="logical" name="LELF"> F  </i>
   <i type="logical" name="LOPTICS"> F  </i>
   <v name="STM">      0.00000000      0.00000000      0.00000000      0.00000000      0.00000000      0.00000000      0.00000000</v>
  </separator>
  <separator name="performance" >
   <i type="int" name="NPAR">     6</i>
   <i type="int" name="NSIM">     4</i>
   <i type="int" name="NBLK">    -1</i>
   <i type="logical" name="LPLANE"> T  </i>
   <i type="logical" name="LSCALAPACK"> T  </i>
   <i type="logical" name="LSCAAWARE"> F  </i>
   <i type="logical" name="LSCALU"> F  </i>
   <i type="logical" name="LASYNC"> F  </i>
   <i type="logical" name="LORBITALREAL"> F  </i>
  </separator>
  <separator name="miscellaneous" >
   <i type="int" name="IDIOT">     3</i>
   <i type="logical" name="LMUSIC"> F  </i>
   <v name="POMASS">    196.96600000    106.42000000</v>
   <v name="DARWINR">      0.00000000      0.00000000</v>
   <v name="DARWINV">      1.00000000      1.00000000</v>
   <i type="logical" name="LCORR"> T  </i>
  </separator>
  <i type="logical" name="GGA_COMPAT"> T  </i>
  <i type="logical" name="LBERRY"> F  </i>
  <i type="int" name="ICORELEVEL">     0</i>
  <i type="logical" name="LDAU"> F  </i>
  <i type="int" name="I_CONSTRAINED_M">     0</i>
  <separator name="electronic exchange-correlation" >
   <i type="string" name="GGA">PE</i>
   <i type="int" name="VOSKOWN">     1</i>
   <i type="logical" name="LHFCALC"> F  </i>
   <i type="string" name="PRECFOCK"></i>
   <i type="logical" name="LSYMGRAD"> F  </i>
   <i type="logical" name="LHFONE"> F  </i>
   <i type="logical" name="LRHFCALC"> F  </i>
   <i type="logical" name="LTHOMAS"> F  </i>
   <i type="logical" name="LMODELHF"> F  </i>
   <i name="ENCUT4O">     -1.00000000</i>
   <i type="int" name="EXXOEP">     0</i>
   <i type="int" name="FOURORBIT">     0</i>
   <i name="AEXX">      0.00000000</i>
   <i name="HFALPHA">      0.00000000</i>
   <i name="MCALPHA">      0.00000000</i>
   <i name="ALDAX">      1.00000000</i>
   <i name="AGGAX">      1.00000000</i>
   <i name="ALDAC">      1.00000000</i>
   <i name="AGGAC">      1.00000000</i>
   <i type="int" name="NKREDX">     1</i>
   <i type="int" name="NKREDY">     1</i>
   <i type="int" name="NKREDZ">     1</i>
   <i type="logical" name="SHIFTRED"> F  </i>
   <i type="logical" name="ODDONLY"> F  </i>
   <i type="logical" name="EVENONLY"> F  </i>
   <i type="int" name="LMAXFOCK">     0</i>
   <i type="int" name="NMAXFOCKAE">     0</i>
   <i type="logical" name="LFOCKAEDFT"> F  </i>
   <i name="HFSCREEN">      0.00000000</i>
   <i name="HFSCREENC">      0.00000000</i>
   <i type="int" name="NBANDSGWLOW">     0</i>
  </separator>
  <separator name="vdW DFT" >
   <i type="logical" name="LUSE_VDW"> F  </i>
   <i name="Zab_VDW">     -0.84910000</i>
   <i name="PARAM1">      0.12340000</i>
   <i name="PARAM2">      1.00000000</i>
   <i name="PARAM3">      0.00000000</i>
  </separator>
  <separator name="model GW" >
   <i type="int" name="MODEL_GW">     0</i>
   <i name="MODEL_EPS0">     32.09595293</i>
   <i name="MODEL_ALPHA">      1.00000000</i>
  </separator>
  <separator name="linear response parameters" >
   <i type="logical" name="LEPSILON"> F  </i>
   <i type="logical" name="LRPA"> F  </i>
   <i type="logical" name="LNABLA"> F  </i>
   <i type="logical" name="LVEL"> F  </i>
   <i type="int" name="KINTER">     0</i>
   <i name="CSHIFT">      0.10000000</i>
   <i name="OMEGAMAX">     -1.00000000</i>
   <i name="DEG_THRESHOLD">      0.00200000</i>
  </separator>
  <separator name="orbital magnetization" >
   <i type="logical" name="NUCIND"> F  </i>
   <v name="MAGPOS">      0.00000000      0.00000000      0.00000000</v>
   <i type="logical" name="LNICSALL"> T  </i>
   <i type="logical" name="ORBITALMAG"> F  </i>
   <i type="logical" name="LMAGBLOCH"> F  </i>
   <i type="logical" name="LCHIMAG"> F  </i>
   <i type="logical" name="LGAUGE"> T  </i>
   <i type="int" name="MAGATOM">     0</i>
   <v name="MAGDIPOL">      0.00000000      0.00000000      0.00000000</v>
   <v name="AVECCONST">      0.00000000      0.00000000      0.00000000</v>
  </separator>
  <separator name="response functions" >
   <i type="logical" name="LADDER"> F  </i>
   <i type="logical" name="LFXC"> F  </i>
   <i type="logical" name="LHARTREE"> T  </i>
   <i type="int" name="IBSE">     0</i>
   <v type="int" name="KPOINT">    -1     0     0     0</v>
   <i type="logical" name="LTCTE"> F  </i>
   <i type="logical" name="LTETE"> F  </i>
   <i type="logical" name="LTRIPLET"> F  </i>
   <i type="logical" name="LFXCEPS"> F  </i>
   <i type="logical" name="LFXHEG"> F  </i>
   <i type="int" name="NATURALO">     0</i>
   <i type="logical" name="L2ORDER"> F  </i>
   <i type="logical" name="LUSEW"> F  </i>
   <i name="ENCUTGW">     -2.00000000</i>
   <i name="ENCUTGWSOFT">     -2.00000000</i>
   <i name="ENCUTLF">     -1.00000000</i>
   <i type="int" name="LMAXMP2">    -1</i>
   <i name="SCISSOR">      0.00000000</i>
   <i type="int" name="NOMEGA">     0</i>
   <i type="int" name="NOMEGAR">     0</i>
   <i type="int" name="NBANDSGW">    -1</i>
   <i type="int" name="NBANDSO">    -1</i>
   <i type="int" name="NBANDSV">    -1</i>
   <i type="int" name="NELM">   500</i>
   <i type="int" name="NELMHF">     1</i>
   <i type="int" name="DIM">     3</i>
   <i type="int" name="ANTIRES">     0</i>
   <i name="OMEGAMAX">    -30.00000000</i>
   <i name="OMEGAMIN">    -30.00000000</i>
   <i name="OMEGATL">   -200.00000000</i>
   <i type="int" name="OMEGAGRID">     0</i>
   <i name="CSHIFT">     -0.10000000</i>
   <i type="logical" name="SELFENERGY"> F  </i>
   <i type="logical" name="LSPECTRAL"> F  </i>
   <i type="logical" name="LSPECTRALGW"> F  </i>
   <i type="logical" name="LSINGLES"> F  </i>
   <i type="logical" name="LFERMIGW"> F  </i>
   <i type="logical" name="ODDONLYGW"> F  </i>
   <i type="logical" name="EVENONLYGW"> F  </i>
   <i type="int" name="NKREDLFX">     1</i>
   <i type="int" name="NKREDLFY">     1</i>
   <i type="int" name="NKREDLFZ">     1</i>
   <i type="int" name="MAXMEM">  1800</i>
   <i type="int" name="TELESCOPE">     0</i>
   <i type="int" name="TAUPAR">     1</i>
   <i type="int" name="OMEGAPAR">    -1</i>
   <i name="LAMBDA">      1.00000000</i>
  </separator>
  <separator name="External order field" >
   <i name="OFIELD_KAPPA">      0.00000000</i>
   <v name="OFIELD_K">      0.00000000      0.00000000      0.00000000</v>
   <i name="OFIELD_Q6_NEAR">      0.00000000</i>
   <i name="OFIELD_Q6_FAR">      0.00000000</i>
   <i name="OFIELD_A">      0.00000000</i>
  </separator>
 </parameters>
 <atominfo>
  <atoms>      48 </atoms>
  <types>       2 </types>
  <array name="atoms" >
   <dimension dim="1">ion</dimension>
   <field type="string">element</field>
   <field type="int">atomtype</field>
   <set>
    <rc><c>Au</c><c>   1</c></rc>
    <rc><c>Au</c><c>   1</c></rc>
    <rc><c>Au</c><c>   1</c></rc>
    <rc><c>Au</c><c>   1</c></rc>
    <rc><c>Au</c><c>   1</c></rc>
    <rc><c>Au</c><c>   1</c></rc>
    <rc><c>Au</c><c>   1</c></rc>
    <rc><c>Au</c><c>   1</c></rc>
    <rc><c>Au</c><c>   1</c></rc>
    <rc><c>Au</c><c>   1</c></rc>
    <rc><c>Au</c><c>   1</c></rc>
    <rc><c>Au</c><c>   1</c></rc>
    <rc><c>Au</c><c>   1</c></rc>
    <rc><c>Au</c><c>   1</c></rc>
    <rc><c>Au</c><c>   1</c></rc>
    <rc><c>Au</c><c>   1</c></rc>
    <rc><c>Au</c><c>   1</c></rc>
    <rc><c>Au</c><c>   1</c></rc>
    <rc><c>Au</c><c>   1</c></rc>
    <rc><c>Au</c><c>   1</c></rc>
    <rc><c>Au</c><c>   1</c></rc>
    <rc><c>Au</c><c>   1</c></rc>
    <rc><c>Au</c><c>   1</c></rc>
    <rc><c>Au</c><c>   1</c></rc>
    <rc><c>Pd</c><c>   2</c></rc>
    <rc><c>Pd</c><c>   2</c></rc>
    <rc><c>Pd</c><c>   2</c></rc>
    <rc><c>Pd</c><c>   2</c></rc>
    <rc><c>Pd</c><c>   2</c></rc>
    <rc><c>Pd</c><c>   2</c></rc>
    <rc><c>Pd</c><c>   2</c></rc>
    <rc><c>Pd</c><c>   2</c></rc>
    <rc><c>Pd</c><c>   2</c></rc>
    <rc><c>Pd</c><c>   2</c></rc>
    <rc><c>Pd</c><c>   2</c></rc>
    <rc><c>Pd</c><c>   2</c></rc>
    <rc><c>Pd</c><c>   2</c></rc>
    <rc><c>Pd</c><c>   2</c></rc>
    <rc><c>Pd</c><c>   2</c></rc>
    <rc><c>Pd</c><c>   2</c></rc>
    <rc><c>Pd</c><c>   2</c></rc>
    <rc><c>Pd</c><c>   2</c></rc>
    <rc><c>Pd</c><c>   2</c></rc>
    <rc><c>Pd</c><c>   2</c></rc>
    <rc><c>Pd</c><c>   2</c></rc>
    <rc><c>Pd</c><c>   2</c></rc>
    <rc><c>Pd</c><c>   2</c></rc>
    <rc><c>Pd</c><c>   2</c></rc>
   </set>
  </array>
  <array name="atomtypes" >
   <dimension dim="1">type</dimension>
   <field type="int">atomspertype</field>
   <field type="string">element</field>
   <field>mass</field>
   <field>valence</field>
   <field type="string">pseudopotential</field>
   <set>
    <rc><c>  24</c><c>Au</c><c>    196.96600000</c><c>     11.00000000</c><c>  PAW_PBE Au 04Oct2007                  </c></rc>
    <rc><c>  24</c><c>Pd</c><c>    106.42000000</c><c>     10.00000000</c><c>  PAW_PBE Pd 04Jan2005                  </c></rc>
   </set>
  </array>
 </atominfo>
 <structure name="initialpos" >
  <crystal>
   <varray name="basis" >
    <v>      11.00258152       0.00000000       0.00000000 </v>
    <v>       5.50129076       9.52851510       0.00000000 </v>
    <v>       0.00000000       0.00000000      24.49178509 </v>
   </varray>
   <i name="volume">   2567.67623402 </i>
   <varray name="rec_basis" >
    <v>       0.09088776      -0.05247407       0.00000000 </v>
    <v>       0.00000000       0.10494815       0.00000000 </v>
    <v>       0.00000000       0.00000000       0.04083002 </v>
   </varray>
  </crystal>
  <varray name="positions" >
   <v>       0.75000000       0.75000000       0.59169983 </v>
   <v>       0.50000000       0.50000000       0.59169983 </v>
   <v>       0.58333333       0.83333333       0.40830017 </v>
   <v>       0.41666667       0.16666667       0.50000000 </v>
   <v>       0.83333333       0.08333333       0.40830017 </v>
   <v>       0.66666667       0.16666667       0.50000000 </v>
   <v>       0.33333333       0.83333333       0.40830017 </v>
   <v>       0.25000000       0.50000000       0.59169983 </v>
   <v>       0.16666667       0.66666667       0.50000000 </v>
   <v>       0.33333333       0.58333333       0.40830017 </v>
   <v>       0.50000000       0.25000000       0.59169983 </v>
   <v>       0.16666667       0.16666667       0.50000000 </v>
   <v>       0.33333333       0.33333333       0.40830017 </v>
   <v>       0.00000000       0.75000000       0.59169983 </v>
   <v>       0.91666667       0.16666667       0.50000000 </v>
   <v>       0.00000000       0.00000000       0.59169983 </v>
   <v>       0.83333333       0.83333333       0.40830017 </v>
   <v>       0.91666667       0.41666667       0.50000000 </v>
   <v>       0.00000000       0.25000000       0.59169983 </v>
   <v>       0.66666667       0.66666667       0.50000000 </v>
   <v>       0.58333333       0.58333333       0.40830017 </v>
   <v>       0.83333333       0.58333333       0.40830017 </v>
   <v>       0.91666667       0.91666667       0.50000000 </v>
   <v>       0.00000000       0.50000000       0.59169983 </v>
   <v>       0.75000000       0.25000000       0.59169983 </v>
   <v>       0.75000000       0.00000000       0.59169983 </v>
   <v>       0.50000000       0.75000000       0.59169983 </v>
   <v>       0.83333333       0.33333333       0.40830017 </v>
   <v>       0.41666667       0.91666667       0.50000000 </v>
   <v>       0.66666667       0.41666667       0.50000000 </v>
   <v>       0.75000000       0.50000000       0.59169983 </v>
   <v>       0.08333333       0.08333333       0.40830017 </v>
   <v>       0.41666667       0.41666667       0.50000000 </v>
   <v>       0.58333333       0.33333333       0.40830017 </v>
   <v>       0.50000000       0.00000000       0.59169983 </v>
   <v>       0.58333333       0.08333333       0.40830017 </v>
   <v>       0.66666667       0.91666667       0.50000000 </v>
   <v>       0.16666667       0.91666667       0.50000000 </v>
   <v>       0.25000000       0.25000000       0.59169983 </v>
   <v>       0.16666667       0.41666667       0.50000000 </v>
   <v>       0.25000000       0.00000000       0.59169983 </v>
   <v>       0.33333333       0.08333333       0.40830017 </v>
   <v>       0.08333333       0.83333333       0.40830017 </v>
   <v>       0.91666667       0.66666667       0.50000000 </v>
   <v>       0.08333333       0.58333333       0.40830017 </v>
   <v>       0.08333333       0.33333333       0.40830017 </v>
   <v>       0.41666667       0.66666667       0.50000000 </v>
   <v>       0.25000000       0.75000000       0.59169983 </v>
  </varray>
 </structure>
 <calculation>
  <scstep>
   <time name="dav">    7.07    7.16</time>
   <time name="total">    7.13    7.22</time>
   <dipole>
    <v name="dipole">      0.00000000       0.00000000       0.00000000 </v>
    <i name="Tr[quadrupol]"> -10276.48144463 </i>
    <i name="Echarged">      0.00000000 </i>
    <i name="Edipol_quadrupol">      0.00000000 </i>
    <i name="Eion">      0.00000000 </i>
   </dipole>
   <energy>
    <i name="alphaZ">    805.86936429 </i>
    <i name="ewald"> 200157.03521132 </i>
    <i name="hartreedc">-242570.95964958 </i>
    <i name="XCdc">   -327.62892191 </i>
    <i name="pawpsdc">  40340.05962942 </i>
    <i name="pawaedc"> -38292.62782345 </i>
    <i name="eentropy">     -0.13092976 </i>
    <i name="bandstr">   1430.65992736 </i>
    <i name="atom">  41659.78587232 </i>
    <i name="e_fr_energy">   3202.06268001 </i>
    <i name="e_wo_entrp">   3202.19360977 </i>
    <i name="e_0_energy">   3202.12814489 </i>
   </energy>
  </scstep>
  <scstep>
   <time name="dav">    8.33    8.35</time>
   <time name="total">    8.33    8.36</time>
   <dipole>
    <v name="dipole">      0.00000000       0.00000000       0.00000000 </v>
    <i name="Tr[quadrupol]"> -10276.48144463 </i>
    <i name="Echarged">      0.00000000 </i>
    <i name="Edipol_quadrupol">      0.00000000 </i>
    <i name="Eion">      0.00000000 </i>
   </dipole>
   <energy>
    <i name="e_fr_energy">     15.40570796 </i>
    <i name="e_wo_entrp">     15.52593555 </i>
    <i name="e_0_energy">     15.46582175 </i>
   </energy>
  </scstep>
  <scstep>
   <time name="dav">    8.15    8.17</time>
   <time name="total">    8.15    8.17</time>
   <dipole>
    <v name="dipole">      0.00000000       0.00000000       0.00000000 </v>
    <i name="Tr[quadrupol]"> -10276.48144463 </i>
    <i name="Echarged">      0.00000000 </i>
    <i name="Edipol_quadrupol">      0.00000000 </i>
    <i name="Eion">      0.00000000 </i>
   </dipole>
   <energy>
    <i name="e_fr_energy">   -200.27563764 </i>
    <i name="e_wo_entrp">   -200.07714726 </i>
    <i name="e_0_energy">   -200.17639245 </i>
   </energy>
  </scstep>
  <scstep>
   <time name="dav">    8.19    8.21</time>
   <time name="total">    8.19    8.22</time>
   <dipole>
    <v name="dipole">      0.00000000       0.00000000       0.00000000 </v>
    <i name="Tr[quadrupol]"> -10276.48144463 </i>
    <i name="Echarged">      0.00000000 </i>
    <i name="Edipol_quadrupol">      0.00000000 </i>
    <i name="Eion">      0.00000000 </i>
   </dipole>
   <energy>
    <i name="e_fr_energy">   -206.18711312 </i>
    <i name="e_wo_entrp">   -205.97900088 </i>
    <i name="e_0_energy">   -206.08305700 </i>
   </energy>
  </scstep>
  <scstep>
   <time name="dav">    8.55    8.57</time>
   <time name="total">    8.77    8.80</time>
   <dipole>
    <v name="dipole">      0.00000000       0.00000000       0.00000000 </v>
    <i name="Tr[quadrupol]"> -10276.48144463 </i>
    <i name="Echarged">      0.00000000 </i>
    <i name="Edipol_quadrupol">      0.00000000 </i>
    <i name="Eion">      0.00000000 </i>
   </dipole>
   <energy>
    <i name="e_fr_energy">   -206.38887554 </i>
    <i name="e_wo_entrp">   -206.18046798 </i>
    <i name="e_0_energy">   -206.28467176 </i>
   </energy>
  </scstep>
  <scstep>
   <time name="diag">    1.28    1.28</time>
   <time name="diis">    3.30    3.41</time>
   <time name="orth">    0.36    0.36</time>
   <time name="total">    5.22    5.33</time>
   <dipole>
    <v name="dipole">      0.00000000       0.00000000       0.00012318 </v>
    <i name="Tr[quadrupol]"> -10277.90093881 </i>
    <i name="Echarged">      0.00000000 </i>
    <i name="Edipol_quadrupol">      0.00000000 </i>
    <i name="Eion">      0.00000000 </i>
   </dipole>
   <energy>
    <i name="e_fr_energy">   -197.97645544 </i>
    <i name="e_wo_entrp">   -197.73763024 </i>
    <i name="e_0_energy">   -197.85704284 </i>
   </energy>
  </scstep>
  <scstep>
   <time name="diag">    1.28    1.29</time>
   <time name="diis">    3.37    3.38</time>
   <time name="orth">    0.37    0.37</time>
   <time name="total">    5.29    5.32</time>
   <dipole>
    <v name="dipole">      0.00000000       0.00000000      -0.25736264 </v>
    <i name="Tr[quadrupol]"> -10276.37813181 </i>
    <i name="Echarged">      0.00000000 </i>
    <i name="Edipol_quadrupol">      0.00000000 </i>
    <i name="Eion">      0.00000000 </i>
   </dipole>
   <energy>
    <i name="e_fr_energy">   -199.91478619 </i>
    <i name="e_wo_entrp">   -199.73520375 </i>
    <i name="e_0_energy">   -199.82499497 </i>
   </energy>
  </scstep>
  <scstep>
   <time name="diag">    1.28    1.29</time>
   <time name="diis">    3.43    3.44</time>
   <time name="orth">    0.36    0.36</time>
   <time name="total">    5.34    5.36</time>
   <dipole>
    <v name="dipole">      0.00000000       0.00000000       0.82186717 </v>
    <i name="Tr[quadrupol]"> -10279.06733989 </i>
    <i name="Echarged">      0.00000000 </i>
    <i name="Edipol_quadrupol">      0.00000000 </i>
    <i name="Eion">      0.00000000 </i>
   </dipole>
   <energy>
    <i name="e_fr_energy">   -202.11994869 </i>
    <i name="e_wo_entrp">   -201.91206741 </i>
    <i name="e_0_energy">   -202.01600805 </i>
   </energy>
  </scstep>
  <scstep>
   <time name="diag">    1.28    1.28</time>
   <time name="diis">    3.42    3.43</time>
   <time name="orth">    0.36    0.36</time>
   <time name="total">    5.33    5.34</time>
   <dipole>
    <v name="dipole">      0.00000000       0.00000000      -0.95561744 </v>
    <i name="Tr[quadrupol]"> -10279.61456838 </i>
    <i name="Echarged">      0.00000000 </i>
    <i name="Edipol_quadrupol">      0.00000000 </i>
    <i name="Eion">      0.00000000 </i>
   </dipole>
   <energy>
    <i name="e_fr_energy">   -200.09290092 </i>
    <i name="e_wo_entrp">   -199.87295474 </i>
    <i name="e_0_energy">   -199.98292783 </i>
   </energy>
  </scstep>
  <scstep>
   <time name="diag">    1.28    1.28</time>
   <time name="diis">    3.44    3.45</time>
   <time name="orth">    0.35    0.36</time>
   <time name="total">    5.34    5.36</time>
   <dipole>
    <v name="dipole">      0.00000000       0.00000000       0.17233165 </v>
    <i name="Tr[quadrupol]"> -10279.52343655 </i>
    <i name="Echarged">      0.00000000 </i>
    <i name="Edipol_quadrupol">      0.00000000 </i>
    <i name="Eion">      0.00000000 </i>
   </dipole>
   <energy>
    <i name="e_fr_energy">   -192.13373246 </i>
    <i name="e_wo_entrp">   -191.92415338 </i>
    <i name="e_0_energy">   -192.02894292 </i>
   </energy>
  </scstep>
  <scstep>
   <time name="diag">    1.28    1.28</time>
   <time name="diis">    3.41    3.42</time>
   <time name="orth">    0.35    0.36</time>
   <time name="total">    5.31    5.33</time>
   <dipole>
    <v name="dipole">      0.00000000       0.00000000      -0.08400043 </v>
    <i name="Tr[quadrupol]"> -10279.24884277 </i>
    <i name="Echarged">      0.00000000 </i>
    <i name="Edipol_quadrupol">      0.00000000 </i>
    <i name="Eion">      0.00000000 </i>
   </dipole>
   <energy>
    <i name="e_fr_energy">   -189.57136791 </i>
    <i name="e_wo_entrp">   -189.34780583 </i>
    <i name="e_0_energy">   -189.45958687 </i>
   </energy>
  </scstep>
  <scstep>
   <time name="diag">    1.28    1.28</time>
   <time name="diis">    3.40    3.41</time>
   <time name="orth">    0.35    0.35</time>
   <time name="total">    5.31    5.33</time>
   <dipole>
    <v name="dipole">      0.00000000       0.00000000       0.12192075 </v>
    <i name="Tr[quadrupol]"> -10279.77001894 </i>
    <i name="Echarged">      0.00000000 </i>
    <i name="Edipol_quadrupol">      0.00000000 </i>
    <i name="Eion">      0.00000000 </i>
   </dipole>
   <energy>
    <i name="e_fr_energy">   -189.28983550 </i>
    <i name="e_wo_entrp">   -189.05368954 </i>
    <i name="e_0_energy">   -189.17176252 </i>
   </energy>
  </scstep>
  <scstep>
   <time name="diag">    1.28    1.28</time>
   <time name="diis">    3.38    3.42</time>
   <time name="orth">    0.35    0.37</time>
   <time name="total">    5.28    5.37</time>
   <dipole>
    <v name="dipole">      0.00000000       0.00000000      -0.01398815 </v>
    <i name="Tr[quadrupol]"> -10280.12672212 </i>
    <i name="Echarged">      0.00000000 </i>
    <i name="Edipol_quadrupol">      0.00000000 </i>
    <i name="Eion">      0.00000000 </i>
   </dipole>
   <energy>
    <i name="e_fr_energy">   -189.06800621 </i>
    <i name="e_wo_entrp">   -188.82511070 </i>
    <i name="e_0_energy">   -188.94655845 </i>
   </energy>
  </scstep>
  <scstep>
   <time name="diag">    1.28    1.28</time>
   <time name="diis">    3.43    3.44</time>
   <time name="orth">    0.35    0.35</time>
   <time name="total">    5.33    5.34</time>
   <dipole>
    <v name="dipole">      0.00000000       0.00000000       0.00761019 </v>
    <i name="Tr[quadrupol]"> -10280.09446279 </i>
    <i name="Echarged">      0.00000000 </i>
    <i name="Edipol_quadrupol">      0.00000000 </i>
    <i name="Eion">      0.00000000 </i>
   </dipole>
   <energy>
    <i name="e_fr_energy">   -189.01414021 </i>
    <i name="e_wo_entrp">   -188.76391383 </i>
    <i name="e_0_energy">   -188.88902702 </i>
   </energy>
  </scstep>
  <scstep>
   <time name="diag">    1.28    1.29</time>
   <time name="diis">    3.41    3.41</time>
   <time name="orth">    0.35    0.35</time>
   <time name="total">    5.31    5.33</time>
   <dipole>
    <v name="dipole">      0.00000000       0.00000000      -0.00260824 </v>
    <i name="Tr[quadrupol]"> -10280.44084246 </i>
    <i name="Echarged">      0.00000000 </i>
    <i name="Edipol_quadrupol">      0.00000000 </i>
    <i name="Eion">      0.00000000 </i>
   </dipole>
   <energy>
    <i name="e_fr_energy">   -188.94884613 </i>
    <i name="e_wo_entrp">   -188.69465333 </i>
    <i name="e_0_energy">   -188.82174973 </i>
   </energy>
  </scstep>
  <scstep>
   <time name="diag">    1.28    1.28</time>
   <time name="diis">    3.41    3.42</time>
   <time name="orth">    0.35    0.35</time>
   <time name="total">    5.31    5.33</time>
   <dipole>
    <v name="dipole">      0.00000000       0.00000000       0.00134998 </v>
    <i name="Tr[quadrupol]"> -10280.72992137 </i>
    <i name="Echarged">      0.00000000 </i>
    <i name="Edipol_quadrupol">      0.00000000 </i>
    <i name="Eion">      0.00000000 </i>
   </dipole>
   <energy>
    <i name="e_fr_energy">   -188.92574392 </i>
    <i name="e_wo_entrp">   -188.66519235 </i>
    <i name="e_0_energy">   -188.79546813 </i>
   </energy>
  </scstep>
  <scstep>
   <time name="diag">    1.27    1.28</time>
   <time name="diis">    3.45    3.46</time>
   <time name="orth">    0.35    0.35</time>
   <time name="total">    5.35    5.36</time>
   <dipole>
    <v name="dipole">      0.00000000       0.00000000       0.00519235 </v>
    <i name="Tr[quadrupol]"> -10280.90583127 </i>
    <i name="Echarged">      0.00000000 </i>
    <i name="Edipol_quadrupol">      0.00000000 </i>
    <i name="Eion">      0.00000000 </i>
   </dipole>
   <energy>
    <i name="e_fr_energy">   -188.91287643 </i>
    <i name="e_wo_entrp">   -188.65514856 </i>
    <i name="e_0_energy">   -188.78401249 </i>
   </energy>
  </scstep>
  <scstep>
   <time name="diag">    1.28    1.28</time>
   <time name="diis">    3.41    3.42</time>
   <time name="orth">    0.35    0.35</time>
   <time name="total">    5.31    5.33</time>
   <dipole>
    <v name="dipole">      0.00000000       0.00000000       0.00559664 </v>
    <i name="Tr[quadrupol]"> -10281.04020410 </i>
    <i name="Echarged">      0.00000000 </i>
    <i name="Edipol_quadrupol">      0.00000000 </i>
    <i name="Eion">      0.00000000 </i>
   </dipole>
   <energy>
    <i name="e_fr_energy">   -188.90871109 </i>
    <i name="e_wo_entrp">   -188.64915610 </i>
    <i name="e_0_energy">   -188.77893360 </i>
   </energy>
  </scstep>
  <scstep>
   <time name="diag">    1.29    1.29</time>
   <time name="diis">    3.40    3.41</time>
   <time name="orth">    0.35    0.35</time>
   <time name="total">    5.31    5.33</time>
   <dipole>
    <v name="dipole">      0.00000000       0.00000000       0.00121523 </v>
    <i name="Tr[quadrupol]"> -10281.13935066 </i>
    <i name="Echarged">      0.00000000 </i>
    <i name="Edipol_quadrupol">      0.00000000 </i>
    <i name="Eion">      0.00000000 </i>
   </dipole>
   <energy>
    <i name="e_fr_energy">   -188.90752608 </i>
    <i name="e_wo_entrp">   -188.64917479 </i>
    <i name="e_0_energy">   -188.77835044 </i>
   </energy>
  </scstep>
  <scstep>
   <time name="diag">    1.28    1.28</time>
   <time name="diis">    3.40    3.41</time>
   <time name="orth">    0.35    0.35</time>
   <time name="total">    5.29    5.31</time>
   <dipole>
    <v name="dipole">      0.00000000       0.00000000       0.00124648 </v>
    <i name="Tr[quadrupol]"> -10281.20257019 </i>
    <i name="Echarged">      0.00000000 </i>
    <i name="Edipol_quadrupol">      0.00000000 </i>
    <i name="Eion">      0.00000000 </i>
   </dipole>
   <energy>
    <i name="e_fr_energy">   -188.90687303 </i>
    <i name="e_wo_entrp">   -188.64853589 </i>
    <i name="e_0_energy">   -188.77770446 </i>
   </energy>
  </scstep>
  <scstep>
   <time name="diag">    1.27    1.28</time>
   <time name="diis">    3.31    3.40</time>
   <time name="orth">    0.35    0.35</time>
   <time name="total">    5.21    5.31</time>
   <dipole>
    <v name="dipole">      0.00000000       0.00000000      -0.00091083 </v>
    <i name="Tr[quadrupol]"> -10281.31590722 </i>
    <i name="Echarged">      0.00000000 </i>
    <i name="Edipol_quadrupol">      0.00000000 </i>
    <i name="Eion">      0.00000000 </i>
   </dipole>
   <energy>
    <i name="e_fr_energy">   -188.90701217 </i>
    <i name="e_wo_entrp">   -188.64850743 </i>
    <i name="e_0_energy">   -188.77775980 </i>
   </energy>
  </scstep>
  <scstep>
   <time name="diag">    1.27    1.28</time>
   <time name="diis">    3.42    3.44</time>
   <time name="orth">    0.35    0.35</time>
   <time name="total">    5.32    5.35</time>
   <dipole>
    <v name="dipole">      0.00000000       0.00000000       0.00124428 </v>
    <i name="Tr[quadrupol]"> -10281.43528300 </i>
    <i name="Echarged">      0.00000000 </i>
    <i name="Edipol_quadrupol">      0.00000000 </i>
    <i name="Eion">      0.00000000 </i>
   </dipole>
   <energy>
    <i name="e_fr_energy">   -188.90708572 </i>
    <i name="e_wo_entrp">   -188.64872710 </i>
    <i name="e_0_energy">   -188.77790641 </i>
   </energy>
  </scstep>
  <scstep>
   <time name="diag">    1.27    1.28</time>
   <time name="diis">    3.42    3.43</time>
   <time name="orth">    0.35    0.35</time>
   <time name="total">    5.31    5.33</time>
   <dipole>
    <v name="dipole">      0.00000000       0.00000000       0.00188909 </v>
    <i name="Tr[quadrupol]"> -10281.47751252 </i>
    <i name="Echarged">      0.00000000 </i>
    <i name="Edipol_quadrupol">      0.00000000 </i>
    <i name="Eion">      0.00000000 </i>
   </dipole>
   <energy>
    <i name="e_fr_energy">   -188.90715796 </i>
    <i name="e_wo_entrp">   -188.64890159 </i>
    <i name="e_0_energy">   -188.77802978 </i>
   </energy>
  </scstep>
  <scstep>
   <time name="diag">    1.29    1.29</time>
   <time name="diis">    3.45    3.46</time>
   <time name="orth">    0.35    0.35</time>
   <time name="total">    5.35    5.37</time>
   <dipole>
    <v name="dipole">      0.00000000       0.00000000       0.00154017 </v>
    <i name="Tr[quadrupol]"> -10281.54603849 </i>
    <i name="Echarged">      0.00000000 </i>
    <i name="Edipol_quadrupol">      0.00000000 </i>
    <i name="Eion">      0.00000000 </i>
   </dipole>
   <energy>
    <i name="e_fr_energy">   -188.90756623 </i>
    <i name="e_wo_entrp">   -188.64922147 </i>
    <i name="e_0_energy">   -188.77839385 </i>
   </energy>
  </scstep>
  <scstep>
   <time name="diag">    1.27    1.27</time>
   <time name="diis">    3.45    3.46</time>
   <time name="orth">    0.35    0.35</time>
   <time name="total">    5.34    5.36</time>
   <dipole>
    <v name="dipole">      0.00000000       0.00000000       0.00147462 </v>
    <i name="Tr[quadrupol]"> -10281.62459198 </i>
    <i name="Echarged">      0.00000000 </i>
    <i name="Edipol_quadrupol">      0.00000000 </i>
    <i name="Eion">      0.00000000 </i>
   </dipole>
   <energy>
    <i name="e_fr_energy">   -188.90814516 </i>
    <i name="e_wo_entrp">   -188.64979532 </i>
    <i name="e_0_energy">   -188.77897024 </i>
   </energy>
  </scstep>
  <scstep>
   <time name="diag">    1.28    1.28</time>
   <time name="diis">    3.42    3.43</time>
   <time name="orth">    0.34    0.35</time>
   <time name="total">    5.32    5.33</time>
   <dipole>
    <v name="dipole">      0.00000000       0.00000000       0.00110505 </v>
    <i name="Tr[quadrupol]"> -10281.71317731 </i>
    <i name="Echarged">      0.00000000 </i>
    <i name="Edipol_quadrupol">      0.00000000 </i>
    <i name="Eion">      0.00000000 </i>
   </dipole>
   <energy>
    <i name="e_fr_energy">   -188.90892040 </i>
    <i name="e_wo_entrp">   -188.65058585 </i>
    <i name="e_0_energy">   -188.77975312 </i>
   </energy>
  </scstep>
  <scstep>
   <time name="diag">    1.28    1.28</time>
   <time name="diis">    3.32    3.33</time>
   <time name="orth">    0.35    0.35</time>
   <time name="total">    5.21    5.23</time>
   <dipole>
    <v name="dipole">      0.00000000       0.00000000       0.00124270 </v>
    <i name="Tr[quadrupol]"> -10281.74073001 </i>
    <i name="Echarged">      0.00000000 </i>
    <i name="Edipol_quadrupol">      0.00000000 </i>
    <i name="Eion">      0.00000000 </i>
   </dipole>
   <energy>
    <i name="e_fr_energy">   -188.90925703 </i>
    <i name="e_wo_entrp">   -188.65083970 </i>
    <i name="e_0_energy">   -188.78004837 </i>
   </energy>
  </scstep>
  <scstep>
   <time name="diag">    1.28    1.28</time>
   <time name="diis">    2.89    2.90</time>
   <time name="orth">    0.34    0.36</time>
   <time name="total">    4.79    4.84</time>
   <dipole>
    <v name="dipole">      0.00000000       0.00000000       0.00118865 </v>
    <i name="Tr[quadrupol]"> -10281.76507996 </i>
    <i name="Echarged">      0.00000000 </i>
    <i name="Edipol_quadrupol">      0.00000000 </i>
    <i name="Eion">      0.00000000 </i>
   </dipole>
   <energy>
    <i name="e_fr_energy">   -188.90955946 </i>
    <i name="e_wo_entrp">   -188.65118688 </i>
    <i name="e_0_energy">   -188.78037317 </i>
   </energy>
  </scstep>
  <scstep>
   <time name="diag">    1.26    1.30</time>
   <time name="diis">    3.24    3.24</time>
   <time name="orth">    0.35    0.35</time>
   <time name="total">    5.11    5.16</time>
   <dipole>
    <v name="dipole">      0.00000000       0.00000000       0.00108164 </v>
    <i name="Tr[quadrupol]"> -10281.81980023 </i>
    <i name="Echarged">      0.00000000 </i>
    <i name="Edipol_quadrupol">      0.00000000 </i>
    <i name="Eion">      0.00000000 </i>
   </dipole>
   <energy>
    <i name="e_fr_energy">   -188.91014457 </i>
    <i name="e_wo_entrp">   -188.65173111 </i>
    <i name="e_0_energy">   -188.78093784 </i>
   </energy>
  </scstep>
  <scstep>
   <time name="diag">    1.28    1.28</time>
   <time name="diis">    2.99    3.02</time>
   <time name="orth">    0.34    0.35</time>
   <time name="total">    4.88    4.93</time>
   <dipole>
    <v name="dipole">      0.00000000       0.00000000       0.00110366 </v>
    <i name="Tr[quadrupol]"> -10281.85435409 </i>
    <i name="Echarged">      0.00000000 </i>
    <i name="Edipol_quadrupol">      0.00000000 </i>
    <i name="Eion">      0.00000000 </i>
   </dipole>
   <energy>
    <i name="e_fr_energy">   -188.91046367 </i>
    <i name="e_wo_entrp">   -188.65206588 </i>
    <i name="e_0_energy">   -188.78126478 </i>
   </energy>
  </scstep>
  <scstep>
   <time name="diag">    1.28    1.28</time>
   <time name="diis">    2.55    2.55</time>
   <time name="orth">    0.35    0.35</time>
   <time name="total">    4.44    4.46</time>
   <dipole>
    <v name="dipole">      0.00000000       0.00000000       0.00110595 </v>
    <i name="Tr[quadrupol]"> -10281.86576271 </i>
    <i name="Echarged">      0.00000000 </i>
    <i name="Edipol_quadrupol">      0.00000000 </i>
    <i name="Eion">      0.00000000 </i>
   </dipole>
   <energy>
    <i name="e_fr_energy">   -188.91054637 </i>
    <i name="e_wo_entrp">   -188.65214721 </i>
    <i name="e_0_energy">   -188.78134679 </i>
   </energy>
  </scstep>
  <scstep>
   <time name="diag">    1.28    1.28</time>
   <time name="diis">    2.29    2.29</time>
   <time name="orth">    0.34    0.35</time>
   <time name="total">    4.18    4.20</time>
   <dipole>
    <v name="dipole">      0.00000000       0.00000000       0.00103065 </v>
    <i name="Tr[quadrupol]"> -10281.87502088 </i>
    <i name="Echarged">      0.00000000 </i>
    <i name="Edipol_quadrupol">      0.00000000 </i>
    <i name="Eion">      0.00000000 </i>
   </dipole>
   <energy>
    <i name="e_fr_energy">   -188.91063390 </i>
    <i name="e_wo_entrp">   -188.65224032 </i>
    <i name="e_0_energy">   -188.78143711 </i>
   </energy>
  </scstep>
  <scstep>
   <time name="diag">    1.27    1.27</time>
   <time name="diis">    2.13    2.14</time>
   <time name="orth">    0.35    0.35</time>
   <time name="total">    4.02    4.04</time>
   <dipole>
    <v name="dipole">      0.00000000       0.00000000       0.00100154 </v>
    <i name="Tr[quadrupol]"> -10281.88348343 </i>
    <i name="Echarged">      0.00000000 </i>
    <i name="Edipol_quadrupol">      0.00000000 </i>
    <i name="Eion">      0.00000000 </i>
   </dipole>
   <energy>
    <i name="e_fr_energy">   -188.91069848 </i>
    <i name="e_wo_entrp">   -188.65230568 </i>
    <i name="e_0_energy">   -188.78150208 </i>
   </energy>
  </scstep>
  <scstep>
   <time name="diag">    1.27    1.28</time>
   <time name="diis">    2.07    2.08</time>
   <time name="orth">    0.34    0.35</time>
   <time name="total">    3.96    3.97</time>
   <dipole>
    <v name="dipole">      0.00000000       0.00000000       0.00100448 </v>
    <i name="Tr[quadrupol]"> -10281.88680617 </i>
    <i name="Echarged">      0.00000000 </i>
    <i name="Edipol_quadrupol">      0.00000000 </i>
    <i name="Eion">      0.00000000 </i>
   </dipole>
   <energy>
    <i name="e_fr_energy">   -188.91071671 </i>
    <i name="e_wo_entrp">   -188.65232630 </i>
    <i name="e_0_energy">   -188.78152151 </i>
   </energy>
  </scstep>
  <scstep>
   <time name="diag">    1.27    1.28</time>
   <time name="diis">    1.93    1.94</time>
   <time name="orth">    0.34    0.35</time>
   <time name="total">    3.82    3.84</time>
   <dipole>
    <v name="dipole">      0.00000000       0.00000000       0.00098746 </v>
    <i name="Tr[quadrupol]"> -10281.89021770 </i>
    <i name="Echarged">      0.00000000 </i>
    <i name="Edipol_quadrupol">      0.00000000 </i>
    <i name="Eion">      0.00000000 </i>
   </dipole>
   <energy>
    <i name="e_fr_energy">   -188.91073364 </i>
    <i name="e_wo_entrp">   -188.65234150 </i>
    <i name="e_0_energy">   -188.78153757 </i>
   </energy>
  </scstep>
  <scstep>
   <time name="diag">    1.28    1.28</time>
   <time name="diis">    1.87    1.87</time>
   <time name="orth">    0.34    0.35</time>
   <time name="total">    3.76    3.78</time>
   <dipole>
    <v name="dipole">      0.00000000       0.00000000       0.00097605 </v>
    <i name="Tr[quadrupol]"> -10281.89282858 </i>
    <i name="Echarged">      0.00000000 </i>
    <i name="Edipol_quadrupol">      0.00000000 </i>
    <i name="Eion">      0.00000000 </i>
   </dipole>
   <energy>
    <i name="e_fr_energy">   -188.91074350 </i>
    <i name="e_wo_entrp">   -188.65235200 </i>
    <i name="e_0_energy">   -188.78154775 </i>
   </energy>
  </scstep>
  <scstep>
   <time name="diag">    1.27    1.27</time>
   <time name="diis">    1.94    1.95</time>
   <time name="orth">    0.35    0.35</time>
   <time name="total">    3.84    3.85</time>
   <dipole>
    <v name="dipole">      0.00000000       0.00000000       0.00096374 </v>
    <i name="Tr[quadrupol]"> -10281.89725899 </i>
    <i name="Echarged">      0.00000000 </i>
    <i name="Edipol_quadrupol">      0.00000000 </i>
    <i name="Eion">      0.00000000 </i>
   </dipole>
   <energy>
    <i name="e_fr_energy">   -188.91075360 </i>
    <i name="e_wo_entrp">   -188.65236135 </i>
    <i name="e_0_energy">   -188.78155748 </i>
   </energy>
  </scstep>
  <scstep>
   <time name="diag">    1.27    1.28</time>
   <time name="diis">    1.48    1.56</time>
   <time name="orth">    0.35    0.35</time>
   <time name="total">    3.37    3.46</time>
   <dipole>
    <v name="dipole">      0.00000000       0.00000000       0.00095186 </v>
    <i name="Tr[quadrupol]"> -10281.89921381 </i>
    <i name="Echarged">      0.00000000 </i>
    <i name="Edipol_quadrupol">      0.00000000 </i>
    <i name="Eion">      0.00000000 </i>
   </dipole>
   <energy>
    <i name="e_fr_energy">   -188.91075501 </i>
    <i name="e_wo_entrp">   -188.65236237 </i>
    <i name="e_0_energy">   -188.78155869 </i>
   </energy>
  </scstep>
  <scstep>
   <time name="diag">    1.28    1.28</time>
   <time name="diis">    1.52    1.52</time>
   <time name="orth">    0.34    0.35</time>
   <time name="total">    3.19    3.20</time>
   <dipole>
    <v name="dipole">      0.00000000       0.00000000       0.00094058 </v>
    <i name="Tr[quadrupol]"> -10281.90129416 </i>
    <i name="Echarged">      0.00000000 </i>
    <i name="Edipol_quadrupol">      0.00000000 </i>
    <i name="Eion">      0.00000000 </i>
   </dipole>
   <energy>
    <i name="alphaZ">    805.86936425 </i>
    <i name="ewald"> 200157.03521132 </i>
    <i name="hartreedc">-242348.94991996 </i>
    <i name="XCdc">   -343.40858564 </i>
    <i name="pawpsdc">  49350.18727240 </i>
    <i name="pawaedc"> -47428.14044405 </i>
    <i name="eentropy">     -0.25839282 </i>
    <i name="bandstr">  -2041.03113347 </i>
    <i name="atom">  41659.78587232 </i>
    <i name="e_fr_energy">   -188.91075564 </i>
    <i name="e_wo_entrp">   -188.65236283 </i>
    <i name="e_0_energy">   -188.78155924 </i>
   </energy>
  </scstep>
  <structure>
   <crystal>
    <varray name="basis" >
     <v>      11.00258152       0.00000000       0.00000000 </v>
     <v>       5.50129076       9.52851510       0.00000000 </v>
     <v>       0.00000000       0.00000000      24.49178509 </v>
    </varray>
    <i name="volume">   2567.67623402 </i>
    <varray name="rec_basis" >
     <v>       0.09088776      -0.05247407       0.00000000 </v>
     <v>       0.00000000       0.10494815       0.00000000 </v>
     <v>       0.00000000       0.00000000       0.04083002 </v>
    </varray>
   </crystal>
   <varray name="positions" >
    <v>       0.75000000       0.75000000       0.59169983 </v>
    <v>       0.50000000       0.50000000       0.59169983 </v>
    <v>       0.58333333       0.83333333       0.40830017 </v>
    <v>       0.41666667       0.16666667       0.50000000 </v>
    <v>       0.83333333       0.08333333       0.40830017 </v>
    <v>       0.66666667       0.16666667       0.50000000 </v>
    <v>       0.33333333       0.83333333       0.40830017 </v>
    <v>       0.25000000       0.50000000       0.59169983 </v>
    <v>       0.16666667       0.66666667       0.50000000 </v>
    <v>       0.33333333       0.58333333       0.40830017 </v>
    <v>       0.50000000       0.25000000       0.59169983 </v>
    <v>       0.16666667       0.16666667       0.50000000 </v>
    <v>       0.33333333       0.33333333       0.40830017 </v>
    <v>       0.00000000       0.75000000       0.59169983 </v>
    <v>       0.91666667       0.16666667       0.50000000 </v>
    <v>       0.00000000       0.00000000       0.59169983 </v>
    <v>       0.83333333       0.83333333       0.40830017 </v>
    <v>       0.91666667       0.41666667       0.50000000 </v>
    <v>       0.00000000       0.25000000       0.59169983 </v>
    <v>       0.66666667       0.66666667       0.50000000 </v>
    <v>       0.58333333       0.58333333       0.40830017 </v>
    <v>       0.83333333       0.58333333       0.40830017 </v>
    <v>       0.91666667       0.91666667       0.50000000 </v>
    <v>       0.00000000       0.50000000       0.59169983 </v>
    <v>       0.75000000       0.25000000       0.59169983 </v>
    <v>       0.75000000       0.00000000       0.59169983 </v>
    <v>       0.50000000       0.75000000       0.59169983 </v>
    <v>       0.83333333       0.33333333       0.40830017 </v>
    <v>       0.41666667       0.91666667       0.50000000 </v>
    <v>       0.66666667       0.41666667       0.50000000 </v>
    <v>       0.75000000       0.50000000       0.59169983 </v>
    <v>       0.08333333       0.08333333       0.40830017 </v>
    <v>       0.41666667       0.41666667       0.50000000 </v>
    <v>       0.58333333       0.33333333       0.40830017 </v>
    <v>       0.50000000       0.00000000       0.59169983 </v>
    <v>       0.58333333       0.08333333       0.40830017 </v>
    <v>       0.66666667       0.91666667       0.50000000 </v>
    <v>       0.16666667       0.91666667       0.50000000 </v>
    <v>       0.25000000       0.25000000       0.59169983 </v>
    <v>       0.16666667       0.41666667       0.50000000 </v>
    <v>       0.25000000       0.00000000       0.59169983 </v>
    <v>       0.33333333       0.08333333       0.40830017 </v>
    <v>       0.08333333       0.83333333       0.40830017 </v>
    <v>       0.91666667       0.66666667       0.50000000 </v>
    <v>       0.08333333       0.58333333       0.40830017 </v>
    <v>       0.08333333       0.33333333       0.40830017 </v>
    <v>       0.41666667       0.66666667       0.50000000 </v>
    <v>       0.25000000       0.75000000       0.59169983 </v>
   </varray>
  </structure>
  <varray name="forces" >
   <v>      -0.25593305       0.33508604       1.30916835 </v>
   <v>       0.35710024       0.19507197       1.09127492 </v>
   <v>      -0.00428388       0.57522732      -1.38865312 </v>
   <v>      -0.19732080      -0.31663434       0.00126940 </v>
   <v>       0.10737493       0.21480662      -1.78251238 </v>
   <v>      -0.15282079       0.24909782       0.00738193 </v>
   <v>      -0.24046163       0.40650745      -1.14827538 </v>
   <v>       0.01637120      -0.14850496       1.34456762 </v>
   <v>       0.12652553      -0.04208151      -0.28098441 </v>
   <v>      -0.10184825      -0.08851251      -1.29044637 </v>
   <v>      -0.00264941      -0.26456065       1.54451852 </v>
   <v>       0.33459143      -0.33809840      -0.27590547 </v>
   <v>      -0.12004557      -0.04486190      -1.32367485 </v>
   <v>      -0.02472267       0.14714632       1.61756200 </v>
   <v>       0.00315147       0.22053208      -0.28909533 </v>
   <v>       0.13994749      -0.08328827       1.61851972 </v>
   <v>       0.09264578      -0.07465839      -1.36596251 </v>
   <v>      -0.00395013       0.10615983      -0.30594484 </v>
   <v>       0.01722095      -0.00915215       1.82208974 </v>
   <v>      -0.32876289       0.14349067       0.58027987 </v>
   <v>      -0.17255347      -0.52973966      -1.38020885 </v>
   <v>       0.40737845      -0.35629788      -1.56840805 </v>
   <v>      -0.15339729      -0.24770089      -0.02123779 </v>
   <v>       0.00063029      -0.11778716       1.39090472 </v>
   <v>       0.00223496       0.07886768       0.91876627 </v>
   <v>      -0.14541693       0.08308073       0.92031395 </v>
   <v>      -0.14059617       0.22385333       0.57242119 </v>
   <v>      -0.00589443      -0.06683839      -0.87168061 </v>
   <v>      -0.11211262      -0.01568330       0.36639184 </v>
   <v>      -0.22691617       0.01183595       0.01272334 </v>
   <v>      -0.28354061      -0.03159069       0.87589041 </v>
   <v>       0.16559708       0.04161483      -0.83582763 </v>
   <v>       0.21221438       0.10218162      -0.16285178 </v>
   <v>       0.15179662      -0.01808142      -0.72372788 </v>
   <v>      -0.10620477      -0.09171597       0.68975606 </v>
   <v>      -0.12272680       0.06622752      -0.86418492 </v>
   <v>      -0.19110499       0.11313731       0.21756166 </v>
   <v>       0.40242398      -0.17427640      -0.03917241 </v>
   <v>      -0.00171335      -0.19736284       0.88042287 </v>
   <v>      -0.01661872       0.08810134      -0.24425459 </v>
   <v>       0.21164357      -0.30349678       0.67126975 </v>
   <v>      -0.10231431      -0.00216829      -0.77523263 </v>
   <v>       0.10078010       0.05502603      -0.86528087 </v>
   <v>       0.13165791      -0.08287163      -0.18649729 </v>
   <v>      -0.06765140      -0.09580261      -0.72022925 </v>
   <v>      -0.04480521      -0.09508789      -0.84063051 </v>
   <v>       0.00742379       0.13411770       0.40436956 </v>
   <v>       0.33765618       0.24568472       0.69345603 </v>
  </varray>
  <energy>
   <i name="e_fr_energy">   -188.91075564 </i>
   <i name="e_wo_entrp">   -188.78155924 </i>
   <i name="e_0_energy">     -0.25839282 </i>
  </energy>
  <time name="totalsc">  209.14  210.37</time>
 </calculation>
 <calculation>
  <scstep>
   <time name="dav">    7.24    7.26</time>
   <time name="total">    7.50    7.53</time>
   <dipole>
    <v name="dipole">      0.00000000       0.00000000       0.00093361 </v>
    <i name="Tr[quadrupol]"> -10282.40286355 </i>
    <i name="Echarged">      0.00000000 </i>
    <i name="Edipol_quadrupol">      0.00000000 </i>
    <i name="Eion">      0.00000000 </i>
   </dipole>
   <energy>
    <i name="alphaZ">    805.86936446 </i>
    <i name="ewald"> 197472.26580536 </i>
    <i name="hartreedc">-239679.95612267 </i>
    <i name="XCdc">   -345.59956451 </i>
    <i name="pawpsdc">  49350.18309527 </i>
    <i name="pawaedc"> -47428.13630970 </i>
    <i name="eentropy">     -0.25258989 </i>
    <i name="bandstr">  -2024.11818416 </i>
    <i name="atom">  41659.78587232 </i>
    <i name="e_fr_energy">   -189.95863352 </i>
    <i name="e_wo_entrp">   -189.70604363 </i>
    <i name="e_0_energy">   -189.83233857 </i>
   </energy>
  </scstep>
  <scstep>
   <time name="diag">    1.28    1.28</time>
   <time name="diis">    3.45    3.46</time>
   <time name="orth">    0.34    0.35</time>
   <time name="total">    5.34    5.35</time>
   <dipole>
    <v name="dipole">      0.00000000       0.00000000      -0.00486646 </v>
    <i name="Tr[quadrupol]"> -10282.15246002 </i>
    <i name="Echarged">      0.00000000 </i>
    <i name="Edipol_quadrupol">      0.00000000 </i>
    <i name="Eion">      0.00000000 </i>
   </dipole>
   <energy>
    <i name="e_fr_energy">   -190.32762443 </i>
    <i name="e_wo_entrp">   -190.07640748 </i>
    <i name="e_0_energy">   -190.20201595 </i>
   </energy>
  </scstep>
  <scstep>
   <time name="diag">    1.28    1.28</time>
   <time name="diis">    3.53    3.55</time>
   <time name="orth">    0.34    0.34</time>
   <time name="total">    5.42    5.44</time>
   <dipole>
    <v name="dipole">      0.00000000       0.00000000       0.04396681 </v>
    <i name="Tr[quadrupol]"> -10282.61357423 </i>
    <i name="Echarged">      0.00000000 </i>
    <i name="Edipol_quadrupol">      0.00000000 </i>
    <i name="Eion">      0.00000000 </i>
   </dipole>
   <energy>
    <i name="e_fr_energy">   -190.46517251 </i>
    <i name="e_wo_entrp">   -190.22346370 </i>
    <i name="e_0_energy">   -190.34431811 </i>
   </energy>
  </scstep>
  <scstep>
   <time name="diag">    1.27    1.28</time>
   <time name="diis">    3.36    3.40</time>
   <time name="orth">    0.34    0.35</time>
   <time name="total">    5.24    5.30</time>
   <dipole>
    <v name="dipole">      0.00000000       0.00000000      -0.03127053 </v>
    <i name="Tr[quadrupol]"> -10282.51753927 </i>
    <i name="Echarged">      0.00000000 </i>
    <i name="Edipol_quadrupol">      0.00000000 </i>
    <i name="Eion">      0.00000000 </i>
   </dipole>
   <energy>
    <i name="e_fr_energy">   -190.32093146 </i>
    <i name="e_wo_entrp">   -190.07134888 </i>
    <i name="e_0_energy">   -190.19614017 </i>
   </energy>
  </scstep>
  <scstep>
   <time name="diag">    1.28    1.28</time>
   <time name="diis">    3.39    3.40</time>
   <time name="orth">    0.34    0.35</time>
   <time name="total">    5.29    5.30</time>
   <dipole>
    <v name="dipole">      0.00000000       0.00000000       0.07209803 </v>
    <i name="Tr[quadrupol]"> -10282.47622736 </i>
    <i name="Echarged">      0.00000000 </i>
    <i name="Edipol_quadrupol">      0.00000000 </i>
    <i name="Eion">      0.00000000 </i>
   </dipole>
   <energy>
    <i name="e_fr_energy">   -190.39350658 </i>
    <i name="e_wo_entrp">   -190.14834626 </i>
    <i name="e_0_energy">   -190.27092642 </i>
   </energy>
  </scstep>
  <scstep>
   <time name="diag">    1.28    1.28</time>
   <time name="diis">    3.33    3.38</time>
   <time name="orth">    0.34    0.37</time>
   <time name="total">    5.22    5.31</time>
   <dipole>
    <v name="dipole">      0.00000000       0.00000000      -0.01462101 </v>
    <i name="Tr[quadrupol]"> -10282.48696871 </i>
    <i name="Echarged">      0.00000000 </i>
    <i name="Edipol_quadrupol">      0.00000000 </i>
    <i name="Eion">      0.00000000 </i>
   </dipole>
   <energy>
    <i name="e_fr_energy">   -190.30860333 </i>
    <i name="e_wo_entrp">   -190.05655984 </i>
    <i name="e_0_energy">   -190.18258159 </i>
   </energy>
  </scstep>
  <scstep>
   <time name="diag">    1.29    1.29</time>
   <time name="diis">    3.45    3.46</time>
   <time name="orth">    0.34    0.35</time>
   <time name="total">    5.35    5.36</time>
   <dipole>
    <v name="dipole">      0.00000000       0.00000000       0.00531898 </v>
    <i name="Tr[quadrupol]"> -10282.46762956 </i>
    <i name="Echarged">      0.00000000 </i>
    <i name="Edipol_quadrupol">      0.00000000 </i>
    <i name="Eion">      0.00000000 </i>
   </dipole>
   <energy>
    <i name="e_fr_energy">   -190.29780458 </i>
    <i name="e_wo_entrp">   -190.04169309 </i>
    <i name="e_0_energy">   -190.16974884 </i>
   </energy>
  </scstep>
  <scstep>
   <time name="diag">    1.28    1.28</time>
   <time name="diis">    3.42    3.43</time>
   <time name="orth">    0.34    0.34</time>
   <time name="total">    5.30    5.33</time>
   <dipole>
    <v name="dipole">      0.00000000       0.00000000       0.00012303 </v>
    <i name="Tr[quadrupol]"> -10282.44136131 </i>
    <i name="Echarged">      0.00000000 </i>
    <i name="Edipol_quadrupol">      0.00000000 </i>
    <i name="Eion">      0.00000000 </i>
   </dipole>
   <energy>
    <i name="e_fr_energy">   -190.29653638 </i>
    <i name="e_wo_entrp">   -190.04239340 </i>
    <i name="e_0_energy">   -190.16946489 </i>
   </energy>
  </scstep>
  <scstep>
   <time name="diag">    1.27    1.27</time>
   <time name="diis">    3.38    3.39</time>
   <time name="orth">    0.34    0.35</time>
   <time name="total">    5.26    5.27</time>
   <dipole>
    <v name="dipole">      0.00000000       0.00000000       0.00090025 </v>
    <i name="Tr[quadrupol]"> -10282.43092534 </i>
    <i name="Echarged">      0.00000000 </i>
    <i name="Edipol_quadrupol">      0.00000000 </i>
    <i name="Eion">      0.00000000 </i>
   </dipole>
   <energy>
    <i name="e_fr_energy">   -190.29571707 </i>
    <i name="e_wo_entrp">   -190.04034695 </i>
    <i name="e_0_energy">   -190.16803201 </i>
   </energy>
  </scstep>
  <scstep>
   <time name="diag">    1.28    1.28</time>
   <time name="diis">    3.48    3.49</time>
   <time name="orth">    0.34    0.34</time>
   <time name="total">    5.37    5.39</time>
   <dipole>
    <v name="dipole">      0.00000000       0.00000000       0.00101393 </v>
    <i name="Tr[quadrupol]"> -10282.42816497 </i>
    <i name="Echarged">      0.00000000 </i>
    <i name="Edipol_quadrupol">      0.00000000 </i>
    <i name="Eion">      0.00000000 </i>
   </dipole>
   <energy>
    <i name="e_fr_energy">   -190.29556844 </i>
    <i name="e_wo_entrp">   -190.04057914 </i>
    <i name="e_0_energy">   -190.16807379 </i>
   </energy>
  </scstep>
  <scstep>
   <time name="diag">    1.27    1.27</time>
   <time name="diis">    3.47    3.48</time>
   <time name="orth">    0.34    0.34</time>
   <time name="total">    5.36    5.37</time>
   <dipole>
    <v name="dipole">      0.00000000       0.00000000       0.00104037 </v>
    <i name="Tr[quadrupol]"> -10282.42861643 </i>
    <i name="Echarged">      0.00000000 </i>
    <i name="Edipol_quadrupol">      0.00000000 </i>
    <i name="Eion">      0.00000000 </i>
   </dipole>
   <energy>
    <i name="e_fr_energy">   -190.29552301 </i>
    <i name="e_wo_entrp">   -190.04045584 </i>
    <i name="e_0_energy">   -190.16798942 </i>
   </energy>
  </scstep>
  <scstep>
   <time name="diag">    1.27    1.28</time>
   <time name="diis">    3.42    3.43</time>
   <time name="orth">    0.34    0.35</time>
   <time name="total">    5.30    5.32</time>
   <dipole>
    <v name="dipole">      0.00000000       0.00000000       0.00093715 </v>
    <i name="Tr[quadrupol]"> -10282.43231821 </i>
    <i name="Echarged">      0.00000000 </i>
    <i name="Edipol_quadrupol">      0.00000000 </i>
    <i name="Eion">      0.00000000 </i>
   </dipole>
   <energy>
    <i name="e_fr_energy">   -190.29551322 </i>
    <i name="e_wo_entrp">   -190.04044934 </i>
    <i name="e_0_energy">   -190.16798128 </i>
   </energy>
  </scstep>
  <scstep>
   <time name="diag">    1.26    1.27</time>
   <time name="diis">    3.47    3.48</time>
   <time name="orth">    0.34    0.34</time>
   <time name="total">    5.35    5.37</time>
   <dipole>
    <v name="dipole">      0.00000000       0.00000000       0.00107423 </v>
    <i name="Tr[quadrupol]"> -10282.43578582 </i>
    <i name="Echarged">      0.00000000 </i>
    <i name="Edipol_quadrupol">      0.00000000 </i>
    <i name="Eion">      0.00000000 </i>
   </dipole>
   <energy>
    <i name="e_fr_energy">   -190.29550368 </i>
    <i name="e_wo_entrp">   -190.04043858 </i>
    <i name="e_0_energy">   -190.16797113 </i>
   </energy>
  </scstep>
  <scstep>
   <time name="diag">    1.27    1.28</time>
   <time name="diis">    3.18    3.27</time>
   <time name="orth">    0.34    0.35</time>
   <time name="total">    5.06    5.17</time>
   <dipole>
    <v name="dipole">      0.00000000       0.00000000       0.00104779 </v>
    <i name="Tr[quadrupol]"> -10282.43940873 </i>
    <i name="Echarged">      0.00000000 </i>
    <i name="Edipol_quadrupol">      0.00000000 </i>
    <i name="Eion">      0.00000000 </i>
   </dipole>
   <energy>
    <i name="e_fr_energy">   -190.29550171 </i>
    <i name="e_wo_entrp">   -190.04047755 </i>
    <i name="e_0_energy">   -190.16798963 </i>
   </energy>
  </scstep>
  <scstep>
   <time name="diag">    1.27    1.27</time>
   <time name="diis">    2.58    2.59</time>
   <time name="orth">    0.34    0.35</time>
   <time name="total">    4.47    4.49</time>
   <dipole>
    <v name="dipole">      0.00000000       0.00000000       0.00111197 </v>
    <i name="Tr[quadrupol]"> -10282.44150836 </i>
    <i name="Echarged">      0.00000000 </i>
    <i name="Edipol_quadrupol">      0.00000000 </i>
    <i name="Eion">      0.00000000 </i>
   </dipole>
   <energy>
    <i name="e_fr_energy">   -190.29550045 </i>
    <i name="e_wo_entrp">   -190.04045823 </i>
    <i name="e_0_energy">   -190.16797934 </i>
   </energy>
  </scstep>
  <scstep>
   <time name="diag">    1.26    1.28</time>
   <time name="diis">    2.02    2.03</time>
   <time name="orth">    0.34    0.34</time>
   <time name="total">    3.67    3.71</time>
   <dipole>
    <v name="dipole">      0.00000000       0.00000000       0.00114988 </v>
    <i name="Tr[quadrupol]"> -10282.44347694 </i>
    <i name="Echarged">      0.00000000 </i>
    <i name="Edipol_quadrupol">      0.00000000 </i>
    <i name="Eion">      0.00000000 </i>
   </dipole>
   <energy>
    <i name="alphaZ">    805.86936450 </i>
    <i name="ewald"> 197472.26580536 </i>
    <i name="hartreedc">-239682.08615840 </i>
    <i name="XCdc">   -345.54000154 </i>
    <i name="pawpsdc">  48911.29722292 </i>
    <i name="pawaedc"> -46986.07400485 </i>
    <i name="eentropy">     -0.25504898 </i>
    <i name="bandstr">  -2025.55855256 </i>
    <i name="atom">  41659.78587232 </i>
    <i name="e_fr_energy">   -190.29550124 </i>
    <i name="e_wo_entrp">   -190.04045226 </i>
    <i name="e_0_energy">   -190.16797675 </i>
   </energy>
  </scstep>
  <structure>
   <crystal>
    <varray name="basis" >
     <v>      11.00258152       0.00000000       0.00000000 </v>
     <v>       5.50129076       9.52851510       0.00000000 </v>
     <v>       0.00000000       0.00000000      24.49178509 </v>
    </varray>
    <i name="volume">   2567.67623402 </i>
    <varray name="rec_basis" >
     <v>       0.09088776      -0.05247407       0.00000000 </v>
     <v>       0.00000000       0.10494815       0.00000000 </v>
     <v>       0.00000000       0.00000000       0.04083002 </v>
    </varray>
   </crystal>
   <varray name="positions" >
    <v>       0.74862069       0.75118757       0.59350494 </v>
    <v>       0.50075036       0.50069135       0.59320451 </v>
    <v>       0.58230086       0.83537199       0.40638546 </v>
    <v>       0.41662213       0.16554449       0.50000175 </v>
    <v>       0.83328225       0.08409463       0.40584240 </v>
    <v>       0.66575621       0.16754949       0.50001018 </v>
    <v>       0.33187494       0.83477403       0.40671690 </v>
    <v>       0.25031340       0.49947369       0.59355375 </v>
    <v>       0.16712958       0.66651753       0.49961257 </v>
    <v>       0.33317758       0.58301964       0.40652087 </v>
    <v>       0.50046068       0.24906237       0.59382945 </v>
    <v>       0.16829274       0.16546842       0.49961957 </v>
    <v>       0.33304438       0.33317434       0.40647505 </v>
    <v>      -0.00033663       0.75052150       0.59393016 </v>
    <v>       0.91628555       0.16744825       0.49960139 </v>
    <v>       0.00057713      -0.00029518       0.59393148 </v>
    <v>       0.83374999       0.83306874       0.40641675 </v>
    <v>       0.91646642       0.41704291       0.49957816 </v>
    <v>       0.00006907       0.24996756       0.59421217 </v>
    <v>       0.66540333       0.66717521       0.50080010 </v>
    <v>       0.58374244       0.58145589       0.40639710 </v>
    <v>       0.83521506       0.58207058       0.40613761 </v>
    <v>       0.91663479       0.91578879       0.49997072 </v>
    <v>       0.00021066       0.49958255       0.59361764 </v>
    <v>       0.74986710       0.25027951       0.59296665 </v>
    <v>       0.74940645       0.00029445       0.59296878 </v>
    <v>       0.49917180       0.75079336       0.59248910 </v>
    <v>       0.83343368       0.33309645       0.40709828 </v>
    <v>       0.41635035       0.91661108       0.50050519 </v>
    <v>       0.66594923       0.41670861       0.50001754 </v>
    <v>       0.74918572       0.49988804       0.59290753 </v>
    <v>       0.08376785       0.08348082       0.40714771 </v>
    <v>       0.41713694       0.41702881       0.49977546 </v>
    <v>       0.58383128       0.33326925       0.40730228 </v>
    <v>       0.49983655      -0.00032505       0.59265088 </v>
    <v>       0.58283929       0.08356805       0.40710861 </v>
    <v>       0.66587963       0.91706763       0.50029998 </v>
    <v>       0.16821064       0.91604902       0.49994599 </v>
    <v>       0.25034448       0.24930053       0.59291378 </v>
    <v>       0.16645954       0.41697891       0.49966322 </v>
    <v>       0.25118740      -0.00107562       0.59262539 </v>
    <v>       0.33302315       0.08332565       0.40723126 </v>
    <v>       0.08354515       0.83352835       0.40710710 </v>
    <v>       0.91721761       0.66637296       0.49974285 </v>
    <v>       0.08329546       0.58299380       0.40730710 </v>
    <v>       0.08336431       0.33299633       0.40714109 </v>
    <v>       0.41645179       0.66714199       0.50055755 </v>
    <v>       0.25060099       0.75087073       0.59265598 </v>
   </varray>
  </structure>
  <varray name="forces" >
   <v>      -0.11870038       0.15913532       0.99896186 </v>
   <v>       0.14790477       0.08274305       0.85127313 </v>
   <v>      -0.03188914       0.18756683      -0.94142891 </v>
   <v>      -0.03295808      -0.05509453       0.01339495 </v>
   <v>       0.04984131       0.09842518      -1.28340029 </v>
   <v>      -0.07349593       0.09014735      -0.00805268 </v>
   <v>      -0.07536615       0.14184206      -0.84697964 </v>
   <v>       0.06068628      -0.06785447       0.93179235 </v>
   <v>       0.07774276      -0.05583704      -0.04791596 </v>
   <v>      -0.03987875      -0.02826207      -0.97886856 </v>
   <v>      -0.00927019      -0.13938033       1.12224292 </v>
   <v>       0.04887740      -0.09861500      -0.03177674 </v>
   <v>      -0.06074233      -0.06824153      -0.97101809 </v>
   <v>       0.00674118       0.06154909       1.15686017 </v>
   <v>       0.02556236       0.00506394      -0.05526239 </v>
   <v>       0.08514651      -0.00140335       1.08147545 </v>
   <v>       0.04246608      -0.00533983      -0.99505582 </v>
   <v>       0.01697154       0.06009413      -0.06207512 </v>
   <v>       0.02739728      -0.04059905       1.22728374 </v>
   <v>      -0.11347657       0.08150216       0.07705186 </v>
   <v>      -0.01342847      -0.17415010      -0.95077010 </v>
   <v>       0.11060782      -0.11749726      -1.11837085 </v>
   <v>      -0.05522010      -0.03778607       0.00259009 </v>
   <v>      -0.05224109      -0.04266811       0.96598524 </v>
   <v>       0.02478311      -0.00083198       0.67517069 </v>
   <v>      -0.04440772       0.07908789       0.68504926 </v>
   <v>      -0.08650518       0.16296133       0.57953604 </v>
   <v>       0.02095563      -0.04499360      -0.71143969 </v>
   <v>      -0.04642057      -0.10890491       0.10323509 </v>
   <v>      -0.13840439       0.07798009       0.00889173 </v>
   <v>      -0.10119983      -0.03240914       0.67275809 </v>
   <v>       0.07449859       0.06402199      -0.66809455 </v>
   <v>       0.05515359       0.05500488      -0.02393220 </v>
   <v>       0.05663179      -0.06601793      -0.60179522 </v>
   <v>      -0.07981961      -0.02437330       0.60217251 </v>
   <v>      -0.02832907       0.08651474      -0.65291514 </v>
   <v>      -0.08867330      -0.02089157       0.06121966 </v>
   <v>       0.14201311      -0.06445062       0.00692356 </v>
   <v>      -0.02196004      -0.15180630       0.64790756 </v>
   <v>       0.04126336       0.03455718      -0.08530802 </v>
   <v>       0.12294037      -0.13743855       0.57009307 </v>
   <v>      -0.05793311       0.03120416      -0.65852699 </v>
   <v>       0.03191868       0.06687301      -0.66779358 </v>
   <v>      -0.01012761      -0.03446632      -0.02154617 </v>
   <v>      -0.00574612      -0.05932817      -0.60667313 </v>
   <v>      -0.02903099      -0.11918748      -0.68358280 </v>
   <v>      -0.00656557       0.04468203       0.07806987 </v>
   <v>       0.15168679       0.12687224       0.55264375 </v>
  </varray>
  <energy>
   <i name="e_fr_energy">   -190.29550124 </i>
   <i name="e_wo_entrp">   -190.16797675 </i>
   <i name="e_0_energy">     -0.25504898 </i>
  </energy>
  <time name="totalsc">   86.97   87.49</time>
 </calculation>
 <calculation>
  <scstep>
   <time name="dav">    7.17    7.19</time>
   <time name="total">    7.43    7.46</time>
   <dipole>
    <v name="dipole">      0.00000000       0.00000000       0.00119097 </v>
    <i name="Tr[quadrupol]"> -10284.73104354 </i>
    <i name="Echarged">      0.00000000 </i>
    <i name="Edipol_quadrupol">      0.00000000 </i>
    <i name="Eion">      0.00000000 </i>
   </dipole>
   <energy>
    <i name="alphaZ">    805.86936530 </i>
    <i name="ewald"> 189528.46405859 </i>
    <i name="hartreedc">-231779.82319342 </i>
    <i name="XCdc">   -351.09609647 </i>
    <i name="pawpsdc">  48911.20856745 </i>
    <i name="pawaedc"> -46985.98523938 </i>
    <i name="eentropy">     -0.23111184 </i>
    <i name="bandstr">  -1977.25213894 </i>
    <i name="atom">  41659.78587232 </i>
    <i name="e_fr_energy">   -189.05991639 </i>
    <i name="e_wo_entrp">   -188.82880456 </i>
    <i name="e_0_energy">   -188.94436048 </i>
   </energy>
  </scstep>
  <scstep>
   <time name="diag">    1.26    1.27</time>
   <time name="diis">    3.40    3.41</time>
   <time name="orth">    0.34    0.34</time>
   <time name="total">    5.28    5.30</time>
   <dipole>
    <v name="dipole">      0.00000000       0.00000000      -0.01430796 </v>
    <i name="Tr[quadrupol]"> -10283.96247910 </i>
    <i name="Echarged">      0.00000000 </i>
    <i name="Edipol_quadrupol">      0.00000000 </i>
    <i name="Eion">      0.00000000 </i>
   </dipole>
   <energy>
    <i name="e_fr_energy">   -192.26674688 </i>
    <i name="e_wo_entrp">   -192.03818053 </i>
    <i name="e_0_energy">   -192.15246371 </i>
   </energy>
  </scstep>
  <scstep>
   <time name="diag">    1.27    1.28</time>
   <time name="diis">    3.49    3.50</time>
   <time name="orth">    0.34    0.34</time>
   <time name="total">    5.37    5.39</time>
   <dipole>
    <v name="dipole">      0.00000000       0.00000000       0.12256042 </v>
    <i name="Tr[quadrupol]"> -10285.09633896 </i>
    <i name="Echarged">      0.00000000 </i>
    <i name="Edipol_quadrupol">      0.00000000 </i>
    <i name="Eion">      0.00000000 </i>
   </dipole>
   <energy>
    <i name="e_fr_energy">   -192.85984998 </i>
    <i name="e_wo_entrp">   -192.64962237 </i>
    <i name="e_0_energy">   -192.75473617 </i>
   </energy>
  </scstep>
  <scstep>
   <time name="diag">    1.27    1.27</time>
   <time name="diis">    3.42    3.43</time>
   <time name="orth">    0.35    0.35</time>
   <time name="total">    5.30    5.33</time>
   <dipole>
    <v name="dipole">      0.00000000       0.00000000      -0.04770371 </v>
    <i name="Tr[quadrupol]"> -10284.85794377 </i>
    <i name="Echarged">      0.00000000 </i>
    <i name="Edipol_quadrupol">      0.00000000 </i>
    <i name="Eion">      0.00000000 </i>
   </dipole>
   <energy>
    <i name="e_fr_energy">   -192.10172206 </i>
    <i name="e_wo_entrp">   -191.87016018 </i>
    <i name="e_0_energy">   -191.98594112 </i>
   </energy>
  </scstep>
  <scstep>
   <time name="diag">    1.27    1.27</time>
   <time name="diis">    3.31    3.41</time>
   <time name="orth">    0.35    0.35</time>
   <time name="total">    5.20    5.30</time>
   <dipole>
    <v name="dipole">      0.00000000       0.00000000       0.19394178 </v>
    <i name="Tr[quadrupol]"> -10284.84420237 </i>
    <i name="Echarged">      0.00000000 </i>
    <i name="Edipol_quadrupol">      0.00000000 </i>
    <i name="Eion">      0.00000000 </i>
   </dipole>
   <energy>
    <i name="e_fr_energy">   -192.72898042 </i>
    <i name="e_wo_entrp">   -192.52267842 </i>
    <i name="e_0_energy">   -192.62582942 </i>
   </energy>
  </scstep>
  <scstep>
   <time name="diag">    1.26    1.27</time>
   <time name="diis">    3.45    3.46</time>
   <time name="orth">    0.34    0.34</time>
   <time name="total">    5.32    5.34</time>
   <dipole>
    <v name="dipole">      0.00000000       0.00000000      -0.04947079 </v>
    <i name="Tr[quadrupol]"> -10284.98744627 </i>
    <i name="Echarged">      0.00000000 </i>
    <i name="Edipol_quadrupol">      0.00000000 </i>
    <i name="Eion">      0.00000000 </i>
   </dipole>
   <energy>
    <i name="e_fr_energy">   -192.11699512 </i>
    <i name="e_wo_entrp">   -191.88689068 </i>
    <i name="e_0_energy">   -192.00194290 </i>
   </energy>
  </scstep>
  <scstep>
   <time name="diag">    1.28    1.28</time>
   <time name="diis">    3.44    3.45</time>
   <time name="orth">    0.34    0.34</time>
   <time name="total">    5.32    5.34</time>
   <dipole>
    <v name="dipole">      0.00000000       0.00000000       0.01638454 </v>
    <i name="Tr[quadrupol]"> -10284.87046070 </i>
    <i name="Echarged">      0.00000000 </i>
    <i name="Edipol_quadrupol">      0.00000000 </i>
    <i name="Eion">      0.00000000 </i>
   </dipole>
   <energy>
    <i name="e_fr_energy">   -192.03897920 </i>
    <i name="e_wo_entrp">   -191.79979039 </i>
    <i name="e_0_energy">   -191.91938479 </i>
   </energy>
  </scstep>
  <scstep>
   <time name="diag">    1.27    1.28</time>
   <time name="diis">    3.48    3.49</time>
   <time name="orth">    0.34    0.34</time>
   <time name="total">    5.37    5.38</time>
   <dipole>
    <v name="dipole">      0.00000000       0.00000000      -0.00696944 </v>
    <i name="Tr[quadrupol]"> -10284.77590968 </i>
    <i name="Echarged">      0.00000000 </i>
    <i name="Edipol_quadrupol">      0.00000000 </i>
    <i name="Eion">      0.00000000 </i>
   </dipole>
   <energy>
    <i name="e_fr_energy">   -192.01500343 </i>
    <i name="e_wo_entrp">   -191.77466903 </i>
    <i name="e_0_energy">   -191.89483623 </i>
   </energy>
  </scstep>
  <scstep>
   <time name="diag">    1.27    1.27</time>
   <time name="diis">    3.39    3.41</time>
   <time name="orth">    0.34    0.35</time>
   <time name="total">    5.27    5.30</time>
   <dipole>
    <v name="dipole">      0.00000000       0.00000000       0.00287108 </v>
    <i name="Tr[quadrupol]"> -10284.74049813 </i>
    <i name="Echarged">      0.00000000 </i>
    <i name="Edipol_quadrupol">      0.00000000 </i>
    <i name="Eion">      0.00000000 </i>
   </dipole>
   <energy>
    <i name="e_fr_energy">   -192.00643720 </i>
    <i name="e_wo_entrp">   -191.76570009 </i>
    <i name="e_0_energy">   -191.88606864 </i>
   </energy>
  </scstep>
  <scstep>
   <time name="diag">    1.26    1.27</time>
   <time name="diis">    3.37    3.39</time>
   <time name="orth">    0.34    0.35</time>
   <time name="total">    5.24    5.28</time>
   <dipole>
    <v name="dipole">      0.00000000       0.00000000       0.00202565 </v>
    <i name="Tr[quadrupol]"> -10284.74343884 </i>
    <i name="Echarged">      0.00000000 </i>
    <i name="Edipol_quadrupol">      0.00000000 </i>
    <i name="Eion">      0.00000000 </i>
[...]
       <r>    2.3313    0.0000 </r>
       <r>    2.3675    0.0000 </r>
       <r>    2.4673    0.0000 </r>
       <r>    2.5240    0.0000 </r>
       <r>    2.7105    0.0000 </r>
       <r>    2.9377    0.0000 </r>
       <r>    3.1720    0.0000 </r>
       <r>    3.2735    0.0000 </r>
       <r>    3.4900    0.0000 </r>
       <r>    3.6372    0.0000 </r>
       <r>    3.8084    0.0000 </r>
       <r>    3.9713    0.0000 </r>
       <r>    4.0851    0.0000 </r>
       <r>    4.1965    0.0000 </r>
       <r>    4.4959    0.0000 </r>
       <r>    4.5339    0.0000 </r>
       <r>    4.6134    0.0000 </r>
       <r>    4.6263    0.0000 </r>
       <r>    4.7693    0.0000 </r>
       <r>    4.8040    0.0000 </r>
       <r>    4.8450    0.0000 </r>
       <r>    4.9291    0.0000 </r>
       <r>    4.9745    0.0000 </r>
       <r>    5.0376    0.0000 </r>
       <r>    5.0735    0.0000 </r>
       <r>    5.0849    0.0000 </r>
       <r>    5.2027    0.0000 </r>
       <r>    5.2554    0.0000 </r>
      </set>
     </set>
    </set>
   </array>
  </eigenvalues>
  <separator name="orbital magnetization" >
   <v name="MAGDIPOLOUT">      0.00000000      0.00000000      0.00000000</v>
  </separator>
  <dos>
   <i name="efermi">     -1.10728038 </i>
   <total>
    <array>
     <dimension dim="1">gridpoints</dimension>
     <dimension dim="2">spin</dimension>
     <field>energy</field>
     <field>total</field>
     <field>integrated</field>
     <set>
      <set comment="spin 1">
       <r>    -9.7123     0.0000     0.0000 </r>
       <r>    -9.6587     0.0000     0.0000 </r>
       <r>    -9.6051     0.0000     0.0000 </r>
       <r>    -9.5516     0.0000     0.0000 </r>
       <r>    -9.4980     0.0000     0.0000 </r>
       <r>    -9.4444     0.0000     0.0000 </r>
       <r>    -9.3908     0.0000     0.0000 </r>
       <r>    -9.3372     0.0000     0.0000 </r>
       <r>    -9.2837     0.0000     0.0000 </r>
       <r>    -9.2301     0.0000     0.0000 </r>
       <r>    -9.1765     0.0000     0.0000 </r>
       <r>    -9.1229     0.0000     0.0000 </r>
       <r>    -9.0694     0.0000     0.0000 </r>
       <r>    -9.0158     0.0001     0.0000 </r>
       <r>    -8.9622     0.0031     0.0002 </r>
       <r>    -8.9086     0.0415     0.0024 </r>
       <r>    -8.8550     0.3194     0.0195 </r>
       <r>    -8.8015     1.4195     0.0956 </r>
       <r>    -8.7479     3.6499     0.2911 </r>
       <r>    -8.6943     5.4604     0.5837 </r>
       <r>    -8.6407     4.9468     0.8487 </r>
       <r>    -8.5871     3.5733     1.0402 </r>
       <r>    -8.5336     3.9997     1.2545 </r>
       <r>    -8.4800     5.3568     1.5415 </r>
       <r>    -8.4264     4.8756     1.8027 </r>
       <r>    -8.3728     2.6587     1.9452 </r>
       <r>    -8.3193     0.8956     1.9931 </r>
       <r>    -8.2657     0.4263     2.0160 </r>
       <r>    -8.2121     0.9620     2.0675 </r>
       <r>    -8.1585     2.1706     2.1838 </r>
       <r>    -8.1049     3.6657     2.3802 </r>
       <r>    -8.0514     5.2203     2.6599 </r>
       <r>    -7.9978     6.8927     3.0292 </r>
       <r>    -7.9442     8.8516     3.5035 </r>
       <r>    -7.8906    10.2290     4.0515 </r>
       <r>    -7.8370     9.5007     4.5606 </r>
       <r>    -7.7835     7.5009     4.9624 </r>
       <r>    -7.7299     6.6406     5.3182 </r>
       <r>    -7.6763     6.9451     5.6903 </r>
       <r>    -7.6227     6.9070     6.0604 </r>
       <r>    -7.5692     6.7485     6.4220 </r>
       <r>    -7.5156     7.6465     6.8317 </r>
       <r>    -7.4620     9.9049     7.3624 </r>
       <r>    -7.4084    11.9375     8.0020 </r>
       <r>    -7.3548    11.5829     8.6226 </r>
       <r>    -7.3013     9.0344     9.1066 </r>
       <r>    -7.2477     7.2824     9.4968 </r>
       <r>    -7.1941     8.6526     9.9604 </r>
       <r>    -7.1405    11.6030    10.5821 </r>
       <r>    -7.0869    14.0046    11.3324 </r>
       <r>    -7.0334    17.0586    12.2464 </r>
       <r>    -6.9798    22.2330    13.4376 </r>
       <r>    -6.9262    27.9661    14.9360 </r>
       <r>    -6.8726    31.8699    16.6435 </r>
       <r>    -6.8191    34.6107    18.4979 </r>
       <r>    -6.7655    38.5387    20.5627 </r>
       <r>    -6.7119    42.9846    22.8658 </r>
       <r>    -6.6583    46.3619    25.3498 </r>
       <r>    -6.6047    49.3310    27.9929 </r>
       <r>    -6.5512    52.4006    30.8004 </r>
       <r>    -6.4976    54.9182    33.7429 </r>
       <r>    -6.4440    56.2120    36.7546 </r>
       <r>    -6.3904    56.1804    39.7647 </r>
       <r>    -6.3368    56.5788    42.7961 </r>
       <r>    -6.2833    60.7424    46.0506 </r>
       <r>    -6.2297    69.4035    49.7691 </r>
       <r>    -6.1761    78.0819    53.9526 </r>
       <r>    -6.1225    82.0447    58.3484 </r>
       <r>    -6.0690    82.3408    62.7601 </r>
       <r>    -6.0154    82.8240    67.1977 </r>
       <r>    -5.9618    84.7349    71.7377 </r>
       <r>    -5.9082    86.5268    76.3737 </r>
       <r>    -5.8546    85.4367    80.9512 </r>
       <r>    -5.8011    80.8898    85.2852 </r>
       <r>    -5.7475    75.6685    89.3394 </r>
       <r>    -5.6939    72.4101    93.2190 </r>
       <r>    -5.6403    71.0170    97.0240 </r>
       <r>    -5.5868    69.3289   100.7385 </r>
       <r>    -5.5332    66.0947   104.2798 </r>
       <r>    -5.4796    63.6853   107.6920 </r>
       <r>    -5.4260    65.5825   111.2058 </r>
       <r>    -5.3724    70.4076   114.9781 </r>
       <r>    -5.3189    74.2002   118.9536 </r>
       <r>    -5.2653    76.8924   123.0734 </r>
       <r>    -5.2117    80.1824   127.3695 </r>
       <r>    -5.1581    83.5185   131.8443 </r>
       <r>    -5.1045    85.7977   136.4412 </r>
       <r>    -5.0510    86.8204   141.0929 </r>
       <r>    -4.9974    87.5510   145.7837 </r>
       <r>    -4.9438    88.5181   150.5264 </r>
       <r>    -4.8902    88.7462   155.2813 </r>
       <r>    -4.8367    88.0890   160.0010 </r>
       <r>    -4.7831    87.6612   164.6977 </r>
       <r>    -4.7295    88.4139   169.4348 </r>
       <r>    -4.6759    89.9110   174.2521 </r>
       <r>    -4.6223    90.2839   179.0894 </r>
       <r>    -4.5688    88.8820   183.8515 </r>
       <r>    -4.5152    87.7994   188.5557 </r>
       <r>    -4.4616    87.7592   193.2577 </r>
       <r>    -4.4080    87.4317   197.9422 </r>
       <r>    -4.3544    86.3574   202.5691 </r>
       <r>    -4.3009    84.5478   207.0990 </r>
       <r>    -4.2473    83.0781   211.5502 </r>
       <r>    -4.1937    83.8597   216.0433 </r>
       <r>    -4.1401    86.8545   220.6968 </r>
       <r>    -4.0866    90.3140   225.5357 </r>
       <r>    -4.0330    92.7588   230.5056 </r>
       <r>    -3.9794    93.0950   235.4935 </r>
       <r>    -3.9258    91.9513   240.4201 </r>
       <r>    -3.8722    91.3158   245.3127 </r>
       <r>    -3.8187    91.5878   250.2198 </r>
       <r>    -3.7651    91.8156   255.1391 </r>
       <r>    -3.7115    91.5938   260.0466 </r>
       <r>    -3.6579    92.5616   265.0059 </r>
       <r>    -3.6043    95.7295   270.1349 </r>
       <r>    -3.5508    99.0892   275.4440 </r>
       <r>    -3.4972   100.8680   280.8483 </r>
       <r>    -3.4436   100.5794   286.2372 </r>
       <r>    -3.3900    97.8154   291.4780 </r>
       <r>    -3.3365    93.9892   296.5138 </r>
       <r>    -3.2829    91.4117   301.4116 </r>
       <r>    -3.2293    90.3661   306.2532 </r>
       <r>    -3.1757    90.1014   311.0807 </r>
       <r>    -3.1221    89.9040   315.8977 </r>
       <r>    -3.0686    89.8924   320.7139 </r>
       <r>    -3.0150    91.0501   325.5923 </r>
       <r>    -2.9614    92.3171   330.5385 </r>
       <r>    -2.9078    91.9094   335.4629 </r>
       <r>    -2.8542    91.5606   340.3685 </r>
       <r>    -2.8007    92.8829   345.3451 </r>
       <r>    -2.7471    94.5007   350.4083 </r>
       <r>    -2.6935    96.2653   355.5660 </r>
       <r>    -2.6399    98.1246   360.8234 </r>
       <r>    -2.5864    98.5418   366.1031 </r>
       <r>    -2.5328    98.6015   371.3860 </r>
       <r>    -2.4792   100.2799   376.7589 </r>
       <r>    -2.4256   101.5165   382.1980 </r>
       <r>    -2.3720    99.6938   387.5394 </r>
       <r>    -2.3185    96.4298   392.7060 </r>
       <r>    -2.2649    94.0936   397.7474 </r>
       <r>    -2.2113    91.6982   402.6604 </r>
       <r>    -2.1577    89.3474   407.4475 </r>
       <r>    -2.1041    90.0865   412.2742 </r>
       <r>    -2.0506    93.7414   417.2967 </r>
       <r>    -1.9970    96.8712   422.4870 </r>
       <r>    -1.9434    97.8164   427.7278 </r>
       <r>    -1.8898    97.0784   432.9291 </r>
       <r>    -1.8363    96.2588   438.0865 </r>
       <r>    -1.7827    97.0770   443.2878 </r>
       <r>    -1.7291    99.3729   448.6120 </r>
       <r>    -1.6755   101.8684   454.0700 </r>
       <r>    -1.6219   104.0685   459.6458 </r>
       <r>    -1.5684   105.4441   465.2953 </r>
       <r>    -1.5148   104.2689   470.8819 </r>
       <r>    -1.4612   100.1594   476.2483 </r>
       <r>    -1.4076    95.6837   481.3749 </r>
       <r>    -1.3540    92.3208   486.3213 </r>
       <r>    -1.3005    88.0838   491.0407 </r>
       <r>    -1.2469    80.8454   495.3723 </r>
       <r>    -1.1933    70.7582   499.1634 </r>
       <r>    -1.1397    59.5318   502.3530 </r>
       <r>    -1.0862    48.5856   504.9562 </r>
       <r>    -1.0326    36.9771   506.9373 </r>
       <r>    -0.9790    24.8482   508.2687 </r>
       <r>    -0.9254    16.2201   509.1377 </r>
       <r>    -0.8718    12.6877   509.8175 </r>
       <r>    -0.8183    11.0670   510.4105 </r>
       <r>    -0.7647     9.3057   510.9090 </r>
       <r>    -0.7111     8.3205   511.3548 </r>
       <r>    -0.6575     8.3505   511.8022 </r>
       <r>    -0.6040     8.9619   512.2824 </r>
       <r>    -0.5504    11.7032   512.9095 </r>
       <r>    -0.4968    17.5667   513.8506 </r>
       <r>    -0.4432    23.5012   515.1098 </r>
       <r>    -0.3896    25.2417   516.4622 </r>
       <r>    -0.3361    23.1548   517.7028 </r>
       <r>    -0.2825    21.8062   518.8712 </r>
       <r>    -0.2289    22.3008   520.0660 </r>
       <r>    -0.1753    20.9145   521.1866 </r>
       <r>    -0.1217    16.6497   522.0786 </r>
       <r>    -0.0682    12.4457   522.7455 </r>
       <r>    -0.0146    10.1967   523.2918 </r>
       <r>     0.0390    10.0601   523.8308 </r>
       <r>     0.0926    11.9880   524.4731 </r>
       <r>     0.1461    14.9185   525.2724 </r>
       <r>     0.1997    16.7921   526.1721 </r>
       <r>     0.2533    17.0266   527.0844 </r>
       <r>     0.3069    17.6731   528.0313 </r>
       <r>     0.3605    19.3905   529.0702 </r>
       <r>     0.4140    19.4089   530.1101 </r>
       <r>     0.4676    17.4363   531.0443 </r>
       <r>     0.5212    16.7738   531.9430 </r>
       <r>     0.5748    18.8276   532.9517 </r>
       <r>     0.6284    22.1034   534.1360 </r>
       <r>     0.6819    24.7322   535.4611 </r>
       <r>     0.7355    25.6939   536.8378 </r>
       <r>     0.7891    24.0905   538.1285 </r>
       <r>     0.8427    18.7660   539.1340 </r>
       <r>     0.8962    11.1314   539.7304 </r>
       <r>     0.9498     5.9461   540.0489 </r>
       <r>     1.0034     6.2834   540.3856 </r>
       <r>     1.0570    10.1181   540.9277 </r>
       <r>     1.1106    12.4884   541.5968 </r>
       <r>     1.1641    11.1462   542.1940 </r>
       <r>     1.2177     8.4970   542.6493 </r>
       <r>     1.2713     6.8733   543.0175 </r>
       <r>     1.3249     6.4677   543.3641 </r>
       <r>     1.3785     7.3711   543.7590 </r>
       <r>     1.4320     9.2922   544.2569 </r>
       <r>     1.4856    11.8140   544.8898 </r>
       <r>     1.5392    15.0544   545.6964 </r>
       <r>     1.5928    17.5726   546.6379 </r>
       <r>     1.6463    17.5547   547.5785 </r>
       <r>     1.6999    15.7823   548.4241 </r>
       <r>     1.7535    14.2552   549.1879 </r>
       <r>     1.8071    14.4769   549.9635 </r>
       <r>     1.8607    15.4861   550.7932 </r>
       <r>     1.9142    14.5047   551.5704 </r>
       <r>     1.9678    11.9748   552.2120 </r>
       <r>     2.0214    10.2217   552.7596 </r>
       <r>     2.0750     9.7150   553.2801 </r>
       <r>     2.1286    10.7307   553.8551 </r>
       <r>     2.1821    13.7101   554.5896 </r>
       <r>     2.2357    17.7683   555.5416 </r>
       <r>     2.2893    21.4142   556.6890 </r>
       <r>     2.3429    24.0205   557.9760 </r>
       <r>     2.3964    25.5759   559.3463 </r>
       <r>     2.4500    25.7303   560.7249 </r>
       <r>     2.5036    24.5901   562.0424 </r>
       <r>     2.5572    22.7713   563.2624 </r>
       <r>     2.6108    20.9532   564.3851 </r>
       <r>     2.6643    20.5800   565.4877 </r>
       <r>     2.7179    21.2912   566.6285 </r>
       <r>     2.7715    19.6734   567.6825 </r>
       <r>     2.8251    14.4714   568.4579 </r>
       <r>     2.8787     8.8873   568.9341 </r>
       <r>     2.9322     6.3201   569.2727 </r>
       <r>     2.9858     6.2337   569.6067 </r>
       <r>     3.0394     6.2212   569.9400 </r>
       <r>     3.0930     6.2557   570.2752 </r>
       <r>     3.1465     7.3419   570.6685 </r>
       <r>     3.2001     9.1157   571.1569 </r>
       <r>     3.2537    10.7559   571.7332 </r>
       <r>     3.3073    11.0510   572.3253 </r>
       <r>     3.3609     9.5040   572.8345 </r>
       <r>     3.4144     8.7574   573.3037 </r>
       <r>     3.4680    11.1982   573.9037 </r>
       <r>     3.5216    15.0732   574.7113 </r>
       <r>     3.5752    17.6046   575.6545 </r>
       <r>     3.6288    17.9989   576.6189 </r>
       <r>     3.6823    16.7465   577.5161 </r>
       <r>     3.7359    15.8127   578.3634 </r>
       <r>     3.7895    16.1647   579.2294 </r>
       <r>     3.8431    15.3014   580.0493 </r>
       <r>     3.8966    12.3313   580.7100 </r>
       <r>     3.9502    10.8334   581.2904 </r>
       <r>     4.0038    13.1117   581.9929 </r>
       <r>     4.0574    15.6867   582.8334 </r>
       <r>     4.1110    14.8984   583.6316 </r>
       <r>     4.1645    13.0408   584.3303 </r>
       <r>     4.2181    12.4478   584.9973 </r>
       <r>     4.2717    10.7166   585.5714 </r>
       <r>     4.3253     7.6754   585.9827 </r>
       <r>     4.3788     7.2941   586.3735 </r>
       <r>     4.4324    10.7037   586.9470 </r>
       <r>     4.4860    15.2980   587.7666 </r>
       <r>     4.5396    19.1946   588.7950 </r>
       <r>     4.5932    22.3302   589.9914 </r>
       <r>     4.6467    24.2641   591.2915 </r>
       <r>     4.7003    24.7318   592.6166 </r>
       <r>     4.7539    25.9782   594.0084 </r>
       <r>     4.8075    28.4722   595.5339 </r>
       <r>     4.8611    29.3714   597.1076 </r>
       <r>     4.9146    28.2039   598.6187 </r>
       <r>     4.9682    27.8511   600.1109 </r>
       <r>     5.0218    30.1905   601.7285 </r>
       <r>     5.0754    33.3587   603.5158 </r>
       <r>     5.1289    34.0853   605.3421 </r>
       <r>     5.1825    32.1582   607.0650 </r>
       <r>     5.2361    29.4660   608.6438 </r>
       <r>     5.2897    25.9073   610.0319 </r>
       <r>     5.3433    19.5536   611.0795 </r>
       <r>     5.3968    11.2002   611.6796 </r>
       <r>     5.4504     4.5137   611.9214 </r>
       <r>     5.5040     1.2248   611.9871 </r>
       <r>     5.5576     0.2160   611.9986 </r>
       <r>     5.6112     0.0239   611.9999 </r>
       <r>     5.6647     0.0016   612.0000 </r>
       <r>     5.7183     0.0001   612.0000 </r>
       <r>     5.7719     0.0000   612.0000 </r>
       <r>     5.8255     0.0000   612.0000 </r>
       <r>     5.8790     0.0000   612.0000 </r>
       <r>     5.9326     0.0000   612.0000 </r>
       <r>     5.9862     0.0000   612.0000 </r>
       <r>     6.0398     0.0000   612.0000 </r>
       <r>     6.0934     0.0000   612.0000 </r>
       <r>     6.1469     0.0000   612.0000 </r>
       <r>     6.2005     0.0000   612.0000 </r>
       <r>     6.2541     0.0000   612.0000 </r>
       <r>     6.3077     0.0000   612.0000 </r>
       <r>     6.3613     0.0000   612.0000 </r>
      </set>
     </set>
    </array>
   </total>
  </dos>
 </calculation>
 <structure name="finalpos" >
  <crystal>
   <varray name="basis" >
    <v>      11.00258152       0.00000000       0.00000000 </v>
    <v>       5.50129076       9.52851510       0.00000000 </v>
    <v>       0.00000000       0.00000000      24.49178509 </v>
   </varray>
   <i name="volume">   2567.67623402 </i>
   <varray name="rec_basis" >
    <v>       0.09088776      -0.05247407       0.00000000 </v>
    <v>       0.00000000       0.10494815       0.00000000 </v>
    <v>       0.00000000       0.00000000       0.04083002 </v>
   </varray>
  </crystal>
  <varray name="positions" >
   <v>       0.74721869       0.75308415       0.60134028 </v>
   <v>       0.50282850       0.50125895       0.59900452 </v>
   <v>       0.58071277       0.83691235       0.39590856 </v>
   <v>       0.41629126       0.16628084       0.50058806 </v>
   <v>       0.83283256       0.08552513       0.39271398 </v>
   <v>       0.66498254       0.16772255       0.49970858 </v>
   <v>       0.32945001       0.83618611       0.39777655 </v>
   <v>       0.25254135       0.49851282       0.60287491 </v>
   <v>       0.16692728       0.66575627       0.50088203 </v>
   <v>       0.33150522       0.58297392       0.39818253 </v>
   <v>       0.50303206       0.24707321       0.60429820 </v>
   <v>       0.16712736       0.16554620       0.50160185 </v>
   <v>       0.33184895       0.33265781       0.39927175 </v>
   <v>       0.00078717       0.75139190       0.60638310 </v>
   <v>       0.91583126       0.16649205       0.50002255 </v>
   <v>       0.00317755      -0.00028321       0.60481758 </v>
   <v>       0.83357588       0.83364548       0.39853035 </v>
   <v>       0.91599136       0.41772095       0.49989839 </v>
   <v>       0.00180972       0.24931622       0.60774866 </v>
   <v>       0.66485879       0.66748371       0.49838121 </v>
   <v>       0.58425106       0.57993704       0.39536431 </v>
   <v>       0.83618187       0.58085584       0.39579995 </v>
   <v>       0.91613066       0.91515946       0.50070487 </v>
   <v>       0.00066265       0.49932707       0.60279347 </v>
   <v>       0.75228709       0.24984885       0.59744904 </v>
   <v>       0.75085760       0.00086488       0.59746417 </v>
   <v>       0.49921670       0.75183958       0.59410634 </v>
   <v>       0.83350379       0.33253623       0.40201012 </v>
   <v>       0.41618595       0.91477187       0.49817343 </v>
   <v>       0.66303568       0.41867385       0.49883916 </v>
   <v>       0.75025394       0.50013189       0.59645189 </v>
   <v>       0.08269611       0.08533522       0.40325921 </v>
   <v>       0.41609650       0.41770866       0.50034740 </v>
   <v>       0.58394982       0.33207487       0.40256756 </v>
   <v>       0.50019749      -0.00028305       0.59600893 </v>
   <v>       0.58174047       0.08506312       0.40212721 </v>
   <v>       0.66534380       0.91527033       0.49928994 </v>
   <v>       0.16905402       0.91510179       0.49985515 </v>
   <v>       0.25213239       0.24724148       0.59916594 </v>
   <v>       0.16648153       0.41744014       0.50131284 </v>
   <v>       0.25437340      -0.00262500       0.59719070 </v>
   <v>       0.33108250       0.08453240       0.40294287 </v>
   <v>       0.08146598       0.83506951       0.40303259 </v>
   <v>       0.91608316       0.66649880       0.50119881 </v>
   <v>       0.08246487       0.58273462       0.40465181 </v>
   <v>       0.08287301       0.33179147       0.40364552 </v>
   <v>       0.41578907       0.66638982       0.49797758 </v>
   <v>       0.25227858       0.75145187       0.59633553 </v>
  </varray>
 </structure>
</modeling>
