unknown system                          
           1
    11.002582    0.000000    0.000000
     5.501291    9.528515    0.000000
     0.000000    0.000000   24.491785
   Au   Pd
  24  24
Direct configuration=     1
   0.75000000  0.75000000  0.59169983
   0.50000000  0.50000000  0.59169983
   0.58333333  0.83333333  0.40830017
   0.41666667  0.16666667  0.50000000
   0.83333333  0.08333333  0.40830017
   0.66666667  0.16666667  0.50000000
   0.33333333  0.83333333  0.40830017
   0.25000000  0.50000000  0.59169983
   0.16666667  0.66666667  0.50000000
   0.33333333  0.58333333  0.40830017
   0.50000000  0.25000000  0.59169983
   0.16666667  0.16666667  0.50000000
   0.33333333  0.33333333  0.40830017
   0.00000000  0.75000000  0.59169983
   0.91666667  0.16666667  0.50000000
   0.00000000  0.00000000  0.59169983
   0.83333333  0.83333333  0.40830017
   0.91666667  0.41666667  0.50000000
   0.00000000  0.25000000  0.59169983
   0.66666667  0.66666667  0.50000000
   0.58333333  0.58333333  0.40830017
   0.83333333  0.58333333  0.40830017
   0.91666667  0.91666667  0.50000000
   0.00000000  0.50000000  0.59169983
   0.75000000  0.25000000  0.59169983
   0.75000000  0.00000000  0.59169983
   0.50000000  0.75000000  0.59169983
   0.83333333  0.33333333  0.40830017
   0.41666667  0.91666667  0.50000000
   0.66666667  0.41666667  0.50000000
   0.75000000  0.50000000  0.59169983
   0.08333333  0.08333333  0.40830017
   0.41666667  0.41666667  0.50000000
   0.58333333  0.33333333  0.40830017
   0.50000000  0.00000000  0.59169983
   0.58333333  0.08333333  0.40830017
   0.66666667  0.91666667  0.50000000
   0.16666667  0.91666667  0.50000000
   0.25000000  0.25000000  0.59169983
   0.16666667  0.41666667  0.50000000
   0.25000000  0.00000000  0.59169983
   0.33333333  0.08333333  0.40830017
   0.08333333  0.83333333  0.40830017
   0.91666667  0.66666667  0.50000000
   0.08333333  0.58333333  0.40830017
   0.08333333  0.33333333  0.40830017
   0.41666667  0.66666667  0.50000000
   0.25000000  0.75000000  0.59169983
Direct configuration=     2
   0.74862069  0.75118757  0.59350494
   0.50075036  0.50069135  0.59320451
   0.58230086  0.83537199  0.40638546
   0.41662213  0.16554449  0.50000175
   0.83328225  0.08409463  0.40584240
   0.66575621  0.16754949  0.50001018
   0.33187494  0.83477403  0.40671690
   0.25031340  0.49947369  0.59355375
   0.16712958  0.66651753  0.49961257
   0.33317758  0.58301964  0.40652087
   0.50046068  0.24906237  0.59382945
   0.16829274  0.16546842  0.49961957
   0.33304438  0.33317434  0.40647505
  -0.00033663  0.75052150  0.59393016
   0.91628555  0.16744825  0.49960139
   0.00057713 -0.00029518  0.59393148
   0.83374999  0.83306874  0.40641675
   0.91646642  0.41704291  0.49957816
   0.00006907  0.24996756  0.59421217
   0.66540333  0.66717521  0.50080010
   0.58374244  0.58145589  0.40639710
   0.83521506  0.58207058  0.40613761
   0.91663479  0.91578879  0.49997072
   0.00021066  0.49958255  0.59361764
   0.74986710  0.25027951  0.59296665
   0.74940645  0.00029445  0.59296878
   0.49917180  0.75079336  0.59248910
   0.83343368  0.33309645  0.40709828
   0.41635035  0.91661108  0.50050519
   0.66594923  0.41670861  0.50001754
   0.74918572  0.49988804  0.59290753
   0.08376785  0.08348082  0.40714771
   0.41713694  0.41702881  0.49977546
   0.58383128  0.33326925  0.40730228
   0.49983655 -0.00032505  0.59265088
   0.58283929  0.08356805  0.40710861
   0.66587963  0.91706763  0.50029998
   0.16821064  0.91604902  0.49994599
   0.25034448  0.24930053  0.59291378
   0.16645954  0.41697891  0.49966322
   0.25118740 -0.00107562  0.59262539
   0.33302315  0.08332565  0.40723126
   0.08354515  0.83352835  0.40710710
   0.91721761  0.66637296  0.49974285
   0.08329546  0.58299380  0.40730710
   0.08336431  0.33299633  0.40714109
   0.41645179  0.66714199  0.50055755
   0.25060099  0.75087073  0.59265598
Direct configuration=     3
   0.74448275  0.75475029  0.59892028
   0.50300144  0.50276541  0.59771853
   0.57920343  0.84148795  0.40064134
   0.41648850  0.16217795  0.50000700
   0.83312900  0.08637850  0.39846909
   0.66302483  0.17019796  0.50004071
   0.32749978  0.83909612  0.40196709
   0.25125362  0.49789474  0.59911552
   0.16851831  0.66607011  0.49845029
   0.33271033  0.58207855  0.40118298
   0.50184272  0.24624950  0.60021831
   0.17317097  0.16187367  0.49847830
   0.33217751  0.33269736  0.40099971
  -0.00134652  0.75208600  0.60062116
   0.91514219  0.16979300  0.49840555
   0.00230851 -0.00118072  0.60062645
   0.83499994  0.83227495  0.40076648
   0.91586569  0.41817162  0.49831262
   0.00027629  0.24987026  0.60174919
   0.66161334  0.66870084  0.50320041
   0.58496977  0.57582357  0.40068791
   0.84086025  0.57828233  0.39964994
   0.91653914  0.91315518  0.49988287
   0.00084263  0.49833021  0.59937108
   0.74946841  0.25111805  0.59676710
   0.74762582  0.00117778  0.59677563
   0.49668718  0.75317342  0.59485690
   0.83373473  0.33238581  0.40349259
   0.41540142  0.91644433  0.50202076
   0.66379691  0.41683446  0.50007017
   0.74674287  0.49955216  0.59653063
   0.08507141  0.08392328  0.40369033
   0.41854776  0.41811523  0.49910182
   0.58532511  0.33307701  0.40430860
   0.49934622 -0.00130020  0.59550404
   0.58135718  0.08427220  0.40353393
   0.66351852  0.91827054  0.50119992
   0.17284255  0.91419607  0.49978395
   0.25137791  0.24720212  0.59655562
   0.16583816  0.41791562  0.49865286
   0.25474960 -0.00430247  0.59540208
   0.33209258  0.08330259  0.40402453
   0.08418058  0.83411340  0.40352789
   0.91887045  0.66549185  0.49897141
   0.08318184  0.58197520  0.40432789
   0.08345726  0.33198534  0.40366384
   0.41580716  0.66856796  0.50223022
   0.25240397  0.75348291  0.59552445
Direct configuration=     4
   0.74411251  0.75506906  0.59940481
   0.50320285  0.50295098  0.59812242
   0.57892630  0.84203516  0.40012739
   0.41647655  0.16187674  0.50000747
   0.83311529  0.08658285  0.39780937
   0.66278044  0.17043493  0.50004345
   0.32710832  0.83948283  0.40154211
   0.25133774  0.49775347  0.59961315
   0.16864256  0.66603007  0.49834629
   0.33266852  0.58199435  0.40070538
   0.50196638  0.24599782  0.60078994
   0.17360744  0.16155204  0.49837619
   0.33209995  0.33265468  0.40050982
  -0.00143688  0.75222598  0.60121983
   0.91503989  0.17000280  0.49829856
   0.00246342 -0.00125995  0.60122546
   0.83511178  0.83220393  0.40026094
   0.91581194  0.41827261  0.49819939
   0.00029484  0.24986155  0.60242355
   0.66127423  0.66883734  0.50341518
   0.58507958  0.57531962  0.40017709
   0.84136534  0.57794339  0.39906946
   0.91653059  0.91291954  0.49987501
   0.00089918  0.49821816  0.59988586
   0.74943274  0.25119308  0.59710714
   0.74746650  0.00125681  0.59711624
   0.49646488  0.75338637  0.59506876
   0.83376166  0.33232223  0.40316998
   0.41531651  0.91642942  0.50215636
   0.66360433  0.41684572  0.50007488
   0.74652430  0.49952211  0.59685479
   0.08518804  0.08396287  0.40338099
   0.41867399  0.41821243  0.49904155
   0.58545877  0.33305980  0.40404074
   0.49930234 -0.00138745  0.59575932
   0.58122457  0.08433520  0.40321410
   0.66330727  0.91837817  0.50128044
   0.17325698  0.91403028  0.49976945
   0.25147037  0.24701437  0.59688147
   0.16578256  0.41799943  0.49856246
   0.25506832 -0.00459119  0.59565052
   0.33200932  0.08330053  0.40373762
   0.08423744  0.83416575  0.40320765
   0.91901833  0.66541301  0.49890239
   0.08317167  0.58188407  0.40406133
   0.08346557  0.33189488  0.40335272
   0.41574948  0.66869555  0.50237988
   0.25256529  0.75371663  0.59578110
Direct configuration=     5
   0.74578402  0.75349531  0.60073646
   0.50160950  0.50201628  0.59932404
   0.58032328  0.83832996  0.39934270
   0.41690513  0.16505554  0.50005086
   0.83336827  0.08547122  0.39631714
   0.66410042  0.16850681  0.50009421
   0.33004241  0.83667086  0.40048669
   0.25196790  0.49834659  0.60038059
   0.16899222  0.66562694  0.49896415
   0.33267085  0.58262051  0.39945741
   0.50143336  0.24692102  0.60205692
   0.16905624  0.16426962  0.49909002
   0.33269655  0.33201402  0.39941859
  -0.00080150  0.75151349  0.60244824
   0.91662701  0.16737379  0.49885258
   0.00178988 -0.00017395  0.60217948
   0.83447076  0.83310160  0.39916794
   0.91581326  0.41855539  0.49878603
   0.00079385  0.24910731  0.60356323
   0.66347818  0.66826841  0.50215359
   0.58496987  0.57890752  0.39929297
   0.83784445  0.57989352  0.39774199
   0.91607022  0.91525239  0.50000999
  -0.00036899  0.49904414  0.60073528
   0.75034915  0.25005770  0.59768010
   0.74843482  0.00157199  0.59772382
   0.49700412  0.75330962  0.59671709
   0.83452523  0.33214639  0.40209234
   0.41706900  0.91434026  0.50124390
   0.66343979  0.41836606  0.50010070
   0.74865079  0.49949643  0.59760939
   0.08361949  0.08505627  0.40252508
   0.41699315  0.41832570  0.49937927
   0.58501621  0.33152548  0.40316506
   0.49862473 -0.00034903  0.59685859
   0.58191260  0.08542359  0.40258306
   0.66503276  0.91649779  0.50087039
   0.17038115  0.91500093  0.49981995
   0.25124757  0.24663517  0.59741894
   0.16715288  0.41718343  0.49896017
   0.25342208 -0.00254866  0.59668592
   0.33162039  0.08450569  0.40257731
   0.08306705  0.83478549  0.40247913
   0.91712942  0.66574207  0.49935829
   0.08407177  0.58201179  0.40310219
   0.08432014  0.33058076  0.40243057
   0.41591356  0.66748587  0.50138197
   0.25136497  0.75266089  0.59658566
Direct configuration=     6
   0.74643893  0.75287870  0.60125822
   0.50098521  0.50165005  0.59979485
   0.58087063  0.83687822  0.39903525
   0.41707306  0.16630104  0.50006786
   0.83346739  0.08503568  0.39573247
   0.66461760  0.16775136  0.50011410
   0.33119203  0.83556910  0.40007316
   0.25221481  0.49857898  0.60068129
   0.16912921  0.66546899  0.49920623
   0.33267177  0.58286585  0.39896844
   0.50122452  0.24728274  0.60255334
   0.16727303  0.16533440  0.49936971
   0.33293031  0.33176301  0.39899104
  -0.00055255  0.75123433  0.60292955
   0.91724886  0.16634372  0.49906965
   0.00152598  0.00025156  0.60255327
   0.83421961  0.83345331  0.39873970
   0.91581378  0.41866618  0.49901588
   0.00098937  0.24881179  0.60400977
   0.66434171  0.66804549  0.50165929
   0.58492688  0.58031330  0.39894657
   0.83646493  0.58065761  0.39722187
   0.91588985  0.91616642  0.50006288
  -0.00086588  0.49936776  0.60106809
   0.75070821  0.24961284  0.59790459
   0.74881423  0.00169548  0.59796187
   0.49721540  0.75327955  0.59736292
   0.83482441  0.33207750  0.40167011
   0.41775565  0.91352170  0.50088639
   0.66337532  0.41896174  0.50011082
   0.74948396  0.49948638  0.59790505
   0.08300492  0.08548468  0.40218973
   0.41633457  0.41837008  0.49951160
   0.58484282  0.33092432  0.40282196
   0.49835924  0.00005783  0.59728929
   0.58218218  0.08585004  0.40233582
   0.66570883  0.91576103  0.50070973
   0.16925437  0.91538125  0.49983974
   0.25116027  0.24648660  0.59762953
   0.16768978  0.41686372  0.49911600
   0.25277706 -0.00174837  0.59709161
   0.33146800  0.08497788  0.40212269
   0.08260848  0.83502832  0.40219368
   0.91638933  0.66587100  0.49953691
   0.08442444  0.58206184  0.40272639
   0.08465497  0.33006587  0.40206925
   0.41597785  0.66701190  0.50099098
   0.25089468  0.75224724  0.59690090
Direct configuration=     7
   0.74664460  0.75289327  0.60166659
   0.50152242  0.50128193  0.60006290
   0.58144174  0.83668335  0.39881044
   0.41655208  0.16616869  0.50012045
   0.83350333  0.08491334  0.39512242
   0.66534854  0.16795457  0.50016460
   0.33102827  0.83560077  0.39983944
   0.25140889  0.49873920  0.60090569
   0.16755566  0.66605172  0.49947252
   0.33309343  0.58273489  0.39858153
   0.50127638  0.24747763  0.60300774
   0.16772764  0.16537224  0.49973397
   0.33294724  0.33217371  0.39859556
  -0.00029052  0.75112647  0.60329540
   0.91627300  0.16674497  0.49930254
   0.00146734 -0.00001717  0.60286961
   0.83394293  0.83348998  0.39851737
   0.91590728  0.41824917  0.49917005
   0.00093338  0.24908231  0.60446210
   0.66497092  0.66767318  0.50124187
   0.58497757  0.58021594  0.39866118
   0.83640482  0.58089996  0.39683933
   0.91628448  0.91552498  0.50013680
  -0.00022789  0.49922827  0.60126560
   0.75076449  0.24975297  0.59785989
   0.74922347  0.00141264  0.59802188
   0.49766131  0.75264234  0.59764830
   0.83436948  0.33233984  0.40156778
   0.41704960  0.91451892  0.50042278
   0.66362656  0.41863812  0.50006591
   0.74942433  0.49951063  0.59797610
   0.08328500  0.08496373  0.40195864
   0.41661747  0.41800853  0.49963533
   0.58474736  0.33160890  0.40270809
   0.49865089  0.00023855  0.59742420
   0.58255403  0.08497318  0.40223626
   0.66608412  0.91528649  0.50051195
   0.16891092  0.91535781  0.49981695
   0.25075585  0.24713628  0.59766669
   0.16735559  0.41713038  0.49933811
   0.25243453 -0.00153022  0.59723585
   0.33192284  0.08440235  0.40209063
   0.08247554  0.83507356  0.40213461
   0.91657507  0.66644618  0.49967653
   0.08398074  0.58217612  0.40265478
   0.08403996  0.33088406  0.40189031
   0.41631741  0.66664103  0.50057976
   0.25047993  0.75212422  0.59703297
Direct configuration=     8
   0.74672699  0.75289910  0.60183018
   0.50173763  0.50113446  0.60017028
   0.58167052  0.83660529  0.39872039
   0.41634338  0.16611568  0.50014153
   0.83351773  0.08486433  0.39487804
   0.66564135  0.16803597  0.50018484
   0.33096267  0.83561346  0.39974581
   0.25108605  0.49880338  0.60099558
   0.16692531  0.66628516  0.49957919
   0.33326234  0.58268243  0.39842653
   0.50129715  0.24755570  0.60318978
   0.16790975  0.16538740  0.49987990
   0.33295403  0.33233823  0.39843713
  -0.00018555  0.75108325  0.60344196
   0.91588207  0.16690570  0.49939583
   0.00144385 -0.00012482  0.60299633
   0.83383210  0.83350467  0.39842831
   0.91594473  0.41808212  0.49923180
   0.00091095  0.24919068  0.60464330
   0.66522298  0.66752404  0.50107465
   0.58499788  0.58017694  0.39854685
   0.83638074  0.58099704  0.39668609
   0.91644257  0.91526803  0.50016641
   0.00002769  0.49917239  0.60134472
   0.75078704  0.24980910  0.59784198
   0.74938741  0.00129933  0.59804592
   0.49783994  0.75238708  0.59776263
   0.83418723  0.33244493  0.40152678
   0.41676676  0.91491841  0.50023707
   0.66372721  0.41850848  0.50004792
   0.74940044  0.49952034  0.59800456
   0.08339720  0.08475504  0.40186607
   0.41673079  0.41786370  0.49968489
   0.58470913  0.33188314  0.40266247
   0.49876773  0.00031094  0.59747824
   0.58270298  0.08462192  0.40219637
   0.66623445  0.91509639  0.50043272
   0.16877334  0.91534843  0.49980782
   0.25059384  0.24739654  0.59768158
   0.16722171  0.41723721  0.49942708
   0.25229731 -0.00144282  0.59729363
   0.33210504  0.08417180  0.40207779
   0.08242229  0.83509169  0.40211095
   0.91664948  0.66667660  0.49973246
   0.08380299  0.58222191  0.40262609
   0.08379358  0.33121182  0.40181863
   0.41645344  0.66649246  0.50041503
   0.25031378  0.75207494  0.59708588
Direct configuration=     9
   0.74661379  0.75299575  0.60201083
   0.50177165  0.50123634  0.60022209
   0.58166231  0.83670610  0.39851369
   0.41682686  0.16579457  0.50015287
   0.83342318  0.08506240  0.39445145
   0.66529595  0.16793431  0.50012954
   0.33067142  0.83578655  0.39959491
   0.25114373  0.49870959  0.60115365
   0.16709115  0.66600341  0.49962751
   0.33302768  0.58272297  0.39829420
   0.50137752  0.24757486  0.60346528
   0.16775574  0.16523010  0.49997247
   0.33295626  0.33240627  0.39830092
  -0.00032871  0.75121690  0.60381873
   0.91603003  0.16702701  0.49940966
   0.00152256 -0.00018459  0.60321157
   0.83404840  0.83341132  0.39832540
   0.91622040  0.41782839  0.49926215
   0.00074683  0.24936731  0.60501096
   0.66505996  0.66764145  0.50098093
   0.58506904  0.57994344  0.39830535
   0.83672699  0.58082359  0.39645983
   0.91624279  0.91532086  0.50018058
  -0.00000622  0.49921463  0.60146211
   0.75085550  0.24992385  0.59782904
   0.74945664  0.00116434  0.59798630
   0.49795523  0.75216929  0.59754833
   0.83405560  0.33244993  0.40160077
   0.41650676  0.91501709  0.50007221
   0.66369802  0.41851896  0.49999022
   0.74931004  0.49970152  0.59793232
   0.08352750  0.08471857  0.40193431
   0.41670918  0.41782643  0.49977646
   0.58478653  0.33207659  0.40267312
   0.49904054  0.00020948  0.59737073
   0.58266757  0.08448986  0.40226847
   0.66602962  0.91534557  0.50037532
   0.16896192  0.91536107  0.49979631
   0.25066842  0.24764611  0.59775259
   0.16684455  0.41755119  0.49946388
   0.25256916 -0.00180242  0.59726544
   0.33218619  0.08407309  0.40217840
   0.08249058  0.83484331  0.40214924
   0.91667947  0.66653945  0.49982618
   0.08356289  0.58235621  0.40272241
   0.08348020  0.33157012  0.40189061
   0.41634500  0.66657592  0.50027114
   0.25066357  0.75190094  0.59700949
Direct configuration=    10
   0.74649104  0.75310055  0.60220674
   0.50180854  0.50134683  0.60027829
   0.58165340  0.83681541  0.39828954
   0.41735117  0.16544636  0.50016516
   0.83332065  0.08527719  0.39398884
   0.66492139  0.16782406  0.50006957
   0.33035559  0.83597426  0.39943128
   0.25120628  0.49860788  0.60132507
   0.16727100  0.66569787  0.49967991
   0.33277320  0.58276692  0.39815070
   0.50146468  0.24759564  0.60376406
   0.16758873  0.16505952  0.50007287
   0.33295868  0.33248006  0.39815321
  -0.00048396  0.75136182  0.60422731
   0.91619048  0.16715856  0.49942465
   0.00160791 -0.00024941  0.60344498
   0.83428297  0.83331008  0.39821380
   0.91651933  0.41755324  0.49929506
   0.00056886  0.24955885  0.60540967
   0.66488318  0.66776878  0.50087928
   0.58514622  0.57969021  0.39804345
   0.83710247  0.58063549  0.39621448
   0.91602615  0.91537815  0.50019594
  -0.00004299  0.49926044  0.60158942
   0.75092973  0.25004829  0.59781501
   0.74953172  0.00101796  0.59792165
   0.49808026  0.75193311  0.59731595
   0.83391286  0.33245536  0.40168100
   0.41622481  0.91512412  0.49989343
   0.66366637  0.41853033  0.49992766
   0.74921201  0.49989799  0.59785398
   0.08366880  0.08467902  0.40200832
   0.41668574  0.41778602  0.49987577
   0.58487047  0.33228637  0.40268467
   0.49933638  0.00009946  0.59725414
   0.58262915  0.08434664  0.40234666
   0.66580750  0.91561579  0.50031307
   0.16916643  0.91537477  0.49978382
   0.25074929  0.24791677  0.59782961
   0.16643554  0.41789169  0.49950379
   0.25286397 -0.00219237  0.59723486
   0.33227419  0.08396605  0.40228751
   0.08256464  0.83457395  0.40219077
   0.91671199  0.66639072  0.49992780
   0.08330252  0.58250185  0.40282686
   0.08314035  0.33195867  0.40196867
   0.41622739  0.66666643  0.50011510
   0.25104290  0.75171225  0.59692664
Direct configuration=    11
   0.74640724  0.75309434  0.60234461
   0.50180468  0.50133837  0.60026882
   0.58170494  0.83656500  0.39805522
   0.41697715  0.16568524  0.50020262
   0.83331934  0.08533309  0.39356121
   0.66498523  0.16787185  0.50001930
   0.33035962  0.83588175  0.39923802
   0.25135952  0.49867322  0.60149571
   0.16748474  0.66564759  0.49976348
   0.33254253  0.58278986  0.39805869
   0.50166953  0.24757197  0.60404589
   0.16772359  0.16513628  0.50019478
   0.33291227  0.33241514  0.39811876
  -0.00045335  0.75140083  0.60462846
   0.91611682  0.16691834  0.49943439
   0.00181048 -0.00024941  0.60364567
   0.83439239  0.83336816  0.39813867
   0.91644682  0.41768129  0.49934775
   0.00066851  0.24952125  0.60582750
   0.66481699  0.66789957  0.50074766
   0.58508805  0.57980576  0.39776925
   0.83704232  0.58064052  0.39599752
   0.91599898  0.91551264  0.50019459
  -0.00025214  0.49944507  0.60171697
   0.75098287  0.25006322  0.59775914
   0.74955899  0.00106493  0.59783792
   0.49818437  0.75191785  0.59696403
   0.83398750  0.33240775  0.40176616
   0.41621162  0.91498286  0.49974736
   0.66357714  0.41857541  0.49988939
   0.74920832  0.50006368  0.59772064
   0.08357175  0.08484694  0.40212936
   0.41656928  0.41777923  0.49996745
   0.58482607  0.33221957  0.40272600
   0.49939588  0.00003007  0.59710488
   0.58261807  0.08451235  0.40237483
   0.66577753  0.91543501  0.50025934
   0.16906880  0.91524539  0.49978456
   0.25091133  0.24784072  0.59787090
   0.16656777  0.41763985  0.49953575
   0.25316241 -0.00238501  0.59718937
   0.33208563  0.08422082  0.40242445
   0.08246168  0.83454751  0.40227896
   0.91643588  0.66639702  0.50006222
   0.08330054  0.58253314  0.40295779
   0.08321686  0.33190562  0.40210766
   0.41613546  0.66667554  0.49992326
   0.25125802  0.75153280  0.59680303
Direct configuration=    12
   0.74628299  0.75308513  0.60254906
   0.50179895  0.50132584  0.60025478
   0.58178137  0.83619368  0.39770777
   0.41642254  0.16603948  0.50025816
   0.83331740  0.08541599  0.39292710
   0.66507990  0.16794272  0.49994475
   0.33036559  0.83574456  0.39895144
   0.25158676  0.49877011  0.60174874
   0.16780169  0.66557302  0.49988741
   0.33220047  0.58282386  0.39792227
   0.50197328  0.24753686  0.60446381
   0.16792356  0.16525010  0.50037556
   0.33284344  0.33231887  0.39806768
  -0.00040797  0.75145868  0.60522330
   0.91600758  0.16656213  0.49944884
   0.00211086 -0.00024942  0.60394326
   0.83455464  0.83345429  0.39802727
   0.91633930  0.41787117  0.49942588
   0.00081628  0.24946551  0.60644708
   0.66471884  0.66809351  0.50055248
   0.58500178  0.57997710  0.39736265
   0.83695312  0.58064797  0.39567580
   0.91595868  0.91571207  0.50019258
  -0.00056229  0.49971886  0.60190610
   0.75106166  0.25008537  0.59767629
   0.74959943  0.00113459  0.59771375
   0.49833875  0.75189523  0.59644219
   0.83409817  0.33233715  0.40189244
   0.41619206  0.91477340  0.49953078
   0.66344481  0.41864225  0.49983263
   0.74920284  0.50030937  0.59752291
   0.08342783  0.08509595  0.40230883
   0.41639659  0.41776917  0.50010342
   0.58476023  0.33212051  0.40278729
   0.49948410 -0.00007283  0.59688354
   0.58260164  0.08475808  0.40241661
   0.66573309  0.91516693  0.50017967
   0.16892403  0.91505354  0.49978565
   0.25115162  0.24772796  0.59793214
   0.16676385  0.41726640  0.49958313
   0.25360496 -0.00267066  0.59712193
   0.33180603  0.08459861  0.40262751
   0.08230902  0.83450830  0.40240974
   0.91602646  0.66640635  0.50026155
   0.08329760  0.58257954  0.40315194
   0.08333030  0.33182696  0.40231376
   0.41599913  0.66668905  0.49963880
   0.25157699  0.75126669  0.59661974
Direct configuration=    13
   0.74636393  0.75318544  0.60261483
   0.50200809  0.50119829  0.60015686
   0.58173433  0.83630018  0.39745829
   0.41637369  0.16631305  0.50035468
   0.83342344  0.08538689  0.39251131
   0.66501637  0.16799896  0.49992046
   0.33038532  0.83573698  0.39873636
   0.25152244  0.49880641  0.60192066
   0.16728954  0.66568024  0.50004707
   0.33229847  0.58269304  0.39787517
   0.50214217  0.24738820  0.60467352
   0.16750557  0.16530554  0.50061737
   0.33277234  0.33234166  0.39812079
  -0.00021114  0.75150945  0.60556715
   0.91611536  0.16648121  0.49950040
   0.00242971 -0.00031215  0.60414186
   0.83425125  0.83362909  0.39802158
   0.91604536  0.41789529  0.49951187
   0.00115861  0.24931875  0.60686417
   0.66474560  0.66790475  0.50026340
   0.58481700  0.57998421  0.39706741
   0.83676221  0.58072398  0.39551054
   0.91611086  0.91528870  0.50022902
  -0.00036935  0.49970149  0.60203338
   0.75128107  0.25001105  0.59759069
   0.74974521  0.00119807  0.59759295
   0.49843268  0.75194409  0.59603220
   0.83413203  0.33240307  0.40199008
   0.41627942  0.91464093  0.49929184
   0.66330345  0.41884897  0.49976430
   0.74930850  0.50020897  0.59734111
   0.08327772  0.08515220  0.40248785
   0.41637769  0.41767238  0.50018329
   0.58456041  0.33210223  0.40283900
   0.49942535  0.00002404  0.59670270
   0.58264969  0.08475441  0.40242817
   0.66571843  0.91509618  0.50006453
   0.16871134  0.91516229  0.49977637
   0.25119435  0.24765494  0.59802988
   0.16690144  0.41725902  0.49970433
   0.25366641 -0.00251445  0.59707165
   0.33179294  0.08453133  0.40272911
   0.08211827  0.83486032  0.40252433
   0.91605792  0.66661743  0.50043619
   0.08329541  0.58248639  0.40337007
   0.08346543  0.33165828  0.40249759
   0.41619613  0.66643357  0.49930952
   0.25141755  0.75133464  0.59652411
Direct configuration=    14
   0.74641837  0.75325291  0.60265906
   0.50214875  0.50111250  0.60009100
   0.58170269  0.83637180  0.39729050
   0.41634084  0.16649705  0.50041959
   0.83349475  0.08536732  0.39223165
   0.66497364  0.16803679  0.49990412
   0.33039859  0.83573189  0.39859169
   0.25147918  0.49883083  0.60203630
   0.16694506  0.66575235  0.50015445
   0.33236439  0.58260504  0.39784349
   0.50225576  0.24728821  0.60481456
   0.16722443  0.16534283  0.50078002
   0.33272452  0.33235699  0.39815652
  -0.00007875  0.75154359  0.60579842
   0.91618786  0.16642678  0.49953507
   0.00264417 -0.00035433  0.60427545
   0.83404718  0.83374666  0.39801775
   0.91584766  0.41791152  0.49956971
   0.00138886  0.24922004  0.60714471
   0.66476360  0.66777779  0.50006897
   0.58469271  0.57998900  0.39686883
   0.83663381  0.58077510  0.39539939
   0.91621321  0.91500395  0.50025352
  -0.00023958  0.49968981  0.60211899
   0.75142864  0.24996107  0.59753311
   0.74984326  0.00124077  0.59751169
   0.49849585  0.75197695  0.59575644
   0.83415481  0.33244741  0.40205576
   0.41633818  0.91455183  0.49913112
   0.66320837  0.41898801  0.49971834
   0.74937956  0.50014145  0.59721884
   0.08317675  0.08519003  0.40260826
   0.41636497  0.41760727  0.50023701
   0.58442601  0.33208993  0.40287377
   0.49938584  0.00008920  0.59658108
   0.58268200  0.08475194  0.40243594
   0.66570857  0.91504860  0.49998709
   0.16856828  0.91523544  0.49977012
   0.25122308  0.24760583  0.59809562
   0.16699399  0.41725405  0.49978585
   0.25370775 -0.00240939  0.59703784
   0.33178413  0.08448607  0.40279744
   0.08198998  0.83509709  0.40260140
   0.91607908  0.66675939  0.50055365
   0.08329394  0.58242374  0.40351678
   0.08355632  0.33154483  0.40262124
   0.41632863  0.66626173  0.49908804
   0.25131030  0.75138034  0.59645980
Direct configuration=    15
   0.74662290  0.75332733  0.60256453
   0.50215100  0.50114332  0.59992727
   0.58149819  0.83672893  0.39709981
   0.41648820  0.16633290  0.50048968
   0.83337257  0.08553802  0.39207553
   0.66523749  0.16784159  0.49989124
   0.33024030  0.83586002  0.39845173
   0.25160003  0.49864932  0.60214433
   0.16692318  0.66557143  0.50029873
   0.33231046  0.58265645  0.39789415
   0.50224440  0.24723595  0.60485779
   0.16704381  0.16541474  0.50100264
   0.33267912  0.33235497  0.39829043
  -0.00004715  0.75168438  0.60600228
   0.91589667  0.16643282  0.49963014
   0.00266608 -0.00029640  0.60439866
   0.83388100  0.83370693  0.39806809
   0.91588714  0.41799512  0.49964020
   0.00149504  0.24928395  0.60738364
   0.66500486  0.66765545  0.49973391
   0.58467734  0.57981874  0.39662592
   0.83663692  0.58077389  0.39540324
   0.91598881  0.91514252  0.50033204
  -0.00000782  0.49952016  0.60216822
   0.75178923  0.24979791  0.59746003
   0.75013666  0.00116849  0.59741715
   0.49849773  0.75197835  0.59546056
   0.83395250  0.33256072  0.40208963
   0.41625424  0.91473541  0.49888799
   0.66314410  0.41884367  0.49960521
   0.74973540  0.49989511  0.59710612
   0.08321518  0.08509311  0.40273200
   0.41625917  0.41780363  0.50029902
   0.58445320  0.33201914  0.40288727
   0.49940873  0.00015461  0.59644361
   0.58264288  0.08471175  0.40242179
   0.66562824  0.91516725  0.49987754
   0.16878704  0.91511347  0.49976297
   0.25122171  0.24771163  0.59824125
   0.16675001  0.41742916  0.49997789
   0.25367661 -0.00230442  0.59701743
   0.33187450  0.08423267  0.40287069
   0.08194618  0.83523305  0.40266486
   0.91613648  0.66660502  0.50069768
   0.08308513  0.58251507  0.40371164
   0.08349480  0.33156137  0.40280410
   0.41606029  0.66617074  0.49880986
   0.25135942  0.75143057  0.59637952
Direct configuration=    16
   0.74669565  0.75335380  0.60253091
   0.50215180  0.50115429  0.59986903
   0.58142546  0.83685594  0.39703199
   0.41654061  0.16627452  0.50051461
   0.83332911  0.08559873  0.39202000
   0.66533133  0.16777217  0.49988666
   0.33018401  0.83590559  0.39840196
   0.25164301  0.49858477  0.60218275
   0.16691540  0.66550708  0.50035004
   0.33229128  0.58267474  0.39791216
   0.50224036  0.24721736  0.60487317
   0.16697957  0.16544031  0.50108182
   0.33266297  0.33235425  0.39833806
  -0.00003591  0.75173446  0.60607479
   0.91579311  0.16643496  0.49966395
   0.00267387 -0.00027580  0.60444248
   0.83382190  0.83369280  0.39808599
   0.91590119  0.41802485  0.49966527
   0.00153280  0.24930668  0.60746861
   0.66509067  0.66761194  0.49961474
   0.58467187  0.57975818  0.39653952
   0.83663803  0.58077346  0.39540461
   0.91590900  0.91519181  0.50035996
   0.00007461  0.49945982  0.60218573
   0.75191748  0.24973988  0.59743404
   0.75024101  0.00114278  0.59738353
   0.49849840  0.75197885  0.59535533
   0.83388054  0.33260103  0.40210168
   0.41622439  0.91480070  0.49880152
   0.66312124  0.41879233  0.49956498
   0.74986196  0.49980750  0.59706603
   0.08322884  0.08505863  0.40277601
   0.41622154  0.41787347  0.50032108
   0.58446287  0.33199396  0.40289207
   0.49941688  0.00017787  0.59639472
   0.58262897  0.08469745  0.40241676
   0.66559966  0.91520944  0.49983857
   0.16886485  0.91507008  0.49976043
   0.25122123  0.24774926  0.59829305
   0.16666324  0.41749144  0.50004619
   0.25366553 -0.00226709  0.59701017
   0.33190664  0.08414254  0.40289675
   0.08193060  0.83528141  0.40268743
   0.91615690  0.66655011  0.50074891
   0.08301086  0.58254754  0.40378095
   0.08347292  0.33156725  0.40286913
   0.41596485  0.66613838  0.49871092
   0.25137689  0.75144844  0.59635096
Direct configuration=    17
   0.74678669  0.75326653  0.60230424
   0.50222491  0.50119403  0.59967645
   0.58128970  0.83684113  0.39684131
   0.41647678  0.16630862  0.50052959