  56  56   0   0
  0.4903395E+02  0.1100258E-08  0.1100258E-08  0.2619179E-08  0.3500000E-15
  1.000000000000000E-004
  CAR 
 unknown system                          
      6.41851245    -21.75130861  301     -1.35951826      1.00000000
    -21.751  0.0000E+00  0.0000E+00
    -21.657  0.0000E+00  0.0000E+00
    -21.564  0.0000E+00  0.0000E+00
    -21.470  0.0000E+00  0.0000E+00
    -21.376  0.0000E+00  0.0000E+00
    -21.282  0.0000E+00  0.0000E+00
    -21.188  0.0000E+00  0.0000E+00
    -21.094  0.0000E+00  0.0000E+00
    -21.000  0.1502E-14  0.1410E-15
    -20.906  0.1559E-10  0.1464E-11
    -20.812  0.2892E-07  0.2717E-08
    -20.718  0.9766E-05  0.9198E-06
    -20.625  0.6211E-03  0.5924E-04
    -20.531  0.7832E-02  0.7947E-03
    -20.437  0.2134E-01  0.2799E-02
    -20.343  0.2069E-01  0.4741E-02
    -20.249  0.3505E-01  0.8032E-02
    -20.155  0.5067E-01  0.1279E-01
    -20.061  0.2927E-01  0.1554E-01
    -19.967  0.5815E-02  0.1609E-01
    -19.873  0.1045E-01  0.1707E-01
    -19.779  0.2205E-01  0.1914E-01
    -19.686  0.2279E-01  0.2128E-01
    -19.592  0.3995E-01  0.2503E-01
    -19.498  0.2720E-01  0.2758E-01
    -19.404  0.7333E-02  0.2827E-01
    -19.310  0.1610E-01  0.2978E-01
    -19.216  0.1864E-01  0.3153E-01
    -19.122  0.4723E-02  0.3198E-01
    -19.028  0.2479E-03  0.3200E-01
    -18.934  0.2540E-05  0.3200E-01
    -18.840  0.4848E-08  0.3200E-01
    -18.747  0.1676E-11  0.3200E-01
    -18.653  0.1040E-15  0.3200E-01
    -18.559  0.0000E+00  0.3200E-01
    -18.465  0.0000E+00  0.3200E-01
    -18.371  0.0000E+00  0.3200E-01
    -18.277  0.0000E+00  0.3200E-01
    -18.183  0.0000E+00  0.3200E-01
    -18.089  0.0000E+00  0.3200E-01
    -17.995  0.0000E+00  0.3200E-01
    -17.901  0.0000E+00  0.3200E-01
    -17.808  0.0000E+00  0.3200E-01
    -17.714  0.0000E+00  0.3200E-01
    -17.620  0.0000E+00  0.3200E-01
    -17.526  0.0000E+00  0.3200E-01
    -17.432  0.0000E+00  0.3200E-01
    -17.338  0.0000E+00  0.3200E-01
    -17.244  0.0000E+00  0.3200E-01
    -17.150  0.0000E+00  0.3200E-01
    -17.056  0.0000E+00  0.3200E-01
    -16.962  0.0000E+00  0.3200E-01
    -16.869  0.0000E+00  0.3200E-01
    -16.775  0.0000E+00  0.3200E-01
    -16.681  0.0000E+00  0.3200E-01
    -16.587  0.0000E+00  0.3200E-01
    -16.493  0.0000E+00  0.3200E-01
    -16.399  0.0000E+00  0.3200E-01
    -16.305  0.0000E+00  0.3200E-01
    -16.211  0.0000E+00  0.3200E-01
    -16.117  0.0000E+00  0.3200E-01
    -16.023  0.0000E+00  0.3200E-01
    -15.930  0.0000E+00  0.3200E-01
    -15.836  0.0000E+00  0.3200E-01
    -15.742  0.0000E+00  0.3200E-01
    -15.648  0.0000E+00  0.3200E-01
    -15.554  0.0000E+00  0.3200E-01
    -15.460  0.0000E+00  0.3200E-01
    -15.366  0.0000E+00  0.3200E-01
    -15.272  0.0000E+00  0.3200E-01
    -15.178  0.0000E+00  0.3200E-01
    -15.084  0.0000E+00  0.3200E-01
    -14.991  0.0000E+00  0.3200E-01
    -14.897  0.0000E+00  0.3200E-01
    -14.803  0.0000E+00  0.3200E-01
    -14.709  0.0000E+00  0.3200E-01
    -14.615  0.0000E+00  0.3200E-01
    -14.521  0.0000E+00  0.3200E-01
    -14.427  0.0000E+00  0.3200E-01
    -14.333  0.0000E+00  0.3200E-01
    -14.239  0.0000E+00  0.3200E-01
    -14.145  0.0000E+00  0.3200E-01
    -14.052  0.0000E+00  0.3200E-01
    -13.958  0.0000E+00  0.3200E-01
    -13.864  0.0000E+00  0.3200E-01
    -13.770  0.0000E+00  0.3200E-01
    -13.676  0.0000E+00  0.3200E-01
    -13.582  0.0000E+00  0.3200E-01
    -13.488  0.0000E+00  0.3200E-01
    -13.394  0.0000E+00  0.3200E-01
    -13.300  0.0000E+00  0.3200E-01
    -13.206  0.0000E+00  0.3200E-01
    -13.113  0.0000E+00  0.3200E-01
    -13.019  0.0000E+00  0.3200E-01
    -12.925  0.0000E+00  0.3200E-01
    -12.831  0.0000E+00  0.3200E-01
    -12.737  0.0000E+00  0.3200E-01
    -12.643  0.0000E+00  0.3200E-01
    -12.549  0.0000E+00  0.3200E-01
    -12.455  0.0000E+00  0.3200E-01
    -12.361  0.0000E+00  0.3200E-01
    -12.267  0.0000E+00  0.3200E-01
    -12.174  0.0000E+00  0.3200E-01
    -12.080  0.0000E+00  0.3200E-01
    -11.986  0.0000E+00  0.3200E-01
    -11.892  0.0000E+00  0.3200E-01
    -11.798  0.0000E+00  0.3200E-01
    -11.704  0.0000E+00  0.3200E-01
    -11.610  0.0000E+00  0.3200E-01
    -11.516  0.0000E+00  0.3200E-01
    -11.422  0.0000E+00  0.3200E-01
    -11.328  0.0000E+00  0.3200E-01
    -11.235  0.0000E+00  0.3200E-01
    -11.141  0.0000E+00  0.3200E-01
    -11.047  0.0000E+00  0.3200E-01
    -10.953  0.0000E+00  0.3200E-01
    -10.859  0.0000E+00  0.3200E-01
    -10.765  0.0000E+00  0.3200E-01
    -10.671  0.0000E+00  0.3200E-01
    -10.577  0.0000E+00  0.3200E-01
    -10.483  0.0000E+00  0.3200E-01
    -10.389  0.0000E+00  0.3200E-01
    -10.296  0.0000E+00  0.3200E-01
    -10.202  0.0000E+00  0.3200E-01
    -10.108  0.0000E+00  0.3200E-01
    -10.014  0.0000E+00  0.3200E-01
     -9.920  0.0000E+00  0.3200E-01
     -9.826  0.4335E-17  0.3200E-01
     -9.732  0.9994E-13  0.3200E-01
     -9.638  0.4283E-09  0.3200E-01
     -9.544  0.3326E-06  0.3200E-01
     -9.450  0.4798E-04  0.3200E-01
     -9.357  0.1341E-02  0.3213E-01
     -9.263  0.7699E-02  0.3285E-01
     -9.169  0.1012E-01  0.3380E-01
     -9.075  0.7957E-02  0.3455E-01
     -8.981  0.1056E-01  0.3554E-01
     -8.887  0.4506E-02  0.3597E-01
     -8.793  0.1637E-02  0.3612E-01
     -8.699  0.7232E-02  0.3680E-01
     -8.605  0.1324E-01  0.3804E-01
     -8.511  0.1623E-01  0.3956E-01
     -8.418  0.1863E-01  0.4131E-01
     -8.324  0.1515E-01  0.4274E-01
     -8.230  0.2478E-01  0.4506E-01
     -8.136  0.2579E-01  0.4748E-01
     -8.042  0.1999E-01  0.4936E-01
     -7.948  0.2435E-01  0.5165E-01
     -7.854  0.2945E-01  0.5441E-01
     -7.760  0.4593E-01  0.5873E-01
     -7.666  0.6923E-01  0.6523E-01
     -7.572  0.9120E-01  0.7379E-01
     -7.479  0.1150E+00  0.8459E-01
     -7.385  0.1278E+00  0.9660E-01
     -7.291  0.1435E+00  0.1101E+00
     -7.197  0.1483E+00  0.1240E+00
     -7.103  0.1382E+00  0.1370E+00
     -7.009  0.1270E+00  0.1489E+00
     -6.915  0.1246E+00  0.1606E+00
     -6.821  0.1444E+00  0.1742E+00
     -6.727  0.1560E+00  0.1888E+00
     -6.634  0.1600E+00  0.2038E+00
     -6.540  0.1675E+00  0.2196E+00
     -6.446  0.1736E+00  0.2359E+00
     -6.352  0.1757E+00  0.2524E+00
     -6.258  0.1643E+00  0.2678E+00
     -6.164  0.1600E+00  0.2828E+00
     -6.070  0.1651E+00  0.2983E+00
     -5.976  0.1635E+00  0.3137E+00
     -5.882  0.1590E+00  0.3286E+00
     -5.788  0.1546E+00  0.3431E+00
     -5.695  0.1542E+00  0.3576E+00
     -5.601  0.1662E+00  0.3732E+00
     -5.507  0.1765E+00  0.3898E+00
     -5.413  0.1719E+00  0.4059E+00
     -5.319  0.1705E+00  0.4219E+00
     -5.225  0.1761E+00  0.4385E+00
     -5.131  0.1779E+00  0.4552E+00
     -5.037  0.1794E+00  0.4720E+00
     -4.943  0.1840E+00  0.4893E+00
     -4.849  0.1850E+00  0.5067E+00
     -4.756  0.1809E+00  0.5236E+00
     -4.662  0.1731E+00  0.5399E+00
     -4.568  0.1734E+00  0.5562E+00
     -4.474  0.1801E+00  0.5731E+00
     -4.380  0.1948E+00  0.5914E+00
     -4.286  0.1932E+00  0.6095E+00
     -4.192  0.1948E+00  0.6278E+00
     -4.098  0.2047E+00  0.6470E+00
     -4.004  0.1971E+00  0.6656E+00
     -3.910  0.1904E+00  0.6834E+00
     -3.817  0.1912E+00  0.7014E+00
     -3.723  0.1943E+00  0.7196E+00
     -3.629  0.1916E+00  0.7376E+00
     -3.535  0.1777E+00  0.7543E+00
     -3.441  0.1622E+00  0.7695E+00
     -3.347  0.1587E+00  0.7844E+00
     -3.253  0.1639E+00  0.7998E+00
     -3.159  0.1674E+00  0.8156E+00
     -3.065  0.1757E+00  0.8321E+00
     -2.971  0.1851E+00  0.8494E+00
     -2.878  0.1947E+00  0.8677E+00
     -2.784  0.1951E+00  0.8860E+00
     -2.690  0.2030E+00  0.9051E+00
     -2.596  0.2047E+00  0.9243E+00
     -2.502  0.1984E+00  0.9429E+00
     -2.408  0.1891E+00  0.9607E+00
     -2.314  0.1851E+00  0.9781E+00
     -2.220  0.1900E+00  0.9959E+00
     -2.126  0.1856E+00  0.1013E+01
     -2.032  0.1655E+00  0.1029E+01
     -1.939  0.1491E+00  0.1043E+01
     -1.845  0.1392E+00  0.1056E+01
     -1.751  0.1333E+00  0.1068E+01
     -1.657  0.1268E+00  0.1080E+01
     -1.563  0.1075E+00  0.1090E+01
     -1.469  0.7899E-01  0.1098E+01
     -1.375  0.5622E-01  0.1103E+01
     -1.281  0.5528E-01  0.1108E+01
     -1.187  0.6156E-01  0.1114E+01
     -1.093  0.6960E-01  0.1121E+01
     -1.000  0.7205E-01  0.1127E+01
     -0.906  0.6686E-01  0.1134E+01
     -0.812  0.6169E-01  0.1140E+01
     -0.718  0.6535E-01  0.1146E+01
     -0.624  0.6418E-01  0.1152E+01
     -0.530  0.5436E-01  0.1157E+01
     -0.436  0.4374E-01  0.1161E+01
     -0.342  0.2721E-01  0.1163E+01
     -0.248  0.2085E-01  0.1165E+01
     -0.154  0.2210E-01  0.1167E+01
     -0.061  0.1819E-01  0.1169E+01
      0.033  0.1348E-01  0.1170E+01
      0.127  0.1892E-01  0.1172E+01
      0.221  0.2742E-01  0.1175E+01
      0.315  0.3555E-01  0.1178E+01
      0.409  0.4340E-01  0.1182E+01
      0.503  0.4372E-01  0.1186E+01
      0.597  0.4012E-01  0.1190E+01
      0.691  0.3533E-01  0.1193E+01
      0.785  0.2498E-01  0.1196E+01
      0.878  0.2077E-01  0.1198E+01
      0.972  0.2127E-01  0.1200E+01
      1.066  0.1383E-01  0.1201E+01
      1.160  0.1726E-01  0.1203E+01
      1.254  0.2140E-01  0.1205E+01
      1.348  0.2040E-01  0.1207E+01
      1.442  0.2778E-01  0.1209E+01
      1.536  0.3596E-01  0.1213E+01
      1.630  0.3844E-01  0.1216E+01
      1.724  0.3732E-01  0.1220E+01
      1.817  0.3715E-01  0.1223E+01
      1.911  0.3692E-01  0.1227E+01
      2.005  0.3778E-01  0.1230E+01
      2.099  0.3221E-01  0.1233E+01
      2.193  0.2556E-01  0.1236E+01
      2.287  0.2307E-01  0.1238E+01
      2.381  0.2376E-01  0.1240E+01
      2.475  0.2162E-01  0.1242E+01
      2.569  0.1887E-01  0.1244E+01
      2.663  0.2459E-01  0.1246E+01
      2.756  0.3243E-01  0.1249E+01
      2.850  0.2249E-01  0.1251E+01
      2.944  0.2201E-01  0.1253E+01
      3.038  0.3377E-01  0.1256E+01
      3.132  0.3713E-01  0.1260E+01
      3.226  0.3512E-01  0.1263E+01
      3.320  0.3348E-01  0.1266E+01
      3.414  0.2498E-01  0.1269E+01
      3.508  0.2437E-01  0.1271E+01
      3.602  0.2503E-01  0.1273E+01
      3.695  0.2956E-01  0.1276E+01
      3.789  0.3105E-01  0.1279E+01
      3.883  0.3664E-01  0.1283E+01
      3.977  0.4026E-01  0.1286E+01
      4.071  0.3878E-01  0.1290E+01
      4.165  0.3704E-01  0.1293E+01
      4.259  0.4129E-01  0.1297E+01
      4.353  0.4844E-01  0.1302E+01
      4.447  0.5160E-01  0.1307E+01
      4.541  0.5210E-01  0.1312E+01
      4.634  0.4933E-01  0.1316E+01
      4.728  0.4864E-01  0.1321E+01
      4.822  0.5419E-01  0.1326E+01
      4.916  0.5144E-01  0.1331E+01
      5.010  0.5321E-01  0.1336E+01
      5.104  0.5323E-01  0.1341E+01
      5.198  0.2896E-01  0.1343E+01
      5.292  0.5925E-02  0.1344E+01
      5.386  0.3402E-03  0.1344E+01
      5.480  0.4462E-05  0.1344E+01
      5.573  0.1178E-07  0.1344E+01
      5.667  0.5851E-11  0.1344E+01
      5.761  0.5265E-15  0.1344E+01
      5.855  0.0000E+00  0.1344E+01
      5.949  0.0000E+00  0.1344E+01
      6.043  0.0000E+00  0.1344E+01
      6.137  0.0000E+00  0.1344E+01
      6.231  0.0000E+00  0.1344E+01
      6.325  0.0000E+00  0.1344E+01
      6.419  0.0000E+00  0.1344E+01
