unknown system                          
           1
    11.002582    0.000000    0.000000
     5.501291    9.528515    0.000000
     0.000000    0.000000   26.191785
   Au   O    Pd
  24   8  24
Direct configuration=     1
   0.08333333  0.08333333  0.38179910
   0.91316164  0.66286995  0.47617170
   0.08333333  0.58333333  0.38179910
   0.74897964  0.49164623  0.56438891
   0.08333333  0.33333333  0.38179910
   0.66378034  0.91844591  0.47852824
   0.91315926  0.91747015  0.47266164
   0.99018165  0.74748128  0.56548187
   0.83333333  0.58333333  0.38179910
   0.33333333  0.08333333  0.38179910
   0.16484509  0.16490204  0.47683107
   0.33333333  0.58333333  0.38179910
   0.33333333  0.33333333  0.38179910
   0.33333333  0.83333333  0.38179910
   0.41434742  0.16850599  0.47935825
   0.50491765  0.98840874  0.57298141
   0.58333333  0.33333333  0.38179910
   0.50178522  0.26453489  0.56706811
   0.42188025  0.66164329  0.47656498
   0.50437047  0.49369500  0.62242914
   0.66480885  0.66592755  0.47480980
   0.83333333  0.08333333  0.38179910
   0.83333333  0.33333333  0.38179910
   0.16793709  0.66219121  0.47386749
   0.84874694  0.55468126  0.62228086
   0.17218737  0.41288669  0.61857901
   0.29375955  0.07740957  0.61892819
   0.29881137  0.61161299  0.61911135
   0.57516746  0.10028179  0.62258446
   0.70775962  0.37692123  0.63108084
   0.57035806  0.78591095  0.62787865
   0.86557275  0.06641731  0.61414541
   0.25214644  0.74516520  0.56139595
   0.75071217  0.74906111  0.59910233
   0.58333333  0.08333333  0.38179910
   0.76390134  0.24076821  0.57194692
   0.24695389  0.50037695  0.57039697
   0.08333333  0.83333333  0.38179910
   0.41684172  0.41611923  0.48044184
   0.00364919  0.24027905  0.56309444
   0.58333333  0.58333333  0.38179910
   0.91400546  0.41509466  0.47533651
   0.24814715  0.24169204  0.57456709
   0.16481550  0.41477971  0.48160877
   0.58333333  0.83333333  0.38179910
   0.41698034  0.91578324  0.47607203
   0.49887377  0.73628356  0.56866595
   0.00927608  0.98577416  0.56094268
   0.66492197  0.16678636  0.47543662
   0.75233250  0.98996825  0.58412649
   0.25006948  0.98550087  0.56449197
   0.91266100  0.16660161  0.47488749
   0.66544083  0.41132451  0.47984279
   0.16785314  0.91259317  0.47611297
   0.00192079  0.49167934  0.57120351
   0.83333333  0.83333333  0.38179910
Direct configuration=     2
   0.08333333  0.08333333  0.38179910
   0.91328494  0.66279406  0.47628978
   0.08333333  0.58333333  0.38179910
   0.74893201  0.49158206  0.56443301
   0.08333333  0.33333333  0.38179910
   0.66391717  0.91831779  0.47850359
   0.91334262  0.91735928  0.47269375
   0.99006571  0.74754536  0.56563438
   0.83333333  0.58333333  0.38179910
   0.33333333  0.08333333  0.38179910
   0.16500440  0.16485809  0.47677972
   0.33333333  0.58333333  0.38179910
   0.33333333  0.33333333  0.38179910
   0.33333333  0.83333333  0.38179910
   0.41454765  0.16838718  0.47922918
   0.50497232  0.98832039  0.57293067
   0.58333333  0.33333333  0.38179910
   0.50163311  0.26490305  0.56709396
   0.42182873  0.66164757  0.47661060
   0.50499622  0.49411640  0.62234742
   0.66496974  0.66571689  0.47489140
   0.83333333  0.08333333  0.38179910
   0.83333333  0.33333333  0.38179910
   0.16787743  0.66232225  0.47397845
   0.84955608  0.55426974  0.62235178
   0.17190557  0.41299713  0.61852613
   0.29358267  0.07770964  0.61882022
   0.29808771  0.61183311  0.61944851
   0.57509191  0.10027800  0.62244431
   0.70700552  0.37748625  0.63102732
   0.57042361  0.78556037  0.62788778
   0.86542178  0.06643185  0.61423083
   0.25219076  0.74486771  0.56156550
   0.75064436  0.74897921  0.59898690
   0.58333333  0.08333333  0.38179910
   0.76357536  0.24075818  0.57166858
   0.24657841  0.50066315  0.57045055
   0.08333333  0.83333333  0.38179910
   0.41689321  0.41609204  0.48040001
   0.00403509  0.23981716  0.56313163
   0.58333333  0.58333333  0.38179910
   0.91410306  0.41505437  0.47541419
   0.24835702  0.24179967  0.57449292
   0.16501107  0.41469717  0.48164593
   0.58333333  0.83333333  0.38179910
   0.41713017  0.91560475  0.47607324
   0.49881874  0.73619019  0.56871839
   0.00909605  0.98588312  0.56102640
   0.66502344  0.16679386  0.47545658
   0.75251601  0.99002839  0.58411666
   0.24978269  0.98604689  0.56440967
   0.91277532  0.16655609  0.47483407
   0.66559276  0.41130741  0.47976239
   0.16779374  0.91265911  0.47607565
   0.00188851  0.49153852  0.57119906
   0.83333333  0.83333333  0.38179910
Direct configuration=     3
   0.08333333  0.08333333  0.38179910
   0.91349237  0.66266638  0.47648844
   0.08333333  0.58333333  0.38179910
   0.74885187  0.49147410  0.56450720
   0.08333333  0.33333333  0.38179910
   0.66414734  0.91810227  0.47846213
   0.91365107  0.91717278  0.47274778
   0.98987067  0.74765317  0.56589095
   0.83333333  0.58333333  0.38179910
   0.33333333  0.08333333  0.38179910
   0.16527242  0.16478417  0.47669335
   0.33333333  0.58333333  0.38179910
   0.33333333  0.33333333  0.38179910
   0.33333333  0.83333333  0.38179910
   0.41488449  0.16818732  0.47901203
   0.50506431  0.98817176  0.57284531
   0.58333333  0.33333333  0.38179910
   0.50137721  0.26552242  0.56713744
   0.42174205  0.66165477  0.47668735
   0.50604891  0.49482533  0.62220995
   0.66524040  0.66536249  0.47502867
   0.83333333  0.08333333  0.38179910
   0.83333333  0.33333333  0.38179910
   0.16777705  0.66254270  0.47416512
   0.85091730  0.55357745  0.62247108
   0.17143150  0.41318292  0.61843718
   0.29328511  0.07821445  0.61863859
   0.29687031  0.61220341  0.62001571
   0.57496482  0.10027163  0.62220853
   0.70573692  0.37843677  0.63093729
   0.57053388  0.78497059  0.62790316
   0.86516781  0.06645631  0.61437453
   0.25226532  0.74436724  0.56185073
   0.75053028  0.74884143  0.59879270
   0.58333333  0.08333333  0.38179910
   0.76302697  0.24074129  0.57120033
   0.24594674  0.50114462  0.57054068
   0.08333333  0.83333333  0.38179910
   0.41697984  0.41604629  0.48032964
   0.00468429  0.23904013  0.56319419
   0.58333333  0.58333333  0.38179910
   0.91426725  0.41498658  0.47554486
   0.24871008  0.24198072  0.57436816
   0.16534008  0.41455830  0.48170843
   0.58333333  0.83333333  0.38179910
   0.41738222  0.91530449  0.47607526
   0.49872617  0.73603311  0.56880659
   0.00879318  0.98606642  0.56116724
   0.66519415  0.16680649  0.47549016
   0.75282473  0.99012956  0.58410012
   0.24930022  0.98696546  0.56427122
   0.91296766  0.16647951  0.47474421
   0.66584835  0.41127865  0.47962714
   0.16769382  0.91277004  0.47601287
   0.00183421  0.49130163  0.57119157
   0.83333333  0.83333333  0.38179910
Direct configuration=     4
   0.08333333  0.08333333  0.38179910
   0.91356677  0.66261639  0.47655893
   0.08333333  0.58333333  0.38179910
   0.74889313  0.49141228  0.56453384
   0.08333333  0.33333333  0.38179910
   0.66424143  0.91801912  0.47844599
   0.91374163  0.91711727  0.47276801
   0.98980350  0.74769286  0.56598886
   0.83333333  0.58333333  0.38179910
   0.33333333  0.08333333  0.38179910
   0.16536522  0.16476622  0.47665763
   0.33333333  0.58333333  0.38179910
   0.33333333  0.33333333  0.38179910
   0.33333333  0.83333333  0.38179910
   0.41501823  0.16811266  0.47893465
   0.50510706  0.98810549  0.57280762
   0.58333333  0.33333333  0.38179910
   0.50125331  0.26575746  0.56714927
   0.42170927  0.66165995  0.47672003
   0.50562790  0.49549378  0.62215769
   0.66532937  0.66525273  0.47507590
   0.83333333  0.08333333  0.38179910
   0.83333333  0.33333333  0.38179910
   0.16775997  0.66259743  0.47423254
   0.85131087  0.55342306  0.62252069
   0.17127474  0.41322931  0.61841440
   0.29318573  0.07840644  0.61858963
   0.29673383  0.61218337  0.62020039
   0.57491506  0.10027460  0.62211954
   0.70569601  0.37852585  0.63089473
   0.57060010  0.78474209  0.62791573
   0.86504709  0.06654863  0.61441359
   0.25226656  0.74426769  0.56196754
   0.75051094  0.74871085  0.59872628
   0.58333333  0.08333333  0.38179910
   0.76286516  0.24073928  0.57105531
   0.24576429  0.50133801  0.57059150
   0.08333333  0.83333333  0.38179910
   0.41700784  0.41604018  0.48030505
   0.00485455  0.23880616  0.56321581
   0.58333333  0.58333333  0.38179910
   0.91434937  0.41494333  0.47559247
   0.24885698  0.24206131  0.57430945
   0.16545957  0.41451404  0.48172924
   0.58333333  0.83333333  0.38179910
   0.41748133  0.91518746  0.47607735
   0.49865263  0.73600170  0.56882918
   0.00873659  0.98609124  0.56121322
   0.66526526  0.16679536  0.47550055
   0.75288798  0.99015567  0.58409471
   0.24916393  0.98717635  0.56420670
   0.91304958  0.16644516  0.47471370
   0.66592851  0.41126675  0.47957463
   0.16767530  0.91279788  0.47600777
   0.00183425  0.49119750  0.57116560
   0.83333333  0.83333333  0.38179910
Direct configuration=     5
   0.08333333  0.08333333  0.38179910
   0.91378995  0.66246641  0.47677042
   0.08333333  0.58333333  0.38179910
   0.74901690  0.49122684  0.56461376
   0.08333333  0.33333333  0.38179910
   0.66452369  0.91776969  0.47839755
   0.91401329  0.91695076  0.47282869
   0.98960199  0.74781193  0.56628260
   0.83333333  0.58333333  0.38179910
   0.33333333  0.08333333  0.38179910
   0.16564362  0.16471238  0.47655049
   0.33333333  0.58333333  0.38179910
   0.33333333  0.33333333  0.38179910
   0.33333333  0.83333333  0.38179910
   0.41541946  0.16788870  0.47870252
   0.50523531  0.98790671  0.57269456
   0.58333333  0.33333333  0.38179910
   0.50088163  0.26646261  0.56718479
   0.42161095  0.66167546  0.47681807
   0.50436485  0.49749916  0.62200089
   0.66559630  0.66492345  0.47521757
   0.83333333  0.08333333  0.38179910
   0.83333333  0.33333333  0.38179910
   0.16770875  0.66276162  0.47443479
   0.85249160  0.55295987  0.62266952
   0.17080445  0.41336848  0.61834608
   0.29288762  0.07898240  0.61844274
   0.29632440  0.61212326  0.62075444
   0.57476577  0.10028349  0.62185258
   0.70557330  0.37879306  0.63076706
   0.57079876  0.78405661  0.62795344
   0.86468491  0.06682559  0.61453078
   0.25227028  0.74396905  0.56231798
   0.75045291  0.74831912  0.59852700
   0.58333333  0.08333333  0.38179910
   0.76237974  0.24073322  0.57062024
   0.24521693  0.50191816  0.57074397
   0.08333333  0.83333333  0.38179910
   0.41709184  0.41602184  0.48023127
   0.00536531  0.23810427  0.56328068
   0.58333333  0.58333333  0.38179910
   0.91459573  0.41481355  0.47573531
   0.24929770  0.24230306  0.57413332
   0.16581806  0.41438125  0.48179164
   0.58333333  0.83333333  0.38179910
   0.41777863  0.91483637  0.47608363
   0.49843202  0.73590747  0.56889694
   0.00856683  0.98616569  0.56135114
   0.66547858  0.16676198  0.47553173
   0.75307773  0.99023400  0.58407846
   0.24875505  0.98780902  0.56401315
   0.91329535  0.16634211  0.47462214
   0.66616899  0.41123103  0.47941709
   0.16761975  0.91288138  0.47599249
   0.00183436  0.49088512  0.57108769
   0.83333333  0.83333333  0.38179910
Direct configuration=     6
   0.08333333  0.08333333  0.38179910
   0.91423631  0.66216646  0.47719340
   0.08333333  0.58333333  0.38179910
   0.74926445  0.49085595  0.56477361
   0.08333333  0.33333333  0.38179910
   0.66508822  0.91727084  0.47830068
   0.91455661  0.91661772  0.47295006
   0.98919899  0.74805006  0.56687008
   0.83333333  0.58333333  0.38179910
   0.33333333  0.08333333  0.38179910
   0.16620041  0.16460469  0.47633619
   0.33333333  0.58333333  0.38179910
   0.33333333  0.33333333  0.38179910
   0.33333333  0.83333333  0.38179910
   0.41622192  0.16744078  0.47823824
   0.50549182  0.98750913  0.57246843
   0.58333333  0.33333333  0.38179910
   0.50013825  0.26787290  0.56725581
   0.42141430  0.66170650  0.47701415
   0.50183877  0.50150990  0.62168729
   0.66613015  0.66426490  0.47550092
   0.83333333  0.08333333  0.38179910
   0.83333333  0.33333333  0.38179910
   0.16760630  0.66309001  0.47483930
   0.85485305  0.55203349  0.62296717
   0.16986386  0.41364683  0.61820943
   0.29229139  0.08013432  0.61814897
   0.29550553  0.61200304  0.62186254
   0.57446721  0.10030127  0.62131865
   0.70532788  0.37932750  0.63051170
   0.57119609  0.78268565  0.62802886
   0.86396057  0.06737951  0.61476516
   0.25227771  0.74337177  0.56301885
   0.75033684  0.74753564  0.59812844
   0.58333333  0.08333333  0.38179910
   0.76140889  0.24072112  0.56975012
   0.24412222  0.50307847  0.57104891
   0.08333333  0.83333333  0.38179910
   0.41725985  0.41598517  0.48008371
   0.00638682  0.23670047  0.56341043
   0.58333333  0.58333333  0.38179910
   0.91508844  0.41455400  0.47602100
   0.25017914  0.24278656  0.57378107
   0.16653503  0.41411566  0.48191645
   0.58333333  0.83333333  0.38179910
   0.41837324  0.91413418  0.47609618
   0.49799078  0.73571901  0.56903245
   0.00822731  0.98631459  0.56162698
   0.66590523  0.16669521  0.47559409
   0.75345723  0.99039066  0.58404598
   0.24793729  0.98907435  0.56362604
   0.91378690  0.16613602  0.47443902
   0.66664996  0.41115960  0.47910203
   0.16750864  0.91304837  0.47596191
   0.00183460  0.49026037  0.57093187
   0.83333333  0.83333333  0.38179910
Direct configuration=     7
   0.08333333  0.08333333  0.38179910
   0.91409471  0.66226161  0.47705922
   0.08333333  0.58333333  0.38179910
   0.74918592  0.49097360  0.56472290
   0.08333333  0.33333333  0.38179910
   0.66490914  0.91742909  0.47833141
   0.91438426  0.91672337  0.47291156
   0.98932683  0.74797452  0.56668371
   0.83333333  0.58333333  0.38179910
   0.33333333  0.08333333  0.38179910
   0.16602378  0.16463885  0.47640417
   0.33333333  0.58333333  0.38179910
   0.33333333  0.33333333  0.38179910
   0.33333333  0.83333333  0.38179910
   0.41596736  0.16758287  0.47838552
   0.50541045  0.98763525  0.57254016
   0.58333333  0.33333333  0.38179910
   0.50037407  0.26742553  0.56723328
   0.42147669  0.66169666  0.47695195
   0.50264010  0.50023760  0.62178677
   0.66596080  0.66447381  0.47541103
   0.83333333  0.08333333  0.38179910
   0.83333333  0.33333333  0.38179910
   0.16763880  0.66298584  0.47471098
   0.85410394  0.55232736  0.62287274
   0.17016224  0.41355853  0.61825278
   0.29248053  0.07976890  0.61824216
   0.29576529  0.61204118  0.62151102
   0.57456192  0.10029563  0.62148803
   0.70540573  0.37915796  0.63059271
   0.57107005  0.78312055  0.62800494
   0.86419035  0.06720380  0.61469081
   0.25227535  0.74356125  0.56279652
   0.75037366  0.74778418  0.59825487
   0.58333333  0.08333333  0.38179910
   0.76171687  0.24072496  0.57002614
   0.24446949  0.50271039  0.57095218
   0.08333333  0.83333333  0.38179910
   0.41720655  0.41599681  0.48013052
   0.00606277  0.23714579  0.56336927
   0.58333333  0.58333333  0.38179910
   0.91493214  0.41463634  0.47593037
   0.24989953  0.24263318  0.57389281
   0.16630759  0.41419991  0.48187686
   0.58333333  0.83333333  0.38179910
   0.41818462  0.91435693  0.47609220
   0.49813075  0.73577879  0.56898946
   0.00833501  0.98626735  0.56153947
   0.66576989  0.16671639  0.47557431
   0.75333685  0.99034097  0.58405628
   0.24819671  0.98867296  0.56374884
   0.91363097  0.16620140  0.47449711
   0.66649738  0.41118226  0.47920198
   0.16754389  0.91299540  0.47597161
   0.00183452  0.49045855  0.57098130
   0.83333333  0.83333333  0.38179910
Direct configuration=     8
   0.08333333  0.08333333  0.38179910
   0.91421683  0.66216008  0.47715494
   0.08333333  0.58333333  0.38179910
   0.74944127  0.49070251  0.56481844
   0.08333333  0.33333333  0.38179910
   0.66510185  0.91728435  0.47830247
   0.91442701  0.91669108  0.47294436
   0.98926981  0.74800902  0.56684977
   0.83333333  0.58333333  0.38179910
   0.33333333  0.08333333  0.38179910
   0.16615885  0.16464181  0.47633966
   0.33333333  0.58333333  0.38179910
   0.33333333  0.33333333  0.38179910
   0.33333333  0.83333333  0.38179910
   0.41620790  0.16746298  0.47828155
   0.50548436  0.98745721  0.57245161
   0.58333333  0.33333333  0.38179910
   0.50009859  0.26779548  0.56723259
   0.42143065  0.66170568  0.47702565
   0.50230245  0.50077177  0.62182994
   0.66607040  0.66437560  0.47547405
   0.83333333  0.08333333  0.38179910
   0.83333333  0.33333333  0.38179910
   0.16769942  0.66295949  0.47480661
   0.85428802  0.55246393  0.62296797
   0.17000481  0.41352295  0.61825208
   0.29234079  0.08006150  0.61817138
   0.29536536  0.61226096  0.62172687
   0.57443371  0.10035329  0.62133650
   0.70507761  0.37949992  0.63030450
   0.57127213  0.78270821  0.62804192
   0.86389202  0.06768470  0.61465235
   0.25206338  0.74385176  0.56299682
   0.75038437  0.74734017  0.59817300
   0.58333333  0.08333333  0.38179910
   0.76157662  0.24082779  0.56995307
   0.24434549  0.50301462  0.57108631
   0.08333333  0.83333333  0.38179910
   0.41724936  0.41601950  0.48009820
   0.00601426  0.23704207  0.56339149
   0.58333333  0.58333333  0.38179910
   0.91513994  0.41451581  0.47599620
   0.25020621  0.24272973  0.57375602
   0.16649921  0.41417083  0.48189913
   0.58333333  0.83333333  0.38179910
   0.41834407  0.91418307  0.47609660
   0.49791836  0.73586774  0.56899289
   0.00839865  0.98615546  0.56160643
   0.66592176  0.16662499  0.47558192
   0.75322543  0.99033949  0.58404311
   0.24829579  0.98851920  0.56365744
   0.91382612  0.16611877  0.47445925
   0.66655843  0.41117264  0.47911203
   0.16760964  0.91294812  0.47604274
   0.00193948  0.49024131  0.57085226
   0.83333333  0.83333333  0.38179910
Direct configuration=     9
   0.08333333  0.08333333  0.38179910
   0.91458317  0.66185548  0.47744210
   0.08333333  0.58333333  0.38179910
   0.75020730  0.48988924  0.56510507
   0.08333333  0.33333333  0.38179910
   0.66567998  0.91685014  0.47821565
   0.91455525  0.91659423  0.47304276
   0.98909874  0.74811251  0.56734792
   0.83333333  0.58333333  0.38179910
   0.33333333  0.08333333  0.38179910
   0.16656404  0.16465069  0.47614613
   0.33333333  0.58333333  0.38179910
   0.33333333  0.33333333  0.38179910
   0.33333333  0.83333333  0.38179910
   0.41692952  0.16710330  0.47796965
   0.50570610  0.98692308  0.57218594
   0.58333333  0.33333333  0.38179910
   0.49927215  0.26890533  0.56723054
   0.42129254  0.66173274  0.47724677
   0.50128949  0.50237428  0.62195944
   0.66639921  0.66408096  0.47566311
   0.83333333  0.08333333  0.38179910
   0.83333333  0.33333333  0.38179910
   0.16788127  0.66288044  0.47509352
   0.85484028  0.55287364  0.62325366
   0.16953253  0.41341621  0.61824997
   0.29192158  0.08093928  0.61795901
   0.29416556  0.61292032  0.62237440
   0.57404907  0.10052629  0.62088194
   0.70409325  0.38052581  0.62943989
   0.57187838  0.78147120  0.62815288
   0.86299703  0.06912740  0.61453697
   0.25142744  0.74472330  0.56359772
   0.75041650  0.74600813  0.59792740
   0.58333333  0.08333333  0.38179910
   0.76115589  0.24113629  0.56973385
   0.24397347  0.50392731  0.57148872
   0.08333333  0.83333333  0.38179910
   0.41737780  0.41608759  0.48000123
   0.00586873  0.23673093  0.56345816
   0.58333333  0.58333333  0.38179910
   0.91576333  0.41415423  0.47619369
   0.25112626  0.24301939  0.57334564
   0.16707406  0.41408360  0.48196595
   0.58333333  0.83333333  0.38179910
   0.41882244  0.91366146  0.47610981
   0.49728118  0.73613459  0.56900316
   0.00858955  0.98581979  0.56180729
   0.66637737  0.16635080  0.47560473
   0.75289117  0.99033507  0.58400359
   0.24859306  0.98805794  0.56338321
   0.91441157  0.16587088  0.47434567
   0.66674156  0.41114380  0.47884217
   0.16780688  0.91280628  0.47625615
   0.00225434  0.48958958  0.57046516
   0.83333333  0.83333333  0.38179910
Direct configuration=    10
   0.08333333  0.08333333  0.38179910
   0.91531586  0.66124627  0.47801643
   0.08333333  0.58333333  0.38179910
   0.75173936  0.48826269  0.56567833
   0.08333333  0.33333333  0.38179910
   0.66683624  0.91598173  0.47804201
   0.91481175  0.91640053  0.47323957
   0.98875659  0.74831949  0.56834424
   0.83333333  0.58333333  0.38179910
   0.33333333  0.08333333  0.38179910
   0.16737443  0.16466844  0.47575906
   0.33333333  0.58333333  0.38179910
   0.33333333  0.33333333  0.38179910
   0.33333333  0.83333333  0.38179910
   0.41837276  0.16638394  0.47734585
   0.50614958  0.98585483  0.57165460
   0.58333333  0.33333333  0.38179910
   0.49761926  0.27112503  0.56722642
   0.42101632  0.66178688  0.47768901
   0.49926357  0.50557931  0.62221845
   0.66705683  0.66349169  0.47604123
   0.83333333  0.08333333  0.38179910
   0.83333333  0.33333333  0.38179910
   0.16824497  0.66272236  0.47566732
   0.85594480  0.55369306  0.62382503
   0.16858797  0.41320272  0.61824576
   0.29108315  0.08269485  0.61753427
   0.29176595  0.61423902  0.62366947
   0.57327980  0.10087228  0.61997281
   0.70212452  0.38257757  0.62771066
   0.57309089  0.77899717  0.62837480
   0.86120705  0.07201279  0.61430621
   0.25015558  0.74646637  0.56479953
   0.75048075  0.74334406  0.59743619
   0.58333333  0.08333333  0.38179910
   0.76031441  0.24175329  0.56929540
   0.24322943  0.50575268  0.57229353
   0.08333333  0.83333333  0.38179910
   0.41763466  0.41622377  0.47980729
   0.00557768  0.23610864  0.56359149
   0.58333333  0.58333333  0.38179910
   0.91701011  0.41343108  0.47658867
   0.25296636  0.24359871  0.57252488
   0.16822376  0.41390913  0.48209959
   0.58333333  0.83333333  0.38179910
   0.41977916  0.91261825  0.47613621
   0.49600681  0.73666829  0.56902370
   0.00897135  0.98514844  0.56220902
   0.66728858  0.16580242  0.47565035
   0.75222265  0.99032622  0.58392455
   0.24918759  0.98713541  0.56283476
   0.91558247  0.16537510  0.47411850
   0.66710782  0.41108610  0.47830247
   0.16820138  0.91252260  0.47668296
   0.00288406  0.48828612  0.56969094
   0.83333333  0.83333333  0.38179910
Direct configuration=    11
   0.08333333  0.08333333  0.38179910
   0.91493188  0.66156554  0.47771544
   0.08333333  0.58333333  0.38179910
   0.75093645  0.48911512  0.56537790
   0.08333333  0.33333333  0.38179910
   0.66623028  0.91643684  0.47813301
   0.91467733  0.91650205  0.47313643
   0.98893590  0.74821102  0.56782210
   0.83333333  0.58333333  0.38179910
   0.33333333  0.08333333  0.38179910
   0.16694972  0.16465913  0.47596191
   0.33333333  0.58333333  0.38179910
   0.33333333  0.33333333  0.38179910
   0.33333333  0.83333333  0.38179910
   0.41761640  0.16676093  0.47767277
   0.50591717  0.98641467  0.57193306
   0.58333333  0.33333333  0.38179910
   0.49848549  0.26996174  0.56722858
   0.42116108  0.66175851  0.47745725
   0.50032530  0.50389964  0.62208271
   0.66671219  0.66380051  0.47584307
   0.83333333  0.08333333  0.38179910
   0.83333333  0.33333333  0.38179910
   0.16805436  0.66280521  0.47536661
   0.85536595  0.55326362  0.62352559
   0.16908299  0.41331460  0.61824797
   0.29152254  0.08177481  0.61775687
   0.29302352  0.61354792  0.62299076
   0.57368295  0.10069095  0.62044926
   0.70315628  0.38150230  0.62861690
   0.57245545  0.78029374  0.62825850
   0.86214513  0.07050064  0.61442714
   0.25082213  0.74555287  0.56416969
   0.75044708  0.74474023  0.59769362
   0.58333333  0.08333333  0.38179910
   0.76075541  0.24142994  0.56952518
   0.24361936  0.50479605  0.57187175
   0.08333333  0.83333333  0.38179910
   0.41750005  0.41615240  0.47990893
   0.00573021  0.23643477  0.56352161
   0.58333333  0.58333333  0.38179910
   0.91635671  0.41381006  0.47638167
   0.25200202  0.24329510  0.57295502
   0.16762123  0.41400056  0.48202956
   0.58333333  0.83333333  0.38179910
   0.41927777  0.91316497  0.47612237
   0.49667467  0.73638859  0.56901294
   0.00877126  0.98550028  0.56199848
   0.66681104  0.16608981  0.47562644
   0.75257300  0.99033085  0.58396598
   0.24887602  0.98761888  0.56312219
   0.91496883  0.16563493  0.47423755
   0.66691587  0.41111634  0.47858532
   0.16799464  0.91267127  0.47645928
   0.00255404  0.48896923  0.57009669
   0.83333333  0.83333333  0.38179910
Direct configuration=    12
   0.08333333  0.08333333  0.38179910
   0.91519616  0.66140163  0.47782382
   0.08333333  0.58333333  0.38179910
   0.75139289  0.48883612  0.56542784
   0.08333333  0.33333333  0.38179910
   0.66657008  0.91612326  0.47805757
   0.91488764  0.91634300  0.47320840
   0.98879471  0.74819476  0.56812235
   0.83333333  0.58333333  0.38179910
   0.33333333  0.08333333  0.38179910
   0.16729325  0.16454802  0.47594612
   0.33333333  0.58333333  0.38179910
   0.33333333  0.33333333  0.38179910
   0.33333333  0.83333333  0.38179910
   0.41802855  0.16657878  0.47754126
   0.50605972  0.98590906  0.57175164
   0.58333333  0.33333333  0.38179910
   0.49816213  0.27041395  0.56717230
   0.42113000  0.66173440  0.47765882
   0.49933752  0.50421813  0.62228841
   0.66695711  0.66354713  0.47596376
   0.83333333  0.08333333  0.38179910
   0.83333333  0.33333333  0.38179910
   0.16821082  0.66274723  0.47554996
   0.85619140  0.55296717  0.62359950
   0.16903561  0.41300046  0.61815502
   0.29123459  0.08209312  0.61734197
   0.29203156  0.61464802  0.62334975
   0.57299256  0.10106816  0.62020857
   0.70235911  0.38273040  0.62807595
   0.57274574  0.77947380  0.62832026
   0.86142727  0.07135594  0.61416376
   0.25030666  0.74612884  0.56457967
   0.74997475  0.74475027  0.59745192
   0.58333333  0.08333333  0.38179910
   0.76066532  0.24127318  0.56929031
   0.24347603  0.50527223  0.57224269
   0.08333333  0.83333333  0.38179910
   0.41768732  0.41616497  0.47983732
   0.00592807  0.23621618  0.56349149
   0.58333333  0.58333333  0.38179910
   0.91660974  0.41369910  0.47643349
   0.25238389  0.24316357  0.57266593
   0.16804602  0.41397485  0.48203206
   0.58333333  0.83333333  0.38179910
   0.41953094  0.91305524  0.47605637
   0.49673930  0.73642393  0.56904722
   0.00841226  0.98565189  0.56216308
   0.66706666  0.16594629  0.47564378
   0.75265394  0.99019882  0.58390801
   0.24946009  0.98774812  0.56326878
   0.91536087  0.16543342  0.47423797
   0.66706963  0.41114548  0.47845225
   0.16822870  0.91236437  0.47660290
   0.00249902  0.48890517  0.57005591
   0.83333333  0.83333333  0.38179910
Direct configuration=    13
   0.08333333  0.08333333  0.38179910
   0.91555172  0.66118110  0.47796964
   0.08333333  0.58333333  0.38179910
   0.75200700  0.48846076  0.56549503
   0.08333333  0.33333333  0.38179910
   0.66702727  0.91570136  0.47795608
   0.91517059  0.91612902  0.47330523
   0.98860475  0.74817289  0.56852632
   0.83333333  0.58333333  0.38179910
   0.33333333  0.08333333  0.38179910
   0.16775544  0.16439853  0.47592486
   0.33333333  0.58333333  0.38179910
   0.33333333  0.33333333  0.38179910
   0.33333333  0.83333333  0.38179910
   0.41858305  0.16633372  0.47736432
   0.50625151  0.98522879  0.57150756
   0.58333333  0.33333333  0.38179910
   0.49772707  0.27102237  0.56709657
   0.42108820  0.66170196  0.47793001
   0.49800854  0.50464664  0.62256516
   0.66728662  0.66320623  0.47612614
   0.83333333  0.08333333  0.38179910
   0.83333333  0.33333333  0.38179910
   0.16842132  0.66266923  0.47579665
   0.85730197  0.55256833  0.62369894
   0.16897187  0.41257781  0.61802997
   0.29084717  0.08252138  0.61678376
   0.29069696  0.61612812  0.62383274
   0.57206370  0.10157567  0.61988474
   0.70128659  0.38438272  0.62734814
   0.57313631  0.77837064  0.62840335
   0.86046145  0.07250669  0.61380940
   0.24961313  0.74690375  0.56513127
   0.74933927  0.74476379  0.59712673
   0.58333333  0.08333333  0.38179910
   0.76054411  0.24106227  0.56897432
   0.24328320  0.50591289  0.57274176
   0.08333333  0.83333333  0.38179910
   0.41793929  0.41618187  0.47974097
   0.00619428  0.23592209  0.56345095
   0.58333333  0.58333333  0.38179910
   0.91695019  0.41354981  0.47650320
   0.25289767  0.24298659  0.57227698
   0.16861754  0.41394026  0.48203544
   0.58333333  0.83333333  0.38179910
   0.41987156  0.91290761  0.47596757
   0.49682626  0.73647147  0.56909335
   0.00792926  0.98585588  0.56238454
   0.66741058  0.16575319  0.47566712
   0.75276283  0.99002118  0.58383001
   0.25024590  0.98792201  0.56346600
   0.91588833  0.16516231  0.47423853
   0.66727651  0.41118469  0.47827323
   0.16854361  0.91195146  0.47679613
   0.00242501  0.48881898  0.57000105
   0.83333333  0.83333333  0.38179910
Direct configuration=    14
   0.08333333  0.08333333  0.38179910
   0.91593083  0.66100398  0.47800689
   0.08333333  0.58333333  0.38179910
   0.75236368  0.48842591  0.56535292
   0.08333333  0.33333333  0.38179910
   0.66736593  0.91536192  0.47784221
   0.91558827  0.91583367  0.47338021
   0.98847591  0.74801380  0.56879324
   0.83333333  0.58333333  0.38179910
   0.33333333  0.08333333  0.38179910
   0.16816971  0.16411542  0.47599028
   0.33333333  0.58333333  0.38179910
   0.33333333  0.33333333  0.38179910
   0.33333333  0.83333333  0.38179910
   0.41899374  0.16624990  0.47727902
   0.50679421  0.98473546  0.57123572
   0.58333333  0.33333333  0.38179910
   0.49765846  0.27117590  0.56697109
   0.42113866  0.66168231  0.47822669
   0.49635412  0.50484130  0.62279991
   0.66751765  0.66295351  0.47622704
   0.83333333  0.08333333  0.38179910
   0.83333333  0.33333333  0.38179910
   0.16862478  0.66263544  0.47603296
   0.85810644  0.55233286  0.62367855
   0.16917651  0.41190996  0.61790638
   0.29084495  0.08308989  0.61677033
   0.28938344  0.61762116  0.62443414
   0.57123769  0.10195921  0.61959003
   0.70031945  0.38603437  0.62689258
   0.57340683  0.77737668  0.62858972
   0.85937272  0.07326168  0.61369683
   0.24913387  0.74776839  0.56543882
   0.74886969  0.74499682  0.59683308
   0.58333333  0.08333333  0.38179910
   0.76016728  0.24133159  0.56847047
   0.24307922  0.50638621  0.57315169
   0.08333333  0.83333333  0.38179910
   0.41824566  0.41613754  0.47965234
   0.00679464  0.23557501  0.56334757
   0.58333333  0.58333333  0.38179910
   0.91714800  0.41349736  0.47645619
   0.25293199  0.24320689  0.57178316
   0.16911893  0.41389072  0.48203294
   0.58333333  0.83333333  0.38179910