 vasp.5.4.1 24Jun15 (build Mar 14 2019 10:18:33) complex                        
  
 executed on INTEL-19.0.2+OPENMPI date 2022.07.15  17:22:03
 running on   36 total cores
 distrk:  each k-point on   36 cores,    1 groups
 distr:  one band on NCORES_PER_BAND=   6 cores,    6 groups


--------------------------------------------------------------------------------------------------------


 INCAR:
 POTCAR:    PAW_PBE Au 04Oct2007                  
 POTCAR:    PAW_PBE Pd 04Jan2005                  
 POTCAR:    PAW_PBE Au 04Oct2007                  
  local pseudopotential read in
  partial core-charges read in
  partial kinetic energy density read in
  atomic valenz-charges read in
  non local Contribution for L=           2  read in
    real space projection operators read in
  non local Contribution for L=           2  read in
    real space projection operators read in
  non local Contribution for L=           0  read in
    real space projection operators read in
  non local Contribution for L=           0  read in
    real space projection operators read in
  non local Contribution for L=           1  read in
    real space projection operators read in
  non local Contribution for L=           1  read in
    real space projection operators read in
    PAW grid and wavefunctions read in
 
   number of l-projection  operators is LMAX  =           6
   number of lm-projection operators is LMMAX =          18
 
 POTCAR:    PAW_PBE Pd 04Jan2005                  
  local pseudopotential read in
  partial core-charges read in
  partial kinetic energy density read in
  atomic valenz-charges read in
  non local Contribution for L=           2  read in
    real space projection operators read in
  non local Contribution for L=           2  read in
    real space projection operators read in
  non local Contribution for L=           0  read in
    real space projection operators read in
  non local Contribution for L=           0  read in
    real space projection operators read in
  non local Contribution for L=           1  read in
    real space projection operators read in
  non local Contribution for L=           1  read in
    real space projection operators read in
    PAW grid and wavefunctions read in
 
   number of l-projection  operators is LMAX  =           6
   number of lm-projection operators is LMMAX =          18
 
 Optimization of the real space projectors (new method)

 maximal supplied QI-value         = 15.12
 optimisation between [QCUT,QGAM] = [ 10.13, 20.41] = [ 28.73,116.64] Ry 
 Optimized for a Real-space Cutoff    1.51 Angstroem

   l    n(q)    QCUT    max X(q) W(low)/X(q) W(high)/X(q)  e(spline) 
   2      8    10.129    60.898    0.46E-03    0.46E-03    0.14E-06
   2      8    10.129    58.894    0.47E-03    0.47E-03    0.14E-06
   0      9    10.129   109.617    0.16E-03    0.11E-03    0.54E-07
   0      9    10.129    75.026    0.15E-03    0.11E-03    0.52E-07
   1      9    10.129    16.344    0.96E-04    0.15E-03    0.14E-06
   1      9    10.129    10.160    0.81E-04    0.12E-03    0.11E-06
 Optimization of the real space projectors (new method)

 maximal supplied QI-value         = 14.36
 optimisation between [QCUT,QGAM] = [ 10.20, 20.39] = [ 29.12,116.47] Ry 
 Optimized for a Real-space Cutoff    1.51 Angstroem

   l    n(q)    QCUT    max X(q) W(low)/X(q) W(high)/X(q)  e(spline) 
   2      8    10.197    59.108    0.26E-03    0.14E-03    0.96E-07
   2      8    10.197    58.101    0.27E-03    0.14E-03    0.98E-07
   0      9    10.197   102.235    0.54E-04    0.60E-05    0.72E-07
   0      9    10.197    58.388    0.52E-04    0.60E-05    0.68E-07
   1      9    10.197    22.191    0.18E-03    0.25E-03    0.79E-07
   1      9    10.197    15.590    0.15E-03    0.21E-03    0.69E-07
  PAW_PBE Au 04Oct2007                  :
 energy of atom  1       EATOM= -926.0867
 kinetic energy error for atom=    0.0062 (will be added to EATOM!!)
  PAW_PBE Pd 04Jan2005                  :
 energy of atom  2       EATOM= -809.7530
 kinetic energy error for atom=    0.0091 (will be added to EATOM!!)
 
 
 POSCAR: Au Pd                                   
  positions in cartesian coordinates
  No initial velocities read in
 exchange correlation table for  LEXCH =        8
   RHO(1)=    0.500       N(1)  =     2000
   RHO(2)=  100.500       N(2)  =     4000

 VTST: version 3.2, (02/03/18)

 CHAIN: initializing optimizer
 
 OPT: Using VASP Conjugate-Gradient optimizer
 CHAIN: Read ICHAIN            0
 
 POSCAR: Au Pd                                   
  positions in cartesian coordinates
  No initial velocities read in
 


--------------------------------------------------------------------------------------------------------


 ion  position               nearest neighbor table
   1  0.083  0.083  0.408-  43 2.75  28 2.75  38 2.75  21 2.75  44 2.75  31 2.75  40 2.75   3 2.75
                            25 2.75
   2  0.250  0.500  0.592-   8 2.75   7 2.75  17 2.75  18 2.75  37 2.75  39 2.75  24 2.75  48 2.75
                            35 2.75
   3  0.167  0.917  0.500-  38 2.75  18 2.75  20 2.75  16 2.75  25 2.75   8 2.75  43 2.75  23 2.75
                            10 2.75   1 2.75  44 2.75  45 2.75
   4  0.417  0.167  0.500-  40 2.75   5 2.75  17 2.75   7 2.75  35 2.75  10 2.75  42 2.75  11 2.75
                            43 2.75  46 2.75  41 2.75  37 2.75
   5  0.500  0.000  0.592-   4 2.75  42 2.75  19 2.75  32 2.75  37 2.75  17 2.75  29 2.75  45 2.75
                            10 2.75
   6  0.583  0.333  0.408-  12 2.75   9 2.75  31 2.75  34 2.75  41 2.75  28 2.75  46 2.75  11 2.75
                             7 2.75
   7  0.417  0.417  0.500-  46 2.75  37 2.75   2 2.75  11 2.75  16 2.75   4 2.75   8 2.75  12 2.75
                            35 2.75  34 2.75   6 2.75  48 2.75
   8  0.167  0.667  0.500-  33 2.75   2 2.75  39 2.75  23 2.75   3 2.75  35 2.75   7 2.75  36 2.75
                            16 2.75  38 2.75  18 2.75  34 2.75
   9  0.583  0.583  0.408-  27 2.75   6 2.75  28 2.75  44 2.75  47 2.75  14 2.75  34 2.75  12 2.75
                            16 2.75
  10  0.417  0.917  0.500-  44 2.75  32 2.75  45 2.75   4 2.75  43 2.75  16 2.75  27 2.75  42 2.75
                             3 2.75  40 2.75   5 2.75  47 2.75
  11  0.667  0.167  0.500-  41 2.75  29 2.75  37 2.75   7 2.75  12 2.75  23 2.75  42 2.75   4 2.75
                            25 2.75   6 2.75  31 2.75  13 2.75
  12  0.667  0.417  0.500-   6 2.75  13 2.75  48 2.75  16 2.75  25 2.75  27 2.75  11 2.75  22 2.75
                             7 2.75   9 2.75  28 2.75  26 2.75
  13  0.750  0.250  0.592-  12 2.75  25 2.75  20 2.75  26 2.75  29 2.75  48 2.75  37 2.75  30 2.75
                            11 2.75
  14  0.833  0.583  0.408-  36 2.75  21 2.75  28 2.75  15 2.75  47 2.75   9 2.75  33 2.75  22 2.75
                            27 2.75
  15  0.833  0.833  0.408-  23 2.75  14 2.75  31 2.75  33 2.75  41 2.75  38 2.75  47 2.75  36 2.75
                            42 2.75
  16  0.417  0.667  0.500-  34 2.75  48 2.75  18 2.75  12 2.75   3 2.75   7 2.75  10 2.75   8 2.75
                            27 2.75  44 2.75  32 2.75   9 2.75
  17  0.250  0.250  0.592-  35 2.75   4 2.75   5 2.75  24 2.75   2 2.75  45 2.75  37 2.75  30 2.75
                            43 2.75
  18  0.250  0.750  0.592-   3 2.75  16 2.75   2 2.75  20 2.75  45 2.75  48 2.75  32 2.75  39 2.75
                             8 2.75
  19  0.750  0.750  0.592-  42 2.75  36 2.75  26 2.75  29 2.75   5 2.75  24 2.75  39 2.75  32 2.75
                            27 2.75
  20  0.000  0.000  0.592-  25 2.75   3 2.75  18 2.75  13 2.75  30 2.75  39 2.75  29 2.75  45 2.75
                            23 2.75
  21  0.083  0.333  0.408-  35 2.75  14 2.75  33 2.75   1 2.75  40 2.75  28 2.75  46 2.75  43 2.75
                            22 2.75
  22  0.917  0.417  0.500-  28 2.75  30 2.75  26 2.75  25 2.75  27 2.75  36 2.75  43 2.75  12 2.75
                            35 2.75  14 2.75  21 2.75  24 2.75
  23  0.917  0.917  0.500-  15 2.75  39 2.75  29 2.75  25 2.75  11 2.75  36 2.75   8 2.75   3 2.75
                            42 2.75  31 2.75  20 2.75  38 2.75
  24  0.000  0.500  0.592-  36 2.75  35 2.75  30 2.75  17 2.75  19 2.75  39 2.75   2 2.75  26 2.75
                            22 2.75
  25  0.917  0.167  0.500-  31 2.75  20 2.75  13 2.75  12 2.75  22 2.75  23 2.75   3 2.75  11 2.75
                            43 2.75  28 2.75   1 2.75  30 2.75
  26  0.750  0.500  0.592-  27 2.75  22 2.75  13 2.75  19 2.75  30 2.75  32 2.75  24 2.75  48 2.75
                            12 2.75
  27  0.667  0.667  0.500-   9 2.75  26 2.75  32 2.75  22 2.75  10 2.75  12 2.75  42 2.75  36 2.75
                            16 2.75  47 2.75  14 2.75  19 2.75
  28  0.833  0.333  0.408-  22 2.75   9 2.75  14 2.75   1 2.75  31 2.75   6 2.75  21 2.75  25 2.75
                            12 2.75
  29  0.750  0.000  0.592-  11 2.75  23 2.75  19 2.75  13 2.75  37 2.75  39 2.75  20 2.75   5 2.75
                            42 2.75
  30  0.000  0.250  0.592-  22 2.75  43 2.75  24 2.75  26 2.75  20 2.75  45 2.75  13 2.75  17 2.75
                            25 2.75
  31  0.833  0.083  0.408-  25 2.75  15 2.75   6 2.75  28 2.75  38 2.75   1 2.75  41 2.75  23 2.75
                            11 2.75
  32  0.500  0.750  0.592-  10 2.75  27 2.75  26 2.75   5 2.75  45 2.75  48 2.75  18 2.75  19 2.75
                            16 2.75
  33  0.083  0.583  0.408-   8 2.75  15 2.75  21 2.75  38 2.75  46 2.75  14 2.75  34 2.75  35 2.75
                            36 2.75
  34  0.333  0.583  0.408-  16 2.75   6 2.75  38 2.75  44 2.75  46 2.75  33 2.75   9 2.75   7 2.75
                             8 2.75
  35  0.167  0.417  0.500-  21 2.75  17 2.75  24 2.75   8 2.75   4 2.75  36 2.75  43 2.75  22 2.75
                             7 2.75  33 2.75   2 2.75  46 2.75
  36  0.917  0.667  0.500-  14 2.75  24 2.75  19 2.75  23 2.75  22 2.75  35 2.75  42 2.75   8 2.75
                            27 2.75  15 2.75  39 2.75  33 2.75
  37  0.500  0.250  0.592-   7 2.75  11 2.75   2 2.75   5 2.75  29 2.75  48 2.75  13 2.75  17 2.75
                             4 2.75
  38  0.083  0.833  0.408-   3 2.75   1 2.75  31 2.75  33 2.75  34 2.75  15 2.75  44 2.75   8 2.75
                            23 2.75
  39  0.000  0.750  0.592-  23 2.75   8 2.75  20 2.75   2 2.75  24 2.75  29 2.75  18 2.75  19 2.75
                            36 2.75
  40  0.333  0.083  0.408-   4 2.75  21 2.75  44 2.75  46 2.75  47 2.75  41 2.75   1 2.75  10 2.75
                            43 2.75
  41  0.583  0.083  0.408-  11 2.75   6 2.75  15 2.75  46 2.75  47 2.75  31 2.75  40 2.75  42 2.75
                             4 2.75
  42  0.667  0.917  0.500-  47 2.75  19 2.75   5 2.75   4 2.75  27 2.75  36 2.75  11 2.75  23 2.75
                            10 2.75  41 2.75  29 2.75  15 2.75
  43  0.167  0.167  0.500-   1 2.75  45 2.75  30 2.75  22 2.75   3 2.75  35 2.75  10 2.75  25 2.75
                             4 2.75  21 2.75  40 2.75  17 2.75
  44  0.333  0.833  0.408-  10 2.75   9 2.75   1 2.75  34 2.75  40 2.75  38 2.75  47 2.75  16 2.75
                             3 2.75
  45  0.250  0.000  0.592-  43 2.75  10 2.75  18 2.75  30 2.75  32 2.75  17 2.75  20 2.75   5 2.75
                             3 2.75
  46  0.333  0.333  0.408-   7 2.75  33 2.75  34 2.75  40 2.75  41 2.75   6 2.75  21 2.75   4 2.75
                            35 2.75
  47  0.583  0.833  0.408-  42 2.75  14 2.75  40 2.75  41 2.75   9 2.75  15 2.75  44 2.75  27 2.75
                            10 2.75
  48  0.500  0.500  0.592-  16 2.75  12 2.75  13 2.75  18 2.75  32 2.75  37 2.75   2 2.75  26 2.75
                             7 2.75
 
  LATTYP: Found a hexagonal cell.
 ALAT       =    11.0025815153
 C/A-ratio  =     2.2260035120
  
  Lattice vectors:
  
 A1 = (   5.5012907576,  -9.5285150994,   0.0000000000)
 A2 = ( -11.0025815153,   0.0000000000,   0.0000000000)
 A3 = (   0.0000000000,   0.0000000000, -24.4917850943)


Analysis of symmetry for initial positions (statically):
=====================================================================
 Subroutine PRICEL returns:
 Original cell was already a primitive cell.
 

 Routine SETGRP: Setting up the symmetry group for a 
 hexagonal supercell.


 Subroutine GETGRP returns: Found  1 space group operations
 (whereof  1 operations were pure point group operations)
 out of a pool of 24 trial point group operations.


The static configuration has the point symmetry C_1 .


Analysis of symmetry for dynamics (positions and initial velocities):
=====================================================================
 Subroutine PRICEL returns:
 Original cell was already a primitive cell.
 

 Routine SETGRP: Setting up the symmetry group for a 
 hexagonal supercell.


 Subroutine GETGRP returns: Found  1 space group operations
 (whereof  1 operations were pure point group operations)
 out of a pool of 24 trial point group operations.


The dynamic configuration has the point symmetry C_1 .
 
 
 KPOINTS: Automatic mesh                          

Automatic generation of k-mesh.
Space group operators:
 irot       det(A)        alpha          n_x          n_y          n_z        tau_x        tau_y        tau_z
    1     1.000000     0.000000     1.000000     0.000000     0.000000     0.000000     0.000000     0.000000
 
 Subroutine IBZKPT returns following result:
 ===========================================
 
 Found      6 irreducible k-points:
 
 Following reciprocal coordinates:
            Coordinates               Weight
  0.250000  0.250000  0.000000     16.000000
  0.000000  0.250000  0.000000     16.000000
 -0.250000  0.000000  0.000000     16.000000
 -0.250000  0.250000  0.000000     16.000000
  0.500000 -0.250000  0.000000     16.000000
 -0.250000  0.500000  0.000000     16.000000
 
 Following cartesian coordinates:
            Coordinates               Weight
  0.022722  0.013119  0.000000     16.000000
  0.000000  0.026237  0.000000     16.000000
 -0.022722  0.013119  0.000000     16.000000
 -0.022722  0.039356  0.000000     16.000000
  0.045444 -0.052474  0.000000     16.000000
 -0.022722  0.065593  0.000000     16.000000
 


--------------------------------------------------------------------------------------------------------




 Dimension of arrays:
   k-points           NKPTS =      6   k-points in BZ     NKDIM =      6   number of bands    NBANDS=    306
   number of dos      NEDOS =    301   number of ions     NIONS =     48
   non local maximal  LDIM  =      6   non local SUM 2l+1 LMDIM =     18
   total plane-waves  NPLWV = 349920
   max r-space proj   IRMAX =   2009   max aug-charges    IRDMAX=   8532
   dimension x,y,z NGX =    54 NGY =   54 NGZ =  120
   dimension x,y,z NGXF=   108 NGYF=  108 NGZF=  240
   support grid    NGXF=   108 NGYF=  108 NGZF=  240
   ions per type =              24  24
 NGX,Y,Z   is equivalent  to a cutoff of   8.16,  8.16,  8.15 a.u.
 NGXF,Y,Z  is equivalent  to a cutoff of  16.32, 16.32, 16.29 a.u.


 I would recommend the setting:
   dimension x,y,z NGX =    54 NGY =   54 NGZ =  120
 SYSTEM =  unknown system                          
 POSCAR =  Au Pd                                   

 Startparameter for this run:
   NWRITE =      1    write-flag & timer
   PREC   = normal    normal or accurate (medium, high low for compatibility)
   ISTART =      0    job   : 0-new  1-cont  2-samecut
   ICHARG =      2    charge: 1-file 2-atom 10-const
   ISPIN  =      1    spin polarized calculation?
   LNONCOLLINEAR =      F non collinear calculations
   LSORBIT =      F    spin-orbit coupling
   INIWAV =      1    electr: 0-lowe 1-rand  2-diag
   LASPH  =      F    aspherical Exc in radial PAW
   METAGGA=      F    non-selfconsistent MetaGGA calc.

 Electronic Relaxation 1
   ENCUT  =  400.0 eV  29.40 Ry    5.42 a.u.  17.94 17.94 39.94*2*pi/ulx,y,z
   ENINI  =  400.0     initial cutoff
   ENAUG  =  416.2 eV  augmentation charge cutoff
   NELM   =    500;   NELMIN=  2; NELMDL= -5     # of ELM steps 
   EDIFF  = 0.1E-05   stopping-criterion for ELM
   LREAL  =      T    real-space projection
   NLSPLINE    = F    spline interpolate recip. space projectors
   LCOMPAT=      F    compatible to vasp.4.4
   GGA_COMPAT  = T    GGA compatible to vasp.4.4-vasp.4.6
   LMAXPAW     = -100 max onsite density
   LMAXMIX     =    2 max onsite mixed and CHGCAR
   VOSKOWN=      1    Vosko Wilk Nusair interpolation
   ROPT   =   -0.00050  -0.00050
 Ionic relaxation
   EDIFFG = -.2E-01   stopping-criterion for IOM
   NSW    =    500    number of steps for IOM
   NBLOCK =      1;   KBLOCK =    500    inner block; outer block 
   IBRION =      2    ionic relax: 0-MD 1-quasi-New 2-CG
   NFREE  =      2    steps in history (QN), initial steepest desc. (CG)
   ISIF   =      0    stress and relaxation
   IWAVPR =     11    prediction:  0-non 1-charg 2-wave 3-comb
   ISYM   =      2    0-nonsym 1-usesym 2-fastsym
   LCORR  =      T    Harris-Foulkes like correction to forces

   POTIM  = 0.3500    time-step for ionic-motion
   TEIN   =    0.0    initial temperature
   TEBEG  =    0.0;   TEEND  =   0.0 temperature during run
   SMASS  =  -3.00    Nose mass-parameter (am)
   estimated Nose-frequenzy (Omega)   =  0.10E-29 period in steps =****** mass=  -0.277E-26a.u.
   SCALEE = 1.0000    scale energy and forces
   NPACO  =    256;   APACO  = 16.0  distance and # of slots for P.C.
   PSTRESS=    0.0 pullay stress

  Mass of Ions in am
   POMASS = 196.97106.42
  Ionic Valenz
   ZVAL   =  11.00 10.00
  Atomic Wigner-Seitz radii
   RWIGS  =  -1.00 -1.00
  virtual crystal weights 
   VCA    =   1.00  1.00
   NELECT =     504.0000    total number of electrons
   NUPDOWN=      -1.0000    fix difference up-down

 DOS related values:
   EMIN   =  10.00;   EMAX   =-10.00  energy-range for DOS
   EFERMI =   0.00
   ISMEAR =     0;   SIGMA  =   0.10  broadening in eV -4-tet -1-fermi 0-gaus

 Electronic relaxation 2 (details)
   IALGO  =     68    algorithm
   LDIAG  =      T    sub-space diagonalisation (order eigenvalues)
   LSUBROT=      F    optimize rotation matrix (better conditioning)
   TURBO    =      0    0=normal 1=particle mesh
   IRESTART =      0    0=no restart 2=restart with 2 vectors
   NREBOOT  =      0    no. of reboots
   NMIN     =      0    reboot dimension
   EREF     =   0.00    reference energy to select bands
   IMIX   =      4    mixing-type and parameters
     AMIX     =   0.40;   BMIX     =  1.00
     AMIX_MAG =   1.60;   BMIX_MAG =  1.00
     AMIN     =   0.10
     WC   =   100.;   INIMIX=   1;  MIXPRE=   1;  MAXMIX= -45

 Intra band minimization:
   WEIMIN = 0.0010     energy-eigenvalue tresh-hold
   EBREAK =  0.82E-09  absolut break condition
   DEPER  =   0.30     relativ break condition  

   TIME   =   0.40     timestep for ELM

  volume/ion in A,a.u.               =      53.49       360.99
  Fermi-wavevector in a.u.,A,eV,Ry     =   0.951418  1.797920 12.315955  0.905197
  Thomas-Fermi vector in A             =   2.079887
 
 Write flags
   LWAVE  =      F    write WAVECAR
   LCHARG =      F    write CHGCAR
   LVTOT  =      F    write LOCPOT, total local potential
   LVHAR  =      F    write LOCPOT, Hartree potential only
   LELF   =      F    write electronic localiz. function (ELF)
   LORBIT =      0    0 simple, 1 ext, 2 COOP (PROOUT)


 Dipole corrections
   LMONO  =      F    monopole corrections only (constant potential shift)
   LDIPOL =      T    correct potential (dipole corrections)
   IDIPOL =      3    1-x, 2-y, 3-z, 4-all directions 
   EPSILON=  1.0000000 bulk dielectric constant

 Exchange correlation treatment:
   GGA     =    PE    GGA type
   LEXCH   =     8    internal setting for exchange type
   VOSKOWN=      1    Vosko Wilk Nusair interpolation
   LHFCALC =     F    Hartree Fock is set to
   LHFONE  =     F    Hartree Fock one center treatment
   AEXX    =    0.0000 exact exchange contribution

 Linear response parameters
   LEPSILON=     F    determine dielectric tensor
   LRPA    =     F    only Hartree local field effects (RPA)
   LNABLA  =     F    use nabla operator in PAW spheres
   LVEL    =     F    velocity operator in full k-point grid
   LINTERFAST=   F  fast interpolation
   KINTER  =     0    interpolate to denser k-point grid
   CSHIFT  =0.1000    complex shift for real part using Kramers Kronig
   OMEGAMAX=  -1.0    maximum frequency
   DEG_THRESHOLD= 0.2000000E-02 threshold for treating states as degnerate
   RTIME   =    0.100 relaxation time in fs

 Orbital magnetization related:
   ORBITALMAG=     F  switch on orbital magnetization
   LCHIMAG   =     F  perturbation theory with respect to B field
   DQ        =  0.001000  dq finite difference perturbation B field



--------------------------------------------------------------------------------------------------------


 conjugate gradient relaxation of ions
 charge density and potential will be updated during run
 non-spin polarized calculation
 RMM-DIIS sequential band-by-band and
  variant of blocked Davidson during initial phase
 perform sub-space diagonalisation
    before iterative eigenvector-optimisation
 modified Broyden-mixing scheme, WC =      100.0
 initial mixing is a Kerker type mixing with AMIX =  0.4000 and BMIX =      1.0000
 Hartree-type preconditioning will be used
 using additional bands           54
 real space projection scheme for non local part
 use partial core corrections
 calculate Harris-corrections to forces 
   (improved forces if not selfconsistent)
 use gradient corrections 
 use of overlap-Matrix (Vanderbilt PP)
 Gauss-broadening in eV      SIGMA  =   0.10


--------------------------------------------------------------------------------------------------------


  energy-cutoff  :      400.00
  volume of cell :     2567.68
      direct lattice vectors                 reciprocal lattice vectors
    11.002581515  0.000000000  0.000000000     0.090887761 -0.052474073  0.000000000
     5.501290758  9.528515099  0.000000000     0.000000000  0.104948147  0.000000000
     0.000000000  0.000000000 24.491785094     0.000000000  0.000000000  0.040830017

  length of vectors
    11.002581515 11.002581515 24.491785094     0.104948147  0.104948147  0.040830017


 
 k-points in units of 2pi/SCALE and weight: Automatic mesh                          
   0.02272194  0.01311852  0.00000000       0.167
   0.00000000  0.02623704  0.00000000       0.167
  -0.02272194  0.01311852  0.00000000       0.167
  -0.02272194  0.03935555  0.00000000       0.167
   0.04544388 -0.05247407  0.00000000       0.167
  -0.02272194  0.06559259  0.00000000       0.167
 
 k-points in reciprocal lattice and weights: Automatic mesh                          
   0.25000000  0.25000000  0.00000000       0.167
   0.00000000  0.25000000  0.00000000       0.167
  -0.25000000  0.00000000  0.00000000       0.167
  -0.25000000  0.25000000  0.00000000       0.167
   0.50000000 -0.25000000  0.00000000       0.167
  -0.25000000  0.50000000  0.00000000       0.167
 
 position of ions in fractional coordinates (direct lattice) 
   0.08333333  0.08333333  0.40830017
   0.25000000  0.50000000  0.59169983
   0.16666667  0.91666667  0.50000000
   0.41666667  0.16666667  0.50000000
   0.50000000  0.00000000  0.59169983
   0.58333333  0.33333333  0.40830017
   0.41666667  0.41666667  0.50000000
   0.16666667  0.66666667  0.50000000
   0.58333333  0.58333333  0.40830017
   0.41666667  0.91666667  0.50000000
   0.66666667  0.16666667  0.50000000
   0.66666667  0.41666667  0.50000000
   0.75000000  0.25000000  0.59169983
   0.83333333  0.58333333  0.40830017
   0.83333333  0.83333333  0.40830017
   0.41666667  0.66666667  0.50000000
   0.25000000  0.25000000  0.59169983
   0.25000000  0.75000000  0.59169983
   0.75000000  0.75000000  0.59169983
   0.00000000  0.00000000  0.59169983
   0.08333333  0.33333333  0.40830017
   0.91666667  0.41666667  0.50000000
   0.91666667  0.91666667  0.50000000
   0.00000000  0.50000000  0.59169983
   0.91666667  0.16666667  0.50000000
   0.75000000  0.50000000  0.59169983
   0.66666667  0.66666667  0.50000000
   0.83333333  0.33333333  0.40830017
   0.75000000  0.00000000  0.59169983
   0.00000000  0.25000000  0.59169983
   0.83333333  0.08333333  0.40830017
   0.50000000  0.75000000  0.59169983
   0.08333333  0.58333333  0.40830017
   0.33333333  0.58333333  0.40830017
   0.16666667  0.41666667  0.50000000
   0.91666667  0.66666667  0.50000000
   0.50000000  0.25000000  0.59169983
   0.08333333  0.83333333  0.40830017
   0.00000000  0.75000000  0.59169983
   0.33333333  0.08333333  0.40830017
   0.58333333  0.08333333  0.40830017
   0.66666667  0.91666667  0.50000000
   0.16666667  0.16666667  0.50000000
   0.33333333  0.83333333  0.40830017
   0.25000000  0.00000000  0.59169983
   0.33333333  0.33333333  0.40830017
   0.58333333  0.83333333  0.40830017
   0.50000000  0.50000000  0.59169983
 
 position of ions in cartesian coordinates  (Angst):
   1.37532269  0.79404292 10.00000000
   5.50129076  4.76425755 14.49178509
   6.87661345  8.73447217 12.24589255
   5.50129076  1.58808585 12.24589255
   5.50129076  0.00000000 14.49178509
   8.25193614  3.17617170 10.00000000
   6.87661345  3.97021462 12.24589255
   5.50129076  6.35234340 12.24589255
   9.62725883  5.55830047 10.00000000
   9.62725883  8.73447217 12.24589255
   8.25193614  1.58808585 12.24589255
   9.62725883  3.97021462 12.24589255
   9.62725883  2.38212877 14.49178509
  12.37790420  5.55830047 10.00000000
  13.75322689  7.94042925 10.00000000
   8.25193614  6.35234340 12.24589255
   4.12596807  2.38212877 14.49178509
   6.87661345  7.14638632 14.49178509
  12.37790420  7.14638632 14.49178509
   0.00000000  0.00000000 14.49178509
   2.75064538  3.17617170 10.00000000
  12.37790420  3.97021462 12.24589255
  15.12854958  8.73447217 12.24589255
   2.75064538  4.76425755 14.49178509
  11.00258152  1.58808585 12.24589255
  11.00258152  4.76425755 14.49178509
  11.00258152  6.35234340 12.24589255
  11.00258152  3.17617170 10.00000000
   8.25193614  0.00000000 14.49178509
   1.37532269  2.38212877 14.49178509
   9.62725883  0.79404292 10.00000000
   9.62725883  7.14638632 14.49178509
   4.12596807  5.55830047 10.00000000
   6.87661345  5.55830047 10.00000000
   4.12596807  3.97021462 12.24589255
  13.75322689  6.35234340 12.24589255
   6.87661345  2.38212877 14.49178509
   5.50129076  7.94042925 10.00000000
   4.12596807  7.14638632 14.49178509
   4.12596807  0.79404292 10.00000000
   6.87661345  0.79404292 10.00000000
  12.37790420  8.73447217 12.24589255
   2.75064538  1.58808585 12.24589255
   8.25193614  7.94042925 10.00000000
   2.75064538  0.00000000 14.49178509
   5.50129076  3.17617170 10.00000000
  11.00258152  7.94042925 10.00000000
   8.25193614  4.76425755 14.49178509
 


--------------------------------------------------------------------------------------------------------


 k-point  1 :   0.2500 0.2500 0.0000  plane waves:   46635
 k-point  2 :   0.0000 0.2500 0.0000  plane waves:   46635
 k-point  3 :  -0.2500 0.0000 0.0000  plane waves:   46635
 k-point  4 :  -0.2500 0.2500 0.0000  plane waves:   46644
 k-point  5 :   0.5000-0.2500 0.0000  plane waves:   46644
 k-point  6 :  -0.2500 0.5000 0.0000  plane waves:   46644

 maximum and minimum number of plane-waves per node :      7818     7732

 maximum number of plane-waves:     46644
 maximum index in each direction: 
   IXMAX=   18   IYMAX=   18   IZMAX=   39
   IXMIN=  -18   IYMIN=  -18   IZMIN=  -39

 WARNING: aliasing errors must be expected set NGX to  74 to avoid them
 WARNING: aliasing errors must be expected set NGY to  74 to avoid them
 WARNING: aliasing errors must be expected set NGZ to 158 to avoid them
 aliasing errors are usually negligible using standard VASP settings
 and one can safely disregard these warnings

 real space projection operators:
  total allocation   :      12803.06 KBytes
  max/ min on nodes  :       2145.66       2127.94


 parallel 3D FFT for wavefunctions:
    minimum data exchange during FFTs selected (reduces bandwidth)
 parallel 3D FFT for charge:
    minimum data exchange during FFTs selected (reduces bandwidth)


 total amount of memory used by VASP on root node    84353. kBytes
========================================================================

   base      :      30000. kBytes
   nonlr-proj:       4285. kBytes
   fftplans  :       4447. kBytes
   grid      :       6721. kBytes
   one-center:        124. kBytes
   wavefun   :      38776. kBytes
 
     INWAV:  cpu time    0.0000: real time    0.0000
 Broyden mixing: mesh for mixing (old mesh)
   NGX = 35   NGY = 35   NGZ = 79
  (NGX  =108   NGY  =108   NGZ  =240)
  gives a total of  96775 points

 initial charge density was supplied:
 charge density of overlapping atoms calculated
 number of electron     504.0000000 magnetization 
 keeping initial charge density in first step


--------------------------------------------------------------------------------------------------------


 Maximum index for non-local projection operator          355
 Maximum index for augmentation-charges          437 (set IRDMAX)


--------------------------------------------------------------------------------------------------------


 First call to EWALD:  gamma=   0.129
 Maximum number of real-space cells 4x 4x 2
 Maximum number of reciprocal cells 2x 2x 5

 FEWALD executed in parallel
    FEWALD:  cpu time    0.0026: real time    0.0030


----------------------------------------- Iteration    1(   1)  ---------------------------------------


    POTLOK:  cpu time    0.0544: real time    0.0546
    SETDIJ:  cpu time    0.0065: real time    0.0066
     EDDAV:  cpu time    9.1908: real time    9.1969
       DOS:  cpu time    0.0015: real time    0.0015
    --------------------------------------------
      LOOP:  cpu time    9.2574: real time    9.2659

 eigenvalue-minimisations  :  3672
 total energy-change (2. order) : 0.3202007E+04  (-0.1897852E+05)
 number of electron     504.0000000 magnetization 
 augmentation part      504.0000000 magnetization 

 DIPCOR: dipole corrections for dipol
 direction  3 min pos     1,
 dipolmoment           0.000000      0.000000     -0.000001 electrons x Angstroem
 Tr[quadrupol]    -10281.525469

 energy correction for charged system         0.000000 eV
 dipol+quadrupol energy correction           -0.000000 eV
 added-field ion interaction          0.000000 eV  (added to PSCEN)


 Free energy of the ion-electron system (eV)
  ---------------------------------------------------
  alpha Z        PSCENC =       805.86936475
  Ewald energy   TEWEN  =    200625.98386627
  -Hartree energ DENC   =   -243041.59287741
  -exchange      EXHF   =         0.00000000
  -V(xc)+E(xc)   XCENC  =      -327.50306209
  PAW double counting   =     40340.05962942   -38292.62782345
  entropy T*S    EENTRO =        -0.12446455
  eigenvalues    EBANDS =      1432.15697929
  atomic energy  EATOM  =     41659.78587232
  Solvation  Ediel_sol  =         0.00000000
  ---------------------------------------------------
  free energy    TOTEN  =      3202.00748455 eV

  energy without entropy =     3202.13194911  energy(sigma->0) =     3202.06971683


--------------------------------------------------------------------------------------------------------




----------------------------------------- Iteration    1(   2)  ---------------------------------------


     EDDAV:  cpu time   10.9434: real time   10.9535
       DOS:  cpu time    0.0014: real time    0.0014
    --------------------------------------------
      LOOP:  cpu time   10.9456: real time   10.9570

 eigenvalue-minimisations  :  4404
 total energy-change (2. order) :-0.3187817E+04  (-0.2930368E+04)
 number of electron     504.0000000 magnetization 
 augmentation part      504.0000000 magnetization 

 DIPCOR: dipole corrections for dipol
 direction  3 min pos     1,
 dipolmoment           0.000000      0.000000     -0.000001 electrons x Angstroem
 Tr[quadrupol]    -10281.525469

 energy correction for charged system         0.000000 eV
 dipol+quadrupol energy correction           -0.000000 eV
 added-field ion interaction          0.000000 eV  (added to PSCEN)


 Free energy of the ion-electron system (eV)
  ---------------------------------------------------
  alpha Z        PSCENC =       805.86936475
  Ewald energy   TEWEN  =    200625.98386627
  -Hartree energ DENC   =   -243041.59287741
  -exchange      EXHF   =         0.00000000
  -V(xc)+E(xc)   XCENC  =      -327.50306209
  PAW double counting   =     40340.05962942   -38292.62782345
  entropy T*S    EENTRO =        -0.12509309
  eigenvalues    EBANDS =     -1755.65894303
  atomic energy  EATOM  =     41659.78587232
  Solvation  Ediel_sol  =         0.00000000
  ---------------------------------------------------
  free energy    TOTEN  =        14.19093370 eV

  energy without entropy =       14.31602678  energy(sigma->0) =       14.25348024


--------------------------------------------------------------------------------------------------------




----------------------------------------- Iteration    1(   3)  ---------------------------------------


     EDDAV:  cpu time   11.2803: real time   11.3151
       DOS:  cpu time    0.0016: real time    0.0016
    --------------------------------------------
      LOOP:  cpu time   11.2828: real time   11.3206

 eigenvalue-minimisations  :  4128
 total energy-change (2. order) :-0.2135074E+03  (-0.1988714E+03)
 number of electron     504.0000000 magnetization 
 augmentation part      504.0000000 magnetization 

 DIPCOR: dipole corrections for dipol
 direction  3 min pos     1,
 dipolmoment           0.000000      0.000000     -0.000001 electrons x Angstroem
 Tr[quadrupol]    -10281.525469

 energy correction for charged system         0.000000 eV
 dipol+quadrupol energy correction           -0.000000 eV
 added-field ion interaction          0.000000 eV  (added to PSCEN)


 Free energy of the ion-electron system (eV)
  ---------------------------------------------------
  alpha Z        PSCENC =       805.86936475
  Ewald energy   TEWEN  =    200625.98386627
  -Hartree energ DENC   =   -243041.59287741
  -exchange      EXHF   =         0.00000000
  -V(xc)+E(xc)   XCENC  =      -327.50306209
  PAW double counting   =     40340.05962942   -38292.62782345
  entropy T*S    EENTRO =        -0.21595885
  eigenvalues    EBANDS =     -1969.07549709
  atomic energy  EATOM  =     41659.78587232
  Solvation  Ediel_sol  =         0.00000000
  ---------------------------------------------------
  free energy    TOTEN  =      -199.31648613 eV

  energy without entropy =     -199.10052728  energy(sigma->0) =     -199.20850670


--------------------------------------------------------------------------------------------------------




----------------------------------------- Iteration    1(   4)  ---------------------------------------


     EDDAV:  cpu time   10.7757: real time   10.8715
       DOS:  cpu time    0.0016: real time    0.0016
    --------------------------------------------
      LOOP:  cpu time   10.7784: real time   10.8763

 eigenvalue-minimisations  :  4248
 total energy-change (2. order) :-0.5685395E+01  (-0.5619169E+01)
 number of electron     504.0000000 magnetization 
 augmentation part      504.0000000 magnetization 

 DIPCOR: dipole corrections for dipol
 direction  3 min pos     1,
 dipolmoment           0.000000      0.000000     -0.000001 electrons x Angstroem
 Tr[quadrupol]    -10281.525469

 energy correction for charged system         0.000000 eV
 dipol+quadrupol energy correction           -0.000000 eV
 added-field ion interaction          0.000000 eV  (added to PSCEN)


 Free energy of the ion-electron system (eV)
  ---------------------------------------------------
  alpha Z        PSCENC =       805.86936475
  Ewald energy   TEWEN  =    200625.98386627
  -Hartree energ DENC   =   -243041.59287741
  -exchange      EXHF   =         0.00000000
  -V(xc)+E(xc)   XCENC  =      -327.50306209
  PAW double counting   =     40340.05962942   -38292.62782345
  entropy T*S    EENTRO =        -0.22938964
  eigenvalues    EBANDS =     -1974.74746093
  atomic energy  EATOM  =     41659.78587232
  Solvation  Ediel_sol  =         0.00000000
  ---------------------------------------------------
  free energy    TOTEN  =      -205.00188076 eV

  energy without entropy =     -204.77249112  energy(sigma->0) =     -204.88718594


--------------------------------------------------------------------------------------------------------




----------------------------------------- Iteration    1(   5)  ---------------------------------------


     EDDAV:  cpu time   11.0921: real time   11.1011
       DOS:  cpu time    0.0016: real time    0.0016
    CHARGE:  cpu time    0.3073: real time    0.3073
    MIXING:  cpu time    0.0023: real time    0.0024
    --------------------------------------------
      LOOP:  cpu time   11.4040: real time   11.4147

 eigenvalue-minimisations  :  4392
 total energy-change (2. order) :-0.1818449E+00  (-0.1811754E+00)
 number of electron     503.9998408 magnetization 
 augmentation part      191.3499150 magnetization 

 DIPCOR: dipole corrections for dipol
 direction  3 min pos     1,
 dipolmoment           0.000000      0.000000     -0.000001 electrons x Angstroem
 Tr[quadrupol]    -10281.525469

 energy correction for charged system         0.000000 eV
 dipol+quadrupol energy correction           -0.000000 eV
 added-field ion interaction          0.000000 eV  (added to PSCEN)


 Broyden mixing:
  rms(total) = 0.62564E+01    rms(broyden)= 0.62563E+01
  rms(prec ) = 0.63585E+01
  weight for this iteration     100.00

 Free energy of the ion-electron system (eV)
  ---------------------------------------------------
  alpha Z        PSCENC =       805.86936475
  Ewald energy   TEWEN  =    200625.98386627
  -Hartree energ DENC   =   -243041.59287741
  -exchange      EXHF   =         0.00000000
  -V(xc)+E(xc)   XCENC  =      -327.50306209
  PAW double counting   =     40340.05962942   -38292.62782345
  entropy T*S    EENTRO =        -0.22988207
  eigenvalues    EBANDS =     -1974.92881340
  atomic energy  EATOM  =     41659.78587232
  Solvation  Ediel_sol  =         0.00000000
  ---------------------------------------------------
  free energy    TOTEN  =      -205.18372566 eV

  energy without entropy =     -204.95384358  energy(sigma->0) =     -205.06878462


--------------------------------------------------------------------------------------------------------




----------------------------------------- Iteration    1(   6)  ---------------------------------------


    POTLOK:  cpu time    0.0503: real time    0.0505
    SETDIJ:  cpu time    0.0063: real time    0.0065
    EDDIAG:  cpu time    1.6515: real time    1.6529
  RMM-DIIS:  cpu time    4.3288: real time    4.3345
    ORTHCH:  cpu time    0.4069: real time    0.4070
       DOS:  cpu time    0.0016: real time    0.0016
    CHARGE:  cpu time    0.3068: real time    0.3069
    MIXING:  cpu time    0.0020: real time    0.0020
    --------------------------------------------
      LOOP:  cpu time    6.7550: real time    6.7654

 eigenvalue-minimisations  :  3679
 total energy-change (2. order) : 0.7165170E+01  (-0.8589816E+01)
 number of electron     503.9998421 magnetization 
 augmentation part      192.5782828 magnetization 

 DIPCOR: dipole corrections for dipol
 direction  3 min pos     1,
 dipolmoment           0.000000      0.000000     -0.679438 electrons x Angstroem
 Tr[quadrupol]    -10281.553419

 energy correction for charged system         0.000000 eV
 dipol+quadrupol energy correction           -0.016267 eV
 added-field ion interaction          0.215081 eV  (added to PSCEN)


 Broyden mixing:
  rms(total) = 0.52383E+01    rms(broyden)= 0.52382E+01
  rms(prec ) = 0.54497E+01
  weight for this iteration     100.00

 eigenvalues of (default mixing * dielectric matrix)
  average eigenvalue GAMMA=   0.8776
  0.8776

 Free energy of the ion-electron system (eV)
  ---------------------------------------------------
  alpha Z        PSCENC =       806.06817828
  Ewald energy   TEWEN  =    200625.98386627
  -Hartree energ DENC   =   -242748.04428356
  -exchange      EXHF   =         0.00000000
  -V(xc)+E(xc)   XCENC  =      -339.77216226
  PAW double counting   =     43939.76076738   -41951.32410730
  entropy T*S    EENTRO =        -0.23627345
  eigenvalues    EBANDS =     -2190.24041334
  atomic energy  EATOM  =     41659.78587232
  Solvation  Ediel_sol  =         0.00000000
  ---------------------------------------------------
  free energy    TOTEN  =      -198.01855565 eV

  energy without entropy =     -197.78228221  energy(sigma->0) =     -197.90041893


--------------------------------------------------------------------------------------------------------




----------------------------------------- Iteration    1(   7)  ---------------------------------------


    POTLOK:  cpu time    0.0493: real time    0.0494
    SETDIJ:  cpu time    0.0059: real time    0.0059
    EDDIAG:  cpu time    1.6463: real time    1.6485
  RMM-DIIS:  cpu time    4.3484: real time    4.3531
    ORTHCH:  cpu time    0.4053: real time    0.4057
       DOS:  cpu time    0.0015: real time    0.0015
    CHARGE:  cpu time    0.3039: real time    0.3040
    MIXING:  cpu time    0.0021: real time    0.0021
    --------------------------------------------
      LOOP:  cpu time    6.7635: real time    6.7724

 eigenvalue-minimisations  :  3683
 total energy-change (2. order) :-0.2343093E+02  (-0.6133331E+01)
 number of electron     503.9998382 magnetization 
 augmentation part      194.1640514 magnetization 

 DIPCOR: dipole corrections for dipol
 direction  3 min pos     1,
 dipolmoment           0.000000      0.000000      1.752198 electrons x Angstroem
 Tr[quadrupol]    -10281.945974

 energy correction for charged system         0.000000 eV
 dipol+quadrupol energy correction           -0.108186 eV
 added-field ion interaction         -0.554671 eV  (added to PSCEN)


 Broyden mixing:
  rms(total) = 0.49496E+01    rms(broyden)= 0.49492E+01
  rms(prec ) = 0.60524E+01
  weight for this iteration     100.00

 eigenvalues of (default mixing * dielectric matrix)
  average eigenvalue GAMMA=   0.9192
  1.4941  0.3444

 Free energy of the ion-electron system (eV)
  ---------------------------------------------------
  alpha Z        PSCENC =       805.20650805
  Ewald energy   TEWEN  =    200625.98386627
  -Hartree energ DENC   =   -242655.42847561
  -exchange      EXHF   =         0.00000000
  -V(xc)+E(xc)   XCENC  =      -342.39958417
  PAW double counting   =     45622.24576349   -43661.58485793
  entropy T*S    EENTRO =        -0.25057610
  eigenvalues    EBANDS =     -2275.00800482
  atomic energy  EATOM  =     41659.78587232
  Solvation  Ediel_sol  =         0.00000000
  ---------------------------------------------------
  free energy    TOTEN  =      -221.44948850 eV

  energy without entropy =     -221.19891240  energy(sigma->0) =     -221.32420045


--------------------------------------------------------------------------------------------------------




----------------------------------------- Iteration    1(   8)  ---------------------------------------


    POTLOK:  cpu time    0.0501: real time    0.0503
    SETDIJ:  cpu time    0.0058: real time    0.0061
    EDDIAG:  cpu time    1.6401: real time    1.6426
  RMM-DIIS:  cpu time    4.3990: real time    4.4054
    ORTHCH:  cpu time    0.4050: real time    0.4052
       DOS:  cpu time    0.0016: real time    0.0016
    CHARGE:  cpu time    0.3124: real time    0.3124
    MIXING:  cpu time    0.0020: real time    0.0020
    --------------------------------------------
      LOOP:  cpu time    6.8168: real time    6.8287

 eigenvalue-minimisations  :  3679
 total energy-change (2. order) : 0.1995752E+01  (-0.8937829E+01)
 number of electron     503.9998344 magnetization 
 augmentation part      197.2898331 magnetization 

 DIPCOR: dipole corrections for dipol
 direction  3 min pos     1,
 dipolmoment           0.000000      0.000000     -1.737114 electrons x Angstroem
 Tr[quadrupol]    -10283.058892

 energy correction for charged system         0.000000 eV
 dipol+quadrupol energy correction           -0.106331 eV
 added-field ion interaction          0.549896 eV  (added to PSCEN)


 Broyden mixing:
  rms(total) = 0.44137E+01    rms(broyden)= 0.44133E+01
  rms(prec ) = 0.53285E+01
  weight for this iteration     100.00

 eigenvalues of (default mixing * dielectric matrix)
  average eigenvalue GAMMA=   0.9230
  2.0835  0.4604  0.2252

 Free energy of the ion-electron system (eV)
  ---------------------------------------------------
  alpha Z        PSCENC =       806.31292890
  Ewald energy   TEWEN  =    200625.98386627
  -Hartree energ DENC   =   -242608.63170721
  -exchange      EXHF   =         0.00000000
  -V(xc)+E(xc)   XCENC  =      -344.85435812
  PAW double counting   =     47155.41789641   -45221.12195412
  entropy T*S    EENTRO =        -0.19968470
  eigenvalues    EBANDS =     -2292.14659595
  atomic energy  EATOM  =     41659.78587232
  Solvation  Ediel_sol  =         0.00000000
  ---------------------------------------------------
  free energy    TOTEN  =      -219.45373620 eV

  energy without entropy =     -219.25405150  energy(sigma->0) =     -219.35389385


--------------------------------------------------------------------------------------------------------




----------------------------------------- Iteration    1(   9)  ---------------------------------------


    POTLOK:  cpu time    0.0487: real time    0.0489
    SETDIJ:  cpu time    0.0061: real time    0.0061
    EDDIAG:  cpu time    1.6370: real time    1.6383
  RMM-DIIS:  cpu time    4.2271: real time    4.3420
    ORTHCH:  cpu time    0.4071: real time    0.4074
       DOS:  cpu time    0.0016: real time    0.0016
    CHARGE:  cpu time    0.3120: real time    0.3120
    MIXING:  cpu time    0.0023: real time    0.0023
    --------------------------------------------
      LOOP:  cpu time    6.6427: real time    6.7608

 eigenvalue-minimisations  :  3680
 total energy-change (2. order) : 0.7651113E+01  (-0.6312921E+01)
 number of electron     503.9998334 magnetization 
 augmentation part      198.8959738 magnetization 

 DIPCOR: dipole corrections for dipol
 direction  3 min pos     1,
 dipolmoment           0.000000      0.000000     -0.043190 electrons x Angstroem
 Tr[quadrupol]    -10283.539324

 energy correction for charged system         0.000000 eV
 dipol+quadrupol energy correction           -0.000066 eV
 added-field ion interaction          0.013672 eV  (added to PSCEN)


 Broyden mixing:
  rms(total) = 0.38633E+01    rms(broyden)= 0.38631E+01
  rms(prec ) = 0.41505E+01
  weight for this iteration     100.00

 eigenvalues of (default mixing * dielectric matrix)
  average eigenvalue GAMMA=   0.8126
  2.2644  0.4651  0.2605  0.2605

 Free energy of the ion-electron system (eV)
  ---------------------------------------------------
  alpha Z        PSCENC =       805.88297073
  Ewald energy   TEWEN  =    200625.98386627
  -Hartree energ DENC   =   -242591.21763120
  -exchange      EXHF   =         0.00000000
  -V(xc)+E(xc)   XCENC  =      -346.36683339
  PAW double counting   =     48603.74152077   -46690.99937498
  entropy T*S    EENTRO =        -0.21039826
  eigenvalues    EBANDS =     -2278.40261522
  atomic energy  EATOM  =     41659.78587232
  Solvation  Ediel_sol  =         0.00000000
  ---------------------------------------------------
  free energy    TOTEN  =      -211.80262296 eV

  energy without entropy =     -211.59222470  energy(sigma->0) =     -211.69742383


--------------------------------------------------------------------------------------------------------




----------------------------------------- Iteration    1(  10)  ---------------------------------------


    POTLOK:  cpu time    0.0498: real time    0.0500
    SETDIJ:  cpu time    0.0061: real time    0.0061
    EDDIAG:  cpu time    1.6533: real time    1.6555
  RMM-DIIS:  cpu time    4.8632: real time    4.9011
    ORTHCH:  cpu time    0.3976: real time    0.3979
       DOS:  cpu time    0.0017: real time    0.0017
    CHARGE:  cpu time    0.3137: real time    0.3137
    MIXING:  cpu time    0.0025: real time    0.0025
    --------------------------------------------
      LOOP:  cpu time    7.2887: real time    7.3329

 eigenvalue-minimisations  :  3680
 total energy-change (2. order) : 0.1408064E+02  (-0.1211631E+01)
 number of electron     503.9998339 magnetization 
 augmentation part      199.4821426 magnetization 

 DIPCOR: dipole corrections for dipol
 direction  3 min pos     1,
 dipolmoment           0.000000      0.000000     -0.307394 electrons x Angstroem
 Tr[quadrupol]    -10282.749185

 energy correction for charged system         0.000000 eV
 dipol+quadrupol energy correction           -0.003330 eV
 added-field ion interaction          0.097308 eV  (added to PSCEN)


 Broyden mixing:
  rms(total) = 0.20575E+01    rms(broyden)= 0.20573E+01
  rms(prec ) = 0.23286E+01
  weight for this iteration     100.00

 eigenvalues of (default mixing * dielectric matrix)
  average eigenvalue GAMMA=   0.7750
  2.3099  0.4506  0.4506  0.4284  0.2353

 Free energy of the ion-electron system (eV)
  ---------------------------------------------------
  alpha Z        PSCENC =       805.96334253
  Ewald energy   TEWEN  =    200625.98386627
  -Hartree energ DENC   =   -242574.92768532
  -exchange      EXHF   =         0.00000000
  -V(xc)+E(xc)   XCENC  =      -346.19412740
  PAW double counting   =     49153.87964950   -47246.64475729
  entropy T*S    EENTRO =        -0.15912946
  eigenvalues    EBANDS =     -2275.40901140
  atomic energy  EATOM  =     41659.78587232
  Solvation  Ediel_sol  =         0.00000000
  ---------------------------------------------------
  free energy    TOTEN  =      -197.72198025 eV

  energy without entropy =     -197.56285079  energy(sigma->0) =     -197.64241552


--------------------------------------------------------------------------------------------------------




----------------------------------------- Iteration    1(  11)  ---------------------------------------


    POTLOK:  cpu time    0.0503: real time    0.0505
    SETDIJ:  cpu time    0.0068: real time    0.0069
    EDDIAG:  cpu time    1.6310: real time    1.6318
  RMM-DIIS:  cpu time    4.3318: real time    4.3345
    ORTHCH:  cpu time    0.3903: real time    0.3904
       DOS:  cpu time    0.0017: real time    0.0017
    CHARGE:  cpu time    0.2980: real time    0.2984
    MIXING:  cpu time    0.0025: real time    0.0025
    --------------------------------------------
      LOOP:  cpu time    6.7133: real time    6.7203

 eigenvalue-minimisations  :  3679
 total energy-change (2. order) : 0.4008144E+01  (-0.1212256E+01)
 number of electron     503.9998340 magnetization 
 augmentation part      198.5299592 magnetization 

 DIPCOR: dipole corrections for dipol
 direction  3 min pos     1,
 dipolmoment           0.000000      0.000000     -0.040102 electrons x Angstroem
 Tr[quadrupol]    -10283.870984

 energy correction for charged system         0.000000 eV
 dipol+quadrupol energy correction           -0.000057 eV
 added-field ion interaction          0.012695 eV  (added to PSCEN)


 Broyden mixing:
  rms(total) = 0.18924E+01    rms(broyden)= 0.18922E+01
  rms(prec ) = 0.21760E+01
  weight for this iteration     100.00

 eigenvalues of (default mixing * dielectric matrix)
  average eigenvalue GAMMA=   0.7213
  2.2666  0.5473  0.5473  0.4874  0.2339  0.2451

 Free energy of the ion-electron system (eV)
  ---------------------------------------------------
  alpha Z        PSCENC =       805.88200234
  Ewald energy   TEWEN  =    200625.98386627
  -Hartree energ DENC   =   -242642.24260331
  -exchange      EXHF   =         0.00000000
  -V(xc)+E(xc)   XCENC  =      -345.59583472
  PAW double counting   =     49316.70186633   -47407.44391643
  entropy T*S    EENTRO =        -0.18861070
  eigenvalues    EBANDS =     -2206.59647807
  atomic energy  EATOM  =     41659.78587232
  Solvation  Ediel_sol  =         0.00000000
  ---------------------------------------------------
  free energy    TOTEN  =      -193.71383597 eV

  energy without entropy =     -193.52522528  energy(sigma->0) =     -193.61953063


--------------------------------------------------------------------------------------------------------




----------------------------------------- Iteration    1(  12)  ---------------------------------------


    POTLOK:  cpu time    0.0493: real time    0.0495
    SETDIJ:  cpu time    0.0060: real time    0.0060
    EDDIAG:  cpu time    1.6221: real time    1.6233
  RMM-DIIS:  cpu time    4.3063: real time    4.3086
    ORTHCH:  cpu time    0.3910: real time    0.3912
       DOS:  cpu time    0.0017: real time    0.0017
    CHARGE:  cpu time    0.3085: real time    0.3085
    MIXING:  cpu time    0.0028: real time    0.0028
    --------------------------------------------
      LOOP:  cpu time    6.6886: real time    6.6940

 eigenvalue-minimisations  :  3682
 total energy-change (2. order) : 0.4120455E+01  (-0.7103508E+00)
 number of electron     503.9998356 magnetization 
 augmentation part      197.9880117 magnetization 

 DIPCOR: dipole corrections for dipol
 direction  3 min pos     1,
 dipolmoment           0.000000      0.000000     -0.119565 electrons x Angstroem
 Tr[quadrupol]    -10283.459349

 energy correction for charged system         0.000000 eV
 dipol+quadrupol energy correction           -0.000504 eV
 added-field ion interaction          0.037849 eV  (added to PSCEN)


 Broyden mixing:
  rms(total) = 0.10128E+01    rms(broyden)= 0.10126E+01
  rms(prec ) = 0.11257E+01
  weight for this iteration     100.00

 eigenvalues of (default mixing * dielectric matrix)
  average eigenvalue GAMMA=   0.6710
  2.2802  0.5879  0.5261  0.5261  0.2820  0.2820  0.2132

 Free energy of the ion-electron system (eV)
  ---------------------------------------------------
  alpha Z        PSCENC =       805.90670962
  Ewald energy   TEWEN  =    200625.98386627
  -Hartree energ DENC   =   -242659.08127682
  -exchange      EXHF   =         0.00000000
  -V(xc)+E(xc)   XCENC  =      -344.65366323
  PAW double counting   =     49335.55282185   -47422.53706691
  entropy T*S    EENTRO =        -0.20040649
  eigenvalues    EBANDS =     -2190.35023725
  atomic energy  EATOM  =     41659.78587232
  Solvation  Ediel_sol  =         0.00000000
  ---------------------------------------------------
  free energy    TOTEN  =      -189.59338065 eV

  energy without entropy =     -189.39297416  energy(sigma->0) =     -189.49317740


--------------------------------------------------------------------------------------------------------




----------------------------------------- Iteration    1(  13)  ---------------------------------------


    POTLOK:  cpu time    0.0494: real time    0.0494
    SETDIJ:  cpu time    0.0060: real time    0.0060
    EDDIAG:  cpu time    1.6217: real time    1.6230
  RMM-DIIS:  cpu time    4.4055: real time    4.4074
    ORTHCH:  cpu time    0.3909: real time    0.3909
       DOS:  cpu time    0.0016: real time    0.0016
    CHARGE:  cpu time    0.3009: real time    0.3011
    MIXING:  cpu time    0.0029: real time    0.0029
    --------------------------------------------
      LOOP:  cpu time    6.7800: real time    6.7846

 eigenvalue-minimisations  :  3683
 total energy-change (2. order) : 0.8967012E+00  (-0.1611069E+00)
 number of electron     503.9998359 magnetization 
 augmentation part      197.8525885 magnetization 

 DIPCOR: dipole corrections for dipol
 direction  3 min pos     1,
 dipolmoment           0.000000      0.000000     -0.104936 electrons x Angstroem
 Tr[quadrupol]    -10283.791495

 energy correction for charged system         0.000000 eV
 dipol+quadrupol energy correction           -0.000388 eV
 added-field ion interaction          0.033218 eV  (added to PSCEN)


 Broyden mixing:
  rms(total) = 0.59071E+00    rms(broyden)= 0.59053E+00
  rms(prec ) = 0.62622E+00
  weight for this iteration     100.00

 eigenvalues of (default mixing * dielectric matrix)
  average eigenvalue GAMMA=   0.6821
  2.2678  0.6884  0.6884  0.7147  0.3380  0.2683  0.2683  0.2233

 Free energy of the ion-electron system (eV)
  ---------------------------------------------------
  alpha Z        PSCENC =       805.90219437
  Ewald energy   TEWEN  =    200625.98386627
  -Hartree energ DENC   =   -242675.59378055
  -exchange      EXHF   =         0.00000000
  -V(xc)+E(xc)   XCENC  =      -344.47767998
  PAW double counting   =     49366.69950466   -47452.80248664
  entropy T*S    EENTRO =        -0.22693368
  eigenvalues    EBANDS =     -2173.96723617
  atomic energy  EATOM  =     41659.78587232
  Solvation  Ediel_sol  =         0.00000000
  ---------------------------------------------------
  free energy    TOTEN  =      -188.69667940 eV

  energy without entropy =     -188.46974572  energy(sigma->0) =     -188.58321256


--------------------------------------------------------------------------------------------------------




----------------------------------------- Iteration    1(  14)  ---------------------------------------


    POTLOK:  cpu time    0.0491: real time    0.0491
    SETDIJ:  cpu time    0.0060: real time    0.0060
    EDDIAG:  cpu time    1.6374: real time    1.6379
  RMM-DIIS:  cpu time    4.3844: real time    4.3867
    ORTHCH:  cpu time    0.3906: real time    0.3912
       DOS:  cpu time    0.0017: real time    0.0017
    CHARGE:  cpu time    0.3014: real time    0.3014
    MIXING:  cpu time    0.0028: real time    0.0028
    --------------------------------------------
      LOOP:  cpu time    6.7742: real time    6.7790

 eigenvalue-minimisations  :  3680
 total energy-change (2. order) :-0.1565246E+00  (-0.8175294E-01)
 number of electron     503.9998362 magnetization 
 augmentation part      197.4881729 magnetization 

 DIPCOR: dipole corrections for dipol
 direction  3 min pos     1,
 dipolmoment           0.000000      0.000000     -0.100694 electrons x Angstroem
 Tr[quadrupol]    -10284.244251

 energy correction for charged system         0.000000 eV
 dipol+quadrupol energy correction           -0.000357 eV
 added-field ion interaction          0.031875 eV  (added to PSCEN)


 Broyden mixing:
  rms(total) = 0.61265E+00    rms(broyden)= 0.61257E+00
  rms(prec ) = 0.68274E+00
  weight for this iteration     100.00

 eigenvalues of (default mixing * dielectric matrix)
  average eigenvalue GAMMA=   0.6709
  2.2500  0.7947  0.7947  0.7965  0.3477  0.3477  0.2473  0.2473  0.2121

 Free energy of the ion-electron system (eV)
  ---------------------------------------------------
  alpha Z        PSCENC =       805.90088245
  Ewald energy   TEWEN  =    200625.98386627
  -Hartree energ DENC   =   -242702.57514818
  -exchange      EXHF   =         0.00000000
  -V(xc)+E(xc)   XCENC  =      -344.12433186
  PAW double counting   =     49384.91673229   -47468.80400788
  entropy T*S    EENTRO =        -0.21787692
  eigenvalues    EBANDS =     -2149.71919245
  atomic energy  EATOM  =     41659.78587232
  Solvation  Ediel_sol  =         0.00000000
  ---------------------------------------------------
  free energy    TOTEN  =      -188.85320396 eV

  energy without entropy =     -188.63532704  energy(sigma->0) =     -188.74426550


--------------------------------------------------------------------------------------------------------




----------------------------------------- Iteration    1(  15)  ---------------------------------------


    POTLOK:  cpu time    0.0490: real time    0.0490
    SETDIJ:  cpu time    0.0060: real time    0.0060
    EDDIAG:  cpu time    1.6172: real time    1.6391
  RMM-DIIS:  cpu time    4.3213: real time    4.4114
    ORTHCH:  cpu time    0.3907: real time    0.3910
       DOS:  cpu time    0.0016: real time    0.0016
    CHARGE:  cpu time    0.2987: real time    0.2987
    MIXING:  cpu time    0.0031: real time    0.0031
    --------------------------------------------
      LOOP:  cpu time    6.6884: real time    6.8041

 eigenvalue-minimisations  :  3679
 total energy-change (2. order) : 0.1801264E+00  (-0.2691149E-01)
 number of electron     503.9998363 magnetization 
 augmentation part      197.3781783 magnetization 

 DIPCOR: dipole corrections for dipol
 direction  3 min pos     1,
 dipolmoment           0.000000      0.000000     -0.099931 electrons x Angstroem
 Tr[quadrupol]    -10284.439523

 energy correction for charged system         0.000000 eV
 dipol+quadrupol energy correction           -0.000352 eV
 added-field ion interaction          0.031634 eV  (added to PSCEN)


 Broyden mixing:
  rms(total) = 0.47298E+00    rms(broyden)= 0.47293E+00
  rms(prec ) = 0.53516E+00
  weight for this iteration     100.00

 eigenvalues of (default mixing * dielectric matrix)
  average eigenvalue GAMMA=   0.7364
  2.2696  1.1803  1.1803  0.7396  0.4933  0.4933  0.2735  0.2735  0.2471  0.2137

 Free energy of the ion-electron system (eV)
  ---------------------------------------------------
  alpha Z        PSCENC =       805.90064622
  Ewald energy   TEWEN  =    200625.98386627
  -Hartree energ DENC   =   -242715.25000080
  -exchange      EXHF   =         0.00000000
  -V(xc)+E(xc)   XCENC  =      -343.90022712
  PAW double counting   =     49388.49801751   -47470.96659581
  entropy T*S    EENTRO =        -0.22779222
  eigenvalues    EBANDS =     -2138.49686394
  atomic energy  EATOM  =     41659.78587232
  Solvation  Ediel_sol  =         0.00000000
  ---------------------------------------------------
  free energy    TOTEN  =      -188.67307757 eV

  energy without entropy =     -188.44528534  energy(sigma->0) =     -188.55918146


--------------------------------------------------------------------------------------------------------




----------------------------------------- Iteration    1(  16)  ---------------------------------------


    POTLOK:  cpu time    0.0492: real time    0.0492
    SETDIJ:  cpu time    0.0060: real time    0.0060
    EDDIAG:  cpu time    1.6211: real time    1.6217
  RMM-DIIS:  cpu time    4.3973: real time    4.3996
    ORTHCH:  cpu time    0.3951: real time    0.3954
       DOS:  cpu time    0.0017: real time    0.0017
    CHARGE:  cpu time    0.3079: real time    0.3079
    MIXING:  cpu time    0.0034: real time    0.0034
    --------------------------------------------
      LOOP:  cpu time    6.7825: real time    6.7871

 eigenvalue-minimisations  :  3681
 total energy-change (2. order) : 0.7886964E-01  (-0.2546966E-01)
 number of electron     503.9998361 magnetization 
 augmentation part      197.4641290 magnetization 

 DIPCOR: dipole corrections for dipol
 direction  3 min pos     1,
 dipolmoment           0.000000      0.000000     -0.065185 electrons x Angstroem
 Tr[quadrupol]    -10284.922525

 energy correction for charged system         0.000000 eV
 dipol+quadrupol energy correction           -0.000150 eV
 added-field ion interaction          0.020635 eV  (added to PSCEN)


 Broyden mixing:
  rms(total) = 0.36887E+00    rms(broyden)= 0.36882E+00
  rms(prec ) = 0.41847E+00
  weight for this iteration     100.00

 eigenvalues of (default mixing * dielectric matrix)
  average eigenvalue GAMMA=   0.7222
  2.2149  1.3517  1.3517  0.6665  0.5302  0.5302  0.2975  0.2975  0.2460  0.2460
  0.2122

 Free energy of the ion-electron system (eV)
  ---------------------------------------------------
  alpha Z        PSCENC =       805.88984931
  Ewald energy   TEWEN  =    200625.98386627
  -Hartree energ DENC   =   -242734.92934483
  -exchange      EXHF   =         0.00000000
  -V(xc)+E(xc)   XCENC  =      -343.72186609
  PAW double counting   =     49407.58606002   -47488.54704657
  entropy T*S    EENTRO =        -0.24182535
  eigenvalues    EBANDS =     -2120.39977302
  atomic energy  EATOM  =     41659.78587232
  Solvation  Ediel_sol  =         0.00000000
  ---------------------------------------------------
  free energy    TOTEN  =      -188.59420793 eV

  energy without entropy =     -188.35238258  energy(sigma->0) =     -188.47329526


--------------------------------------------------------------------------------------------------------




----------------------------------------- Iteration    1(  17)  ---------------------------------------


    POTLOK:  cpu time    0.0494: real time    0.0495
    SETDIJ:  cpu time    0.0061: real time    0.0061
    EDDIAG:  cpu time    1.6380: real time    1.6398
  RMM-DIIS:  cpu time    4.3997: real time    4.4022
    ORTHCH:  cpu time    0.3879: real time    0.3884
       DOS:  cpu time    0.0016: real time    0.0016
    CHARGE:  cpu time    0.3017: real time    0.3018
    MIXING:  cpu time    0.0036: real time    0.0036
    --------------------------------------------
      LOOP:  cpu time    6.7887: real time    6.7969

 eigenvalue-minimisations  :  3683
 total energy-change (2. order) : 0.1555817E+00  (-0.1299581E-01)
 number of electron     503.9998363 magnetization 
 augmentation part      197.3909089 magnetization 

 DIPCOR: dipole corrections for dipol
 direction  3 min pos     1,
 dipolmoment           0.000000      0.000000     -0.066032 electrons x Angstroem
 Tr[quadrupol]    -10285.131386

 energy correction for charged system         0.000000 eV
 dipol+quadrupol energy correction           -0.000154 eV
 added-field ion interaction          0.020903 eV  (added to PSCEN)


 Broyden mixing:
  rms(total) = 0.21098E+00    rms(broyden)= 0.21094E+00
  rms(prec ) = 0.24360E+00
  weight for this iteration     100.00

 eigenvalues of (default mixing * dielectric matrix)
  average eigenvalue GAMMA=   0.7326
  2.1714  1.5924  1.5924  0.6137  0.6137  0.4612  0.4612  0.3178  0.2628  0.2628
  0.2284  0.2132

 Free energy of the ion-electron system (eV)
  ---------------------------------------------------
  alpha Z        PSCENC =       805.89011342
  Ewald energy   TEWEN  =    200625.98386627
  -Hartree energ DENC   =   -242747.36831809
  -exchange      EXHF   =         0.00000000
  -V(xc)+E(xc)   XCENC  =      -343.51670041
  PAW double counting   =     49408.31219367   -47487.87457726
  entropy T*S    EENTRO =        -0.23537749
  eigenvalues    EBANDS =     -2109.41569864
  atomic energy  EATOM  =     41659.78587232
  Solvation  Ediel_sol  =         0.00000000
  ---------------------------------------------------
  free energy    TOTEN  =      -188.43862621 eV

  energy without entropy =     -188.20324872  energy(sigma->0) =     -188.32093747


--------------------------------------------------------------------------------------------------------




----------------------------------------- Iteration    1(  18)  ---------------------------------------


    POTLOK:  cpu time    0.0503: real time    0.0504
    SETDIJ:  cpu time    0.0070: real time    0.0070
    EDDIAG:  cpu time    1.6329: real time    1.6337
  RMM-DIIS:  cpu time    4.2658: real time    4.2677
    ORTHCH:  cpu time    0.3842: real time    0.3843
       DOS:  cpu time    0.0016: real time    0.0016
    CHARGE:  cpu time    0.3029: real time    0.3032
    MIXING:  cpu time    0.0037: real time    0.0038
    --------------------------------------------
      LOOP:  cpu time    6.6492: real time    6.6557

 eigenvalue-minimisations  :  3681
 total energy-change (2. order) : 0.5100171E-01  (-0.5396992E-02)
 number of electron     503.9998364 magnetization 
 augmentation part      197.2874004 magnetization 

 DIPCOR: dipole corrections for dipol
 direction  3 min pos     1,
 dipolmoment           0.000000      0.000000     -0.052614 electrons x Angstroem
 Tr[quadrupol]    -10285.425599

 energy correction for charged system         0.000000 eV
 dipol+quadrupol energy correction           -0.000098 eV
 added-field ion interaction          0.016655 eV  (added to PSCEN)


 Broyden mixing:
  rms(total) = 0.11949E+00    rms(broyden)= 0.11946E+00
  rms(prec ) = 0.13471E+00
  weight for this iteration     100.00

 eigenvalues of (default mixing * dielectric matrix)
  average eigenvalue GAMMA=   0.7100
  2.0118  2.0118  1.4674  0.6414  0.6414  0.4551  0.4551  0.3334  0.2753  0.2753
  0.2455  0.2133  0.2038

 Free energy of the ion-electron system (eV)
  ---------------------------------------------------
  alpha Z        PSCENC =       805.88592202
  Ewald energy   TEWEN  =    200625.98386627
  -Hartree energ DENC   =   -242761.49734175
  -exchange      EXHF   =         0.00000000
  -V(xc)+E(xc)   XCENC  =      -343.36743246
  PAW double counting   =     49416.81876308   -47495.32861737
  entropy T*S    EENTRO =        -0.24620816
  eigenvalues    EBANDS =     -2096.42244845
  atomic energy  EATOM  =     41659.78587232
  Solvation  Ediel_sol  =         0.00000000
  ---------------------------------------------------
  free energy    TOTEN  =      -188.38762450 eV

  energy without entropy =     -188.14141634  energy(sigma->0) =     -188.26452042


--------------------------------------------------------------------------------------------------------




----------------------------------------- Iteration    1(  19)  ---------------------------------------


    POTLOK:  cpu time    0.0503: real time    0.0505
    SETDIJ:  cpu time    0.0067: real time    0.0067
    EDDIAG:  cpu time    1.6816: real time    1.6927
  RMM-DIIS:  cpu time    4.7469: real time    4.7715
    ORTHCH:  cpu time    0.3815: real time    0.3816
       DOS:  cpu time    0.0017: real time    0.0017
    CHARGE:  cpu time    0.2969: real time    0.2971
    MIXING:  cpu time    0.0037: real time    0.0037
    --------------------------------------------
      LOOP:  cpu time    7.1702: real time    7.2101

 eigenvalue-minimisations  :  3681
 total energy-change (2. order) : 0.1795507E-01  (-0.1472784E-02)
 number of electron     503.9998365 magnetization 
 augmentation part      197.2194268 magnetization 

 DIPCOR: dipole corrections for dipol
 direction  3 min pos     1,
 dipolmoment           0.000000      0.000000     -0.050066 electrons x Angstroem
 Tr[quadrupol]    -10285.551768

 energy correction for charged system         0.000000 eV
 dipol+quadrupol energy correction           -0.000088 eV
 added-field ion interaction          0.015849 eV  (added to PSCEN)


 Broyden mixing:
  rms(total) = 0.69574E-01    rms(broyden)= 0.69566E-01
  rms(prec ) = 0.76532E-01
  weight for this iteration     100.00

 eigenvalues of (default mixing * dielectric matrix)
  average eigenvalue GAMMA=   0.6808
  2.0712  1.8145  1.5826  0.6200  0.6200  0.4065  0.4065  0.4340  0.3211  0.3211
  0.2490  0.2490  0.2145  0.2207

 Free energy of the ion-electron system (eV)
  ---------------------------------------------------
  alpha Z        PSCENC =       805.88512485
  Ewald energy   TEWEN  =    200625.98386627
  -Hartree energ DENC   =   -242768.05276575
  -exchange      EXHF   =         0.00000000
  -V(xc)+E(xc)   XCENC  =      -343.28757412
  PAW double counting   =     49420.03513547   -47498.04377363
  entropy T*S    EENTRO =        -0.24201616
  eigenvalues    EBANDS =     -2090.43353868
  atomic energy  EATOM  =     41659.78587232
  Solvation  Ediel_sol  =         0.00000000
  ---------------------------------------------------
  free energy    TOTEN  =      -188.36966943 eV

  energy without entropy =     -188.12765327  energy(sigma->0) =     -188.24866135


--------------------------------------------------------------------------------------------------------




----------------------------------------- Iteration    1(  20)  ---------------------------------------


    POTLOK:  cpu time    0.0493: real time    0.0493
    SETDIJ:  cpu time    0.0060: real time    0.0060
    EDDIAG:  cpu time    1.6168: real time    1.6175
  RMM-DIIS:  cpu time    4.3537: real time    4.3557
    ORTHCH:  cpu time    0.3816: real time    0.3818
       DOS:  cpu time    0.0016: real time    0.0016
    CHARGE:  cpu time    0.3090: real time    0.3091
    MIXING:  cpu time    0.0040: real time    0.0040
    --------------------------------------------
      LOOP:  cpu time    6.7229: real time    6.7272

 eigenvalue-minimisations  :  3685
 total energy-change (2. order) : 0.1834978E-02  (-0.1745207E-03)
 number of electron     503.9998365 magnetization 
 augmentation part      197.2105526 magnetization 

 DIPCOR: dipole corrections for dipol
 direction  3 min pos     1,
 dipolmoment           0.000000      0.000000     -0.046325 electrons x Angstroem
 Tr[quadrupol]    -10285.596976

 energy correction for charged system         0.000000 eV
 dipol+quadrupol energy correction           -0.000076 eV
 added-field ion interaction          0.014665 eV  (added to PSCEN)


 Broyden mixing:
  rms(total) = 0.61826E-01    rms(broyden)= 0.61825E-01
  rms(prec ) = 0.67489E-01
  weight for this iteration     100.00

 eigenvalues of (default mixing * dielectric matrix)
  average eigenvalue GAMMA=   0.6955
  2.1478  1.6548  1.6548  0.6967  0.6967  0.5668  0.5668  0.4663  0.4365  0.3476
  0.2628  0.2628  0.2490  0.2134  0.2100

 Free energy of the ion-electron system (eV)
  ---------------------------------------------------
  alpha Z        PSCENC =       805.88395330
  Ewald energy   TEWEN  =    200625.98386627
  -Hartree energ DENC   =   -242769.74947450
  -exchange      EXHF   =         0.00000000
  -V(xc)+E(xc)   XCENC  =      -343.27716842
  PAW double counting   =     49422.11620742   -47500.08934349
  entropy T*S    EENTRO =        -0.24196464
  eigenvalues    EBANDS =     -2088.77978271
  atomic energy  EATOM  =     41659.78587232
  Solvation  Ediel_sol  =         0.00000000
  ---------------------------------------------------
  free energy    TOTEN  =      -188.36783445 eV

  energy without entropy =     -188.12586981  energy(sigma->0) =     -188.24685213


--------------------------------------------------------------------------------------------------------




----------------------------------------- Iteration    1(  21)  ---------------------------------------


    POTLOK:  cpu time    0.0495: real time    0.0504
    SETDIJ:  cpu time    0.0060: real time    0.0060
    EDDIAG:  cpu time    1.6129: real time    1.6142
  RMM-DIIS:  cpu time    4.2577: real time    4.3639
    ORTHCH:  cpu time    0.3816: real time    0.3817
       DOS:  cpu time    0.0016: real time    0.0016
    CHARGE:  cpu time    0.3013: real time    0.3016
    MIXING:  cpu time    0.0042: real time    0.0042
    --------------------------------------------
      LOOP:  cpu time    6.6156: real time    6.7258

 eigenvalue-minimisations  :  3686
 total energy-change (2. order) : 0.1399857E-02  (-0.1399797E-03)
 number of electron     503.9998365 magnetization 
 augmentation part      197.2004375 magnetization 

 DIPCOR: dipole corrections for dipol
 direction  3 min pos     1,
 dipolmoment           0.000000      0.000000     -0.044354 electrons x Angstroem
 Tr[quadrupol]    -10285.677259

 energy correction for charged system         0.000000 eV
 dipol+quadrupol energy correction           -0.000069 eV
 added-field ion interaction          0.014041 eV  (added to PSCEN)


 Broyden mixing:
  rms(total) = 0.54652E-01    rms(broyden)= 0.54650E-01
  rms(prec ) = 0.60131E-01
  weight for this iteration     100.00

 eigenvalues of (default mixing * dielectric matrix)
  average eigenvalue GAMMA=   0.7785
  2.2478  1.9202  1.9202  1.0585  1.0585  0.6779  0.6779  0.5162  0.5162  0.3744
  0.2640  0.2640  0.2683  0.2683  0.2118  0.2118

 Free energy of the ion-electron system (eV)
  ---------------------------------------------------
  alpha Z        PSCENC =       805.88333562
  Ewald energy   TEWEN  =    200625.98386627
  -Hartree energ DENC   =   -242772.85972857
  -exchange      EXHF   =         0.00000000
  -V(xc)+E(xc)   XCENC  =      -343.25900670
  PAW double counting   =     49424.89637928   -47502.80338542
  entropy T*S    EENTRO =        -0.24095156
  eigenvalues    EBANDS =     -2085.75281584
  atomic energy  EATOM  =     41659.78587232
  Solvation  Ediel_sol  =         0.00000000
  ---------------------------------------------------
  free energy    TOTEN  =      -188.36643459 eV

  energy without entropy =     -188.12548304  energy(sigma->0) =     -188.24595881


--------------------------------------------------------------------------------------------------------




----------------------------------------- Iteration    1(  22)  ---------------------------------------


    POTLOK:  cpu time    0.0507: real time    0.0508
    SETDIJ:  cpu time    0.0061: real time    0.0060
    EDDIAG:  cpu time    1.6269: real time    1.6280
  RMM-DIIS:  cpu time    4.3417: real time    4.3447
    ORTHCH:  cpu time    0.3817: real time    0.3819
       DOS:  cpu time    0.0015: real time    0.0015
    CHARGE:  cpu time    0.3021: real time    0.3021
    MIXING:  cpu time    0.0041: real time    0.0041
    --------------------------------------------
      LOOP:  cpu time    6.7155: real time    6.7214

 eigenvalue-minimisations  :  3680
 total energy-change (2. order) : 0.3713743E-02  (-0.4929306E-03)
 number of electron     503.9998365 magnetization 
 augmentation part      197.1523263 magnetization 

 DIPCOR: dipole corrections for dipol
 direction  3 min pos     1,
 dipolmoment           0.000000      0.000000     -0.039035 electrons x Angstroem
 Tr[quadrupol]    -10286.031752

 energy correction for charged system         0.000000 eV
 dipol+quadrupol energy correction           -0.000054 eV
 added-field ion interaction          0.012357 eV  (added to PSCEN)


 Broyden mixing:
  rms(total) = 0.36334E-01    rms(broyden)= 0.36330E-01
  rms(prec ) = 0.42887E-01
  weight for this iteration     100.00

 eigenvalues of (default mixing * dielectric matrix)
  average eigenvalue GAMMA=   0.7765
  2.2063  2.0651  2.0651  1.1051  1.1051  0.6931  0.6931  0.5075  0.5075  0.4269
  0.3144  0.3144  0.2599  0.2599  0.2523  0.2122  0.2122

 Free energy of the ion-electron system (eV)
  ---------------------------------------------------
  alpha Z        PSCENC =       805.88166730
  Ewald energy   TEWEN  =    200625.98386627
  -Hartree energ DENC   =   -242787.10452426
  -exchange      EXHF   =         0.00000000
  -V(xc)+E(xc)   XCENC  =      -343.16932019
  PAW double counting   =     49433.67997588   -47511.17067037
  entropy T*S    EENTRO =        -0.24051220
  eigenvalues    EBANDS =     -2072.00907559
  atomic energy  EATOM  =     41659.78587232
  Solvation  Ediel_sol  =         0.00000000
  ---------------------------------------------------
  free energy    TOTEN  =      -188.36272085 eV

  energy without entropy =     -188.12220865  energy(sigma->0) =     -188.24246475


--------------------------------------------------------------------------------------------------------




----------------------------------------- Iteration    1(  23)  ---------------------------------------


    POTLOK:  cpu time    0.0495: real time    0.0495
    SETDIJ:  cpu time    0.0060: real time    0.0060
    EDDIAG:  cpu time    1.6383: real time    1.6430
  RMM-DIIS:  cpu time    4.4079: real time    4.4100
    ORTHCH:  cpu time    0.3819: real time    0.3819
       DOS:  cpu time    0.0017: real time    0.0017
    CHARGE:  cpu time    0.2971: real time    0.2974
    MIXING:  cpu time    0.0043: real time    0.0043
    --------------------------------------------
      LOOP:  cpu time    6.7875: real time    6.7960

 eigenvalue-minimisations  :  3679
 total energy-change (2. order) : 0.1285672E-02  (-0.2252836E-03)
 number of electron     503.9998366 magnetization 
 augmentation part      197.1317338 magnetization 

 DIPCOR: dipole corrections for dipol
 direction  3 min pos     1,
 dipolmoment           0.000000      0.000000     -0.035378 electrons x Angstroem
 Tr[quadrupol]    -10286.146063

 energy correction for charged system         0.000000 eV
 dipol+quadrupol energy correction           -0.000044 eV
[...]
    275       1.6803      0.00000
    276       1.8110      0.00000
    277       2.1321      0.00000
    278       2.1999      0.00000
    279       2.2832      0.00000
    280       2.3258      0.00000
    281       2.3740      0.00000
    282       2.5033      0.00000
    283       2.6874      0.00000
    284       2.9679      0.00000
    285       3.1723      0.00000
    286       3.2448      0.00000
    287       3.5366      0.00000
    288       3.5806      0.00000
    289       3.7274      0.00000
    290       3.9676      0.00000
    291       4.0536      0.00000
    292       4.2152      0.00000
    293       4.4923      0.00000
    294       4.5370      0.00000
    295       4.5923      0.00000
    296       4.6342      0.00000
    297       4.7754      0.00000
    298       4.8262      0.00000
    299       4.8564      0.00000
    300       4.9267      0.00000
    301       4.9400      0.00000
    302       5.0269      0.00000
    303       5.0694      0.00000
    304       5.0870      0.00000
    305       5.2483      0.00000
    306       5.2680      0.00000


--------------------------------------------------------------------------------------------------------


 soft charge-density along one line, spin component           1
         0         1         2         3         4         5         6         7         8         9
 total charge-density along one line
 
 pseudopotential strength for first ion, spin component:           1
 -7.993   0.001   0.002   0.001  -0.001  -8.141   0.001   0.002
  0.001  -7.911   0.001  -0.001  -0.005   0.001  -8.060   0.001
  0.002   0.001  -7.902  -0.001  -0.003   0.002   0.001  -8.052
  0.001  -0.001  -0.001  -7.907  -0.000   0.001  -0.001  -0.001
 -0.001  -0.005  -0.003  -0.000  -7.994  -0.001  -0.005  -0.003
 -8.141   0.001   0.002   0.001  -0.001  -8.272   0.001   0.002
  0.001  -8.060   0.001  -0.001  -0.005   0.001  -8.194   0.001
  0.002   0.001  -8.052  -0.001  -0.003   0.002   0.001  -8.186
  0.001  -0.001  -0.001  -8.057  -0.000   0.001  -0.001  -0.001
 -0.001  -0.005  -0.003  -0.000  -8.141  -0.001  -0.005  -0.003
  0.001  -0.001  -0.026  -0.000  -0.001   0.001  -0.001  -0.026
  0.002  -0.002  -0.037  -0.001  -0.002   0.002  -0.002  -0.037
  0.002  -0.005  -0.000   0.000  -0.000   0.002  -0.004  -0.001
  0.000   0.000  -0.007   0.002  -0.000   0.000   0.000  -0.007
  0.000   0.000  -0.001  -0.005   0.001   0.000   0.000  -0.001
  0.002  -0.005  -0.001   0.000  -0.000   0.002  -0.004  -0.001
  0.000  -0.000  -0.008   0.002  -0.000   0.000  -0.000  -0.007
  0.001   0.000  -0.001  -0.005   0.001   0.001   0.000  -0.001
 total augmentation occupancy for first ion, spin component:           1
  4.081   0.024  -0.096   0.021  -0.150  -2.283  -0.009   0.094  -0.040   0.129  -0.088   0.048  -0.041   0.004  -0.048   0.004
  0.024   4.185  -0.089  -0.008   0.024  -0.010  -1.901   0.074   0.004  -0.067   0.075  -0.042  -0.168   0.022   0.003   0.004
 -0.096  -0.089   4.270  -0.015  -0.014   0.094   0.074  -2.159   0.005  -0.003   0.911  -0.085   0.029  -0.213   0.011  -0.002
  0.021  -0.008  -0.015   4.062  -0.019  -0.039   0.004   0.005  -1.790   0.012   0.011   0.004   0.003   0.003  -0.167   0.000
 -0.150   0.024  -0.014  -0.019   3.907   0.129  -0.068  -0.003   0.011  -2.121   0.069  -0.038  -0.009   0.010   0.023  -0.001
 -2.283  -0.010   0.094  -0.039   0.129   2.362  -0.001  -0.091   0.053  -0.113   0.077  -0.045   0.033  -0.003   0.043  -0.002
 -0.009  -1.901   0.074   0.004  -0.068  -0.001   1.593  -0.061   0.000   0.100  -0.065   0.037   0.155  -0.017  -0.003  -0.006
  0.094   0.074  -2.159   0.005  -0.003  -0.091  -0.061   1.993   0.003   0.016  -0.844   0.096  -0.023   0.220  -0.007   0.002
 -0.040   0.004   0.005  -1.790   0.011   0.053   0.000   0.003   1.492  -0.005  -0.008  -0.003  -0.003  -0.004   0.158  -0.000
  0.129  -0.067  -0.003   0.012  -2.121  -0.113   0.100   0.016  -0.005   2.209  -0.060   0.033   0.011  -0.006  -0.023   0.000
 -0.088   0.075   0.911   0.011   0.069   0.077  -0.065  -0.844  -0.008  -0.060   2.338  -0.450   0.008   0.119   0.001  -0.001
  0.048  -0.042  -0.085   0.004  -0.038  -0.045   0.037   0.096  -0.003   0.033  -0.450   0.125  -0.007  -0.054  -0.007   0.000
 -0.041  -0.168   0.029   0.003  -0.009   0.033   0.155  -0.023  -0.003   0.011   0.008  -0.007   0.184  -0.002   0.002  -0.005
  0.004   0.022  -0.213   0.003   0.010  -0.003  -0.017   0.220  -0.004  -0.006   0.119  -0.054  -0.002   0.090  -0.001   0.000
 -0.048   0.003   0.011  -0.167   0.023   0.043  -0.003  -0.007   0.158  -0.023   0.001  -0.007   0.002  -0.001   0.181  -0.000
  0.004   0.004  -0.002   0.000  -0.001  -0.002  -0.006   0.002  -0.000   0.000  -0.001   0.000  -0.005   0.000  -0.000   0.000
  0.000  -0.001  -0.001   0.002  -0.001   0.000   0.001  -0.005  -0.000   0.000  -0.008   0.002   0.000  -0.003   0.000  -0.000
  0.002   0.000  -0.001   0.002   0.001  -0.002   0.000   0.001  -0.005   0.001  -0.000   0.000  -0.000   0.000  -0.005   0.000


------------------------ aborting loop because EDIFF is reached ----------------------------------------


    CHARGE:  cpu time    0.2990: real time    0.2992
    FORLOC:  cpu time    0.0186: real time    0.0186
    FORNL :  cpu time    1.6143: real time    1.6148
    FORCOR:  cpu time    0.0676: real time    0.0677
    FORHAR:  cpu time    0.0290: real time    0.0290
    MIXING:  cpu time    0.0032: real time    0.0034
    OFIELD:  cpu time    0.0000: real time    0.0000

 VOLUME and BASIS-vectors are now :
 -----------------------------------------------------------------------------
  energy-cutoff  :      400.00
  volume of cell :     2567.68
      direct lattice vectors                 reciprocal lattice vectors
    11.002581515  0.000000000  0.000000000     0.090887761 -0.052474073  0.000000000
     5.501290758  9.528515099  0.000000000     0.000000000  0.104948147  0.000000000
     0.000000000  0.000000000 24.491785094     0.000000000  0.000000000  0.040830017

  length of vectors
    11.002581515 11.002581515 24.491785094     0.104948147  0.104948147  0.040830017


 FORCES acting on ions
    electron-ion (+dipol)            ewald-force                    non-local-force                 convergence-correction
 -----------------------------------------------------------------------------------------------
   -.155E+01 0.955E+01 0.227E+04   0.116E+01 -.970E+01 -.227E+04   0.387E+00 0.163E+00 -.107E+00   0.522E-02 -.643E-02 -.108E-01
   -.250E+01 0.550E+01 -.230E+04   0.285E+01 -.544E+01 0.230E+04   -.362E+00 -.703E-01 -.563E-01   0.514E-02 0.690E-02 -.366E-02
   0.672E+01 -.718E+00 -.111E+02   -.652E+01 0.159E+01 0.107E+02   -.193E+00 -.870E+00 0.503E+00   0.930E-02 -.950E-02 -.832E-02
   0.422E+01 0.657E+00 0.231E+01   -.457E+01 -.532E+00 -.339E+01   0.348E+00 -.126E+00 0.108E+01   -.549E-02 0.292E-02 -.244E-02
   -.251E+01 0.528E+01 -.229E+04   0.269E+01 -.528E+01 0.229E+04   -.181E+00 0.658E-02 -.698E-01   -.306E-02 -.291E-02 0.319E-02
   0.114E+02 0.743E+01 0.234E+04   -.116E+02 -.786E+01 -.234E+04   0.164E+00 0.433E+00 0.137E+00   -.410E-02 0.407E-02 -.504E-02
   -.338E+00 -.224E+01 0.128E+02   -.242E+00 0.227E+01 -.128E+02   0.569E+00 -.363E-01 -.261E-01   -.942E-03 0.931E-02 -.814E-02
   -.568E+01 0.341E+01 -.303E+02   0.462E+01 -.375E+01 0.291E+02   0.106E+01 0.339E+00 0.119E+01   0.664E-02 -.453E-02 -.526E-02
   0.588E+01 -.106E+02 0.231E+04   -.594E+01 0.111E+02 -.231E+04   0.553E-01 -.570E+00 0.150E+00   -.527E-02 -.323E-02 0.911E-02
   -.409E+01 -.229E+01 -.631E+01   0.449E+01 0.218E+01 0.578E+01   -.399E+00 0.123E+00 0.534E+00   -.435E-02 -.119E-01 0.308E-02
   -.617E+01 -.809E+01 0.259E+02   0.636E+01 0.725E+01 -.259E+02   -.184E+00 0.829E+00 0.200E-01   0.803E-02 -.265E-03 0.202E-02
   0.599E+01 0.293E+01 0.518E+02   -.519E+01 -.283E+01 -.513E+02   -.800E+00 -.116E+00 -.537E+00   0.602E-02 0.114E-02 0.142E-01
   -.209E+01 -.118E+02 -.227E+04   0.195E+01 0.121E+02 0.227E+04   0.142E+00 -.271E+00 -.178E+00   0.296E-02 0.768E-02 0.126E-01
   -.996E+01 -.313E+01 0.227E+04   0.992E+01 0.341E+01 -.227E+04   0.478E-01 -.275E+00 -.522E+00   0.265E-02 0.372E-02 0.987E-02
   -.613E+01 -.332E+01 0.228E+04   0.614E+01 0.366E+01 -.228E+04   -.720E-02 -.334E+00 -.157E+00   0.347E-03 -.614E-02 -.610E-02
   0.348E+01 0.183E+01 0.223E+02   -.294E+01 -.189E+01 -.223E+02   -.553E+00 0.625E-01 -.708E-01   0.123E-02 0.494E-02 0.219E-02
   0.920E+01 0.498E+01 -.224E+04   -.962E+01 -.533E+01 0.224E+04   0.415E+00 0.347E+00 0.244E+00   0.577E-02 -.290E-02 -.618E-02
   -.125E+02 -.177E+00 -.231E+04   0.129E+02 0.144E+00 0.231E+04   -.437E+00 0.261E-01 -.338E+00   0.514E-02 -.170E-04 0.372E-03
   0.432E+01 0.603E+01 -.220E+04   -.418E+01 -.595E+01 0.220E+04   -.136E+00 -.782E-01 0.603E+00   -.587E-02 -.226E-02 0.229E-02
   0.220E+01 -.889E+01 -.229E+04   -.204E+01 0.916E+01 0.229E+04   -.164E+00 -.261E+00 0.113E+00   -.277E-02 -.700E-03 0.449E-02
   -.122E+02 0.213E+01 0.226E+04   0.129E+02 -.227E+01 -.226E+04   -.775E+00 0.135E+00 -.371E+00   0.340E-02 0.566E-03 -.128E-02
   -.749E+01 -.455E+01 0.373E+02   0.754E+01 0.418E+01 -.368E+02   -.468E-01 0.359E+00 -.515E+00   -.895E-02 0.816E-02 0.601E-02
   -.178E+01 -.804E+00 0.282E+01   0.130E+01 0.847E+00 -.265E+01   0.470E+00 -.366E-01 -.162E+00   -.631E-02 -.509E-03 -.483E-02
   0.166E+02 -.517E+00 -.223E+04   -.169E+02 0.607E+00 0.223E+04   0.216E+00 -.976E-01 0.392E+00   -.601E-02 0.695E-02 -.309E-02
   -.108E+01 0.347E+01 -.580E+01   0.143E+01 -.328E+01 0.538E+01   -.352E+00 -.187E+00 0.433E+00   -.846E-02 0.982E-02 0.557E-03
   0.283E+01 0.231E-01 -.197E+04   -.314E+01 0.291E+00 0.197E+04   0.321E+00 -.320E+00 0.149E+01   -.299E-02 0.896E-03 0.895E-02
   -.468E+01 0.197E+01 0.429E+02   0.496E+01 -.160E+01 -.425E+02   -.272E+00 -.370E+00 -.479E+00   -.128E-02 0.445E-02 0.993E-02
   -.334E+01 0.121E+02 0.200E+04   0.301E+01 -.125E+02 -.200E+04   0.332E+00 0.425E+00 -.145E+01   0.202E-02 0.807E-03 0.108E-01
   0.418E+01 -.221E+00 -.198E+04   -.435E+01 -.706E-02 0.198E+04   0.167E+00 0.220E+00 0.147E+01   0.331E-02 0.399E-02 -.674E-02
   0.272E+01 -.624E+01 -.196E+04   -.270E+01 0.588E+01 0.195E+04   -.224E-01 0.359E+00 0.172E+01   -.612E-02 0.850E-02 0.744E-02
   -.322E+01 0.692E+01 0.200E+04   0.343E+01 -.672E+01 -.200E+04   -.204E+00 -.197E+00 -.163E+01   -.189E-02 -.427E-02 -.150E-02
   -.797E+01 0.908E+01 -.198E+04   0.782E+01 -.946E+01 0.198E+04   0.148E+00 0.376E+00 0.152E+01   -.487E-03 0.420E-03 0.334E-02
   -.970E+01 -.160E+01 0.198E+04   0.101E+02 0.141E+01 -.198E+04   -.397E+00 0.193E+00 -.163E+01   0.347E-03 -.212E-02 0.842E-04
   0.139E+02 -.728E+01 0.201E+04   -.143E+02 0.749E+01 -.201E+04   0.424E+00 -.209E+00 -.151E+01   -.597E-03 -.504E-02 -.427E-02
   0.162E+01 -.161E+00 -.194E+02   -.178E+01 0.297E+00 0.185E+02   0.162E+00 -.141E+00 0.938E+00   0.436E-02 0.353E-02 -.285E-02
   0.529E+01 0.108E+01 0.204E+02   -.521E+01 -.108E+01 -.203E+02   -.808E-01 0.646E-02 -.781E-01   -.334E-02 -.158E-02 -.166E-02
   -.822E+01 0.228E+01 -.198E+04   0.850E+01 -.227E+01 0.198E+04   -.286E+00 -.114E-01 0.129E+01   0.104E-02 0.178E-02 0.840E-03
   -.153E+01 0.561E+01 0.201E+04   0.169E+01 -.572E+01 -.201E+04   -.161E+00 0.115E+00 -.141E+01   0.242E-03 -.502E-02 -.127E-01
   0.134E+02 -.213E+01 -.198E+04   -.136E+02 0.230E+01 0.198E+04   0.176E+00 -.176E+00 0.149E+01   0.208E-02 0.574E-03 -.541E-02
   -.201E+01 0.165E+01 0.201E+04   0.232E+01 -.180E+01 -.201E+04   -.311E+00 0.154E+00 -.177E+01   -.508E-02 -.261E-02 -.469E-02
   0.733E+01 0.506E+01 0.201E+04   -.756E+01 -.525E+01 -.201E+04   0.230E+00 0.193E+00 -.141E+01   0.920E-03 -.981E-04 -.143E-02
   -.302E+00 0.392E+01 0.115E+02   0.281E+00 -.433E+01 -.119E+02   0.292E-01 0.413E+00 0.417E+00   -.210E-02 -.778E-02 0.220E-02
   0.235E+01 -.400E+01 0.290E+02   -.256E+01 0.411E+01 -.285E+02   0.208E+00 -.107E+00 -.504E+00   -.424E-03 -.219E-02 -.421E-02
   0.636E+01 -.667E+01 0.202E+04   -.631E+01 0.653E+01 -.202E+04   -.543E-01 0.150E+00 -.123E+01   0.121E-02 -.275E-02 -.285E-02
   -.352E+01 -.585E+01 -.198E+04   0.337E+01 0.595E+01 0.198E+04   0.145E+00 -.995E-01 0.142E+01   0.511E-02 -.811E-02 -.707E-02
   0.598E+01 -.752E+00 0.200E+04   -.612E+01 0.972E+00 -.200E+04   0.136E+00 -.219E+00 -.149E+01   -.299E-02 0.325E-02 -.521E-02
   0.169E+00 -.133E+02 0.200E+04   -.287E+00 0.137E+02 -.199E+04   0.119E+00 -.385E+00 -.189E+01   0.142E-02 -.765E-02 0.115E-01
   -.155E+02 0.257E+01 -.198E+04   0.158E+02 -.256E+01 0.198E+04   -.284E+00 -.106E-01 0.133E+01   0.528E-02 0.662E-02 0.747E-02
 -----------------------------------------------------------------------------------------------
   0.200E+00 0.128E+00 0.122E+01   0.302E-12 -.675E-13 -.682E-12   -.191E+00 -.147E+00 -.114E+01   0.298E-03 0.471E-03 0.680E-02
 
 
 POSITION                                       TOTAL-FORCE (eV/Angst)
 -----------------------------------------------------------------------------------
      1.36735      0.79993      9.73672         0.005657      0.003877     -0.000670
      5.51601      4.75465     14.85230        -0.000893      0.000177      0.000738
      6.87582      8.75980     12.25749         0.014374     -0.008236      0.001256
      5.48411      1.57988     12.23869        -0.010883      0.002030      0.000177
      5.50588     -0.01456     14.81545        -0.005943     -0.000083     -0.008821
      8.24129      3.17326      9.61756         0.001065      0.008544      0.003332
      6.85956      3.96554     12.24020        -0.011760      0.005582     -0.005046
      5.47161      6.33950     12.27116         0.005767     -0.008737     -0.004539
      9.61580      5.58838      9.64587        -0.004064      0.000652     -0.006422
      9.64413      8.73040     12.25234        -0.001171     -0.006658     -0.000823
      8.25057      1.56798     12.22496         0.018853     -0.004334     -0.000433
      9.64253      3.96283     12.20347         0.008475     -0.015195     -0.002055
      9.62285      2.39177     14.77192         0.005473     -0.003776      0.002333
     12.38429      5.58202      9.71533         0.003221      0.008258     -0.004881
     13.76255      7.97015      9.72789        -0.001105     -0.003825      0.000565
      8.26508      6.35264     12.22725        -0.005170      0.013823     -0.002003
      4.11285      2.36162     14.74549         0.001345     -0.003076      0.007451
      6.89816      7.13993     14.86614        -0.002694     -0.007227     -0.002519
     12.37581      7.14280     14.68087        -0.000384     -0.003582      0.005970
      0.00029      0.00349     14.83057        -0.007903      0.001306     -0.007260
      2.78555      3.17861      9.74080         0.002749     -0.001273     -0.008185
     12.38863      3.95691     12.21527        -0.007926     -0.004491      0.008197
     15.11190      8.72502     12.24963        -0.014728      0.006148     -0.000031
      2.74004      4.76216     14.72593        -0.005311     -0.000479      0.005870
     11.00433      1.57947     12.25698        -0.009710      0.016346      0.002858
     10.98930      4.76865     14.59782         0.002362     -0.005352      0.000069
     11.02024      6.34977     12.20590         0.004158      0.006968     -0.001245
     10.99717      3.18116      9.81602        -0.000504      0.006076      0.001480
      8.25132     -0.00419     14.63930         0.002105     -0.003731      0.002239
      1.37066      2.36982     14.59930        -0.004713      0.000884     -0.003006
      9.63438      0.80864      9.84177        -0.003416     -0.001235      0.004192
      9.62473      7.12119     14.62813        -0.000336      0.001083     -0.003069
      4.14639      5.56572      9.88568        -0.002507      0.001492     -0.004802
      6.85734      5.57816      9.83572         0.004698     -0.005854     -0.000459
      4.10778      3.96695     12.26969         0.009607     -0.001642     -0.003114
     13.73330      6.34367     12.23249        -0.001590      0.006713     -0.004292
      6.88681      2.37269     14.64741        -0.007059     -0.001710      0.003205
      5.51378      7.93915      9.85618        -0.002297      0.004055      0.002398
      4.12946      7.15333     14.65999         0.006550     -0.002832     -0.000691
      4.14910      0.79051      9.84873        -0.004475      0.003586      0.001114
      6.86599      0.80641      9.84717         0.004580     -0.000732      0.000894
     12.37402      8.70219     12.23557         0.006314     -0.006258      0.001820
      2.74594      1.59435     12.22142         0.003262      0.001610     -0.001622
      8.25393      7.95481      9.83394        -0.004792      0.004968      0.008257
      2.74735     -0.01092     14.64726         0.005270     -0.004343      0.002283
      5.50593      3.19298      9.85464         0.001194      0.005161      0.006930
     10.99343      7.97011      9.85334         0.001900     -0.003231      0.002389
      8.25986      4.75800     14.63512         0.002354     -0.001448     -0.000031
 -----------------------------------------------------------------------------------
    total drift:                                0.009498     -0.018511      0.091367


--------------------------------------------------------------------------------------------------------



  FREE ENERGIE OF THE ION-ELECTRON SYSTEM (eV)
  ---------------------------------------------------
  free  energy   TOTEN  =      -192.08976224 eV

  energy  without entropy=     -191.88355207  energy(sigma->0) =     -191.98665716
 
 d Force = 0.2677177E-03[-0.202E-03, 0.738E-03]  d Energy = 0.2657486E-03 0.197E-05
 d Force = 0.1690116E+02[ 0.169E+02, 0.169E+02]  d Ewald  = 0.1690116E+02-0.487E-05


--------------------------------------------------------------------------------------------------------


    POTLOK:  cpu time    0.0572: real time    0.0572


--------------------------------------------------------------------------------------------------------


 stress matrix after NEB project (eV)
      0.00000      0.00000      0.00000
      0.00000      0.00000      0.00000
      0.00000      0.00000      0.00000
  FORCES: max atom, RMS     0.019350    0.009599
  FORCE total and by dimension    0.066506    0.018853
  Stress total and by dimension    0.000000    0.000000
 Conjugate gradient step on ions:
 trial-energy change:   -0.000266  1 .order   -0.000268   -0.000738    0.000202
  (g-gl).g = 0.143E-03      g.g   = 0.225E-03  gl.gl    = 0.375E-03
 g(Force)  = 0.225E-03   g(Stress)= 0.000E+00 ortho     = 0.393E-04
 gamma     =   0.38167
 trial     =   3.08002
 opt step  =   2.41709  (harmonic =   2.41709) maximal distance =0.00178997
 next E    =  -192.089786   (d E  =  -0.00029)


--------------------------------------------------------------------------------------------------------


  
 reached required accuracy - stopping structural energy minimisation
     LOOP+:  cpu time   68.0451: real time   69.2788
    4ORBIT:  cpu time    0.0000: real time    0.0000

 total amount of memory used by VASP on root node    84353. kBytes
========================================================================

   base      :      30000. kBytes
   nonlr-proj:       4285. kBytes
   fftplans  :       4447. kBytes
   grid      :       6721. kBytes
   one-center:        124. kBytes
   wavefun   :      38776. kBytes
 
  
  
 General timing and accounting informations for this job:
 ========================================================
  
                  Total CPU time used (sec):     2447.877
                            User time (sec):     2347.217
                          System time (sec):      100.660
                         Elapsed time (sec):     2475.777
  
                   Maximum memory used (kb):      987144.
                   Average memory used (kb):           0.
  
                          Minor page faults:       885700
                          Major page faults:            0
                 Voluntary context switches:        10956
