 vasp.5.4.1 24Jun15 (build Mar 14 2019 10:18:33) complex                        
  
 executed on INTEL-19.0.2+OPENMPI date 2023.01.30  16:53:25
 running on   36 total cores
 distrk:  each k-point on   36 cores,    1 groups
 distr:  one band on NCORES_PER_BAND=   6 cores,    6 groups


--------------------------------------------------------------------------------------------------------


 INCAR:
 POTCAR:    PAW_PBE Au 04Oct2007                  
 POTCAR:    PAW_PBE Pd 04Jan2005                  
 POTCAR:    PAW_PBE Au 04Oct2007                  
  local pseudopotential read in
  partial core-charges read in
  partial kinetic energy density read in
  atomic valenz-charges read in
  non local Contribution for L=           2  read in
    real space projection operators read in
  non local Contribution for L=           2  read in
    real space projection operators read in
  non local Contribution for L=           0  read in
    real space projection operators read in
  non local Contribution for L=           0  read in
    real space projection operators read in
  non local Contribution for L=           1  read in
    real space projection operators read in
  non local Contribution for L=           1  read in
    real space projection operators read in
    PAW grid and wavefunctions read in
 
   number of l-projection  operators is LMAX  =           6
   number of lm-projection operators is LMMAX =          18
 
 POTCAR:    PAW_PBE Pd 04Jan2005                  
  local pseudopotential read in
  partial core-charges read in
  partial kinetic energy density read in
  atomic valenz-charges read in
  non local Contribution for L=           2  read in
    real space projection operators read in
  non local Contribution for L=           2  read in
    real space projection operators read in
  non local Contribution for L=           0  read in
    real space projection operators read in
  non local Contribution for L=           0  read in
    real space projection operators read in
  non local Contribution for L=           1  read in
    real space projection operators read in
  non local Contribution for L=           1  read in
    real space projection operators read in
    PAW grid and wavefunctions read in
 
   number of l-projection  operators is LMAX  =           6
   number of lm-projection operators is LMMAX =          18
 
 Optimization of the real space projectors (new method)

 maximal supplied QI-value         = 15.12
 optimisation between [QCUT,QGAM] = [ 10.13, 20.41] = [ 28.73,116.64] Ry 
 Optimized for a Real-space Cutoff    1.51 Angstroem

   l    n(q)    QCUT    max X(q) W(low)/X(q) W(high)/X(q)  e(spline) 
   2      8    10.129    60.898    0.46E-03    0.46E-03    0.14E-06
   2      8    10.129    58.894    0.47E-03    0.47E-03    0.14E-06
   0      9    10.129   109.617    0.16E-03    0.11E-03    0.54E-07
   0      9    10.129    75.026    0.15E-03    0.11E-03    0.52E-07
   1      9    10.129    16.344    0.96E-04    0.15E-03    0.14E-06
   1      9    10.129    10.160    0.81E-04    0.12E-03    0.11E-06
 Optimization of the real space projectors (new method)

 maximal supplied QI-value         = 14.36
 optimisation between [QCUT,QGAM] = [ 10.20, 20.39] = [ 29.12,116.47] Ry 
 Optimized for a Real-space Cutoff    1.51 Angstroem

   l    n(q)    QCUT    max X(q) W(low)/X(q) W(high)/X(q)  e(spline) 
   2      8    10.197    59.108    0.26E-03    0.14E-03    0.96E-07
   2      8    10.197    58.101    0.27E-03    0.14E-03    0.98E-07
   0      9    10.197   102.235    0.54E-04    0.60E-05    0.72E-07
   0      9    10.197    58.388    0.52E-04    0.60E-05    0.68E-07
   1      9    10.197    22.191    0.18E-03    0.25E-03    0.79E-07
   1      9    10.197    15.590    0.15E-03    0.21E-03    0.69E-07
  PAW_PBE Au 04Oct2007                  :
 energy of atom  1       EATOM= -926.0867
 kinetic energy error for atom=    0.0062 (will be added to EATOM!!)
  PAW_PBE Pd 04Jan2005                  :
 energy of atom  2       EATOM= -809.7530
 kinetic energy error for atom=    0.0091 (will be added to EATOM!!)
 
 
 POSCAR: Au Pd                                   
  positions in cartesian coordinates
  No initial velocities read in
 exchange correlation table for  LEXCH =        8
   RHO(1)=    0.500       N(1)  =     2000
   RHO(2)=  100.500       N(2)  =     4000

 VTST: version 3.2, (02/03/18)

 CHAIN: initializing optimizer
 
 OPT: Using VASP Conjugate-Gradient optimizer
 CHAIN: Read ICHAIN            0
 
 POSCAR: Au Pd                                   
  positions in cartesian coordinates
  No initial velocities read in
 


--------------------------------------------------------------------------------------------------------


 ion  position               nearest neighbor table
   1  0.083  0.083  0.408-  31 2.75  13 2.75  20 2.75  30 2.75   5 2.75  26 2.75  40 2.75  34 2.75
                            44 2.75
   2  0.000  0.500  0.592-  36 2.75  38 2.75  25 2.75  29 2.75   3 2.75   8 2.75  11 2.75  23 2.75
                             4 2.75
   3  0.000  0.250  0.592-   4 2.75  31 2.75   6 2.75   7 2.75  23 2.75   2 2.75  29 2.75  42 2.75
                            44 2.75
   4  0.917  0.417  0.500-  20 2.75   3 2.75  23 2.75  31 2.75  36 2.75  43 2.75  44 2.75  21 2.75
                            38 2.75  22 2.75   5 2.75   2 2.75
   5  0.083  0.333  0.408-  38 2.75  22 2.75  26 2.75   1 2.75  41 2.75  20 2.75  46 2.75  31 2.75
                             4 2.75
   6  0.000  0.000  0.592-  44 2.75  34 2.75  25 2.75   3 2.75  42 2.75   9 2.75   7 2.75  19 2.75
                            47 2.75
   7  0.250  0.000  0.592-  31 2.75  16 2.75   3 2.75  17 2.75  29 2.75   9 2.75   6 2.75  24 2.75
                            34 2.75
   8  0.750  0.750  0.592-  28 2.75  36 2.75  23 2.75  24 2.75   2 2.75  19 2.75  17 2.75  25 2.75
                            43 2.75
   9  0.250  0.750  0.592-  34 2.75  48 2.75  11 2.75   6 2.75  39 2.75   7 2.75  25 2.75  17 2.75
                            32 2.75
  10  0.333  0.583  0.408-  48 2.75  30 2.75  33 2.75  46 2.75  13 2.75  37 2.75  41 2.75  35 2.75
                            32 2.75
  11  0.250  0.500  0.592-  32 2.75  35 2.75  25 2.75  29 2.75   9 2.75  14 2.75   2 2.75  39 2.75
                            38 2.75
  12  0.417  0.167  0.500-  26 2.75  24 2.75  29 2.75  28 2.75  16 2.75  35 2.75  38 2.75  18 2.75
                            31 2.75  46 2.75  14 2.75  27 2.75
  13  0.083  0.833  0.408-  34 2.75  10 2.75   1 2.75  40 2.75  41 2.75  30 2.75  45 2.75  32 2.75
                            47 2.75
  14  0.500  0.250  0.592-  35 2.75  18 2.75  19 2.75  24 2.75  11 2.75  39 2.75  29 2.75  42 2.75
                            12 2.75
  15  0.583  0.833  0.408-  28 2.75  26 2.75  27 2.75  22 2.75  37 2.75  30 2.75  45 2.75  43 2.75
                            16 2.75
  16  0.417  0.917  0.500-  30 2.75  17 2.75   7 2.75  12 2.75  31 2.75  43 2.75  48 2.75  28 2.75
                            34 2.75  26 2.75  24 2.75  15 2.75
  17  0.500  0.750  0.592-  16 2.75  43 2.75  23 2.75  24 2.75  39 2.75   7 2.75   9 2.75   8 2.75
                            48 2.75
  18  0.667  0.167  0.500-  27 2.75  19 2.75  14 2.75  21 2.75  28 2.75  35 2.75  47 2.75  44 2.75
                            12 2.75  33 2.75  40 2.75  42 2.75
  19  0.750  0.000  0.592-  18 2.75  47 2.75   8 2.75  25 2.75  42 2.75  14 2.75  24 2.75   6 2.75
                            28 2.75
  20  0.833  0.333  0.408-   4 2.75   1 2.75  22 2.75  37 2.75  40 2.75   5 2.75  33 2.75  44 2.75
                            21 2.75
  21  0.667  0.417  0.500-  33 2.75  42 2.75  39 2.75  18 2.75  43 2.75  44 2.75  48 2.75  35 2.75
                             4 2.75  37 2.75  20 2.75  23 2.75
  22  0.833  0.583  0.408-  36 2.75  15 2.75  20 2.75   5 2.75  45 2.75  41 2.75  37 2.75   4 2.75
                            43 2.75
  23  0.750  0.500  0.592-  43 2.75   4 2.75   8 2.75  17 2.75  42 2.75   3 2.75   2 2.75  39 2.75
                            21 2.75
  24  0.500  0.000  0.592-  12 2.75  28 2.75  14 2.75  17 2.75   8 2.75  29 2.75   7 2.75  19 2.75
                            16 2.75
  25  0.000  0.750  0.592-  47 2.75  32 2.75  11 2.75  19 2.75   2 2.75   6 2.75   8 2.75   9 2.75
                            36 2.75
  26  0.333  0.083  0.408-  12 2.75   5 2.75  15 2.75  30 2.75  46 2.75   1 2.75  27 2.75  16 2.75
                            31 2.75
  27  0.583  0.083  0.408-  18 2.75  15 2.75  33 2.75  45 2.75  46 2.75  26 2.75  40 2.75  28 2.75
                            12 2.75
  28  0.667  0.917  0.500-  15 2.75   8 2.75  24 2.75  18 2.75  12 2.75  36 2.75  43 2.75  16 2.75
                            47 2.75  27 2.75  45 2.75  19 2.75
  29  0.250  0.250  0.592-  38 2.75  12 2.75  11 2.75   2 2.75  24 2.75   7 2.75   3 2.75  14 2.75
                            31 2.75
  30  0.333  0.833  0.408-  16 2.75  10 2.75   1 2.75  26 2.75  37 2.75  15 2.75  13 2.75  48 2.75
                            34 2.75
  31  0.167  0.167  0.500-   1 2.75   7 2.75   3 2.75   4 2.75  16 2.75  34 2.75  38 2.75  12 2.75
                            44 2.75   5 2.75  29 2.75  26 2.75
  32  0.167  0.667  0.500-  41 2.75  11 2.75  25 2.75  35 2.75  38 2.75  34 2.75  47 2.75  36 2.75
                            48 2.75  13 2.75   9 2.75  10 2.75
  33  0.583  0.333  0.408-  21 2.75  10 2.75  27 2.75  37 2.75  40 2.75  20 2.75  46 2.75  18 2.75
                            35 2.75
  34  0.167  0.917  0.500-  13 2.75   9 2.75   6 2.75  31 2.75  32 2.75  44 2.75  48 2.75  47 2.75
                            16 2.75   1 2.75  30 2.75   7 2.75
  35  0.417  0.417  0.500-  46 2.75  14 2.75  11 2.75  18 2.75  32 2.75  12 2.75  48 2.75  21 2.75
                            38 2.75  10 2.75  33 2.75  39 2.75
  36  0.917  0.667  0.500-  22 2.75   2 2.75   8 2.75   4 2.75  28 2.75  38 2.75  47 2.75  43 2.75
                            32 2.75  45 2.75  41 2.75  25 2.75
  37  0.583  0.583  0.408-  43 2.75  20 2.75  30 2.75  33 2.75  15 2.75  22 2.75  10 2.75  21 2.75
                            48 2.75
  38  0.167  0.417  0.500-   5 2.75  29 2.75   2 2.75  12 2.75  31 2.75  32 2.75  36 2.75  35 2.75
                             4 2.75  41 2.75  11 2.75  46 2.75
  39  0.500  0.500  0.592-  48 2.75  21 2.75  17 2.75   9 2.75  42 2.75  14 2.75  11 2.75  23 2.75
                            35 2.75
  40  0.833  0.083  0.408-  44 2.75  20 2.75  33 2.75  13 2.75  45 2.75  27 2.75   1 2.75  47 2.75
                            18 2.75
  41  0.083  0.583  0.408-  32 2.75  13 2.75   5 2.75  45 2.75  46 2.75  22 2.75  10 2.75  38 2.75
                            36 2.75
  42  0.750  0.250  0.592-  21 2.75  44 2.75   6 2.75  23 2.75  39 2.75  19 2.75  14 2.75   3 2.75
                            18 2.75
  43  0.667  0.667  0.500-  37 2.75  23 2.75  17 2.75  21 2.75  16 2.75  28 2.75   4 2.75  36 2.75
                            48 2.75  15 2.75  22 2.75   8 2.75
  44  0.917  0.167  0.500-  40 2.75   6 2.75  42 2.75  34 2.75   4 2.75  21 2.75  47 2.75  18 2.75
                            31 2.75  20 2.75   1 2.75   3 2.75
  45  0.833  0.833  0.408-  47 2.75  27 2.75  40 2.75  41 2.75  22 2.75  15 2.75  13 2.75  36 2.75
                            28 2.75
  46  0.333  0.333  0.408-  35 2.75  26 2.75  27 2.75  10 2.75  41 2.75   5 2.75  33 2.75  12 2.75
                            38 2.75
  47  0.917  0.917  0.500-  45 2.75  25 2.75  19 2.75  32 2.75  36 2.75  44 2.75  18 2.75  34 2.75
                            28 2.75  40 2.75   6 2.75  13 2.75
  48  0.417  0.667  0.500-  10 2.75  39 2.75   9 2.75  21 2.75  34 2.75  35 2.75  16 2.75  32 2.75
                            43 2.75  30 2.75  17 2.75  37 2.75
 
  LATTYP: Found a hexagonal cell.
 ALAT       =    11.0025815153
 C/A-ratio  =     2.2260035120
  
  Lattice vectors:
  
 A1 = (   5.5012907576,  -9.5285150994,   0.0000000000)
 A2 = ( -11.0025815153,   0.0000000000,   0.0000000000)
 A3 = (   0.0000000000,   0.0000000000, -24.4917850943)


Analysis of symmetry for initial positions (statically):
=====================================================================
 Subroutine PRICEL returns:
 Original cell was already a primitive cell.
 

 Routine SETGRP: Setting up the symmetry group for a 
 hexagonal supercell.


 Subroutine GETGRP returns: Found  1 space group operations
 (whereof  1 operations were pure point group operations)
 out of a pool of 24 trial point group operations.


The static configuration has the point symmetry C_1 .


Analysis of symmetry for dynamics (positions and initial velocities):
=====================================================================
 Subroutine PRICEL returns:
 Original cell was already a primitive cell.
 

 Routine SETGRP: Setting up the symmetry group for a 
 hexagonal supercell.


 Subroutine GETGRP returns: Found  1 space group operations
 (whereof  1 operations were pure point group operations)
 out of a pool of 24 trial point group operations.


The dynamic configuration has the point symmetry C_1 .


Analysis of constrained symmetry for selective dynamics:
=====================================================================
 Subroutine PRICEL returns:
 Original cell was already a primitive cell.
 

 Routine SETGRP: Setting up the symmetry group for a 
 hexagonal supercell.


 Subroutine GETGRP returns: Found  1 space group operations
 (whereof  1 operations were pure point group operations)
 out of a pool of 24 trial point group operations.


The constrained configuration has the point symmetry C_1 .
 
 
 KPOINTS: Automatic mesh                          

Automatic generation of k-mesh.
Space group operators:
 irot       det(A)        alpha          n_x          n_y          n_z        tau_x        tau_y        tau_z
    1     1.000000     0.000000     1.000000     0.000000     0.000000     0.000000     0.000000     0.000000
 
 Subroutine IBZKPT returns following result:
 ===========================================
 
 Found      6 irreducible k-points:
 
 Following reciprocal coordinates:
            Coordinates               Weight
  0.250000  0.250000  0.000000     16.000000
  0.000000  0.250000  0.000000     16.000000
 -0.250000  0.000000  0.000000     16.000000
 -0.250000  0.250000  0.000000     16.000000
  0.500000 -0.250000  0.000000     16.000000
 -0.250000  0.500000  0.000000     16.000000
 
 Following cartesian coordinates:
            Coordinates               Weight
  0.022722  0.013119  0.000000     16.000000
  0.000000  0.026237  0.000000     16.000000
 -0.022722  0.013119  0.000000     16.000000
 -0.022722  0.039356  0.000000     16.000000
  0.045444 -0.052474  0.000000     16.000000
 -0.022722  0.065593  0.000000     16.000000
 


--------------------------------------------------------------------------------------------------------




 Dimension of arrays:
   k-points           NKPTS =      6   k-points in BZ     NKDIM =      6   number of bands    NBANDS=    306
   number of dos      NEDOS =    301   number of ions     NIONS =     48
   non local maximal  LDIM  =      6   non local SUM 2l+1 LMDIM =     18
   total plane-waves  NPLWV = 349920
   max r-space proj   IRMAX =   2009   max aug-charges    IRDMAX=   8532
   dimension x,y,z NGX =    54 NGY =   54 NGZ =  120
   dimension x,y,z NGXF=   108 NGYF=  108 NGZF=  240
   support grid    NGXF=   108 NGYF=  108 NGZF=  240
   ions per type =              24  24
 NGX,Y,Z   is equivalent  to a cutoff of   8.16,  8.16,  8.15 a.u.
 NGXF,Y,Z  is equivalent  to a cutoff of  16.32, 16.32, 16.29 a.u.


 I would recommend the setting:
   dimension x,y,z NGX =    54 NGY =   54 NGZ =  120
 SYSTEM =  unknown system                          
 POSCAR =  Au Pd                                   

 Startparameter for this run:
   NWRITE =      1    write-flag & timer
   PREC   = normal    normal or accurate (medium, high low for compatibility)
   ISTART =      0    job   : 0-new  1-cont  2-samecut
   ICHARG =      2    charge: 1-file 2-atom 10-const
   ISPIN  =      1    spin polarized calculation?
   LNONCOLLINEAR =      F non collinear calculations
   LSORBIT =      F    spin-orbit coupling
   INIWAV =      1    electr: 0-lowe 1-rand  2-diag
   LASPH  =      F    aspherical Exc in radial PAW
   METAGGA=      F    non-selfconsistent MetaGGA calc.

 Electronic Relaxation 1
   ENCUT  =  400.0 eV  29.40 Ry    5.42 a.u.  17.94 17.94 39.94*2*pi/ulx,y,z
   ENINI  =  400.0     initial cutoff
   ENAUG  =  416.2 eV  augmentation charge cutoff
   NELM   =    500;   NELMIN=  2; NELMDL= -5     # of ELM steps 
   EDIFF  = 0.1E-05   stopping-criterion for ELM
   LREAL  =      T    real-space projection
   NLSPLINE    = F    spline interpolate recip. space projectors
   LCOMPAT=      F    compatible to vasp.4.4
   GGA_COMPAT  = T    GGA compatible to vasp.4.4-vasp.4.6
   LMAXPAW     = -100 max onsite density
   LMAXMIX     =    2 max onsite mixed and CHGCAR
   VOSKOWN=      1    Vosko Wilk Nusair interpolation
   ROPT   =   -0.00050  -0.00050
 Ionic relaxation
   EDIFFG = -.2E-01   stopping-criterion for IOM
   NSW    =    500    number of steps for IOM
   NBLOCK =      1;   KBLOCK =    500    inner block; outer block 
   IBRION =      2    ionic relax: 0-MD 1-quasi-New 2-CG
   NFREE  =      2    steps in history (QN), initial steepest desc. (CG)
   ISIF   =      0    stress and relaxation
   IWAVPR =     11    prediction:  0-non 1-charg 2-wave 3-comb
   ISYM   =      2    0-nonsym 1-usesym 2-fastsym
   LCORR  =      T    Harris-Foulkes like correction to forces

   POTIM  = 0.3500    time-step for ionic-motion
   TEIN   =    0.0    initial temperature
   TEBEG  =    0.0;   TEEND  =   0.0 temperature during run
   SMASS  =  -3.00    Nose mass-parameter (am)
   estimated Nose-frequenzy (Omega)   =  0.10E-29 period in steps =****** mass=  -0.277E-26a.u.
   SCALEE = 1.0000    scale energy and forces
   NPACO  =    256;   APACO  = 16.0  distance and # of slots for P.C.
   PSTRESS=    0.0 pullay stress

  Mass of Ions in am
   POMASS = 196.97106.42
  Ionic Valenz
   ZVAL   =  11.00 10.00
  Atomic Wigner-Seitz radii
   RWIGS  =  -1.00 -1.00
  virtual crystal weights 
   VCA    =   1.00  1.00
   NELECT =     504.0000    total number of electrons
   NUPDOWN=      -1.0000    fix difference up-down

 DOS related values:
   EMIN   =  10.00;   EMAX   =-10.00  energy-range for DOS
   EFERMI =   0.00
   ISMEAR =     0;   SIGMA  =   0.10  broadening in eV -4-tet -1-fermi 0-gaus

 Electronic relaxation 2 (details)
   IALGO  =     68    algorithm
   LDIAG  =      T    sub-space diagonalisation (order eigenvalues)
   LSUBROT=      F    optimize rotation matrix (better conditioning)
   TURBO    =      0    0=normal 1=particle mesh
   IRESTART =      0    0=no restart 2=restart with 2 vectors
   NREBOOT  =      0    no. of reboots
   NMIN     =      0    reboot dimension
   EREF     =   0.00    reference energy to select bands
   IMIX   =      4    mixing-type and parameters
     AMIX     =   0.40;   BMIX     =  1.00
     AMIX_MAG =   1.60;   BMIX_MAG =  1.00
     AMIN     =   0.10
     WC   =   100.;   INIMIX=   1;  MIXPRE=   1;  MAXMIX= -45

 Intra band minimization:
   WEIMIN = 0.0010     energy-eigenvalue tresh-hold
   EBREAK =  0.82E-09  absolut break condition
   DEPER  =   0.30     relativ break condition  

   TIME   =   0.40     timestep for ELM

  volume/ion in A,a.u.               =      53.49       360.99
  Fermi-wavevector in a.u.,A,eV,Ry     =   0.951418  1.797920 12.315955  0.905197
  Thomas-Fermi vector in A             =   2.079887
 
 Write flags
   LWAVE  =      F    write WAVECAR
   LCHARG =      F    write CHGCAR
   LVTOT  =      F    write LOCPOT, total local potential
   LVHAR  =      F    write LOCPOT, Hartree potential only
   LELF   =      F    write electronic localiz. function (ELF)
   LORBIT =      0    0 simple, 1 ext, 2 COOP (PROOUT)


 Dipole corrections
   LMONO  =      F    monopole corrections only (constant potential shift)
   LDIPOL =      T    correct potential (dipole corrections)
   IDIPOL =      3    1-x, 2-y, 3-z, 4-all directions 
   EPSILON=  1.0000000 bulk dielectric constant

 Exchange correlation treatment:
   GGA     =    PE    GGA type
   LEXCH   =     8    internal setting for exchange type
   VOSKOWN=      1    Vosko Wilk Nusair interpolation
   LHFCALC =     F    Hartree Fock is set to
   LHFONE  =     F    Hartree Fock one center treatment
   AEXX    =    0.0000 exact exchange contribution

 Linear response parameters
   LEPSILON=     F    determine dielectric tensor
   LRPA    =     F    only Hartree local field effects (RPA)
   LNABLA  =     F    use nabla operator in PAW spheres
   LVEL    =     F    velocity operator in full k-point grid
   LINTERFAST=   F  fast interpolation
   KINTER  =     0    interpolate to denser k-point grid
   CSHIFT  =0.1000    complex shift for real part using Kramers Kronig
   OMEGAMAX=  -1.0    maximum frequency
   DEG_THRESHOLD= 0.2000000E-02 threshold for treating states as degnerate
   RTIME   =    0.100 relaxation time in fs

 Orbital magnetization related:
   ORBITALMAG=     F  switch on orbital magnetization
   LCHIMAG   =     F  perturbation theory with respect to B field
   DQ        =  0.001000  dq finite difference perturbation B field



--------------------------------------------------------------------------------------------------------


 conjugate gradient relaxation of ions
   using selective dynamics as specified on POSCAR
   WARNING: If single coordinates had been selected the selection of coordinates
            is made according to the corresponding   d i r e c t   coordinates!
            Don't support selection of single cartesian coordinates -- sorry ...
  !
 charge density and potential will be updated during run
 non-spin polarized calculation
 RMM-DIIS sequential band-by-band and
  variant of blocked Davidson during initial phase
 perform sub-space diagonalisation
    before iterative eigenvector-optimisation
 modified Broyden-mixing scheme, WC =      100.0
 initial mixing is a Kerker type mixing with AMIX =  0.4000 and BMIX =      1.0000
 Hartree-type preconditioning will be used
 using additional bands           54
 real space projection scheme for non local part
 use partial core corrections
 calculate Harris-corrections to forces 
   (improved forces if not selfconsistent)
 use gradient corrections 
 use of overlap-Matrix (Vanderbilt PP)
 Gauss-broadening in eV      SIGMA  =   0.10


--------------------------------------------------------------------------------------------------------


  energy-cutoff  :      400.00
  volume of cell :     2567.68
      direct lattice vectors                 reciprocal lattice vectors
    11.002581515  0.000000000  0.000000000     0.090887761 -0.052474073  0.000000000
     5.501290758  9.528515099  0.000000000     0.000000000  0.104948147  0.000000000
     0.000000000  0.000000000 24.491785094     0.000000000  0.000000000  0.040830017

  length of vectors
    11.002581515 11.002581515 24.491785094     0.104948147  0.104948147  0.040830017


 
 k-points in units of 2pi/SCALE and weight: Automatic mesh                          
   0.02272194  0.01311852  0.00000000       0.167
   0.00000000  0.02623704  0.00000000       0.167
  -0.02272194  0.01311852  0.00000000       0.167
  -0.02272194  0.03935555  0.00000000       0.167
   0.04544388 -0.05247407  0.00000000       0.167
  -0.02272194  0.06559259  0.00000000       0.167
 
 k-points in reciprocal lattice and weights: Automatic mesh                          
   0.25000000  0.25000000  0.00000000       0.167
   0.00000000  0.25000000  0.00000000       0.167
  -0.25000000  0.00000000  0.00000000       0.167
  -0.25000000  0.25000000  0.00000000       0.167
   0.50000000 -0.25000000  0.00000000       0.167
  -0.25000000  0.50000000  0.00000000       0.167
 
 position of ions in fractional coordinates (direct lattice) 
   0.08333333  0.08333333  0.40830017
   0.00000000  0.50000000  0.59169983
   0.00000000  0.25000000  0.59169983
   0.91666667  0.41666667  0.50000000
   0.08333333  0.33333333  0.40830017
   0.00000000  0.00000000  0.59169983
   0.25000000  0.00000000  0.59169983
   0.75000000  0.75000000  0.59169983
   0.25000000  0.75000000  0.59169983
   0.33333333  0.58333333  0.40830017
   0.25000000  0.50000000  0.59169983
   0.41666667  0.16666667  0.50000000
   0.08333333  0.83333333  0.40830017
   0.50000000  0.25000000  0.59169983
   0.58333333  0.83333333  0.40830017
   0.41666667  0.91666667  0.50000000
   0.50000000  0.75000000  0.59169983
   0.66666667  0.16666667  0.50000000
   0.75000000  0.00000000  0.59169983
   0.83333333  0.33333333  0.40830017
   0.66666667  0.41666667  0.50000000
   0.83333333  0.58333333  0.40830017
   0.75000000  0.50000000  0.59169983
   0.50000000  0.00000000  0.59169983
   0.00000000  0.75000000  0.59169983
   0.33333333  0.08333333  0.40830017
   0.58333333  0.08333333  0.40830017
   0.66666667  0.91666667  0.50000000
   0.25000000  0.25000000  0.59169983
   0.33333333  0.83333333  0.40830017
   0.16666667  0.16666667  0.50000000
   0.16666667  0.66666667  0.50000000
   0.58333333  0.33333333  0.40830017
   0.16666667  0.91666667  0.50000000
   0.41666667  0.41666667  0.50000000
   0.91666667  0.66666667  0.50000000
   0.58333333  0.58333333  0.40830017
   0.16666667  0.41666667  0.50000000
   0.50000000  0.50000000  0.59169983
   0.83333333  0.08333333  0.40830017
   0.08333333  0.58333333  0.40830017
   0.75000000  0.25000000  0.59169983
   0.66666667  0.66666667  0.50000000
   0.91666667  0.16666667  0.50000000
   0.83333333  0.83333333  0.40830017
   0.33333333  0.33333333  0.40830017
   0.91666667  0.91666667  0.50000000
   0.41666667  0.66666667  0.50000000
 
 position of ions in cartesian coordinates  (Angst):
   1.37532269  0.79404292 10.00000000
   2.75064538  4.76425755 14.49178509
   1.37532269  2.38212877 14.49178509
  12.37790420  3.97021462 12.24589255
   2.75064538  3.17617170 10.00000000
   0.00000000  0.00000000 14.49178509
   2.75064538  0.00000000 14.49178509
  12.37790420  7.14638632 14.49178509
   6.87661345  7.14638632 14.49178509
   6.87661345  5.55830047 10.00000000
   5.50129076  4.76425755 14.49178509
   5.50129076  1.58808585 12.24589255
   5.50129076  7.94042925 10.00000000
   6.87661345  2.38212877 14.49178509
  11.00258152  7.94042925 10.00000000
   9.62725883  8.73447217 12.24589255
   9.62725883  7.14638632 14.49178509
   8.25193614  1.58808585 12.24589255
   8.25193614  0.00000000 14.49178509
  11.00258152  3.17617170 10.00000000
   9.62725883  3.97021462 12.24589255
  12.37790420  5.55830047 10.00000000
  11.00258152  4.76425755 14.49178509
   5.50129076  0.00000000 14.49178509
   4.12596807  7.14638632 14.49178509
   4.12596807  0.79404292 10.00000000
   6.87661345  0.79404292 10.00000000
  12.37790420  8.73447217 12.24589255
   4.12596807  2.38212877 14.49178509
   8.25193614  7.94042925 10.00000000
   2.75064538  1.58808585 12.24589255
   5.50129076  6.35234340 12.24589255
   8.25193614  3.17617170 10.00000000
   6.87661345  8.73447217 12.24589255
   6.87661345  3.97021462 12.24589255
  13.75322689  6.35234340 12.24589255
   9.62725883  5.55830047 10.00000000
   4.12596807  3.97021462 12.24589255
   8.25193614  4.76425755 14.49178509
   9.62725883  0.79404292 10.00000000
   4.12596807  5.55830047 10.00000000
   9.62725883  2.38212877 14.49178509
  11.00258152  6.35234340 12.24589255
  11.00258152  1.58808585 12.24589255
  13.75322689  7.94042925 10.00000000
   5.50129076  3.17617170 10.00000000
  15.12854958  8.73447217 12.24589255
   8.25193614  6.35234340 12.24589255
 


--------------------------------------------------------------------------------------------------------


 k-point  1 :   0.2500 0.2500 0.0000  plane waves:   46635
 k-point  2 :   0.0000 0.2500 0.0000  plane waves:   46635
 k-point  3 :  -0.2500 0.0000 0.0000  plane waves:   46635
 k-point  4 :  -0.2500 0.2500 0.0000  plane waves:   46644
 k-point  5 :   0.5000-0.2500 0.0000  plane waves:   46644
 k-point  6 :  -0.2500 0.5000 0.0000  plane waves:   46644

 maximum and minimum number of plane-waves per node :      7818     7732

 maximum number of plane-waves:     46644
 maximum index in each direction: 
   IXMAX=   18   IYMAX=   18   IZMAX=   39
   IXMIN=  -18   IYMIN=  -18   IZMIN=  -39

 WARNING: aliasing errors must be expected set NGX to  74 to avoid them
 WARNING: aliasing errors must be expected set NGY to  74 to avoid them
 WARNING: aliasing errors must be expected set NGZ to 158 to avoid them
 aliasing errors are usually negligible using standard VASP settings
 and one can safely disregard these warnings

 real space projection operators:
  total allocation   :      12803.06 KBytes
  max/ min on nodes  :       2145.66       2127.94


 parallel 3D FFT for wavefunctions:
    minimum data exchange during FFTs selected (reduces bandwidth)
 parallel 3D FFT for charge:
    minimum data exchange during FFTs selected (reduces bandwidth)


 total amount of memory used by VASP on root node    84353. kBytes
========================================================================

   base      :      30000. kBytes
   nonlr-proj:       4285. kBytes
   fftplans  :       4447. kBytes
   grid      :       6721. kBytes
   one-center:        124. kBytes
   wavefun   :      38776. kBytes
 
     INWAV:  cpu time    0.0000: real time    0.0000
 Broyden mixing: mesh for mixing (old mesh)
   NGX = 35   NGY = 35   NGZ = 79
  (NGX  =108   NGY  =108   NGZ  =240)
  gives a total of  96775 points

 initial charge density was supplied:
 charge density of overlapping atoms calculated
 number of electron     504.0000000 magnetization 
 keeping initial charge density in first step


--------------------------------------------------------------------------------------------------------


 Maximum index for non-local projection operator          355
 Maximum index for augmentation-charges          437 (set IRDMAX)


--------------------------------------------------------------------------------------------------------


 First call to EWALD:  gamma=   0.129
 Maximum number of real-space cells 4x 4x 2
 Maximum number of reciprocal cells 2x 2x 5

 FEWALD executed in parallel
    FEWALD:  cpu time    0.0021: real time    0.0021


----------------------------------------- Iteration    1(   1)  ---------------------------------------


    POTLOK:  cpu time    0.0453: real time    0.0457
    SETDIJ:  cpu time    0.0056: real time    0.0056
     EDDAV:  cpu time    7.1965: real time    7.3565
       DOS:  cpu time    0.0013: real time    0.0013
    --------------------------------------------
      LOOP:  cpu time    7.2513: real time    7.4161

 eigenvalue-minimisations  :  3672
 total energy-change (2. order) : 0.3200533E+04  (-0.1898331E+05)
 number of electron     504.0000000 magnetization 
 augmentation part      504.0000000 magnetization 

 DIPCOR: dipole corrections for dipol
 direction  3 min pos     1,
 dipolmoment           0.000000      0.000000     -0.000004 electrons x Angstroem
 Tr[quadrupol]    -10284.888181

 energy correction for charged system         0.000000 eV
 dipol+quadrupol energy correction           -0.000000 eV
 added-field ion interaction          0.000003 eV  (added to PSCEN)


 Free energy of the ion-electron system (eV)
  ---------------------------------------------------
  alpha Z        PSCENC =       805.86936721
  Ewald energy   TEWEN  =    199465.60963208
  -Hartree energ DENC   =   -241876.96756146
  -exchange      EXHF   =         0.00000000
  -V(xc)+E(xc)   XCENC  =      -327.82331773
  PAW double counting   =     40340.05962942   -38292.62782345
  entropy T*S    EENTRO =        -0.12257234
  eigenvalues    EBANDS =      1426.75017543
  atomic energy  EATOM  =     41659.78587232
  Solvation  Ediel_sol  =         0.00000000
  ---------------------------------------------------
  free energy    TOTEN  =      3200.53340150 eV

  energy without entropy =     3200.65597384  energy(sigma->0) =     3200.59468767


--------------------------------------------------------------------------------------------------------




----------------------------------------- Iteration    1(   2)  ---------------------------------------


     EDDAV:  cpu time    8.4764: real time    8.4994
       DOS:  cpu time    0.0013: real time    0.0013
    --------------------------------------------
      LOOP:  cpu time    8.4786: real time    8.5031

 eigenvalue-minimisations  :  4368
 total energy-change (2. order) :-0.3186693E+04  (-0.2929792E+04)
 number of electron     504.0000000 magnetization 
 augmentation part      504.0000000 magnetization 

 DIPCOR: dipole corrections for dipol
 direction  3 min pos     1,
 dipolmoment           0.000000      0.000000     -0.000004 electrons x Angstroem
 Tr[quadrupol]    -10284.888181

 energy correction for charged system         0.000000 eV
 dipol+quadrupol energy correction           -0.000000 eV
 added-field ion interaction          0.000003 eV  (added to PSCEN)


 Free energy of the ion-electron system (eV)
  ---------------------------------------------------
  alpha Z        PSCENC =       805.86936721
  Ewald energy   TEWEN  =    199465.60963208
  -Hartree energ DENC   =   -241876.96756146
  -exchange      EXHF   =         0.00000000
  -V(xc)+E(xc)   XCENC  =      -327.82331773
  PAW double counting   =     40340.05962942   -38292.62782345
  entropy T*S    EENTRO =        -0.13824807
  eigenvalues    EBANDS =     -1759.92717831
  atomic energy  EATOM  =     41659.78587232
  Solvation  Ediel_sol  =         0.00000000
  ---------------------------------------------------
  free energy    TOTEN  =        13.84037202 eV

  energy without entropy =       13.97862009  energy(sigma->0) =       13.90949606


--------------------------------------------------------------------------------------------------------




----------------------------------------- Iteration    1(   3)  ---------------------------------------


     EDDAV:  cpu time    8.2155: real time    8.2380
       DOS:  cpu time    0.0014: real time    0.0014
    --------------------------------------------
      LOOP:  cpu time    8.2179: real time    8.2444

 eigenvalue-minimisations  :  4128
 total energy-change (2. order) :-0.2160989E+03  (-0.2003406E+03)
 number of electron     504.0000000 magnetization 
 augmentation part      504.0000000 magnetization 

 DIPCOR: dipole corrections for dipol
 direction  3 min pos     1,
 dipolmoment           0.000000      0.000000     -0.000004 electrons x Angstroem
 Tr[quadrupol]    -10284.888181

 energy correction for charged system         0.000000 eV
 dipol+quadrupol energy correction           -0.000000 eV
 added-field ion interaction          0.000003 eV  (added to PSCEN)


 Free energy of the ion-electron system (eV)
  ---------------------------------------------------
  alpha Z        PSCENC =       805.86936721
  Ewald energy   TEWEN  =    199465.60963208
  -Hartree energ DENC   =   -241876.96756146
  -exchange      EXHF   =         0.00000000
  -V(xc)+E(xc)   XCENC  =      -327.82331773
  PAW double counting   =     40340.05962942   -38292.62782345
  entropy T*S    EENTRO =        -0.16512287
  eigenvalues    EBANDS =     -1975.99917102
  atomic energy  EATOM  =     41659.78587232
  Solvation  Ediel_sol  =         0.00000000
  ---------------------------------------------------
  free energy    TOTEN  =      -202.25849548 eV

  energy without entropy =     -202.09337261  energy(sigma->0) =     -202.17593404


--------------------------------------------------------------------------------------------------------




----------------------------------------- Iteration    1(   4)  ---------------------------------------


     EDDAV:  cpu time    8.4084: real time    8.4342
       DOS:  cpu time    0.0015: real time    0.0015
    --------------------------------------------
      LOOP:  cpu time    8.4109: real time    8.4394

 eigenvalue-minimisations  :  4248
 total energy-change (2. order) :-0.5875503E+01  (-0.5814331E+01)
 number of electron     504.0000000 magnetization 
 augmentation part      504.0000000 magnetization 

 DIPCOR: dipole corrections for dipol
 direction  3 min pos     1,
 dipolmoment           0.000000      0.000000     -0.000004 electrons x Angstroem
 Tr[quadrupol]    -10284.888181

 energy correction for charged system         0.000000 eV
 dipol+quadrupol energy correction           -0.000000 eV
 added-field ion interaction          0.000003 eV  (added to PSCEN)


 Free energy of the ion-electron system (eV)
  ---------------------------------------------------
  alpha Z        PSCENC =       805.86936721
  Ewald energy   TEWEN  =    199465.60963208
  -Hartree energ DENC   =   -241876.96756146
  -exchange      EXHF   =         0.00000000
  -V(xc)+E(xc)   XCENC  =      -327.82331773
  PAW double counting   =     40340.05962942   -38292.62782345
  entropy T*S    EENTRO =        -0.17230114
  eigenvalues    EBANDS =     -1981.86749593
  atomic energy  EATOM  =     41659.78587232
  Solvation  Ediel_sol  =         0.00000000
  ---------------------------------------------------
  free energy    TOTEN  =      -208.13399867 eV

  energy without entropy =     -207.96169753  energy(sigma->0) =     -208.04784810


--------------------------------------------------------------------------------------------------------




----------------------------------------- Iteration    1(   5)  ---------------------------------------


     EDDAV:  cpu time    8.5865: real time    8.6455
       DOS:  cpu time    0.0015: real time    0.0015
    CHARGE:  cpu time    0.2180: real time    0.2185
    MIXING:  cpu time    0.0021: real time    0.0022
    --------------------------------------------
      LOOP:  cpu time    8.8088: real time    8.8718

 eigenvalue-minimisations  :  4392
 total energy-change (2. order) :-0.1919131E+00  (-0.1913527E+00)
 number of electron     503.9998402 magnetization 
 augmentation part      191.1830805 magnetization 

 DIPCOR: dipole corrections for dipol
 direction  3 min pos     1,
 dipolmoment           0.000000      0.000000     -0.000004 electrons x Angstroem
 Tr[quadrupol]    -10284.888181

 energy correction for charged system         0.000000 eV
 dipol+quadrupol energy correction           -0.000000 eV
 added-field ion interaction          0.000003 eV  (added to PSCEN)


 Broyden mixing:
  rms(total) = 0.61905E+01    rms(broyden)= 0.61905E+01
  rms(prec ) = 0.63450E+01
  weight for this iteration     100.00

 Free energy of the ion-electron system (eV)
  ---------------------------------------------------
  alpha Z        PSCENC =       805.86936721
  Ewald energy   TEWEN  =    199465.60963208
  -Hartree energ DENC   =   -241876.96756146
  -exchange      EXHF   =         0.00000000
  -V(xc)+E(xc)   XCENC  =      -327.82331773
  PAW double counting   =     40340.05962942   -38292.62782345
  entropy T*S    EENTRO =        -0.17172471
  eigenvalues    EBANDS =     -1982.05998550
  atomic energy  EATOM  =     41659.78587232
  Solvation  Ediel_sol  =         0.00000000
  ---------------------------------------------------
  free energy    TOTEN  =      -208.32591180 eV

  energy without entropy =     -208.15418710  energy(sigma->0) =     -208.24004945


--------------------------------------------------------------------------------------------------------




----------------------------------------- Iteration    1(   6)  ---------------------------------------


    POTLOK:  cpu time    0.0410: real time    0.0411
    SETDIJ:  cpu time    0.0055: real time    0.0058
    EDDIAG:  cpu time    1.2874: real time    1.2912
  RMM-DIIS:  cpu time    3.3645: real time    3.5573
    ORTHCH:  cpu time    0.3571: real time    0.3580
       DOS:  cpu time    0.0013: real time    0.0013
    CHARGE:  cpu time    0.2219: real time    0.2225
    MIXING:  cpu time    0.0019: real time    0.0019
    --------------------------------------------
      LOOP:  cpu time    5.2811: real time    5.4832

 eigenvalue-minimisations  :  3672
 total energy-change (2. order) :-0.5412524E+01  (-0.1106569E+02)
 number of electron     503.9998450 magnetization 
 augmentation part      189.7158577 magnetization 

 DIPCOR: dipole corrections for dipol
 direction  3 min pos     1,
 dipolmoment           0.000000      0.000000     -1.672607 electrons x Angstroem
 Tr[quadrupol]    -10288.356024

 energy correction for charged system         0.000000 eV
 dipol+quadrupol energy correction           -0.098580 eV
 added-field ion interaction          1.323689 eV  (added to PSCEN)


 Broyden mixing:
  rms(total) = 0.59371E+01    rms(broyden)= 0.59369E+01
  rms(prec ) = 0.64531E+01
  weight for this iteration     100.00

 eigenvalues of (default mixing * dielectric matrix)
  average eigenvalue GAMMA=   0.5771
  0.5771

 Free energy of the ion-electron system (eV)
  ---------------------------------------------------
  alpha Z        PSCENC =       807.09447251
  Ewald energy   TEWEN  =    199465.60963208
  -Hartree energ DENC   =   -241694.74289781
  -exchange      EXHF   =         0.00000000
  -V(xc)+E(xc)   XCENC  =      -340.85677363
  PAW double counting   =     43883.23207772   -41895.50232238
  entropy T*S    EENTRO =        -0.24845747
  eigenvalues    EBANDS =     -2098.11003909
  atomic energy  EATOM  =     41659.78587232
  Solvation  Ediel_sol  =         0.00000000
  ---------------------------------------------------
  free energy    TOTEN  =      -213.73843575 eV

  energy without entropy =     -213.48997828  energy(sigma->0) =     -213.61420702


--------------------------------------------------------------------------------------------------------




----------------------------------------- Iteration    1(   7)  ---------------------------------------


    POTLOK:  cpu time    0.0409: real time    0.0411
    SETDIJ:  cpu time    0.0051: real time    0.0051
    EDDIAG:  cpu time    1.2956: real time    1.3015
  RMM-DIIS:  cpu time    3.4775: real time    3.4858
    ORTHCH:  cpu time    0.3543: real time    0.3552
       DOS:  cpu time    0.0014: real time    0.0014
    CHARGE:  cpu time    0.2233: real time    0.2238
    MIXING:  cpu time    0.0020: real time    0.0020
    --------------------------------------------
      LOOP:  cpu time    5.4008: real time    5.4192

 eigenvalue-minimisations  :  3681
 total energy-change (2. order) : 0.1847665E+01  (-0.5875710E+01)
 number of electron     503.9998368 magnetization 
 augmentation part      194.9738892 magnetization 

 DIPCOR: dipole corrections for dipol
 direction  3 min pos     1,
 dipolmoment           0.000000      0.000000      1.208068 electrons x Angstroem
 Tr[quadrupol]    -10286.105641

 energy correction for charged system         0.000000 eV
 dipol+quadrupol energy correction           -0.051426 eV
 added-field ion interaction         -0.956056 eV  (added to PSCEN)


 Broyden mixing:
  rms(total) = 0.48587E+01    rms(broyden)= 0.48583E+01
  rms(prec ) = 0.56900E+01
  weight for this iteration     100.00

 eigenvalues of (default mixing * dielectric matrix)
  average eigenvalue GAMMA=   0.7598
  1.2202  0.2995

 Free energy of the ion-electron system (eV)
  ---------------------------------------------------
  alpha Z        PSCENC =       804.86188204
  Ewald energy   TEWEN  =    199465.60963208
  -Hartree energ DENC   =   -241523.59508347
  -exchange      EXHF   =         0.00000000
  -V(xc)+E(xc)   XCENC  =      -342.99434403
  PAW double counting   =     44907.14677978   -42941.69193760
  entropy T*S    EENTRO =        -0.21541632
  eigenvalues    EBANDS =     -2240.79815560
  atomic energy  EATOM  =     41659.78587232
  Solvation  Ediel_sol  =         0.00000000
  ---------------------------------------------------
  free energy    TOTEN  =      -211.89077081 eV

  energy without entropy =     -211.67535449  energy(sigma->0) =     -211.78306265


--------------------------------------------------------------------------------------------------------




----------------------------------------- Iteration    1(   8)  ---------------------------------------


    POTLOK:  cpu time    0.0407: real time    0.0408
    SETDIJ:  cpu time    0.0055: real time    0.0056
    EDDIAG:  cpu time    1.2853: real time    1.2885
  RMM-DIIS:  cpu time    3.4149: real time    3.4234
    ORTHCH:  cpu time    0.3522: real time    0.3530
       DOS:  cpu time    0.0014: real time    0.0014
    CHARGE:  cpu time    0.2211: real time    0.2216
    MIXING:  cpu time    0.0019: real time    0.0019
    --------------------------------------------
      LOOP:  cpu time    5.3235: real time    5.3401

 eigenvalue-minimisations  :  3672
 total energy-change (2. order) :-0.4585236E+01  (-0.9953727E+01)
 number of electron     503.9998349 magnetization 
 augmentation part      197.3168749 magnetization 

 DIPCOR: dipole corrections for dipol
 direction  3 min pos     1,
 dipolmoment           0.000000      0.000000     -1.343260 electrons x Angstroem
 Tr[quadrupol]    -10286.053387

 energy correction for charged system         0.000000 eV
 dipol+quadrupol energy correction           -0.063580 eV
 added-field ion interaction          1.063046 eV  (added to PSCEN)


 Broyden mixing:
  rms(total) = 0.42860E+01    rms(broyden)= 0.42856E+01
  rms(prec ) = 0.48317E+01
  weight for this iteration     100.00

 eigenvalues of (default mixing * dielectric matrix)
  average eigenvalue GAMMA=   0.8452
  1.8767  0.4362  0.2228

 Free energy of the ion-electron system (eV)
  ---------------------------------------------------
  alpha Z        PSCENC =       806.86883006
  Ewald energy   TEWEN  =    199465.60963208
  -Hartree energ DENC   =   -241434.28096401
  -exchange      EXHF   =         0.00000000
  -V(xc)+E(xc)   XCENC  =      -345.16396587
  PAW double counting   =     46486.90080757   -44548.66168300
  entropy T*S    EENTRO =        -0.24082920
  eigenvalues    EBANDS =     -2307.29370696
  atomic energy  EATOM  =     41659.78587232
  Solvation  Ediel_sol  =         0.00000000
  ---------------------------------------------------
  free energy    TOTEN  =      -216.47600702 eV

  energy without entropy =     -216.23517782  energy(sigma->0) =     -216.35559242


--------------------------------------------------------------------------------------------------------




----------------------------------------- Iteration    1(   9)  ---------------------------------------


    POTLOK:  cpu time    0.0394: real time    0.0395
    SETDIJ:  cpu time    0.0051: real time    0.0051
    EDDIAG:  cpu time    1.2929: real time    1.2967
  RMM-DIIS:  cpu time    3.4572: real time    3.4655
    ORTHCH:  cpu time    0.3529: real time    0.3538
       DOS:  cpu time    0.0014: real time    0.0014
    CHARGE:  cpu time    0.2202: real time    0.2208
    MIXING:  cpu time    0.0021: real time    0.0021
    --------------------------------------------
      LOOP:  cpu time    5.3717: real time    5.3878

 eigenvalue-minimisations  :  3674
 total energy-change (2. order) : 0.1290780E+01  (-0.3815059E+01)
 number of electron     503.9998345 magnetization 
 augmentation part      197.5404901 magnetization 

 DIPCOR: dipole corrections for dipol
 direction  3 min pos     1,
 dipolmoment           0.000000      0.000000     -0.020300 electrons x Angstroem
 Tr[quadrupol]    -10287.483877

 energy correction for charged system         0.000000 eV
 dipol+quadrupol energy correction           -0.000015 eV
 added-field ion interaction          0.016065 eV  (added to PSCEN)


 Broyden mixing:
  rms(total) = 0.36960E+01    rms(broyden)= 0.36957E+01
  rms(prec ) = 0.40688E+01
  weight for this iteration     100.00

 eigenvalues of (default mixing * dielectric matrix)
  average eigenvalue GAMMA=   0.7723
  2.0796  0.4195  0.2950  0.2950

 Free energy of the ion-electron system (eV)
  ---------------------------------------------------
  alpha Z        PSCENC =       805.88541509
  Ewald energy   TEWEN  =    199465.60963208
  -Hartree energ DENC   =   -241457.71407414
  -exchange      EXHF   =         0.00000000
  -V(xc)+E(xc)   XCENC  =      -346.54973156
  PAW double counting   =     48087.20045092   -46171.02227986
  entropy T*S    EENTRO =        -0.23226304
  eigenvalues    EBANDS =     -2258.14824933
  atomic energy  EATOM  =     41659.78587232
  Solvation  Ediel_sol  =         0.00000000
  ---------------------------------------------------
  free energy    TOTEN  =      -215.18522752 eV

  energy without entropy =     -214.95296448  energy(sigma->0) =     -215.06909600


--------------------------------------------------------------------------------------------------------




----------------------------------------- Iteration    1(  10)  ---------------------------------------


    POTLOK:  cpu time    0.0406: real time    0.0408
    SETDIJ:  cpu time    0.0044: real time    0.0052
    EDDIAG:  cpu time    1.2866: real time    1.2908
  RMM-DIIS:  cpu time    3.4694: real time    3.4777
    ORTHCH:  cpu time    0.3513: real time    0.3539
       DOS:  cpu time    0.0013: real time    0.0013
    CHARGE:  cpu time    0.2182: real time    0.2187
    MIXING:  cpu time    0.0021: real time    0.0021
    --------------------------------------------
      LOOP:  cpu time    5.3746: real time    5.3945

 eigenvalue-minimisations  :  3680
 total energy-change (2. order) : 0.1264251E+02  (-0.1683878E+01)
 number of electron     503.9998345 magnetization 
 augmentation part      198.3047309 magnetization 

 DIPCOR: dipole corrections for dipol
 direction  3 min pos     1,
 dipolmoment           0.000000      0.000000     -0.691824 electrons x Angstroem
 Tr[quadrupol]    -10286.709002

 energy correction for charged system         0.000000 eV
 dipol+quadrupol energy correction           -0.016865 eV
 added-field ion interaction          0.547504 eV  (added to PSCEN)


 Broyden mixing:
  rms(total) = 0.23325E+01    rms(broyden)= 0.23322E+01
  rms(prec ) = 0.27508E+01
  weight for this iteration     100.00

 eigenvalues of (default mixing * dielectric matrix)
  average eigenvalue GAMMA=   0.7529
  2.1861  0.5090  0.5090  0.2305  0.3297

 Free energy of the ion-electron system (eV)
  ---------------------------------------------------
  alpha Z        PSCENC =       806.40000346
  Ewald energy   TEWEN  =    199465.60963208
  -Hartree energ DENC   =   -241437.02070312
  -exchange      EXHF   =         0.00000000
  -V(xc)+E(xc)   XCENC  =      -346.51446008
  PAW double counting   =     48671.64308101   -46762.19814394
  entropy T*S    EENTRO =        -0.19848215
  eigenvalues    EBANDS =     -2260.04951395
  atomic energy  EATOM  =     41659.78587232
  Solvation  Ediel_sol  =         0.00000000
  ---------------------------------------------------
  free energy    TOTEN  =      -202.54271437 eV

  energy without entropy =     -202.34423222  energy(sigma->0) =     -202.44347330


--------------------------------------------------------------------------------------------------------




----------------------------------------- Iteration    1(  11)  ---------------------------------------


    POTLOK:  cpu time    0.0395: real time    0.0396
    SETDIJ:  cpu time    0.0052: real time    0.0052
    EDDIAG:  cpu time    1.2868: real time    1.2899
  RMM-DIIS:  cpu time    3.4731: real time    3.4815
    ORTHCH:  cpu time    0.3526: real time    0.3534
       DOS:  cpu time    0.0014: real time    0.0014
    CHARGE:  cpu time    0.2222: real time    0.2228
    MIXING:  cpu time    0.0022: real time    0.0022
    --------------------------------------------
      LOOP:  cpu time    5.3835: real time    5.3981

 eigenvalue-minimisations  :  3679
 total energy-change (2. order) : 0.3791732E+01  (-0.1736641E+01)
 number of electron     503.9998351 magnetization 
 augmentation part      197.7912927 magnetization 

 DIPCOR: dipole corrections for dipol
 direction  3 min pos     1,
 dipolmoment           0.000000      0.000000     -0.362097 electrons x Angstroem
 Tr[quadrupol]    -10287.606451

 energy correction for charged system         0.000000 eV
 dipol+quadrupol energy correction           -0.004620 eV
 added-field ion interaction          0.286561 eV  (added to PSCEN)


 Broyden mixing:
  rms(total) = 0.19731E+01    rms(broyden)= 0.19727E+01
  rms(prec ) = 0.22848E+01
  weight for this iteration     100.00

 eigenvalues of (default mixing * dielectric matrix)
  average eigenvalue GAMMA=   0.7191
  2.2176  0.6434  0.6434  0.2922  0.2591  0.2591

 Free energy of the ion-electron system (eV)
  ---------------------------------------------------
  alpha Z        PSCENC =       806.15130473
  Ewald energy   TEWEN  =    199465.60963208
  -Hartree energ DENC   =   -241485.00202696
  -exchange      EXHF   =         0.00000000
  -V(xc)+E(xc)   XCENC  =      -346.19954709
  PAW double counting   =     48919.50895333   -47010.50037826
  entropy T*S    EENTRO =        -0.24328386
  eigenvalues    EBANDS =     -2207.86150915
  atomic energy  EATOM  =     41659.78587232
  Solvation  Ediel_sol  =         0.00000000
  ---------------------------------------------------
  free energy    TOTEN  =      -198.75098286 eV

  energy without entropy =     -198.50769900  energy(sigma->0) =     -198.62934093


--------------------------------------------------------------------------------------------------------




----------------------------------------- Iteration    1(  12)  ---------------------------------------


    POTLOK:  cpu time    0.0405: real time    0.0407
    SETDIJ:  cpu time    0.0045: real time    0.0053
    EDDIAG:  cpu time    1.2884: real time    1.2925
  RMM-DIIS:  cpu time    3.4764: real time    3.4898
    ORTHCH:  cpu time    0.3532: real time    0.3540
       DOS:  cpu time    0.0014: real time    0.0014
    CHARGE:  cpu time    0.2187: real time    0.2193
    MIXING:  cpu time    0.0025: real time    0.0025
    --------------------------------------------
      LOOP:  cpu time    5.3861: real time    5.4093

 eigenvalue-minimisations  :  3680
 total energy-change (2. order) : 0.6833783E+01  (-0.6458771E+00)
 number of electron     503.9998353 magnetization 
 augmentation part      197.8740036 magnetization 

 DIPCOR: dipole corrections for dipol
 direction  3 min pos     1,
 dipolmoment           0.000000      0.000000     -0.292324 electrons x Angstroem
 Tr[quadrupol]    -10287.581115

 energy correction for charged system         0.000000 eV
 dipol+quadrupol energy correction           -0.003011 eV
 added-field ion interaction          0.231343 eV  (added to PSCEN)


 Broyden mixing:
  rms(total) = 0.11977E+01    rms(broyden)= 0.11975E+01
  rms(prec ) = 0.13543E+01
  weight for this iteration     100.00

 eigenvalues of (default mixing * dielectric matrix)
  average eigenvalue GAMMA=   0.6600
  2.2308  0.6097  0.6097  0.3000  0.3000  0.3399  0.2298

 Free energy of the ion-electron system (eV)
  ---------------------------------------------------
  alpha Z        PSCENC =       806.09769624
  Ewald energy   TEWEN  =    199465.60963208
  -Hartree energ DENC   =   -241510.75246731
  -exchange      EXHF   =         0.00000000
  -V(xc)+E(xc)   XCENC  =      -345.49370518
  PAW double counting   =     49066.92752250   -47156.14176998
  entropy T*S    EENTRO =        -0.21950037
  eigenvalues    EBANDS =     -2177.73047989
  atomic energy  EATOM  =     41659.78587232
  Solvation  Ediel_sol  =         0.00000000
  ---------------------------------------------------
  free energy    TOTEN  =      -191.91719957 eV

  energy without entropy =     -191.69769920  energy(sigma->0) =     -191.80744939


--------------------------------------------------------------------------------------------------------




----------------------------------------- Iteration    1(  13)  ---------------------------------------


    POTLOK:  cpu time    0.0401: real time    0.0410
    SETDIJ:  cpu time    0.0054: real time    0.0055
    EDDIAG:  cpu time    1.2918: real time    1.2957
  RMM-DIIS:  cpu time    3.3790: real time    3.4491
    ORTHCH:  cpu time    0.3401: real time    0.4142
       DOS:  cpu time    0.0015: real time    0.0015
    CHARGE:  cpu time    0.2216: real time    0.2610
    MIXING:  cpu time    0.0026: real time    0.0027
    --------------------------------------------
      LOOP:  cpu time    5.2827: real time    5.4752

 eigenvalue-minimisations  :  3679
 total energy-change (2. order) : 0.1066530E+01  (-0.1607516E+00)
 number of electron     503.9998354 magnetization 
 augmentation part      197.7739127 magnetization 

 DIPCOR: dipole corrections for dipol
 direction  3 min pos     1,
 dipolmoment           0.000000      0.000000     -0.229122 electrons x Angstroem
 Tr[quadrupol]    -10287.834747

 energy correction for charged system         0.000000 eV
 dipol+quadrupol energy correction           -0.001850 eV
 added-field ion interaction          0.181325 eV  (added to PSCEN)


 Broyden mixing:
  rms(total) = 0.83915E+00    rms(broyden)= 0.83901E+00
  rms(prec ) = 0.92832E+00
  weight for this iteration     100.00

 eigenvalues of (default mixing * dielectric matrix)
  average eigenvalue GAMMA=   0.6653
  2.2169  0.7451  0.7451  0.5442  0.3062  0.3062  0.2294  0.2294

 Free energy of the ion-electron system (eV)
  ---------------------------------------------------
  alpha Z        PSCENC =       806.04883971
  Ewald energy   TEWEN  =    199465.60963208
  -Hartree energ DENC   =   -241524.67104637
  -exchange      EXHF   =         0.00000000
  -V(xc)+E(xc)   XCENC  =      -345.35861481
  PAW double counting   =     49095.49001648   -47183.80452474
  entropy T*S    EENTRO =        -0.23212668
  eigenvalues    EBANDS =     -2163.71871746
  atomic energy  EATOM  =     41659.78587232
  Solvation  Ediel_sol  =         0.00000000
  ---------------------------------------------------
  free energy    TOTEN  =      -190.85066947 eV

  energy without entropy =     -190.61854279  energy(sigma->0) =     -190.73460613


--------------------------------------------------------------------------------------------------------




----------------------------------------- Iteration    1(  14)  ---------------------------------------


    POTLOK:  cpu time    0.0390: real time    0.0418
    SETDIJ:  cpu time    0.0059: real time    0.0059
    EDDIAG:  cpu time    1.2931: real time    1.2962
  RMM-DIIS:  cpu time    3.4812: real time    3.4915
    ORTHCH:  cpu time    0.3623: real time    0.3689
       DOS:  cpu time    0.0014: real time    0.0014
    CHARGE:  cpu time    0.2173: real time    0.2179
    MIXING:  cpu time    0.0027: real time    0.0027
    --------------------------------------------
      LOOP:  cpu time    5.4036: real time    5.4286

 eigenvalue-minimisations  :  3679
 total energy-change (2. order) : 0.4735553E+00  (-0.7432670E-01)
 number of electron     503.9998358 magnetization 
 augmentation part      197.4850890 magnetization 

 DIPCOR: dipole corrections for dipol
 direction  3 min pos     1,
 dipolmoment           0.000000      0.000000     -0.203241 electrons x Angstroem
 Tr[quadrupol]    -10288.049360

 energy correction for charged system         0.000000 eV
 dipol+quadrupol energy correction           -0.001456 eV
 added-field ion interaction          0.160843 eV  (added to PSCEN)


 Broyden mixing:
  rms(total) = 0.67196E+00    rms(broyden)= 0.67190E+00
  rms(prec ) = 0.73637E+00
  weight for this iteration     100.00

 eigenvalues of (default mixing * dielectric matrix)
  average eigenvalue GAMMA=   0.6917
  2.2178  0.9516  0.9516  0.6000  0.3748  0.3748  0.2698  0.2698  0.2156

 Free energy of the ion-electron system (eV)
  ---------------------------------------------------
  alpha Z        PSCENC =       806.02875209
  Ewald energy   TEWEN  =    199465.60963208
  -Hartree energ DENC   =   -241543.24346631
  -exchange      EXHF   =         0.00000000
  -V(xc)+E(xc)   XCENC  =      -345.04645598
  PAW double counting   =     49109.59606767   -47195.62092569
  entropy T*S    EENTRO =        -0.21612090
  eigenvalues    EBANDS =     -2147.27046948
  atomic energy  EATOM  =     41659.78587232
  Solvation  Ediel_sol  =         0.00000000
  ---------------------------------------------------
  free energy    TOTEN  =      -190.37711420 eV

  energy without entropy =     -190.16099330  energy(sigma->0) =     -190.26905375


--------------------------------------------------------------------------------------------------------




----------------------------------------- Iteration    1(  15)  ---------------------------------------


    POTLOK:  cpu time    0.0398: real time    0.0399
    SETDIJ:  cpu time    0.0054: real time    0.0058
    EDDIAG:  cpu time    1.2815: real time    1.2846
  RMM-DIIS:  cpu time    3.4167: real time    3.4678
    ORTHCH:  cpu time    0.3437: real time    0.3489
       DOS:  cpu time    0.0014: real time    0.0014
    CHARGE:  cpu time    0.2181: real time    0.2211
    MIXING:  cpu time    0.0028: real time    0.0029
    --------------------------------------------
      LOOP:  cpu time    5.3102: real time    5.3746

 eigenvalue-minimisations  :  3680
 total energy-change (2. order) :-0.4750317E-01  (-0.3633030E-01)
 number of electron     503.9998359 magnetization 
 augmentation part      197.3007901 magnetization 

 DIPCOR: dipole corrections for dipol
 direction  3 min pos     1,
 dipolmoment           0.000000      0.000000     -0.186162 electrons x Angstroem
 Tr[quadrupol]    -10288.430057

 energy correction for charged system         0.000000 eV
 dipol+quadrupol energy correction           -0.001221 eV
 added-field ion interaction          0.147327 eV  (added to PSCEN)


 Broyden mixing:
  rms(total) = 0.62697E+00    rms(broyden)= 0.62691E+00
  rms(prec ) = 0.70332E+00
  weight for this iteration     100.00

 eigenvalues of (default mixing * dielectric matrix)
  average eigenvalue GAMMA=   0.7402
  2.1665  1.3102  1.3102  0.7448  0.4171  0.4171  0.2899  0.2899  0.2399  0.2167

 Free energy of the ion-electron system (eV)
  ---------------------------------------------------
  alpha Z        PSCENC =       806.01547044
  Ewald energy   TEWEN  =    199465.60963208
  -Hartree energ DENC   =   -241563.36930894
  -exchange      EXHF   =         0.00000000
  -V(xc)+E(xc)   XCENC  =      -344.82181472
  PAW double counting   =     49132.52488851   -47216.76062628
  entropy T*S    EENTRO =        -0.23890865
  eigenvalues    EBANDS =     -2129.16982213
  atomic energy  EATOM  =     41659.78587232
  Solvation  Ediel_sol  =         0.00000000
  ---------------------------------------------------
  free energy    TOTEN  =      -190.42461738 eV

  energy without entropy =     -190.18570873  energy(sigma->0) =     -190.30516305


--------------------------------------------------------------------------------------------------------




----------------------------------------- Iteration    1(  16)  ---------------------------------------


    POTLOK:  cpu time    0.0406: real time    0.0408
    SETDIJ:  cpu time    0.0050: real time    0.0050
    EDDIAG:  cpu time    1.2819: real time    1.2867
  RMM-DIIS:  cpu time    3.4995: real time    3.5086
    ORTHCH:  cpu time    0.3464: real time    0.3472
       DOS:  cpu time    0.0014: real time    0.0014
    CHARGE:  cpu time    0.2183: real time    0.2189
    MIXING:  cpu time    0.0028: real time    0.0028
    --------------------------------------------
      LOOP:  cpu time    5.3967: real time    5.4150

 eigenvalue-minimisations  :  3678
 total energy-change (2. order) : 0.3114760E+00  (-0.5039709E-01)
 number of electron     503.9998360 magnetization 
 augmentation part      197.1162384 magnetization 

 DIPCOR: dipole corrections for dipol
 direction  3 min pos     1,
 dipolmoment           0.000000      0.000000     -0.191734 electrons x Angstroem
 Tr[quadrupol]    -10288.753206

 energy correction for charged system         0.000000 eV
 dipol+quadrupol energy correction           -0.001295 eV
 added-field ion interaction          0.151737 eV  (added to PSCEN)


 Broyden mixing:
  rms(total) = 0.44577E+00    rms(broyden)= 0.44569E+00
  rms(prec ) = 0.52102E+00
  weight for this iteration     100.00

 eigenvalues of (default mixing * dielectric matrix)
  average eigenvalue GAMMA=   0.7553
  2.2032  1.5033  1.5033  0.6750  0.5418  0.5418  0.3253  0.3253  0.2417  0.2417
  0.2061

 Free energy of the ion-electron system (eV)
  ---------------------------------------------------
  alpha Z        PSCENC =       806.01980600
  Ewald energy   TEWEN  =    199465.60963208
  -Hartree energ DENC   =   -241587.59022196
  -exchange      EXHF   =         0.00000000
  -V(xc)+E(xc)   XCENC  =      -344.35005948
  PAW double counting   =     49154.72227897   -47235.69049577
  entropy T*S    EENTRO =        -0.22709180
  eigenvalues    EBANDS =     -2108.39286177
  atomic energy  EATOM  =     41659.78587232
  Solvation  Ediel_sol  =         0.00000000
  ---------------------------------------------------
  free energy    TOTEN  =      -190.11314142 eV

  energy without entropy =     -189.88604961  energy(sigma->0) =     -189.99959551


--------------------------------------------------------------------------------------------------------




----------------------------------------- Iteration    1(  17)  ---------------------------------------


    POTLOK:  cpu time    0.0398: real time    0.0399
    SETDIJ:  cpu time    0.0052: real time    0.0052
    EDDIAG:  cpu time    1.2840: real time    1.2880
  RMM-DIIS:  cpu time    3.4919: real time    3.5030
    ORTHCH:  cpu time    0.3460: real time    0.3468
       DOS:  cpu time    0.0014: real time    0.0014
    CHARGE:  cpu time    0.2191: real time    0.2197
    MIXING:  cpu time    0.0029: real time    0.0030
    --------------------------------------------
      LOOP:  cpu time    5.3910: real time    5.4105

 eigenvalue-minimisations  :  3678
 total energy-change (2. order) : 0.1432999E+00  (-0.3130370E-01)
 number of electron     503.9998361 magnetization 
 augmentation part      197.0457327 magnetization 

 DIPCOR: dipole corrections for dipol
 direction  3 min pos     1,
 dipolmoment           0.000000      0.000000     -0.113853 electrons x Angstroem
 Tr[quadrupol]    -10289.195911

 energy correction for charged system         0.000000 eV
 dipol+quadrupol energy correction           -0.000457 eV
 added-field ion interaction          0.090103 eV  (added to PSCEN)


 Broyden mixing:
  rms(total) = 0.27505E+00    rms(broyden)= 0.27495E+00
  rms(prec ) = 0.31180E+00
  weight for this iteration     100.00

 eigenvalues of (default mixing * dielectric matrix)
  average eigenvalue GAMMA=   0.7378
  2.2325  1.5373  1.5373  0.7132  0.7132  0.5059  0.3317  0.3317  0.2691  0.2374
  0.2374  0.2064

 Free energy of the ion-electron system (eV)
  ---------------------------------------------------
  alpha Z        PSCENC =       805.95901024
  Ewald energy   TEWEN  =    199465.60963208
  -Hartree energ DENC   =   -241609.51195130
  -exchange      EXHF   =         0.00000000
  -V(xc)+E(xc)   XCENC  =      -344.11493894
  PAW double counting   =     49194.15769493   -47273.39487416
  entropy T*S    EENTRO =        -0.23448488
  eigenvalues    EBANDS =     -2088.22580185
  atomic energy  EATOM  =     41659.78587232
  Solvation  Ediel_sol  =         0.00000000
  ---------------------------------------------------
  free energy    TOTEN  =      -189.96984155 eV

  energy without entropy =     -189.73535668  energy(sigma->0) =     -189.85259912


--------------------------------------------------------------------------------------------------------




----------------------------------------- Iteration    1(  18)  ---------------------------------------


    POTLOK:  cpu time    0.0398: real time    0.0399
    SETDIJ:  cpu time    0.0052: real time    0.0052
    EDDIAG:  cpu time    1.2785: real time    1.2816
  RMM-DIIS:  cpu time    3.4612: real time    3.4695
    ORTHCH:  cpu time    0.3458: real time    0.3466
       DOS:  cpu time    0.0014: real time    0.0014
    CHARGE:  cpu time    0.2159: real time    0.2164
    MIXING:  cpu time    0.0031: real time    0.0031
    --------------------------------------------
      LOOP:  cpu time    5.3516: real time    5.3664

 eigenvalue-minimisations  :  3681
 total energy-change (2. order) : 0.8598508E-01  (-0.1023442E-01)
 number of electron     503.9998362 magnetization 
 augmentation part      196.9917142 magnetization 

 DIPCOR: dipole corrections for dipol
 direction  3 min pos     1,
 dipolmoment           0.000000      0.000000     -0.095894 electrons x Angstroem
 Tr[quadrupol]    -10289.289216

 energy correction for charged system         0.000000 eV
 dipol+quadrupol energy correction           -0.000324 eV
 added-field ion interaction          0.075890 eV  (added to PSCEN)


 Broyden mixing:
  rms(total) = 0.12604E+00    rms(broyden)= 0.12596E+00
  rms(prec ) = 0.13894E+00
  weight for this iteration     100.00

 eigenvalues of (default mixing * dielectric matrix)
  average eigenvalue GAMMA=   0.7097
  2.2908  1.5523  1.5523  0.7319  0.7319  0.4873  0.3314  0.3314  0.2850  0.2499
  0.2499  0.2320  0.2007

 Free energy of the ion-electron system (eV)
  ---------------------------------------------------
  alpha Z        PSCENC =       805.94492997
  Ewald energy   TEWEN  =    199465.60963208
  -Hartree energ DENC   =   -241616.42094087
  -exchange      EXHF   =         0.00000000
  -V(xc)+E(xc)   XCENC  =      -344.00273818
  PAW double counting   =     49209.98682459   -47288.52960403
  entropy T*S    EENTRO =        -0.24709781
  eigenvalues    EBANDS =     -2082.01073455
  atomic energy  EATOM  =     41659.78587232
  Solvation  Ediel_sol  =         0.00000000
  ---------------------------------------------------
  free energy    TOTEN  =      -189.88385647 eV

  energy without entropy =     -189.63675867  energy(sigma->0) =     -189.76030757


--------------------------------------------------------------------------------------------------------




----------------------------------------- Iteration    1(  19)  ---------------------------------------


    POTLOK:  cpu time    0.0398: real time    0.0399
    SETDIJ:  cpu time    0.0051: real time    0.0052
    EDDIAG:  cpu time    1.2815: real time    1.2847
  RMM-DIIS:  cpu time    3.4899: real time    3.4983
    ORTHCH:  cpu time    0.3459: real time    0.3467
       DOS:  cpu time    0.0014: real time    0.0014
    CHARGE:  cpu time    0.2206: real time    0.2217
    MIXING:  cpu time    0.0033: real time    0.0033
    --------------------------------------------
      LOOP:  cpu time    5.3882: real time    5.4037

 eigenvalue-minimisations  :  3681
 total energy-change (2. order) : 0.1336177E-01  (-0.1403384E-02)
 number of electron     503.9998362 magnetization 
 augmentation part      196.9979647 magnetization 

 DIPCOR: dipole corrections for dipol
 direction  3 min pos     1,
 dipolmoment           0.000000      0.000000     -0.088913 electrons x Angstroem
 Tr[quadrupol]    -10289.352856

 energy correction for charged system         0.000000 eV
 dipol+quadrupol energy correction           -0.000279 eV
 added-field ion interaction          0.070365 eV  (added to PSCEN)


 Broyden mixing:
  rms(total) = 0.72788E-01    rms(broyden)= 0.72772E-01
  rms(prec ) = 0.78422E-01
  weight for this iteration     100.00

 eigenvalues of (default mixing * dielectric matrix)
  average eigenvalue GAMMA=   0.7057
  2.3332  1.5605  1.5605  0.7558  0.7558  0.5221  0.4226  0.4226  0.3164  0.3164
  0.2507  0.2290  0.2290  0.2049

 Free energy of the ion-electron system (eV)
  ---------------------------------------------------
  alpha Z        PSCENC =       805.93945098
  Ewald energy   TEWEN  =    199465.60963208
  -Hartree energ DENC   =   -241618.18855157
  -exchange      EXHF   =         0.00000000
  -V(xc)+E(xc)   XCENC  =      -344.01338496
  PAW double counting   =     49218.47352294   -47297.12390920
  entropy T*S    EENTRO =        -0.24864957
  eigenvalues    EBANDS =     -2080.10447772
  atomic energy  EATOM  =     41659.78587232
  Solvation  Ediel_sol  =         0.00000000
  ---------------------------------------------------
  free energy    TOTEN  =      -189.87049470 eV

  energy without entropy =     -189.62184513  energy(sigma->0) =     -189.74616991


--------------------------------------------------------------------------------------------------------




----------------------------------------- Iteration    1(  20)  ---------------------------------------


    POTLOK:  cpu time    0.0398: real time    0.0399
    SETDIJ:  cpu time    0.0052: real time    0.0052
    EDDIAG:  cpu time    1.2771: real time    1.2802
  RMM-DIIS:  cpu time    3.4490: real time    3.4573
    ORTHCH:  cpu time    0.3456: real time    0.3464
       DOS:  cpu time    0.0014: real time    0.0014
    CHARGE:  cpu time    0.2178: real time    0.2184
    MIXING:  cpu time    0.0035: real time    0.0035
    --------------------------------------------
      LOOP:  cpu time    5.3400: real time    5.3549

 eigenvalue-minimisations  :  3684
 total energy-change (2. order) : 0.6538376E-03  (-0.5144091E-03)
 number of electron     503.9998362 magnetization 
 augmentation part      196.9976964 magnetization 

 DIPCOR: dipole corrections for dipol
 direction  3 min pos     1,
 dipolmoment           0.000000      0.000000     -0.085689 electrons x Angstroem
 Tr[quadrupol]    -10289.431865

 energy correction for charged system         0.000000 eV
 dipol+quadrupol energy correction           -0.000259 eV
 added-field ion interaction          0.067814 eV  (added to PSCEN)


 Broyden mixing:
  rms(total) = 0.74038E-01    rms(broyden)= 0.74031E-01
  rms(prec ) = 0.81697E-01
  weight for this iteration     100.00

 eigenvalues of (default mixing * dielectric matrix)
  average eigenvalue GAMMA=   0.7268
  2.3558  1.5506  1.5506  0.9828  0.9828  0.7270  0.4702  0.4702  0.3223  0.3223
  0.2749  0.2419  0.2419  0.2116  0.1974

 Free energy of the ion-electron system (eV)
  ---------------------------------------------------
  alpha Z        PSCENC =       805.93691905
  Ewald energy   TEWEN  =    199465.60963208
  -Hartree energ DENC   =   -241621.26037896
  -exchange      EXHF   =         0.00000000
  -V(xc)+E(xc)   XCENC  =      -344.00707213
  PAW double counting   =     49226.73112036   -47305.39651584
  entropy T*S    EENTRO =        -0.24635370
  eigenvalues    EBANDS =     -2077.02306405
  atomic energy  EATOM  =     41659.78587232
  Solvation  Ediel_sol  =         0.00000000
  ---------------------------------------------------
  free energy    TOTEN  =      -189.86984086 eV

  energy without entropy =     -189.62348716  energy(sigma->0) =     -189.74666401


--------------------------------------------------------------------------------------------------------




----------------------------------------- Iteration    1(  21)  ---------------------------------------


    POTLOK:  cpu time    0.0407: real time    0.0408
    SETDIJ:  cpu time    0.0051: real time    0.0051
    EDDIAG:  cpu time    1.2823: real time    1.3037
  RMM-DIIS:  cpu time    3.3729: real time    3.5605
    ORTHCH:  cpu time    0.3463: real time    0.3472
       DOS:  cpu time    0.0014: real time    0.0014
    CHARGE:  cpu time    0.2188: real time    0.2193
    MIXING:  cpu time    0.0037: real time    0.0037
    --------------------------------------------
      LOOP:  cpu time    5.2719: real time    5.4846

 eigenvalue-minimisations  :  3678
 total energy-change (2. order) : 0.3844851E-03  (-0.6331069E-03)
 number of electron     503.9998362 magnetization 
 augmentation part      196.9824834 magnetization 

 DIPCOR: dipole corrections for dipol
 direction  3 min pos     1,
 dipolmoment           0.000000      0.000000     -0.085353 electrons x Angstroem
 Tr[quadrupol]    -10289.546257

 energy correction for charged system         0.000000 eV
 dipol+quadrupol energy correction           -0.000257 eV
 added-field ion interaction          0.067547 eV  (added to PSCEN)


 Broyden mixing:
  rms(total) = 0.69111E-01    rms(broyden)= 0.69103E-01
  rms(prec ) = 0.79030E-01
  weight for this iteration     100.00

 eigenvalues of (default mixing * dielectric matrix)
  average eigenvalue GAMMA=   0.7491
  2.3644  1.6981  1.6981  1.0917  1.0917  0.8528  0.5369  0.5369  0.3323  0.3323
  0.3127  0.2635  0.2346  0.2346  0.2022  0.2022

 Free energy of the ion-electron system (eV)
  ---------------------------------------------------
  alpha Z        PSCENC =       805.93665494
  Ewald energy   TEWEN  =    199465.60963208
  -Hartree energ DENC   =   -241626.12977124
  -exchange      EXHF   =         0.00000000
  -V(xc)+E(xc)   XCENC  =      -343.98180961
  PAW double counting   =     49233.58191767   -47312.18759336
  entropy T*S    EENTRO =        -0.24883424
  eigenvalues    EBANDS =     -2072.23552494
  atomic energy  EATOM  =     41659.78587232
  Solvation  Ediel_sol  =         0.00000000
  ---------------------------------------------------
  free energy    TOTEN  =      -189.86945638 eV

  energy without entropy =     -189.62062214  energy(sigma->0) =     -189.74503926


--------------------------------------------------------------------------------------------------------




----------------------------------------- Iteration    1(  22)  ---------------------------------------


    POTLOK:  cpu time    0.0402: real time    0.0403
    SETDIJ:  cpu time    0.0050: real time    0.0050
    EDDIAG:  cpu time    1.2821: real time    1.2872
  RMM-DIIS:  cpu time    3.4615: real time    3.4721
    ORTHCH:  cpu time    0.3463: real time    0.3471
       DOS:  cpu time    0.0013: real time    0.0013
    CHARGE:  cpu time    0.2176: real time    0.2181
    MIXING:  cpu time    0.0038: real time    0.0038
    --------------------------------------------
      LOOP:  cpu time    5.3585: real time    5.3786

 eigenvalue-minimisations  :  3681
 total energy-change (2. order) : 0.4328229E-02  (-0.5632276E-03)
 number of electron     503.9998362 magnetization 
 augmentation part      196.9905011 magnetization 

 DIPCOR: dipole corrections for dipol
 direction  3 min pos     1,
 dipolmoment           0.000000      0.000000     -0.076656 electrons x Angstroem
 Tr[quadrupol]    -10289.680531

 energy correction for charged system         0.000000 eV
 dipol+quadrupol energy correction           -0.000207 eV
 added-field ion interaction          0.060665 eV  (added to PSCEN)


 Broyden mixing:
  rms(total) = 0.38901E-01    rms(broyden)= 0.38887E-01
  rms(prec ) = 0.44337E-01
  weight for this iteration     100.00

 eigenvalues of (default mixing * dielectric matrix)
  average eigenvalue GAMMA=   0.7352
  2.3288  1.6540  1.6540  1.1197  1.1197  0.9727  0.5978  0.5978  0.3335  0.3335
  0.3321  0.3321  0.2487  0.2360  0.2360  0.2047  0.1970

 Free energy of the ion-electron system (eV)
  ---------------------------------------------------
  alpha Z        PSCENC =       805.92982240
  Ewald energy   TEWEN  =    199465.60963208
  -Hartree energ DENC   =   -241631.19798045
  -exchange      EXHF   =         0.00000000
  -V(xc)+E(xc)   XCENC  =      -343.97734305
  PAW double counting   =     49237.03142368   -47315.73801218
  entropy T*S    EENTRO =        -0.24698306
  eigenvalues    EBANDS =     -2067.06155989
  atomic energy  EATOM  =     41659.78587232
  Solvation  Ediel_sol  =         0.00000000
  ---------------------------------------------------
  free energy    TOTEN  =      -189.86512815 eV

  energy without entropy =     -189.61814509  energy(sigma->0) =     -189.74163662


--------------------------------------------------------------------------------------------------------




----------------------------------------- Iteration    1(  23)  ---------------------------------------


    POTLOK:  cpu time    0.0403: real time    0.0404
    SETDIJ:  cpu time    0.0051: real time    0.0051
    EDDIAG:  cpu time    1.2844: real time    1.2874
  RMM-DIIS:  cpu time    3.4907: real time    3.5011
[...]
    275       1.7519      0.00000
    276       1.8620      0.00000
    277       2.2362      0.00000
    278       2.2847      0.00000
    279       2.3382      0.00000
    280       2.4543      0.00000
    281       2.5268      0.00000
    282       2.5954      0.00000
    283       2.6692      0.00000
    284       2.9875      0.00000
    285       3.1211      0.00000
    286       3.1758      0.00000
    287       3.5898      0.00000
    288       3.6339      0.00000
    289       3.7295      0.00000
    290       4.0321      0.00000
    291       4.0866      0.00000
    292       4.2253      0.00000
    293       4.4787      0.00000
    294       4.5673      0.00000
    295       4.5893      0.00000
    296       4.6289      0.00000
    297       4.6437      0.00000
    298       4.7990      0.00000
    299       4.8807      0.00000
    300       4.9266      0.00000
    301       4.9653      0.00000
    302       5.0334      0.00000
    303       5.0646      0.00000
    304       5.0751      0.00000
    305       5.1919      0.00000
    306       5.2382      0.00000


--------------------------------------------------------------------------------------------------------


 soft charge-density along one line, spin component           1
         0         1         2         3         4         5         6         7         8         9
 total charge-density along one line
 
 pseudopotential strength for first ion, spin component:           1
 -8.039   0.001   0.004  -0.002  -0.001  -8.186   0.001   0.003
  0.001  -7.968  -0.001  -0.002  -0.004   0.001  -8.116  -0.001
  0.004  -0.001  -7.961   0.001  -0.004   0.003  -0.001  -8.109
 -0.002  -0.002   0.001  -7.961   0.001  -0.002  -0.002   0.001
 -0.001  -0.004  -0.004   0.001  -8.040  -0.001  -0.004  -0.004
 -8.186   0.001   0.003  -0.002  -0.001  -8.316   0.001   0.003
  0.001  -8.116  -0.001  -0.002  -0.004   0.001  -8.248  -0.001
  0.003  -0.001  -8.109   0.001  -0.004   0.003  -0.001  -8.242
 -0.002  -0.002   0.001  -8.110   0.001  -0.002  -0.002   0.001
 -0.001  -0.004  -0.004   0.001  -8.187  -0.001  -0.003  -0.004
  0.002  -0.000  -0.024  -0.000  -0.002   0.002  -0.000  -0.024
  0.003  -0.000  -0.034  -0.000  -0.003   0.003  -0.000  -0.034
 -0.001  -0.006  -0.001   0.000  -0.002  -0.001  -0.006  -0.001
  0.000   0.002  -0.009  -0.001  -0.000   0.000   0.002  -0.009
  0.002   0.000   0.001  -0.007  -0.001   0.002   0.000   0.001
 -0.002  -0.007  -0.002   0.000  -0.003  -0.002  -0.006  -0.002
  0.000   0.002  -0.010  -0.001  -0.000   0.000   0.002  -0.010
  0.003   0.000   0.001  -0.007  -0.001   0.003   0.000   0.001
 total augmentation occupancy for first ion, spin component:           1
  4.683   0.023  -0.078   0.011  -0.156  -2.847  -0.020   0.088  -0.047   0.139  -0.113   0.049   0.054   0.002  -0.051  -0.004
  0.023   4.155  -0.066   0.004  -0.045  -0.020  -1.909   0.046  -0.008  -0.007   0.004  -0.004  -0.140   0.009   0.004   0.000
 -0.078  -0.066   4.402   0.010   0.153   0.087   0.046  -2.317  -0.004  -0.164   0.991  -0.169   0.027  -0.212  -0.015  -0.003
  0.011   0.004   0.010   4.163   0.020  -0.046  -0.008  -0.004  -1.903  -0.013   0.000  -0.006   0.005   0.001  -0.147   0.000
 -0.156  -0.045   0.153   0.020   4.205   0.139  -0.008  -0.164  -0.013  -2.405   0.170  -0.095  -0.008  -0.001  -0.017  -0.002
 -2.847  -0.020   0.087  -0.046   0.139   2.895   0.018  -0.093   0.076  -0.126   0.099  -0.046  -0.045  -0.002   0.047   0.002
 -0.020  -1.909   0.046  -0.008  -0.008   0.018   1.632  -0.031   0.012   0.047  -0.001   0.003   0.132  -0.007  -0.003  -0.004
  0.088   0.046  -2.317  -0.004  -0.164  -0.093  -0.031   2.171   0.001   0.172  -0.926   0.182  -0.023   0.230   0.013   0.001
 -0.047  -0.008  -0.004  -1.903  -0.013   0.076   0.012   0.001   1.614   0.008   0.001   0.003  -0.003  -0.001   0.138  -0.000
  0.139  -0.007  -0.164  -0.013  -2.405  -0.126   0.047   0.172   0.008   2.484  -0.154   0.088   0.009   0.001   0.014   0.001
 -0.113   0.004   0.991   0.000   0.170   0.099  -0.001  -0.926   0.001  -0.154   2.450  -0.507   0.014   0.120  -0.007  -0.001
  0.049  -0.004  -0.169  -0.006  -0.095  -0.046   0.003   0.182   0.003   0.088  -0.507   0.143  -0.011  -0.047   0.008   0.000
  0.054  -0.140   0.027   0.005  -0.008  -0.045   0.132  -0.023  -0.003   0.009   0.014  -0.011   0.202  -0.002   0.004  -0.006
  0.002   0.009  -0.212   0.001  -0.001  -0.002  -0.007   0.230  -0.001   0.001   0.120  -0.047  -0.002   0.097   0.001   0.000
 -0.051   0.004  -0.015  -0.147  -0.017   0.047  -0.003   0.013   0.138   0.014  -0.007   0.008   0.004   0.001   0.190  -0.000
 -0.004   0.000  -0.003   0.000  -0.002   0.002  -0.004   0.001  -0.000   0.001  -0.001   0.000  -0.006   0.000  -0.000   0.000
  0.000   0.002  -0.005  -0.002  -0.000  -0.000  -0.001  -0.004   0.000   0.000  -0.008   0.002   0.000  -0.003   0.000   0.000
  0.004   0.000   0.001  -0.000  -0.000  -0.002  -0.000  -0.001  -0.004  -0.000   0.000  -0.000  -0.000  -0.000  -0.006   0.000


------------------------ aborting loop because EDIFF is reached ----------------------------------------


    CHARGE:  cpu time    0.2051: real time    0.2057
    FORLOC:  cpu time    0.0158: real time    0.0159
    FORNL :  cpu time    1.3213: real time    1.3245
    FORCOR:  cpu time    0.0559: real time    0.0560
    FORHAR:  cpu time    0.0241: real time    0.0242
    MIXING:  cpu time    0.0026: real time    0.0026
    OFIELD:  cpu time    0.0000: real time    0.0000

 VOLUME and BASIS-vectors are now :
 -----------------------------------------------------------------------------
  energy-cutoff  :      400.00
  volume of cell :     2567.68
      direct lattice vectors                 reciprocal lattice vectors
    11.002581515  0.000000000  0.000000000     0.090887761 -0.052474073  0.000000000
     5.501290758  9.528515099  0.000000000     0.000000000  0.104948147  0.000000000
     0.000000000  0.000000000 24.491785094     0.000000000  0.000000000  0.040830017

  length of vectors
    11.002581515 11.002581515 24.491785094     0.104948147  0.104948147  0.040830017


 FORCES acting on ions
    electron-ion (+dipol)            ewald-force                    non-local-force                 convergence-correction
 -----------------------------------------------------------------------------------------------
   -.490E+01 0.117E+02 0.222E+04   0.520E+01 -.120E+02 -.222E+04   -.201E+00 0.128E+00 -.723E+00   -.288E-02 -.412E-04 -.174E-02
   -.153E+02 -.628E+01 -.224E+04   0.163E+02 0.645E+01 0.224E+04   -.916E+00 -.172E+00 0.235E+00   0.263E-02 -.697E-03 -.668E-02
   -.642E+00 0.547E+01 -.224E+04   0.676E+00 -.577E+01 0.224E+04   -.337E-01 0.299E+00 0.343E+00   0.571E-02 -.232E-02 -.676E-02
   0.347E+00 -.319E+01 -.476E+02   0.246E+00 0.320E+01 0.476E+02   -.603E+00 -.639E-02 0.543E-01   0.472E-02 -.631E-04 -.923E-02
   -.256E+02 0.132E+01 0.222E+04   0.271E+02 -.142E+01 -.222E+04   -.101E+01 0.819E-01 -.160E+00   0.206E-02 0.668E-02 0.310E-04
   0.900E+01 0.712E+01 -.219E+04   -.964E+01 -.724E+01 0.219E+04   0.641E+00 0.129E+00 0.613E+00   0.440E-02 -.463E-02 -.323E-02
   0.114E+01 -.174E+01 -.222E+04   -.783E+00 0.249E+01 0.222E+04   -.358E+00 -.740E+00 0.358E-01   0.317E-03 0.284E-02 -.422E-02
   -.108E+02 -.515E+01 -.217E+04   0.113E+02 0.516E+01 0.217E+04   -.554E+00 -.109E-01 0.617E+00   0.885E-03 0.270E-02 -.470E-02
   0.102E+02 0.644E+01 -.219E+04   -.104E+02 -.692E+01 0.219E+04   0.194E+00 0.478E+00 0.580E+00   -.221E-02 -.370E-02 -.782E-02
   -.445E+01 0.113E+02 0.223E+04   0.470E+01 -.117E+02 -.223E+04   -.115E+00 0.266E+00 -.627E+00   -.478E-02 -.137E-02 0.340E-02
   -.134E+01 -.302E+01 -.219E+04   0.140E+01 0.291E+01 0.219E+04   -.532E-01 0.116E+00 0.501E+00   0.229E-03 0.637E-02 -.965E-02
   -.954E+01 0.496E+01 0.546E+02   0.905E+01 -.440E+01 -.556E+02   0.493E+00 -.563E+00 0.924E+00   0.401E-02 0.760E-02 -.476E-02
   0.111E+02 0.137E+01 0.223E+04   -.118E+02 -.128E+01 -.223E+04   0.412E+00 -.579E-01 -.551E+00   -.481E-02 -.585E-02 0.743E-03
   -.288E+01 -.596E+01 -.224E+04   0.320E+01 0.659E+01 0.224E+04   -.320E+00 -.625E+00 -.136E+00   0.109E-02 -.372E-02 -.227E-02
   -.139E+01 -.103E+02 0.223E+04   0.136E+01 0.106E+02 -.223E+04   0.980E-02 -.174E+00 -.227E+00   0.463E-02 -.322E-02 -.259E-02
   -.535E+01 0.365E+00 0.339E+02   0.478E+01 -.750E+00 -.349E+02   0.563E+00 0.387E+00 0.104E+01   -.424E-02 -.431E-02 -.332E-02
   0.515E+01 0.245E+01 -.222E+04   -.541E+01 -.319E+01 0.222E+04   0.260E+00 0.735E+00 0.922E-01   -.409E-03 -.190E-02 -.553E-02
   0.104E+02 0.596E+01 0.618E+02   -.997E+01 -.637E+01 -.629E+02   -.438E+00 0.402E+00 0.112E+01   -.434E-02 -.453E-02 -.358E-02
   -.568E+01 0.142E+01 -.221E+04   0.624E+01 -.164E+01 0.221E+04   -.564E+00 0.216E+00 0.625E-01   -.503E-02 -.190E-02 -.368E-02
   0.209E+02 0.354E+01 0.222E+04   -.221E+02 -.375E+01 -.222E+04   0.805E+00 0.145E+00 0.763E-01   -.286E-04 0.199E-02 -.163E-02
   -.205E+01 -.302E+01 0.361E+02   0.141E+01 0.358E+01 -.360E+02   0.641E+00 -.559E+00 -.129E+00   -.212E-04 0.106E-01 -.447E-02
   -.417E+01 -.150E+02 0.222E+04   0.452E+01 0.158E+02 -.222E+04   -.261E+00 -.514E+00 -.324E+00   0.530E-02 0.142E-02 -.119E-02
   0.979E+01 0.257E+01 -.228E+04   -.108E+02 -.285E+01 0.228E+04   0.103E+01 0.277E+00 -.108E+00   -.165E-02 0.623E-02 -.970E-02
   -.404E+01 -.642E+01 -.223E+04   0.382E+01 0.682E+01 0.223E+04   0.230E+00 -.403E+00 -.465E-01   0.147E-02 -.163E-03 0.663E-03
   -.320E+01 -.164E+00 -.191E+04   0.314E+01 0.263E+00 0.191E+04   0.550E-01 -.978E-01 0.180E+01   0.156E-02 -.160E-02 -.551E-02
   -.116E+02 -.138E+01 0.204E+04   0.116E+02 0.148E+01 -.203E+04   0.344E-01 -.904E-01 -.153E+01   0.956E-03 0.247E-02 -.992E-03
   -.420E+01 -.353E+01 0.204E+04   0.441E+01 0.357E+01 -.204E+04   -.109E+00 0.349E-01 -.182E+01   0.311E-02 0.131E-03 -.153E-02
   0.228E+01 -.495E+01 0.282E+02   -.166E+01 0.444E+01 -.290E+02   -.619E+00 0.520E+00 0.809E+00   0.857E-02 -.151E-02 -.216E-02
   -.487E+01 -.368E+01 -.193E+04   0.468E+01 0.369E+01 0.192E+04   0.185E+00 -.135E-01 0.144E+01   -.257E-02 -.271E-02 -.174E-02
   -.708E+01 0.255E+01 0.203E+04   0.727E+01 -.271E+01 -.203E+04   -.888E-01 0.153E+00 -.187E+01   -.289E-02 -.399E-02 0.743E-03
   0.125E+01 0.332E+01 0.124E+02   -.116E+01 -.330E+01 -.124E+02   -.945E-01 -.238E-01 -.269E-01   0.341E-02 0.302E-02 -.127E-03
   0.230E+00 -.399E-01 0.362E+02   -.649E+00 -.128E-01 -.362E+02   0.415E+00 0.552E-01 0.219E-03   0.977E-03 -.326E-03 -.114E-01
   0.130E+02 0.828E+01 0.204E+04   -.132E+02 -.835E+01 -.204E+04   0.170E+00 0.137E-01 -.151E+01   -.215E-02 0.203E-02 -.219E-03
   -.168E+01 0.633E+00 0.165E+02   0.158E+01 -.680E+00 -.169E+02   0.979E-01 0.561E-01 0.421E+00   -.200E-02 -.748E-02 -.339E-02
   0.317E+01 0.463E+01 0.428E+02   -.338E+01 -.419E+01 -.432E+02   0.208E+00 -.450E+00 0.483E+00   -.232E-02 0.456E-02 -.374E-02
   -.758E-01 -.133E+01 0.469E+02   0.529E+00 0.185E+01 -.472E+02   -.462E+00 -.518E+00 0.340E+00   0.106E-01 0.174E-02 -.961E-02
   0.116E+02 -.605E+01 0.203E+04   -.118E+02 0.617E+01 -.203E+04   0.964E-01 -.733E-01 -.173E+01   -.107E-02 -.159E-02 0.598E-03
   -.298E+01 -.157E+01 0.402E+02   0.324E+01 0.175E+01 -.406E+02   -.260E+00 -.184E+00 0.413E+00   0.300E-02 0.453E-02 -.615E-02
   0.761E+01 0.520E+01 -.194E+04   -.759E+01 -.534E+01 0.193E+04   -.193E-01 0.135E+00 0.155E+01   0.614E-03 0.491E-02 -.837E-02
   0.205E+02 0.319E+01 0.203E+04   -.209E+02 -.340E+01 -.203E+04   0.165E+00 0.162E+00 -.181E+01   -.155E-02 -.256E-02 -.234E-02
   -.312E+01 -.104E+01 0.203E+04   0.303E+01 0.909E+00 -.203E+04   0.844E-01 0.115E+00 -.195E+01   0.583E-03 0.183E-02 0.177E-02
   0.831E+01 0.119E+01 -.194E+04   -.831E+01 -.961E+00 0.194E+04   -.267E-03 -.231E+00 0.130E+01   -.265E-02 0.266E-02 -.699E-03
   -.768E+00 -.383E+01 0.273E+01   0.690E+00 0.402E+01 -.318E+01   0.691E-01 -.190E+00 0.461E+00   -.203E-02 -.617E-02 -.651E-02
   -.172E+01 0.414E+01 0.894E+01   0.169E+01 -.472E+01 -.887E+01   0.326E-01 0.580E+00 -.714E-01   0.365E-02 -.372E-02 -.420E-02
   -.156E+01 -.125E+02 0.203E+04   0.176E+01 0.128E+02 -.203E+04   -.139E+00 -.113E+00 -.199E+01   0.302E-02 -.415E-02 -.186E-02
   -.800E+01 0.631E+01 0.204E+04   0.812E+01 -.625E+01 -.204E+04   -.883E-01 -.121E+00 -.189E+01   0.253E-03 0.621E-02 0.169E-02
   0.363E+01 -.173E+01 0.527E+02   -.379E+01 0.133E+01 -.532E+02   0.143E+00 0.405E+00 0.452E+00   0.211E-02 -.956E-02 -.625E-02
   -.282E+00 -.345E+01 0.356E+02   0.278E+00 0.341E+01 -.360E+02   0.718E-02 0.476E-01 0.371E+00   -.347E-02 -.319E-02 -.306E-02
 -----------------------------------------------------------------------------------------------
   0.239E+00 0.527E-02 0.321E+01   -.126E-13 -.195E-12 -.361E-11   -.259E+00 0.751E-02 -.309E+01   0.268E-01 -.649E-02 -.167E+00
 
 
 POSITION                                       TOTAL-FORCE (eV/Angst)
 -----------------------------------------------------------------------------------
      1.37532      0.79404     10.00000         0.094039     -0.173743     -0.086455
      2.77647      4.76738     14.94369         0.000083     -0.004318      0.006218
      1.37460      2.37487     14.95799         0.006364     -0.005141      0.008045
     12.38651      3.97814     12.50297        -0.005808     -0.000397      0.000210
      2.75065      3.17617     10.00000         0.453502     -0.016181     -0.175678
     -0.01617     -0.00444     14.87798         0.005310     -0.001188      0.000462
      2.75470      0.01034     14.93581        -0.003749      0.012349      0.004169
     12.39005      7.13906     14.87041        -0.002838      0.006195      0.000820
      6.86737      7.13123     14.87611        -0.003383     -0.003960     -0.000465
      6.87661      5.55830     10.00000         0.126177     -0.177093     -0.180734
      5.50720      4.76015     14.86592        -0.000777      0.005833      0.004025
      5.48383      1.60894     12.38475        -0.000849      0.006403     -0.005000
      5.50129      7.94043     10.00000        -0.207294      0.024092     -0.152676
      6.89076      2.40195     14.95565         0.002130     -0.006416      0.001927
     11.00258      7.94043     10.00000        -0.013483      0.083122     -0.203249
      9.60187      8.73059     12.40436        -0.009076     -0.001639      0.000303
      9.61615      7.12830     14.93603         0.002589     -0.007978      0.003687
      8.25498      1.57589     12.37808        -0.013995     -0.008878     -0.000411
      8.26500      0.00023     14.91238        -0.007784     -0.000326     -0.000629
     11.00258      3.17617     10.00000        -0.422887     -0.064545     -0.269311
      9.60220      3.99534     12.41401         0.001600      0.014715     -0.003769
     12.37790      5.55830     10.00000         0.095882      0.252809     -0.167241
     10.97578      4.74973     15.01187        -0.009005     -0.000529      0.008529
      5.50326      0.01399     14.95609         0.006534      0.002360      0.000131
      4.12437      7.14649     14.75003         0.002342     -0.000029     -0.004402
      4.12597      0.79404     10.00000         0.080351      0.012888      0.104754
      6.87661      0.79404     10.00000         0.100456      0.078259      0.091954
     12.39006      8.71465     12.41439         0.006650      0.006951      0.002484
      4.13214      2.38730     14.78307        -0.009102     -0.002366     -0.001707
      8.25194      7.94043     10.00000         0.103662     -0.013735      0.146616
      2.73479      1.58897     12.43572        -0.003709      0.003262     -0.004479
      5.49066      6.35034     12.40948        -0.003432      0.002027      0.006310
      8.25194      3.17617     10.00000        -0.067932     -0.056107      0.074039
      6.85269      8.73133     12.42902        -0.004766      0.001060      0.002628
      6.84948      3.98865     12.39865        -0.008599      0.001597      0.001379
     13.75342      6.37146     12.39768         0.002425      0.005155     -0.000863
      9.62726      5.55830     10.00000        -0.139639      0.044277      0.177147
      4.12350      4.00638     12.40551         0.000489     -0.004122     -0.001593
      8.25127      4.75755     14.78507         0.004813      0.000226      0.002497
      9.62726      0.79404     10.00000        -0.224781     -0.057191      0.123072
      4.12597      5.55830     10.00000        -0.004332     -0.018281      0.185062
      9.62323      2.38868     14.79579        -0.005461      0.001234      0.003330
     10.98883      6.35963     12.44587        -0.010796     -0.006136      0.002965
     11.00719      1.56455     12.44341         0.001966      0.002382     -0.001577
     13.75323      7.94043     10.00000         0.062687      0.123744      0.177772
      5.50129      3.17617     10.00000         0.031898     -0.059849      0.119848
     15.12201      8.72299     12.38917        -0.008380     -0.001755     -0.001211
      8.22784      6.36713     12.41171        -0.000094      0.000964      0.001066
 -----------------------------------------------------------------------------------
    total drift:                                0.006202      0.006290     -0.047778


--------------------------------------------------------------------------------------------------------



  FREE ENERGIE OF THE ION-ELECTRON SYSTEM (eV)
  ---------------------------------------------------
  free  energy   TOTEN  =      -193.07099562 eV

  energy  without entropy=     -192.85250585  energy(sigma->0) =     -192.96175073
 
 d Force = 0.2212613E-03[-0.916E-04, 0.534E-03]  d Energy = 0.2011350E-03 0.201E-04
 d Force = 0.2332599E+02[ 0.233E+02, 0.233E+02]  d Ewald  = 0.2332599E+02-0.485E-06


--------------------------------------------------------------------------------------------------------


    POTLOK:  cpu time    0.0472: real time    0.0473


--------------------------------------------------------------------------------------------------------


 stress matrix after NEB project (eV)
      0.00000      0.00000      0.00000
      0.00000      0.00000      0.00000
      0.00000      0.00000      0.00000
  FORCES: max atom, RMS     0.016578    0.007100
  FORCE total and by dimension    0.049191    0.014715
  Stress total and by dimension    0.000000    0.000000
 Conjugate gradient step on ions:
 trial-energy change:   -0.000201  1 .order   -0.000221   -0.000534    0.000092
  (g-gl).g = 0.117E-03      g.g   = 0.181E-03  gl.gl    = 0.737E-03
 g(Force)  = 0.181E-03   g(Stress)= 0.000E+00 ortho     = 0.278E-04
 gamma     =   0.15843
 trial     =   2.88112
 opt step  =   2.37951  (harmonic =   2.45947) maximal distance =0.00161750
 next E    =  -193.071004   (d E  =  -0.00021)


--------------------------------------------------------------------------------------------------------


  
 reached required accuracy - stopping structural energy minimisation
     LOOP+:  cpu time   48.4696: real time   48.8502
    4ORBIT:  cpu time    0.0000: real time    0.0000

 total amount of memory used by VASP on root node    84353. kBytes
========================================================================

   base      :      30000. kBytes
   nonlr-proj:       4285. kBytes
   fftplans  :       4447. kBytes
   grid      :       6721. kBytes
   one-center:        124. kBytes
   wavefun   :      38776. kBytes
 
  
  
 General timing and accounting informations for this job:
 ========================================================
  
                  Total CPU time used (sec):     1364.489
                            User time (sec):     1302.659
                          System time (sec):       61.830
                         Elapsed time (sec):     1376.433
  
                   Maximum memory used (kb):      764008.
                   Average memory used (kb):           0.
  
                          Minor page faults:       622917
                          Major page faults:            0
                 Voluntary context switches:         8748
