unknown system                          
           1
    11.002582    0.000000    0.000000
     5.501291    9.528515    0.000000
     0.000000    0.000000   24.491785
   Au   Pd
  24  24
Direct configuration=     1
   0.08333333  0.08333333  0.40830017
   0.00000000  0.50000000  0.59169983
   0.00000000  0.25000000  0.59169983
   0.91666667  0.41666667  0.50000000
   0.08333333  0.33333333  0.40830017
   0.00000000  0.00000000  0.59169983
   0.25000000  0.00000000  0.59169983
   0.75000000  0.75000000  0.59169983
   0.25000000  0.75000000  0.59169983
   0.33333333  0.58333333  0.40830017
   0.25000000  0.50000000  0.59169983
   0.41666667  0.16666667  0.50000000
   0.08333333  0.83333333  0.40830017
   0.50000000  0.25000000  0.59169983
   0.58333333  0.83333333  0.40830017
   0.41666667  0.91666667  0.50000000
   0.50000000  0.75000000  0.59169983
   0.66666667  0.16666667  0.50000000
   0.75000000  0.00000000  0.59169983
   0.83333333  0.33333333  0.40830017
   0.66666667  0.41666667  0.50000000
   0.83333333  0.58333333  0.40830017
   0.75000000  0.50000000  0.59169983
   0.50000000  0.00000000  0.59169983
   0.00000000  0.75000000  0.59169983
   0.33333333  0.08333333  0.40830017
   0.58333333  0.08333333  0.40830017
   0.66666667  0.91666667  0.50000000
   0.25000000  0.25000000  0.59169983
   0.33333333  0.83333333  0.40830017
   0.16666667  0.16666667  0.50000000
   0.16666667  0.66666667  0.50000000
   0.58333333  0.33333333  0.40830017
   0.16666667  0.91666667  0.50000000
   0.41666667  0.41666667  0.50000000
   0.91666667  0.66666667  0.50000000
   0.58333333  0.58333333  0.40830017
   0.16666667  0.41666667  0.50000000
   0.50000000  0.50000000  0.59169983
   0.83333333  0.08333333  0.40830017
   0.08333333  0.58333333  0.40830017
   0.75000000  0.25000000  0.59169983
   0.66666667  0.66666667  0.50000000
   0.91666667  0.16666667  0.50000000
   0.83333333  0.83333333  0.40830017
   0.33333333  0.33333333  0.40830017
   0.91666667  0.91666667  0.50000000
   0.41666667  0.66666667  0.50000000
Direct configuration=     2
   0.08333333  0.08333333  0.40830017
   0.00110997  0.50027882  0.59351055
   0.00038420  0.24932602  0.59355510
   0.91759389  0.41668618  0.49998761
   0.08333333  0.33333333  0.40830017
  -0.00069323 -0.00002783  0.59322516
   0.24938610  0.00097003  0.59361686
   0.75080742  0.75002177  0.59323787
   0.25000911  0.74911360  0.59321931
   0.33333333  0.58333333  0.40830017
   0.25004394  0.50001734  0.59321350
   0.41506556  0.16800040  0.49920027
   0.08333333  0.83333333  0.40830017
   0.49965396  0.25129465  0.59390659
   0.58333333  0.83333333  0.40830017
   0.41594939  0.91621648  0.49914681
   0.50020930  0.74874992  0.59360689
   0.66783160  0.16620428  0.49918088
   0.75112567 -0.00056072  0.59359720
   0.83333333  0.33333333  0.40830017
   0.66470702  0.41747675  0.49993661
   0.83333333  0.58333333  0.40830017
   0.74891601  0.49981108  0.59385897
   0.49979424  0.00045378  0.59396392
  -0.00004151  0.75010170  0.59246078
   0.33333333  0.08333333  0.40830017
   0.58333333  0.08333333  0.40830017
   0.66840133  0.91560956  0.49945866
   0.24970407  0.25028521  0.59277720
   0.33333333  0.83333333  0.40830017
   0.16695073  0.16663477  0.49990301
   0.16606612  0.66654252  0.49991940
   0.58333333  0.33333333  0.40830017
   0.16637734  0.91644830  0.49967766
   0.41584552  0.41765865  0.49965684
   0.91702351  0.66783520  0.49974151
   0.58333333  0.58333333  0.40830017
   0.16708529  0.41712551  0.49973361
   0.50007155  0.49976876  0.59271150
   0.83333333  0.08333333  0.40830017
   0.08333333  0.58333333  0.40830017
   0.74980144  0.25027392  0.59293104
   0.66630037  0.66701276  0.49973183
   0.91715123  0.16539642  0.49999887
   0.83333333  0.83333333  0.40830017
   0.33333333  0.33333333  0.40830017
   0.91694820  0.91581402  0.49969164
   0.41650769  0.66642711  0.49972928
Direct configuration=     3
   0.08333333  0.08333333  0.40830017
   0.00365390  0.50091786  0.59766053
   0.00126475  0.24778132  0.59780721
   0.91971899  0.41673092  0.49995921
   0.08333333  0.33333333  0.40830017
  -0.00228205 -0.00009162  0.59672106
   0.24797911  0.00319325  0.59801050
   0.75265794  0.75007168  0.59676291
   0.25002998  0.74708207  0.59670181
   0.33333333  0.58333333  0.40830017
   0.25014465  0.50005707  0.59668269
   0.41139598  0.17105718  0.49736736
   0.08333333  0.83333333  0.40830017
   0.49886087  0.25426186  0.59896426
   0.58333333  0.83333333  0.40830017
   0.41430547  0.91518470  0.49719138
   0.50068901  0.74588487  0.59797770
   0.67050153  0.16514453  0.49730352
   0.75370561 -0.00184582  0.59794580
   0.83333333  0.33333333  0.40830017
   0.66021570  0.41933337  0.49979133
   0.83333333  0.58333333  0.40830017
   0.74643162  0.49937811  0.59880751
   0.49932266  0.00149379  0.59915298
  -0.00013664  0.75033479  0.59420482
   0.33333333  0.08333333  0.40830017
   0.58333333  0.08333333  0.40830017
   0.67237700  0.91318677  0.49821796
   0.24902583  0.25093888  0.59524643
   0.33333333  0.83333333  0.40830017
   0.16760178  0.16656168  0.49968073
   0.16468974  0.66625798  0.49973467
   0.58333333  0.33333333  0.40830017
   0.16571424  0.91594783  0.49893890
   0.41396354  0.41993217  0.49887036
   0.91784136  0.67051338  0.49914907
   0.58333333  0.58333333  0.40830017
   0.16804473  0.41817714  0.49912307
   0.50023552  0.49923879  0.59503016
   0.83333333  0.08333333  0.40830017
   0.08333333  0.58333333  0.40830017
   0.74934637  0.25090173  0.59575284
   0.66546087  0.66780598  0.49911719
   0.91826181  0.16248512  0.49999629
   0.83333333  0.83333333  0.40830017
   0.33333333  0.33333333  0.40830017
   0.91759344  0.91385982  0.49898489
   0.41614333  0.66587806  0.49910882
Direct configuration=     4
   0.08333333  0.08333333  0.40830017
   0.00342851  0.50078879  0.60006972
   0.00019268  0.24894492  0.60026743
   0.91923998  0.41718301  0.50239758
   0.08333333  0.33333333  0.40830017
  -0.00190200 -0.00063964  0.59886597
   0.24886822  0.00215234  0.60040376
   0.75258155  0.74958634  0.59871824
   0.24986307  0.74738164  0.59870972
   0.33333333  0.58333333  0.40830017
   0.25059375  0.49985968  0.59884212
   0.41301501  0.17041663  0.49907799
   0.08333333  0.83333333  0.40830017
   0.49954337  0.25378520  0.60151104
   0.58333333  0.83333333  0.40830017
   0.41416595  0.91534469  0.49921570
   0.49998422  0.74673200  0.60035323
   0.66980107  0.16443016  0.49889273
   0.75262566 -0.00071361  0.60033465
   0.83333333  0.33333333  0.40830017
   0.66075973  0.41973051  0.50125921
   0.83333333  0.58333333  0.40830017
   0.74745071  0.49845902  0.60154053
   0.49935971  0.00185289  0.60156577
   0.00037228  0.75031564  0.59537040
   0.33333333  0.08333333  0.40830017
   0.58333333  0.08333333  0.40830017
   0.67210884  0.91364705  0.49959410
   0.24944146  0.25116170  0.59656561
   0.33333333  0.83333333  0.40830017
   0.16711482  0.16620311  0.50111724
   0.16489894  0.66609214  0.50084915
   0.58333333  0.33333333  0.40830017
   0.16553457  0.91536759  0.50046480
   0.41294416  0.41988849  0.49999765
   0.91813549  0.67009793  0.50016447
   0.58333333  0.58333333  0.40830017
   0.16729591  0.41993368  0.50021728
   0.49984637  0.49887745  0.59650208
   0.83333333  0.08333333  0.40830017
   0.08333333  0.58333333  0.40830017
   0.74895862  0.25091993  0.59718734
   0.66574066  0.66744982  0.50076210
   0.91901702  0.16212123  0.50146174
   0.83333333  0.83333333  0.40830017
   0.33333333  0.33333333  0.40830017
   0.91798006  0.91372596  0.49998728
   0.41468358  0.66704354  0.50027755
Direct configuration=     5
   0.08333333  0.08333333  0.40830017
   0.00275234  0.50040160  0.60729728
  -0.00302352  0.25243570  0.60764812
   0.91780295  0.41853929  0.50971270
   0.08333333  0.33333333  0.40830017
  -0.00076185 -0.00228372  0.60530072
   0.25153558 -0.00097041  0.60758356
   0.75235239  0.74813031  0.60458426
   0.24936232  0.74828035  0.60473345
   0.33333333  0.58333333  0.40830017
   0.25194105  0.49926753  0.60532041
   0.41787212  0.16849499  0.50420988
   0.08333333  0.83333333  0.40830017
   0.50159087  0.25235523  0.60915141
   0.58333333  0.83333333  0.40830017
   0.41374736  0.91582464  0.50528867
   0.49786984  0.74927341  0.60747983
   0.66769970  0.16228703  0.50366034
   0.74938581  0.00268302  0.60750122
   0.83333333  0.33333333  0.40830017
   0.66239183  0.42092194  0.50566283
   0.83333333  0.58333333  0.40830017
   0.75050798  0.49570174  0.60973961
   0.49947087  0.00293018  0.60880416
   0.00189906  0.75025819  0.59886716
   0.33333333  0.08333333  0.40830017
   0.58333333  0.08333333  0.40830017
   0.67130435  0.91502789  0.50372255
   0.25068835  0.25183018  0.60052316
   0.33333333  0.83333333  0.40830017
   0.16565392  0.16512742  0.50542678
   0.16552654  0.66559462  0.50419259
   0.58333333  0.33333333  0.40830017
   0.16499555  0.91362688  0.50504251
   0.40988602  0.41975744  0.50337954
   0.91901787  0.66885160  0.50321065
   0.58333333  0.58333333  0.40830017
   0.16504944  0.42520332  0.50349991
   0.49867892  0.49779342  0.60091785
   0.83333333  0.08333333  0.40830017
   0.08333333  0.58333333  0.40830017
   0.74779539  0.25097453  0.60149086
   0.66658005  0.66638132  0.50569681
   0.92128265  0.16102953  0.50585809
   0.83333333  0.83333333  0.40830017
   0.33333333  0.33333333  0.40830017
   0.91913992  0.91332439  0.50299443
   0.41030435  0.67054000  0.50378373
Direct configuration=     6
   0.08333333  0.08333333  0.40830017
   0.00331130  0.50110330  0.60858208
   0.00108342  0.24774869  0.60889282
   0.91840820  0.41756924  0.51013289
   0.08333333  0.33333333  0.40830017
  -0.00123339 -0.00006276  0.60620243
   0.24879568  0.00226687  0.60856045
   0.75149069  0.74931324  0.60516994
   0.25028226  0.74787340  0.60573570
   0.33333333  0.58333333  0.40830017
   0.25108986  0.49923674  0.60622186
   0.41478585  0.16798705  0.50537354
   0.08333333  0.83333333  0.40830017
   0.50024150  0.25231083  0.61024751
   0.58333333  0.83333333  0.40830017
   0.41525356  0.91645301  0.50635692
   0.50086439  0.74681553  0.60837094
   0.66905839  0.16524469  0.50478418
   0.75095549  0.00006662  0.60833489
   0.83333333  0.33333333  0.40830017
   0.66243532  0.41926806  0.50623782
   0.83333333  0.58333333  0.40830017
   0.74654420  0.49942501  0.61119854
   0.49988987  0.00188808  0.60974230
  -0.00013247  0.75019523  0.59970559
   0.33333333  0.08333333  0.40830017
   0.58333333  0.08333333  0.40830017
   0.67048703  0.91314276  0.50547592
   0.25029386  0.25096023  0.60100246
   0.33333333  0.83333333  0.40830017
   0.16617519  0.16640528  0.50670835
   0.16623729  0.66645939  0.50533389
   0.58333333  0.33333333  0.40830017
   0.16467324  0.91505352  0.50638776
   0.41321922  0.41874081  0.50472735
   0.91642943  0.66890862  0.50457613
   0.58333333  0.58333333  0.40830017
   0.16466157  0.42127601  0.50489245
   0.49957597  0.49968509  0.60160741
   0.83333333  0.08333333  0.40830017
   0.08333333  0.58333333  0.40830017
   0.74909105  0.25015888  0.60209615
   0.66553488  0.66782905  0.50713999
   0.91923721  0.16288959  0.50702153
   0.83333333  0.83333333  0.40830017
   0.33333333  0.33333333  0.40830017
   0.91768131  0.91506082  0.50437746
   0.41261941  0.66878185  0.50520137
Direct configuration=     7
   0.08333333  0.08333333  0.40830017
   0.00329261  0.50107983  0.60853911
   0.00094606  0.24790545  0.60885119
   0.91838795  0.41760168  0.51011884
   0.08333333  0.33333333  0.40830017
  -0.00121762 -0.00013704  0.60617227
   0.24888731  0.00215859  0.60852777
   0.75151951  0.74927368  0.60515035
   0.25025149  0.74788701  0.60570218
   0.33333333  0.58333333  0.40830017
   0.25111833  0.49923777  0.60619171
   0.41488907  0.16800404  0.50533462
   0.08333333  0.83333333  0.40830017
   0.50028663  0.25231231  0.61021085
   0.58333333  0.83333333  0.40830017
   0.41520318  0.91643200  0.50632119
   0.50076423  0.74689774  0.60834113
   0.66901294  0.16514577  0.50474660
   0.75090299  0.00015413  0.60830701
   0.83333333  0.33333333  0.40830017
   0.66243386  0.41932338  0.50621859
   0.83333333  0.58333333  0.40830017
   0.74667677  0.49930048  0.61114974
   0.49987585  0.00192294  0.60971092
  -0.00006452  0.75019733  0.59967755
   0.33333333  0.08333333  0.40830017
   0.58333333  0.08333333  0.40830017
   0.67051437  0.91320581  0.50541728
   0.25030705  0.25098933  0.60098643
   0.33333333  0.83333333  0.40830017
   0.16615776  0.16636254  0.50666548
   0.16621352  0.66643046  0.50529572
   0.58333333  0.33333333  0.40830017
   0.16468402  0.91500580  0.50634277
   0.41310774  0.41877482  0.50468227
   0.91651600  0.66890671  0.50453046
   0.58333333  0.58333333  0.40830017
   0.16467454  0.42140736  0.50484588
   0.49954597  0.49962182  0.60158434
   0.83333333  0.08333333  0.40830017
   0.08333333  0.58333333  0.40830017
   0.74904771  0.25018616  0.60207590
   0.66556984  0.66778063  0.50709172
   0.91930562  0.16282738  0.50698262
   0.83333333  0.83333333  0.40830017
   0.33333333  0.33333333  0.40830017
   0.91773009  0.91500275  0.50433120
   0.41254198  0.66884065  0.50515395
Direct configuration=     8
   0.08333333  0.08333333  0.40830017
   0.00241655  0.50062922  0.60900910
   0.00063562  0.24899062  0.60935684
   0.91755075  0.41715517  0.51014958
   0.08333333  0.33333333  0.40830017
  -0.00140816 -0.00044834  0.60652866
   0.24977828  0.00149755  0.60885064
   0.75152079  0.74953617  0.60548599
   0.25016868  0.74840921  0.60610385
   0.33333333  0.58333333  0.40830017
   0.25102679  0.49945658  0.60631250
   0.41482807  0.16829378  0.50544037
   0.08333333  0.83333333  0.40830017
   0.49994897  0.25235794  0.61040871
   0.58333333  0.83333333  0.40830017
   0.41523160  0.91619324  0.50655050
   0.50004805  0.74805349  0.60866222
   0.66828680  0.16533262  0.50507574
   0.75170641 -0.00072625  0.60842061
   0.83333333  0.33333333  0.40830017
   0.66337696  0.41947030  0.50617398
   0.83333333  0.58333333  0.40830017
   0.74781752  0.49867506  0.61160507
   0.49958191  0.00120705  0.61001805
  -0.00058370  0.75054228  0.60020565
   0.33333333  0.08333333  0.40830017
   0.58333333  0.08333333  0.40830017
   0.66974679  0.91400147  0.50623178
   0.25010041  0.25075530  0.60158012
   0.33333333  0.83333333  0.40830017
   0.16585110  0.16656642  0.50696944
   0.16642827  0.66619171  0.50592784
   0.58333333  0.33333333  0.40830017
   0.16499647  0.91624599  0.50692075
   0.41409630  0.41784620  0.50543441
   0.91584256  0.66848683  0.50518365
   0.58333333  0.58333333  0.40830017
   0.16509691  0.41983712  0.50554937
   0.49981273  0.49969126  0.60205847
   0.83333333  0.08333333  0.40830017
   0.08333333  0.58333333  0.40830017
   0.74945010  0.25039900  0.60262673
   0.66518411  0.66728010  0.50750780
   0.91883210  0.16422453  0.50731358
   0.83333333  0.83333333  0.40830017
   0.33333333  0.33333333  0.40830017
   0.91661051  0.91579653  0.50505172
   0.41413660  0.66832176  0.50582395
Direct configuration=     9
   0.08333333  0.08333333  0.40830017
   0.00219580  0.50051568  0.60912753
   0.00055739  0.24926405  0.60948426
   0.91733980  0.41704266  0.51015732
   0.08333333  0.33333333  0.40830017
  -0.00145618 -0.00052678  0.60661847
   0.25000278  0.00133099  0.60893200
   0.75152111  0.74960231  0.60557056
   0.25014781  0.74854079  0.60620506
   0.33333333  0.58333333  0.40830017
   0.25100372  0.49951172  0.60634294
   0.41481269  0.16836679  0.50546701
   0.08333333  0.83333333  0.40830017
   0.49986389  0.25236944  0.61045856
   0.58333333  0.83333333  0.40830017
   0.41523876  0.91613307  0.50660828
   0.49986758  0.74834471  0.60874312
   0.66810383  0.16537970  0.50515868
   0.75190885 -0.00094809  0.60844923
   0.83333333  0.33333333  0.40830017
   0.66361460  0.41950732  0.50616274
   0.83333333  0.58333333  0.40830017
   0.74810496  0.49851747  0.61171980
   0.49950784  0.00102666  0.61009544
  -0.00071452  0.75062920  0.60033872
   0.33333333  0.08333333  0.40830017
   0.58333333  0.08333333  0.40830017
   0.66955338  0.91420196  0.50643701
   0.25004834  0.25069633  0.60172972
   0.33333333  0.83333333  0.40830017
   0.16577382  0.16661779  0.50704603
   0.16648239  0.66613156  0.50608713
   0.58333333  0.33333333  0.40830017
   0.16507520  0.91655848  0.50706639
   0.41434540  0.41761221  0.50562394
   0.91567286  0.66838103  0.50534824
   0.58333333  0.58333333  0.40830017
   0.16520333  0.41944146  0.50572663
   0.49987994  0.49970876  0.60217794
   0.83333333  0.08333333  0.40830017
   0.08333333  0.58333333  0.40830017
   0.74955149  0.25045263  0.60276552
   0.66508692  0.66715398  0.50761264
   0.91871278  0.16457658  0.50739698
   0.83333333  0.83333333  0.40830017
   0.33333333  0.33333333  0.40830017
   0.91632840  0.91599654  0.50523328
   0.41453841  0.66819101  0.50599277
Direct configuration=    10
   0.08333333  0.08333333  0.40830017
   0.00201559  0.50047235  0.60938985
   0.00036758  0.24943850  0.60985952
   0.91715103  0.41726318  0.51006641
   0.08333333  0.33333333  0.40830017
  -0.00110393 -0.00048569  0.60683331
   0.24971414  0.00123407  0.60919924
   0.75150353  0.74912006  0.60595036
   0.24979500  0.74866152  0.60646998
   0.33333333  0.58333333  0.40830017
   0.25054368  0.49990737  0.60636850
   0.41513177  0.16828759  0.50536926
   0.08333333  0.83333333  0.40830017
   0.50044944  0.25175981  0.61050883
   0.58333333  0.83333333  0.40830017
   0.41502978  0.91618871  0.50642977
   0.49992821  0.74823596  0.60904070
   0.66769600  0.16523026  0.50525994
   0.75105346  0.00001696  0.60853898
   0.83333333  0.33333333  0.40830017
   0.66362582  0.41943797  0.50617364
   0.83333333  0.58333333  0.40830017
   0.74842422  0.49842351  0.61202736
   0.49960053  0.00145558  0.61028820
   0.00003609  0.74996776  0.60084090
   0.33333333  0.08333333  0.40830017
   0.58333333  0.08333333  0.40830017
   0.66898933  0.91489378  0.50666268
   0.25017543  0.25061687  0.60232585
   0.33333333  0.83333333  0.40830017
   0.16562894  0.16642444  0.50709364
   0.16646520  0.66595040  0.50630215
   0.58333333  0.33333333  0.40830017
   0.16503397  0.91675315  0.50723207
   0.41409182  0.41780724  0.50592298
   0.91596232  0.66801016  0.50554971
   0.58333333  0.58333333  0.40830017
   0.16512645  0.41982334  0.50600968
   0.50027628  0.49945823  0.60255337
   0.83333333  0.08333333  0.40830017
   0.08333333  0.58333333  0.40830017
   0.74926277  0.25060262  0.60319871
   0.66521026  0.66705054  0.50771177
   0.91873982  0.16450434  0.50751216
   0.83333333  0.83333333  0.40830017
   0.33333333  0.33333333  0.40830017
   0.91644843  0.91595796  0.50540688
   0.41444203  0.66813180  0.50623304
Direct configuration=    11
   0.08333333  0.08333333  0.40830017
   0.00197066  0.50046155  0.60945525
   0.00032026  0.24948199  0.60995308
   0.91710397  0.41731815  0.51004374
   0.08333333  0.33333333  0.40830017
  -0.00101611 -0.00047545  0.60688686
   0.24964218  0.00120991  0.60926587
   0.75149914  0.74899984  0.60604504
   0.24970705  0.74869162  0.60653603
   0.33333333  0.58333333  0.40830017
   0.25042900  0.50000600  0.60637487
   0.41521131  0.16826785  0.50534489
   0.08333333  0.83333333  0.40830017
   0.50059541  0.25160783  0.61052136
   0.58333333  0.83333333  0.40830017
   0.41497769  0.91620258  0.50638526
   0.49994332  0.74820885  0.60911488
   0.66759433  0.16519301  0.50528519
   0.75084021  0.00025755  0.60856135
   0.83333333  0.33333333  0.40830017
   0.66362861  0.41942068  0.50617636
   0.83333333  0.58333333  0.40830017
   0.74850381  0.49840008  0.61210403
   0.49962363  0.00156251  0.61033626
   0.00022321  0.74980286  0.60096609
   0.33333333  0.08333333  0.40830017
   0.58333333  0.08333333  0.40830017
   0.66884872  0.91506624  0.50671893
   0.25020711  0.25059706  0.60247446
   0.33333333  0.83333333  0.40830017
   0.16559282  0.16637624  0.50710550
   0.16646092  0.66590523  0.50635575
   0.58333333  0.33333333  0.40830017
   0.16502370  0.91680168  0.50727338
   0.41402860  0.41785586  0.50599754
   0.91603448  0.66791770  0.50559993
   0.58333333  0.58333333  0.40830017
   0.16510729  0.41991854  0.50608025
   0.50037508  0.49939578  0.60264696
   0.83333333  0.08333333  0.40830017
   0.08333333  0.58333333  0.40830017
   0.74919079  0.25064002  0.60330670
   0.66524101  0.66702475  0.50773648
   0.91874656  0.16448633  0.50754087
   0.83333333  0.83333333  0.40830017
   0.33333333  0.33333333  0.40830017
   0.91647836  0.91594834  0.50545016
   0.41441800  0.66811704  0.50629294
Direct configuration=    12
   0.08333333  0.08333333  0.40830017
   0.00215074  0.50030114  0.60972483
   0.00027280  0.24935031  0.61028631
   0.91734618  0.41737357  0.51002543
   0.08333333  0.33333333  0.40830017
  -0.00129708 -0.00023855  0.60710370
   0.24959720  0.00133833  0.60952406
   0.75153448  0.74901062  0.60645422
   0.24988845  0.74844892  0.60683636
   0.33333333  0.58333333  0.40830017
   0.25072820  0.49962424  0.60649526
   0.41463437  0.16848158  0.50531129
   0.08333333  0.83333333  0.40830017
   0.50034019  0.25201431  0.61056944
   0.58333333  0.83333333  0.40830017
   0.41487526  0.91621102  0.50624225
   0.49996990  0.74803976  0.60942431
   0.66775485  0.16533253  0.50530754
   0.75103415  0.00030636  0.60867222
   0.83333333  0.33333333  0.40830017
   0.66328733  0.41911954  0.50632208
   0.83333333  0.58333333  0.40830017
   0.74837129  0.49836310  0.61241544
   0.49943284  0.00170908  0.61051213
   0.00007073  0.74985614  0.60149231
   0.33333333  0.08333333  0.40830017
   0.58333333  0.08333333  0.40830017
   0.66888689  0.91483744  0.50682569
   0.25040725  0.25058161  0.60299127
   0.33333333  0.83333333  0.40830017
   0.16563242  0.16652473  0.50722655
   0.16626650  0.66612392  0.50639049
   0.58333333  0.33333333  0.40830017
   0.16487742  0.91647747  0.50731228
   0.41361725  0.41831421  0.50619375
   0.91612459  0.66824685  0.50576329
   0.58333333  0.58333333  0.40830017
   0.16504019  0.42018974  0.50626964
   0.50052563  0.49916203  0.60302422
   0.83333333  0.08333333  0.40830017
   0.08333333  0.58333333  0.40830017
   0.74909974  0.25080874  0.60368361
   0.66522829  0.66735724  0.50780126
   0.91858179  0.16413147  0.50768973
   0.83333333  0.83333333  0.40830017
   0.33333333  0.33333333  0.40830017
   0.91687743  0.91552271  0.50557856
   0.41391161  0.66821124  0.50647039
Direct configuration=    13
   0.08333333  0.08333333  0.40830017
   0.00223089  0.50022974  0.60984483
   0.00025167  0.24929170  0.61043464
   0.91745400  0.41739824  0.51001728
   0.08333333  0.33333333  0.40830017
  -0.00142214 -0.00013310  0.60720022
   0.24957718  0.00139549  0.60963898
   0.75155020  0.74901542  0.60663635
   0.24996920  0.74834089  0.60697004
   0.33333333  0.58333333  0.40830017
   0.25086138  0.49945432  0.60654884
   0.41437756  0.16857671  0.50529633
   0.08333333  0.83333333  0.40830017
   0.50022659  0.25219523  0.61059084
   0.58333333  0.83333333  0.40830017
   0.41482967  0.91621477  0.50617859
   0.49998172  0.74796449  0.60956204
   0.66782630  0.16539463  0.50531748
   0.75112047  0.00032809  0.60872157
   0.83333333  0.33333333  0.40830017
   0.66313542  0.41898550  0.50638694
   0.83333333  0.58333333  0.40830017
   0.74831230  0.49834663  0.61255406
   0.49934792  0.00177432  0.61059041
   0.00000286  0.74987986  0.60172654
   0.33333333  0.08333333  0.40830017
   0.58333333  0.08333333  0.40830017
   0.66890387  0.91473560  0.50687321
   0.25049634  0.25057473  0.60322131
   0.33333333  0.83333333  0.40830017
   0.16565004  0.16659082  0.50728043
   0.16617996  0.66622126  0.50640595
   0.58333333  0.33333333  0.40830017
   0.16481230  0.91633317  0.50732960
   0.41343415  0.41851823  0.50628109
   0.91616470  0.66839336  0.50583600
   0.58333333  0.58333333  0.40830017
   0.16501033  0.42031045  0.50635395
   0.50059263  0.49905799  0.60319214
   0.83333333  0.08333333  0.40830017
   0.08333333  0.58333333  0.40830017
   0.74905921  0.25088384  0.60385138
   0.66522263  0.66750523  0.50783010
   0.91850845  0.16397352  0.50775599
   0.83333333  0.83333333  0.40830017
   0.33333333  0.33333333  0.40830017
   0.91705506  0.91533326  0.50563571
   0.41368621  0.66825317  0.50654938
Direct configuration=    14
   0.08333333  0.08333333  0.40830017
   0.00228388  0.50011308  0.60999403
   0.00032766  0.24929378  0.61055852
   0.91731604  0.41733239  0.51020677
   0.08333333  0.33333333  0.40830017
  -0.00137237 -0.00032789  0.60732571
   0.24975669  0.00132327  0.60972753
   0.75145834  0.74936126  0.60688640
   0.25002709  0.74830693  0.60716874
   0.33333333  0.58333333  0.40830017
   0.25090211  0.49946190  0.60673234
   0.41412982  0.16886169  0.50543332
   0.08333333  0.83333333  0.40830017
   0.50019047  0.25221745  0.61062176
   0.58333333  0.83333333  0.40830017
   0.41465600  0.91612229  0.50628489
   0.49992604  0.74808593  0.60969015
   0.66778057  0.16515354  0.50534233
   0.75124426 -0.00002752  0.60877586
   0.83333333  0.33333333  0.40830017
   0.66312660  0.41935948  0.50661211
   0.83333333  0.58333333  0.40830017
   0.74829362  0.49839092  0.61269878
   0.49939640  0.00152649  0.61064371
  -0.00022708  0.75010160  0.60198818
   0.33333333  0.08333333  0.40830017
   0.58333333  0.08333333  0.40830017
   0.66912417  0.91460020  0.50690725
   0.25036880  0.25047491  0.60343753
   0.33333333  0.83333333  0.40830017
   0.16546304  0.16672531  0.50751967
   0.16593059  0.66646825  0.50646126
   0.58333333  0.33333333  0.40830017
   0.16477413  0.91621878  0.50737844
   0.41323513  0.41859351  0.50627868
   0.91600464  0.66875603  0.50598331
   0.58333333  0.58333333  0.40830017
   0.16485793  0.42036235  0.50642591
   0.50047115  0.49920222  0.60341734
   0.83333333  0.08333333  0.40830017
   0.08333333  0.58333333  0.40830017
   0.74916437  0.25089430  0.60401806
   0.66513823  0.66735801  0.50794769
   0.91855005  0.16398257  0.50789782
   0.83333333  0.83333333  0.40830017
   0.33333333  0.33333333  0.40830017
   0.91698779  0.91517673  0.50573783
   0.41367702  0.66829128  0.50665348
Direct configuration=    15
   0.08333333  0.08333333  0.40830017
   0.00229803  0.50008193  0.61003388
   0.00034795  0.24929434  0.61059160
   0.91727921  0.41731481  0.51025737
   0.08333333  0.33333333  0.40830017
  -0.00135908 -0.00037990  0.60735922
   0.24980463  0.00130399  0.60975117
   0.75143381  0.74945361  0.60695317
   0.25004255  0.74829786  0.60722180
   0.33333333  0.58333333  0.40830017
   0.25091299  0.49946392  0.60678134
   0.41406366  0.16893778  0.50546990
   0.08333333  0.83333333  0.40830017
   0.50018082  0.25222338  0.61063002
   0.58333333  0.83333333  0.40830017
   0.41460962  0.91609760  0.50631327
   0.49991117  0.74811835  0.60972436
   0.66776836  0.16508916  0.50534896
   0.75127732 -0.00012248  0.60879036
   0.83333333  0.33333333  0.40830017
   0.66312425  0.41945934  0.50667224
   0.83333333  0.58333333  0.40830017
   0.74828863  0.49840274  0.61273743
   0.49940934  0.00146032  0.61065795
  -0.00028848  0.75016081  0.60205805
   0.33333333  0.08333333  0.40830017
   0.58333333  0.08333333  0.40830017
   0.66918300  0.91456404  0.50691634
   0.25033475  0.25044825  0.60349527
   0.33333333  0.83333333  0.40830017
   0.16541311  0.16676123  0.50758356
   0.16586400  0.66653421  0.50647603
   0.58333333  0.33333333  0.40830017
   0.16476394  0.91618823  0.50739148
   0.41318199  0.41861361  0.50627803
   0.91596190  0.66885288  0.50602264
   0.58333333  0.58333333  0.40830017
   0.16481724  0.42037621  0.50644512
   0.50043871  0.49924073  0.60347748
   0.83333333  0.08333333  0.40830017
   0.08333333  0.58333333  0.40830017
   0.74919245  0.25089710  0.60406257
   0.66511569  0.66731869  0.50797909
   0.91856116  0.16398499  0.50793569
   0.83333333  0.83333333  0.40830017
   0.33333333  0.33333333  0.40830017
   0.91696983  0.91513493  0.50576510
   0.41367457  0.66830145  0.50668127
Direct configuration=    16
   0.08333333  0.08333333  0.40830017
   0.00217955  0.50030188  0.61012593
   0.00041922  0.24917523  0.61068760
   0.91709848  0.41744936  0.51046139
   0.08333333  0.33333333  0.40830017
  -0.00111200 -0.00050922  0.60745522
   0.24979597  0.00115740  0.60980230
   0.75143883  0.74928912  0.60713625
   0.24992338  0.74840359  0.60737200
   0.33333333  0.58333333  0.40830017
   0.25064681  0.49971738  0.60695150
   0.41404220  0.16888085  0.50565062
   0.08333333  0.83333333  0.40830017
   0.50040412  0.25187950  0.61064479
   0.58333333  0.83333333  0.40830017
   0.41455122  0.91620805  0.50645026
   0.49999092  0.74811446  0.60981052
   0.66765430  0.16518945  0.50540146
   0.75107053  0.00002109  0.60885121
   0.83333333  0.33333333  0.40830017
   0.66308943  0.41948865  0.50686410
   0.83333333  0.58333333  0.40830017
   0.74827260  0.49863872  0.61287092
   0.49950435  0.00142410  0.61066260
  -0.00015762  0.75001408  0.60223654
   0.33333333  0.08333333  0.40830017
   0.58333333  0.08333333  0.40830017
   0.66897880  0.91454641  0.50689079
   0.25026932  0.25040641  0.60360858
   0.33333333  0.83333333  0.40830017
   0.16524149  0.16676240  0.50777257
   0.16578410  0.66655548  0.50661225
   0.58333333  0.33333333  0.40830017
   0.16467075  0.91627296  0.50746508
   0.41324319  0.41860702  0.50622765
   0.91574560  0.66877949  0.50617194
   0.58333333  0.58333333  0.40830017
   0.16450888  0.42048572  0.50650733
   0.50031267  0.49940779  0.60364687
   0.83333333  0.08333333  0.40830017
   0.08333333  0.58333333  0.40830017
   0.74927710  0.25070464  0.60411897
   0.66509158  0.66730582  0.50813448
   0.91846504  0.16408078  0.50806419
   0.83333333  0.83333333  0.40830017
   0.33333333  0.33333333  0.40830017
   0.91677216  0.91535080  0.50583931
   0.41372482  0.66822340  0.50675628
Direct configuration=    17
   0.08333333  0.08333333  0.40830017
   0.00218986  0.50028273  0.61011791
   0.00041301  0.24918560  0.61067924
   0.91711422  0.41743764  0.51044362