  48  48   0   0
  0.5349325E+02  0.1100258E-08  0.1100258E-08  0.2449179E-08  0.3500000E-15
  1.000000000000000E-004
  CAR 
 unknown system                          
      6.31367964     -9.88594100  301     -1.09091510      1.00000000
     -9.886  0.0000E+00  0.0000E+00
     -9.832  0.0000E+00  0.0000E+00
     -9.778  0.0000E+00  0.0000E+00
     -9.724  0.0000E+00  0.0000E+00
     -9.670  0.0000E+00  0.0000E+00
     -9.616  0.0000E+00  0.0000E+00
     -9.562  0.0000E+00  0.0000E+00
     -9.508  0.0000E+00  0.0000E+00
     -9.454  0.7539E-17  0.4071E-18
     -9.400  0.2610E-14  0.1413E-15
     -9.346  0.5802E-12  0.3147E-13
     -9.292  0.7338E-10  0.3994E-11
     -9.238  0.5297E-08  0.2900E-09
     -9.184  0.2189E-06  0.1211E-07
     -9.130  0.5198E-05  0.2928E-06
     -9.076  0.7113E-04  0.4134E-05
     -9.022  0.5629E-03  0.3453E-04
     -8.968  0.2584E-02  0.1741E-03
     -8.914  0.6924E-02  0.5479E-03
     -8.860  0.1108E-01  0.1146E-02
     -8.806  0.1166E-01  0.1775E-02
     -8.752  0.1079E-01  0.2358E-02
     -8.698  0.1112E-01  0.2959E-02
     -8.644  0.1000E-01  0.3499E-02
     -8.590  0.6169E-02  0.3832E-02
     -8.536  0.2425E-02  0.3963E-02
     -8.482  0.6013E-03  0.3995E-02
     -8.428  0.1778E-03  0.4005E-02
     -8.374  0.5294E-03  0.4033E-02
     -8.320  0.1758E-02  0.4128E-02
     -8.266  0.3583E-02  0.4322E-02
     -8.212  0.5096E-02  0.4597E-02
     -8.158  0.6623E-02  0.4955E-02
     -8.104  0.8604E-02  0.5419E-02
     -8.050  0.1012E-01  0.5965E-02
     -7.996  0.1191E-01  0.6609E-02
     -7.942  0.1496E-01  0.7417E-02
     -7.888  0.1702E-01  0.8336E-02
     -7.834  0.1623E-01  0.9212E-02
     -7.780  0.1493E-01  0.1002E-01
     -7.726  0.1529E-01  0.1084E-01
     -7.672  0.1577E-01  0.1170E-01
     -7.618  0.1730E-01  0.1263E-01
     -7.564  0.2196E-01  0.1382E-01
     -7.510  0.2543E-01  0.1519E-01
     -7.456  0.2305E-01  0.1643E-01
     -7.402  0.1799E-01  0.1740E-01
     -7.348  0.1745E-01  0.1835E-01
     -7.294  0.2371E-01  0.1963E-01
     -7.240  0.3206E-01  0.2136E-01
     -7.186  0.3883E-01  0.2345E-01
     -7.132  0.4529E-01  0.2590E-01
     -7.078  0.5236E-01  0.2873E-01
     -7.024  0.5706E-01  0.3181E-01
     -6.970  0.5703E-01  0.3489E-01
     -6.916  0.5716E-01  0.3798E-01
     -6.862  0.6288E-01  0.4137E-01
     -6.808  0.7127E-01  0.4522E-01
     -6.754  0.7634E-01  0.4934E-01
     -6.700  0.7686E-01  0.5349E-01
     -6.646  0.7553E-01  0.5757E-01
     -6.592  0.7667E-01  0.6171E-01
     -6.538  0.8365E-01  0.6623E-01
     -6.484  0.9721E-01  0.7148E-01
     -6.430  0.1168E+00  0.7779E-01
     -6.376  0.1350E+00  0.8507E-01
     -6.322  0.1397E+00  0.9262E-01
     -6.268  0.1342E+00  0.9986E-01
     -6.214  0.1344E+00  0.1071E+00
     -6.160  0.1432E+00  0.1149E+00
     -6.106  0.1517E+00  0.1230E+00
     -6.052  0.1553E+00  0.1314E+00
     -5.998  0.1547E+00  0.1398E+00
     -5.944  0.1521E+00  0.1480E+00
     -5.890  0.1498E+00  0.1561E+00
     -5.836  0.1482E+00  0.1641E+00
     -5.782  0.1462E+00  0.1720E+00
     -5.728  0.1411E+00  0.1796E+00
     -5.674  0.1337E+00  0.1868E+00
     -5.620  0.1323E+00  0.1940E+00
     -5.566  0.1388E+00  0.2015E+00
     -5.512  0.1453E+00  0.2093E+00
     -5.458  0.1473E+00  0.2173E+00
     -5.404  0.1479E+00  0.2252E+00
     -5.350  0.1509E+00  0.2334E+00
     -5.296  0.1549E+00  0.2418E+00
     -5.242  0.1580E+00  0.2503E+00
     -5.188  0.1620E+00  0.2590E+00
     -5.134  0.1652E+00  0.2680E+00
     -5.080  0.1660E+00  0.2769E+00
     -5.026  0.1674E+00  0.2860E+00
     -4.972  0.1685E+00  0.2951E+00
     -4.918  0.1672E+00  0.3041E+00
     -4.864  0.1657E+00  0.3130E+00
     -4.810  0.1660E+00  0.3220E+00
     -4.756  0.1660E+00  0.3310E+00
     -4.702  0.1626E+00  0.3397E+00
     -4.648  0.1581E+00  0.3483E+00
     -4.594  0.1562E+00  0.3567E+00
     -4.540  0.1601E+00  0.3654E+00
     -4.486  0.1694E+00  0.3745E+00
     -4.432  0.1782E+00  0.3841E+00
     -4.378  0.1828E+00  0.3940E+00
     -4.324  0.1845E+00  0.4040E+00
     -4.270  0.1843E+00  0.4139E+00
     -4.216  0.1832E+00  0.4238E+00
     -4.162  0.1828E+00  0.4337E+00
     -4.108  0.1834E+00  0.4436E+00
     -4.054  0.1842E+00  0.4535E+00
     -4.000  0.1843E+00  0.4635E+00
     -3.946  0.1848E+00  0.4735E+00
     -3.892  0.1869E+00  0.4836E+00
     -3.838  0.1902E+00  0.4938E+00
     -3.784  0.1950E+00  0.5044E+00
     -3.730  0.2023E+00  0.5153E+00
     -3.676  0.2096E+00  0.5266E+00
     -3.622  0.2119E+00  0.5380E+00
     -3.568  0.2083E+00  0.5493E+00
     -3.514  0.2030E+00  0.5602E+00
     -3.460  0.1999E+00  0.5710E+00
     -3.406  0.1997E+00  0.5818E+00
     -3.352  0.2014E+00  0.5927E+00
     -3.298  0.2038E+00  0.6037E+00
     -3.244  0.2044E+00  0.6147E+00
     -3.190  0.2026E+00  0.6257E+00
     -3.136  0.2012E+00  0.6366E+00
     -3.082  0.1985E+00  0.6473E+00
     -3.028  0.1906E+00  0.6576E+00
     -2.974  0.1794E+00  0.6672E+00
     -2.920  0.1720E+00  0.6765E+00
     -2.866  0.1741E+00  0.6859E+00
     -2.812  0.1831E+00  0.6958E+00
     -2.758  0.1895E+00  0.7061E+00
     -2.704  0.1883E+00  0.7162E+00
     -2.650  0.1818E+00  0.7260E+00
     -2.596  0.1751E+00  0.7355E+00
     -2.542  0.1740E+00  0.7449E+00
     -2.488  0.1789E+00  0.7546E+00
     -2.434  0.1835E+00  0.7645E+00
     -2.380  0.1827E+00  0.7743E+00
     -2.326  0.1785E+00  0.7840E+00
     -2.272  0.1764E+00  0.7935E+00
     -2.218  0.1772E+00  0.8031E+00
     -2.164  0.1773E+00  0.8126E+00
     -2.110  0.1768E+00  0.8222E+00
     -2.056  0.1796E+00  0.8319E+00
     -2.002  0.1862E+00  0.8419E+00
     -1.948  0.1924E+00  0.8523E+00
     -1.894  0.1964E+00  0.8629E+00
     -1.840  0.1988E+00  0.8737E+00
     -1.786  0.1991E+00  0.8844E+00
     -1.732  0.1968E+00  0.8950E+00
     -1.678  0.1941E+00  0.9055E+00
     -1.624  0.1943E+00  0.9160E+00
     -1.570  0.1960E+00  0.9266E+00
     -1.516  0.1943E+00  0.9371E+00
     -1.462  0.1896E+00  0.9473E+00
     -1.408  0.1858E+00  0.9574E+00
     -1.354  0.1839E+00  0.9673E+00
     -1.300  0.1817E+00  0.9771E+00
     -1.246  0.1755E+00  0.9866E+00
     -1.192  0.1606E+00  0.9953E+00
     -1.138  0.1375E+00  0.1003E+01
     -1.084  0.1109E+00  0.1009E+01
     -1.030  0.8453E-01  0.1013E+01
     -0.976  0.5847E-01  0.1016E+01
     -0.922  0.3519E-01  0.1018E+01
     -0.868  0.2136E-01  0.1019E+01
     -0.814  0.1769E-01  0.1020E+01
     -0.760  0.1769E-01  0.1021E+01
     -0.706  0.1883E-01  0.1022E+01
     -0.652  0.2433E-01  0.1024E+01
     -0.598  0.3372E-01  0.1026E+01
     -0.544  0.4268E-01  0.1028E+01
     -0.490  0.4784E-01  0.1030E+01
     -0.436  0.4542E-01  0.1033E+01
     -0.382  0.3634E-01  0.1035E+01
     -0.328  0.2934E-01  0.1036E+01
     -0.274  0.3140E-01  0.1038E+01
     -0.220  0.3831E-01  0.1040E+01
     -0.166  0.3977E-01  0.1042E+01
     -0.112  0.3409E-01  0.1044E+01
     -0.058  0.2750E-01  0.1046E+01
     -0.004  0.2366E-01  0.1047E+01
      0.050  0.2375E-01  0.1048E+01
      0.104  0.2702E-01  0.1050E+01
      0.158  0.2955E-01  0.1051E+01
      0.212  0.2847E-01  0.1053E+01
      0.266  0.2578E-01  0.1054E+01
      0.320  0.2706E-01  0.1056E+01
      0.374  0.3550E-01  0.1058E+01
      0.428  0.4523E-01  0.1060E+01
      0.482  0.4764E-01  0.1063E+01
      0.536  0.4511E-01  0.1065E+01
      0.590  0.4458E-01  0.1067E+01
      0.644  0.4597E-01  0.1070E+01
      0.698  0.4606E-01  0.1072E+01
      0.752  0.4262E-01  0.1075E+01
      0.806  0.3488E-01  0.1077E+01
      0.860  0.2623E-01  0.1078E+01
      0.914  0.2234E-01  0.1079E+01
      0.968  0.2324E-01  0.1080E+01
      1.022  0.2492E-01  0.1082E+01
      1.076  0.2588E-01  0.1083E+01
      1.130  0.2509E-01  0.1085E+01
      1.184  0.2163E-01  0.1086E+01
      1.238  0.1635E-01  0.1087E+01
      1.292  0.1056E-01  0.1087E+01
      1.346  0.7107E-02  0.1088E+01
      1.400  0.8106E-02  0.1088E+01
      1.454  0.1409E-01  0.1089E+01
      1.508  0.2481E-01  0.1090E+01
      1.562  0.3537E-01  0.1092E+01
      1.616  0.3797E-01  0.1094E+01
      1.670  0.3206E-01  0.1096E+01
      1.724  0.2677E-01  0.1097E+01
      1.778  0.2863E-01  0.1099E+01
      1.832  0.3347E-01  0.1101E+01
      1.886  0.3459E-01  0.1102E+01
      1.940  0.3035E-01  0.1104E+01
      1.994  0.2389E-01  0.1105E+01
      2.048  0.2176E-01  0.1107E+01
      2.102  0.2796E-01  0.1108E+01
      2.156  0.3802E-01  0.1110E+01
      2.210  0.4503E-01  0.1113E+01
      2.264  0.4675E-01  0.1115E+01
      2.318  0.4471E-01  0.1117E+01
      2.372  0.4048E-01  0.1120E+01
      2.426  0.3411E-01  0.1122E+01
      2.480  0.3006E-01  0.1123E+01
      2.534  0.3482E-01  0.1125E+01
      2.588  0.4422E-01  0.1127E+01
      2.642  0.4844E-01  0.1130E+01
      2.696  0.4554E-01  0.1132E+01
      2.750  0.3790E-01  0.1135E+01
      2.804  0.2835E-01  0.1136E+01
      2.858  0.2117E-01  0.1137E+01
      2.912  0.1768E-01  0.1138E+01
      2.966  0.1555E-01  0.1139E+01
      3.020  0.1212E-01  0.1140E+01
      3.074  0.9256E-02  0.1140E+01
      3.128  0.1055E-01  0.1141E+01
      3.182  0.1418E-01  0.1141E+01
      3.236  0.1805E-01  0.1142E+01
      3.290  0.2301E-01  0.1144E+01
      3.344  0.2550E-01  0.1145E+01
      3.398  0.2430E-01  0.1146E+01
      3.452  0.2605E-01  0.1148E+01
      3.506  0.3276E-01  0.1150E+01
      3.560  0.3873E-01  0.1152E+01
      3.614  0.3999E-01  0.1154E+01
      3.668  0.3847E-01  0.1156E+01
      3.722  0.3568E-01  0.1158E+01
      3.776  0.3061E-01  0.1159E+01
      3.830  0.2455E-01  0.1161E+01
      3.884  0.2052E-01  0.1162E+01
      3.938  0.1998E-01  0.1163E+01
      3.992  0.2295E-01  0.1164E+01
      4.046  0.2657E-01  0.1166E+01
      4.100  0.2789E-01  0.1167E+01
      4.154  0.2765E-01  0.1169E+01
      4.208  0.2556E-01  0.1170E+01
      4.262  0.2017E-01  0.1171E+01
      4.316  0.1455E-01  0.1172E+01
      4.370  0.1527E-01  0.1173E+01
      4.424  0.2292E-01  0.1174E+01
      4.478  0.3025E-01  0.1176E+01
      4.532  0.3544E-01  0.1178E+01
      4.586  0.4354E-01  0.1180E+01
      4.640  0.5314E-01  0.1183E+01
      4.694  0.5791E-01  0.1186E+01
      4.748  0.5601E-01  0.1189E+01
      4.802  0.5137E-01  0.1192E+01
      4.856  0.5059E-01  0.1194E+01
      4.910  0.5446E-01  0.1197E+01
      4.964  0.6020E-01  0.1201E+01
      5.018  0.6849E-01  0.1204E+01
      5.072  0.7599E-01  0.1208E+01
      5.126  0.7456E-01  0.1212E+01
      5.180  0.6537E-01  0.1216E+01
      5.234  0.5524E-01  0.1219E+01
      5.288  0.4407E-01  0.1221E+01
      5.342  0.2944E-01  0.1223E+01
      5.396  0.1449E-01  0.1224E+01
      5.450  0.4753E-02  0.1224E+01
      5.504  0.9745E-03  0.1224E+01
      5.558  0.1201E-03  0.1224E+01
      5.612  0.8692E-05  0.1224E+01
      5.666  0.3650E-06  0.1224E+01
      5.720  0.8811E-08  0.1224E+01
      5.774  0.1216E-09  0.1224E+01
      5.828  0.9549E-12  0.1224E+01
      5.882  0.4253E-14  0.1224E+01
      5.936  0.1097E-16  0.1224E+01
      5.990  0.0000E+00  0.1224E+01
      6.044  0.0000E+00  0.1224E+01
      6.098  0.0000E+00  0.1224E+01
      6.152  0.0000E+00  0.1224E+01
      6.206  0.0000E+00  0.1224E+01
      6.260  0.0000E+00  0.1224E+01
      6.314  0.0000E+00  0.1224E+01
