<?xml version="1.0" encoding="ISO-8859-1"?>
<modeling>
 <generator>
  <i name="program" type="string">vasp </i>
  <i name="version" type="string">5.4.1  </i>
  <i name="subversion" type="string">24Jun15 (build Mar 14 2019 10:18:33) complex                          parallel </i>
  <i name="platform" type="string">INTEL-19.0.2+OPENMPI-3.1.3 </i>
  <i name="date" type="string">2022 07 15 </i>
  <i name="time" type="string">14:49:35 </i>
 </generator>
 <incar>
  <i type="int" name="ISTART">     0</i>
  <i type="string" name="PREC">normal</i>
  <i type="string" name="ALGO"> Fast</i>
  <i type="int" name="NELM">   500</i>
  <i type="int" name="IBRION">     2</i>
  <i type="int" name="NFREE">     2</i>
  <i name="EDIFF">      0.00000100</i>
  <i name="EDIFFG">     -0.02000000</i>
  <i type="int" name="NSW">   500</i>
  <i type="int" name="ISIF">     0</i>
  <i type="int" name="ISYM">     2</i>
  <i name="ENCUT">    400.00000000</i>
  <i name="POTIM">      0.35000000</i>
  <i type="string" name="LREAL"> Auto</i>
  <i type="logical" name="LPLANE"> T  </i>
  <i type="int" name="ISMEAR">     0</i>
  <i name="SIGMA">      0.10000000</i>
  <i type="int" name="NWRITE">     1</i>
  <i type="logical" name="LWAVE"> F  </i>
  <i type="logical" name="LCHARG"> F  </i>
  <i type="logical" name="LVTOT"> F  </i>
  <i type="logical" name="LORBIT"> F  </i>
  <i type="logical" name="LAECHG"> F  </i>
  <v type="int" name="KPOINT_BSE">    -1     0     0     0</v>
  <i type="int" name="NELM">   500</i>
  <i type="string" name="GGA"> PE          ! optPBE-vdW XC-functional</i>
  <i type="int" name="VOSKOWN">     1</i>
  <i type="logical" name="LDIPOL"> T  </i>
  <i type="logical" name="LMONO"> F  </i>
  <i type="int" name="IDIPOL">     3</i>
  <v name="DIPOL">      0.00000000      0.00000000      0.50000000</v>
 </incar>
 <kpoints>
  <generation param="Monkhorst-Pack">
   <v type="int" name="divisions">       2        2        1 </v>
   <v name="usershift">      0.00000000       0.00000000       0.00000000 </v>
   <v name="genvec1">      0.50000000      -0.00000000       0.00000000 </v>
   <v name="genvec2">      0.00000000       0.50000000       0.00000000 </v>
   <v name="genvec3">      0.00000000       0.00000000       1.00000000 </v>
   <v name="shift">      0.50000000       0.50000000       0.00000000 </v>
  </generation>
  <varray name="kpointlist" >
   <v>       0.25000000       0.25000000       0.00000000 </v>
   <v>       0.00000000       0.25000000       0.00000000 </v>
   <v>      -0.25000000       0.00000000       0.00000000 </v>
   <v>      -0.25000000       0.25000000       0.00000000 </v>
   <v>       0.50000000      -0.25000000       0.00000000 </v>
   <v>      -0.25000000       0.50000000       0.00000000 </v>
  </varray>
  <varray name="weights" >
   <v>       0.16666667 </v>
   <v>       0.16666667 </v>
   <v>       0.16666667 </v>
   <v>       0.16666667 </v>
   <v>       0.16666667 </v>
   <v>       0.16666667 </v>
  </varray>
 </kpoints>
 <parameters>
  <separator name="general" >
   <i type="string" name="SYSTEM">unknown system</i>
   <i type="logical" name="LCOMPAT"> F  </i>
  </separator>
  <separator name="electronic" >
   <i type="string" name="PREC">normal</i>
   <i name="ENMAX">    400.00000000</i>
   <i name="ENAUG">    416.23000000</i>
   <i name="EDIFF">      0.00000100</i>
   <i type="int" name="IALGO">    68</i>
   <i type="int" name="IWAVPR">    11</i>
   <i type="int" name="NBANDS">   306</i>
   <i name="NELECT">    504.00000000</i>
   <i type="int" name="TURBO">     0</i>
   <i type="int" name="IRESTART">     0</i>
   <i type="int" name="NREBOOT">     0</i>
   <i type="int" name="NMIN">     0</i>
   <i name="EREF">      0.00000000</i>
   <separator name="electronic smearing" >
    <i type="int" name="ISMEAR">     0</i>
    <i name="SIGMA">      0.10000000</i>
    <i name="KSPACING">      0.50000000</i>
    <i type="logical" name="KGAMMA"> T  </i>
   </separator>
   <separator name="electronic projectors" >
    <i type="logical" name="LREAL"> T  </i>
    <v name="ROPT">     -0.00050000     -0.00050000</v>
    <i type="int" name="LMAXPAW">  -100</i>
    <i type="int" name="LMAXMIX">     2</i>
    <i type="logical" name="NLSPLINE"> F  </i>
   </separator>
   <separator name="electronic startup" >
    <i type="int" name="ISTART">     0</i>
    <i type="int" name="ICHARG">     2</i>
    <i type="int" name="INIWAV">     1</i>
   </separator>
   <separator name="electronic spin" >
    <i type="int" name="ISPIN">     1</i>
    <i type="logical" name="LNONCOLLINEAR"> F  </i>
    <v name="MAGMOM">      1.00000000      1.00000000      1.00000000      1.00000000      1.00000000      1.00000000      1.00000000      1.00000000      1.00000000      1.00000000      1.00000000      1.00000000      1.00000000      1.00000000      1.00000000      1.00000000      1.00000000      1.00000000      1.00000000      1.00000000
      1.00000000      1.00000000      1.00000000      1.00000000      1.00000000      1.00000000      1.00000000      1.00000000      1.00000000      1.00000000      1.00000000      1.00000000      1.00000000      1.00000000      1.00000000      1.00000000      1.00000000      1.00000000      1.00000000      1.00000000
      1.00000000      1.00000000      1.00000000      1.00000000      1.00000000      1.00000000      1.00000000      1.00000000</v>
    <i name="NUPDOWN">     -1.00000000</i>
    <i type="logical" name="LSORBIT"> F  </i>
    <v name="SAXIS">      0.00000000      0.00000000      1.00000000</v>
    <i type="logical" name="LSPIRAL"> F  </i>
    <v name="QSPIRAL">      0.00000000      0.00000000      0.00000000</v>
    <i type="logical" name="LZEROZ"> F  </i>
   </separator>
   <separator name="electronic exchange-correlation" >
    <i type="logical" name="LASPH"> F  </i>
    <i type="logical" name="LMETAGGA"> F  </i>
   </separator>
   <separator name="electronic convergence" >
    <i type="int" name="NELM">   500</i>
    <i type="int" name="NELMDL">    -5</i>
    <i type="int" name="NELMIN">     2</i>
    <i name="ENINI">    400.00000000</i>
    <separator name="electronic convergence detail" >
     <i type="logical" name="LDIAG"> T  </i>
     <i type="logical" name="LSUBROT"> F  </i>
     <i name="WEIMIN">      0.00100000</i>
     <i name="EBREAK">      0.00000000</i>
     <i name="DEPER">      0.30000000</i>
     <i type="int" name="NRMM">     4</i>
     <i name="TIME">      0.40000000</i>
    </separator>
   </separator>
   <separator name="electronic mixer" >
    <i name="AMIX">      0.40000000</i>
    <i name="BMIX">      1.00000000</i>
    <i name="AMIN">      0.10000000</i>
    <i name="AMIX_MAG">      1.60000000</i>
    <i name="BMIX_MAG">      1.00000000</i>
    <separator name="electronic mixer details" >
     <i type="int" name="IMIX">     4</i>
     <i type="logical" name="MIXFIRST"> F  </i>
     <i type="int" name="MAXMIX">   -45</i>
     <i name="WC">    100.00000000</i>
     <i type="int" name="INIMIX">     1</i>
     <i type="int" name="MIXPRE">     1</i>
     <i type="int" name="MREMOVE">     5</i>
    </separator>
   </separator>
   <separator name="electronic dipolcorrection" >
    <i type="logical" name="LDIPOL"> T  </i>
    <i type="logical" name="LMONO"> F  </i>
    <i type="int" name="IDIPOL">     3</i>
    <i name="EPSILON">      1.00000000</i>
    <v name="DIPOL">      0.00000000      0.00000000      0.50000000</v>
    <i name="EFIELD">      0.00000000</i>
   </separator>
  </separator>
  <separator name="grids" >
   <i type="int" name="NGX">    54</i>
   <i type="int" name="NGY">    54</i>
   <i type="int" name="NGZ">   120</i>
   <i type="int" name="NGXF">   108</i>
   <i type="int" name="NGYF">   108</i>
   <i type="int" name="NGZF">   240</i>
   <i type="logical" name="ADDGRID"> F  </i>
  </separator>
  <separator name="ionic" >
   <i type="int" name="NSW">   500</i>
   <i type="int" name="IBRION">     2</i>
   <i type="int" name="ISIF">     0</i>
   <i name="PSTRESS">      0.00000000</i>
   <i name="EDIFFG">     -0.02000000</i>
   <i type="int" name="NFREE">     2</i>
   <i name="POTIM">      0.35000000</i>
   <i name="SMASS">     -3.00000000</i>
   <i name="SCALEE">      1.00000000</i>
  </separator>
  <separator name="ionic md" >
   <i name="TEBEG">      0.00010000</i>
   <i name="TEEND">      0.00010000</i>
   <i type="int" name="NBLOCK">     1</i>
   <i type="int" name="KBLOCK">   500</i>
   <i type="int" name="NPACO">   256</i>
   <i name="APACO">     16.00000000</i>
  </separator>
  <separator name="symmetry" >
   <i type="int" name="ISYM">     2</i>
   <i name="SYMPREC">      0.00001000</i>
  </separator>
  <separator name="dos" >
   <i type="logical" name="LORBIT"> F  </i>
   <v name="RWIGS">     -1.00000000     -1.00000000</v>
   <i type="int" name="NEDOS">   301</i>
   <i name="EMIN">     10.00000000</i>
   <i name="EMAX">    -10.00000000</i>
   <i name="EFERMI">      0.00000000</i>
  </separator>
  <separator name="writing" >
   <i type="int" name="NWRITE">     1</i>
   <i type="logical" name="LWAVE"> F  </i>
   <i type="logical" name="LCHARG"> F  </i>
   <i type="logical" name="LPARD"> F  </i>
   <i type="logical" name="LVTOT"> F  </i>
   <i type="logical" name="LVHAR"> F  </i>
   <i type="logical" name="LELF"> F  </i>
   <i type="logical" name="LOPTICS"> F  </i>
   <v name="STM">      0.00000000      0.00000000      0.00000000      0.00000000      0.00000000      0.00000000      0.00000000</v>
  </separator>
  <separator name="performance" >
   <i type="int" name="NPAR">     6</i>
   <i type="int" name="NSIM">     4</i>
   <i type="int" name="NBLK">    -1</i>
   <i type="logical" name="LPLANE"> T  </i>
   <i type="logical" name="LSCALAPACK"> T  </i>
   <i type="logical" name="LSCAAWARE"> F  </i>
   <i type="logical" name="LSCALU"> F  </i>
   <i type="logical" name="LASYNC"> F  </i>
   <i type="logical" name="LORBITALREAL"> F  </i>
  </separator>
  <separator name="miscellaneous" >
   <i type="int" name="IDIOT">     3</i>
   <i type="logical" name="LMUSIC"> F  </i>
   <v name="POMASS">    196.96600000    106.42000000</v>
   <v name="DARWINR">      0.00000000      0.00000000</v>
   <v name="DARWINV">      1.00000000      1.00000000</v>
   <i type="logical" name="LCORR"> T  </i>
  </separator>
  <i type="logical" name="GGA_COMPAT"> T  </i>
  <i type="logical" name="LBERRY"> F  </i>
  <i type="int" name="ICORELEVEL">     0</i>
  <i type="logical" name="LDAU"> F  </i>
  <i type="int" name="I_CONSTRAINED_M">     0</i>
  <separator name="electronic exchange-correlation" >
   <i type="string" name="GGA">PE</i>
   <i type="int" name="VOSKOWN">     1</i>
   <i type="logical" name="LHFCALC"> F  </i>
   <i type="string" name="PRECFOCK"></i>
   <i type="logical" name="LSYMGRAD"> F  </i>
   <i type="logical" name="LHFONE"> F  </i>
   <i type="logical" name="LRHFCALC"> F  </i>
   <i type="logical" name="LTHOMAS"> F  </i>
   <i type="logical" name="LMODELHF"> F  </i>
   <i name="ENCUT4O">     -1.00000000</i>
   <i type="int" name="EXXOEP">     0</i>
   <i type="int" name="FOURORBIT">     0</i>
   <i name="AEXX">      0.00000000</i>
   <i name="HFALPHA">      0.00000000</i>
   <i name="MCALPHA">      0.00000000</i>
   <i name="ALDAX">      1.00000000</i>
   <i name="AGGAX">      1.00000000</i>
   <i name="ALDAC">      1.00000000</i>
   <i name="AGGAC">      1.00000000</i>
   <i type="int" name="NKREDX">     1</i>
   <i type="int" name="NKREDY">     1</i>
   <i type="int" name="NKREDZ">     1</i>
   <i type="logical" name="SHIFTRED"> F  </i>
   <i type="logical" name="ODDONLY"> F  </i>
   <i type="logical" name="EVENONLY"> F  </i>
   <i type="int" name="LMAXFOCK">     0</i>
   <i type="int" name="NMAXFOCKAE">     0</i>
   <i type="logical" name="LFOCKAEDFT"> F  </i>
   <i name="HFSCREEN">      0.00000000</i>
   <i name="HFSCREENC">      0.00000000</i>
   <i type="int" name="NBANDSGWLOW">     0</i>
  </separator>
  <separator name="vdW DFT" >
   <i type="logical" name="LUSE_VDW"> F  </i>
   <i name="Zab_VDW">     -0.84910000</i>
   <i name="PARAM1">      0.12340000</i>
   <i name="PARAM2">      1.00000000</i>
   <i name="PARAM3">      0.00000000</i>
  </separator>
  <separator name="model GW" >
   <i type="int" name="MODEL_GW">     0</i>
   <i name="MODEL_EPS0">     32.09595293</i>
   <i name="MODEL_ALPHA">      1.00000000</i>
  </separator>
  <separator name="linear response parameters" >
   <i type="logical" name="LEPSILON"> F  </i>
   <i type="logical" name="LRPA"> F  </i>
   <i type="logical" name="LNABLA"> F  </i>
   <i type="logical" name="LVEL"> F  </i>
   <i type="int" name="KINTER">     0</i>
   <i name="CSHIFT">      0.10000000</i>
   <i name="OMEGAMAX">     -1.00000000</i>
   <i name="DEG_THRESHOLD">      0.00200000</i>
  </separator>
  <separator name="orbital magnetization" >
   <i type="logical" name="NUCIND"> F  </i>
   <v name="MAGPOS">      0.00000000      0.00000000      0.00000000</v>
   <i type="logical" name="LNICSALL"> T  </i>
   <i type="logical" name="ORBITALMAG"> F  </i>
   <i type="logical" name="LMAGBLOCH"> F  </i>
   <i type="logical" name="LCHIMAG"> F  </i>
   <i type="logical" name="LGAUGE"> T  </i>
   <i type="int" name="MAGATOM">     0</i>
   <v name="MAGDIPOL">      0.00000000      0.00000000      0.00000000</v>
   <v name="AVECCONST">      0.00000000      0.00000000      0.00000000</v>
  </separator>
  <separator name="response functions" >
   <i type="logical" name="LADDER"> F  </i>
   <i type="logical" name="LFXC"> F  </i>
   <i type="logical" name="LHARTREE"> T  </i>
   <i type="int" name="IBSE">     0</i>
   <v type="int" name="KPOINT">    -1     0     0     0</v>
   <i type="logical" name="LTCTE"> F  </i>
   <i type="logical" name="LTETE"> F  </i>
   <i type="logical" name="LTRIPLET"> F  </i>
   <i type="logical" name="LFXCEPS"> F  </i>
   <i type="logical" name="LFXHEG"> F  </i>
   <i type="int" name="NATURALO">     0</i>
   <i type="logical" name="L2ORDER"> F  </i>
   <i type="logical" name="LUSEW"> F  </i>
   <i name="ENCUTGW">     -2.00000000</i>
   <i name="ENCUTGWSOFT">     -2.00000000</i>
   <i name="ENCUTLF">     -1.00000000</i>
   <i type="int" name="LMAXMP2">    -1</i>
   <i name="SCISSOR">      0.00000000</i>
   <i type="int" name="NOMEGA">     0</i>
   <i type="int" name="NOMEGAR">     0</i>
   <i type="int" name="NBANDSGW">    -1</i>
   <i type="int" name="NBANDSO">    -1</i>
   <i type="int" name="NBANDSV">    -1</i>
   <i type="int" name="NELM">   500</i>
   <i type="int" name="NELMHF">     1</i>
   <i type="int" name="DIM">     3</i>
   <i type="int" name="ANTIRES">     0</i>
   <i name="OMEGAMAX">    -30.00000000</i>
   <i name="OMEGAMIN">    -30.00000000</i>
   <i name="OMEGATL">   -200.00000000</i>
   <i type="int" name="OMEGAGRID">     0</i>
   <i name="CSHIFT">     -0.10000000</i>
   <i type="logical" name="SELFENERGY"> F  </i>
   <i type="logical" name="LSPECTRAL"> F  </i>
   <i type="logical" name="LSPECTRALGW"> F  </i>
   <i type="logical" name="LSINGLES"> F  </i>
   <i type="logical" name="LFERMIGW"> F  </i>
   <i type="logical" name="ODDONLYGW"> F  </i>
   <i type="logical" name="EVENONLYGW"> F  </i>
   <i type="int" name="NKREDLFX">     1</i>
   <i type="int" name="NKREDLFY">     1</i>
   <i type="int" name="NKREDLFZ">     1</i>
   <i type="int" name="MAXMEM">  1800</i>
   <i type="int" name="TELESCOPE">     0</i>
   <i type="int" name="TAUPAR">     1</i>
   <i type="int" name="OMEGAPAR">    -1</i>
   <i name="LAMBDA">      1.00000000</i>
  </separator>
  <separator name="External order field" >
   <i name="OFIELD_KAPPA">      0.00000000</i>
   <v name="OFIELD_K">      0.00000000      0.00000000      0.00000000</v>
   <i name="OFIELD_Q6_NEAR">      0.00000000</i>
   <i name="OFIELD_Q6_FAR">      0.00000000</i>
   <i name="OFIELD_A">      0.00000000</i>
  </separator>
 </parameters>
 <atominfo>
  <atoms>      48 </atoms>
  <types>       2 </types>
  <array name="atoms" >
   <dimension dim="1">ion</dimension>
   <field type="string">element</field>
   <field type="int">atomtype</field>
   <set>
    <rc><c>Au</c><c>   1</c></rc>
    <rc><c>Au</c><c>   1</c></rc>
    <rc><c>Au</c><c>   1</c></rc>
    <rc><c>Au</c><c>   1</c></rc>
    <rc><c>Au</c><c>   1</c></rc>
    <rc><c>Au</c><c>   1</c></rc>
    <rc><c>Au</c><c>   1</c></rc>
    <rc><c>Au</c><c>   1</c></rc>
    <rc><c>Au</c><c>   1</c></rc>
    <rc><c>Au</c><c>   1</c></rc>
    <rc><c>Au</c><c>   1</c></rc>
    <rc><c>Au</c><c>   1</c></rc>
    <rc><c>Au</c><c>   1</c></rc>
    <rc><c>Au</c><c>   1</c></rc>
    <rc><c>Au</c><c>   1</c></rc>
    <rc><c>Au</c><c>   1</c></rc>
    <rc><c>Au</c><c>   1</c></rc>
    <rc><c>Au</c><c>   1</c></rc>
    <rc><c>Au</c><c>   1</c></rc>
    <rc><c>Au</c><c>   1</c></rc>
    <rc><c>Au</c><c>   1</c></rc>
    <rc><c>Au</c><c>   1</c></rc>
    <rc><c>Au</c><c>   1</c></rc>
    <rc><c>Au</c><c>   1</c></rc>
    <rc><c>Pd</c><c>   2</c></rc>
    <rc><c>Pd</c><c>   2</c></rc>
    <rc><c>Pd</c><c>   2</c></rc>
    <rc><c>Pd</c><c>   2</c></rc>
    <rc><c>Pd</c><c>   2</c></rc>
    <rc><c>Pd</c><c>   2</c></rc>
    <rc><c>Pd</c><c>   2</c></rc>
    <rc><c>Pd</c><c>   2</c></rc>
    <rc><c>Pd</c><c>   2</c></rc>
    <rc><c>Pd</c><c>   2</c></rc>
    <rc><c>Pd</c><c>   2</c></rc>
    <rc><c>Pd</c><c>   2</c></rc>
    <rc><c>Pd</c><c>   2</c></rc>
    <rc><c>Pd</c><c>   2</c></rc>
    <rc><c>Pd</c><c>   2</c></rc>
    <rc><c>Pd</c><c>   2</c></rc>
    <rc><c>Pd</c><c>   2</c></rc>
    <rc><c>Pd</c><c>   2</c></rc>
    <rc><c>Pd</c><c>   2</c></rc>
    <rc><c>Pd</c><c>   2</c></rc>
    <rc><c>Pd</c><c>   2</c></rc>
    <rc><c>Pd</c><c>   2</c></rc>
    <rc><c>Pd</c><c>   2</c></rc>
    <rc><c>Pd</c><c>   2</c></rc>
   </set>
  </array>
  <array name="atomtypes" >
   <dimension dim="1">type</dimension>
   <field type="int">atomspertype</field>
   <field type="string">element</field>
   <field>mass</field>
   <field>valence</field>
   <field type="string">pseudopotential</field>
   <set>
    <rc><c>  24</c><c>Au</c><c>    196.96600000</c><c>     11.00000000</c><c>  PAW_PBE Au 04Oct2007                  </c></rc>
    <rc><c>  24</c><c>Pd</c><c>    106.42000000</c><c>     10.00000000</c><c>  PAW_PBE Pd 04Jan2005                  </c></rc>
   </set>
  </array>
 </atominfo>
 <structure name="initialpos" >
  <crystal>
   <varray name="basis" >
    <v>      11.00258152       0.00000000       0.00000000 </v>
    <v>       5.50129076       9.52851510       0.00000000 </v>
    <v>       0.00000000       0.00000000      24.49178509 </v>
   </varray>
   <i name="volume">   2567.67623402 </i>
   <varray name="rec_basis" >
    <v>       0.09088776      -0.05247407       0.00000000 </v>
    <v>       0.00000000       0.10494815       0.00000000 </v>
    <v>       0.00000000       0.00000000       0.04083002 </v>
   </varray>
  </crystal>
  <varray name="positions" >
   <v>       0.08333333       0.08333333       0.40830017 </v>
   <v>       0.41666667       0.91666667       0.50000000 </v>
   <v>       0.66666667       0.16666667       0.50000000 </v>
   <v>       0.75000000       0.00000000       0.59169983 </v>
   <v>       0.16666667       0.91666667       0.50000000 </v>
   <v>       0.33333333       0.83333333       0.40830017 </v>
   <v>       0.83333333       0.33333333       0.40830017 </v>
   <v>       0.16666667       0.66666667       0.50000000 </v>
   <v>       0.33333333       0.58333333       0.40830017 </v>
   <v>       0.25000000       0.25000000       0.59169983 </v>
   <v>       0.66666667       0.41666667       0.50000000 </v>
   <v>       0.58333333       0.58333333       0.40830017 </v>
   <v>       0.25000000       0.00000000       0.59169983 </v>
   <v>       0.33333333       0.33333333       0.40830017 </v>
   <v>       0.83333333       0.58333333       0.40830017 </v>
   <v>       0.91666667       0.16666667       0.50000000 </v>
   <v>       0.00000000       0.00000000       0.59169983 </v>
   <v>       0.08333333       0.33333333       0.40830017 </v>
   <v>       0.00000000       0.25000000       0.59169983 </v>
   <v>       0.41666667       0.66666667       0.50000000 </v>
   <v>       0.00000000       0.50000000       0.59169983 </v>
   <v>       0.08333333       0.83333333       0.40830017 </v>
   <v>       0.91666667       0.91666667       0.50000000 </v>
   <v>       0.91666667       0.66666667       0.50000000 </v>
   <v>       0.75000000       0.50000000       0.59169983 </v>
   <v>       0.75000000       0.25000000       0.59169983 </v>
   <v>       0.83333333       0.08333333       0.40830017 </v>
   <v>       0.50000000       0.75000000       0.59169983 </v>
   <v>       0.66666667       0.66666667       0.50000000 </v>
   <v>       0.58333333       0.83333333       0.40830017 </v>
   <v>       0.50000000       0.50000000       0.59169983 </v>
   <v>       0.83333333       0.83333333       0.40830017 </v>
   <v>       0.25000000       0.75000000       0.59169983 </v>
   <v>       0.41666667       0.41666667       0.50000000 </v>
   <v>       0.58333333       0.33333333       0.40830017 </v>
   <v>       0.50000000       0.00000000       0.59169983 </v>
   <v>       0.41666667       0.16666667       0.50000000 </v>
   <v>       0.58333333       0.08333333       0.40830017 </v>
   <v>       0.66666667       0.91666667       0.50000000 </v>
   <v>       0.25000000       0.50000000       0.59169983 </v>
   <v>       0.16666667       0.41666667       0.50000000 </v>
   <v>       0.16666667       0.16666667       0.50000000 </v>
   <v>       0.33333333       0.08333333       0.40830017 </v>
   <v>       0.00000000       0.75000000       0.59169983 </v>
   <v>       0.08333333       0.58333333       0.40830017 </v>
   <v>       0.91666667       0.41666667       0.50000000 </v>
   <v>       0.50000000       0.25000000       0.59169983 </v>
   <v>       0.75000000       0.75000000       0.59169983 </v>
  </varray>
 </structure>
 <calculation>
  <scstep>
   <time name="dav">    6.86    6.88</time>
   <time name="total">    6.92    6.94</time>
   <dipole>
    <v name="dipole">      0.00000000       0.00000000       0.00000222 </v>
    <i name="Tr[quadrupol]"> -10178.96346221 </i>
    <i name="Echarged">      0.00000000 </i>
    <i name="Edipol_quadrupol">      0.00000000 </i>
    <i name="Eion">      0.00000000 </i>
   </dipole>
   <energy>
    <i name="alphaZ">    805.86936534 </i>
    <i name="ewald"> 200412.64027762 </i>
    <i name="hartreedc">-242828.40834808 </i>
    <i name="XCdc">   -327.55990845 </i>
    <i name="pawpsdc">  40340.05962942 </i>
    <i name="pawaedc"> -38292.62782345 </i>
    <i name="eentropy">     -0.13945876 </i>
    <i name="bandstr">   1431.56515304 </i>
    <i name="atom">  41659.78587232 </i>
    <i name="e_fr_energy">   3201.18475900 </i>
    <i name="e_wo_entrp">   3201.32421776 </i>
    <i name="e_0_energy">   3201.25448838 </i>
   </energy>
  </scstep>
  <scstep>
   <time name="dav">    7.98    8.00</time>
   <time name="total">    7.98    8.00</time>
   <dipole>
    <v name="dipole">      0.00000000       0.00000000       0.00000222 </v>
    <i name="Tr[quadrupol]"> -10178.96346221 </i>
    <i name="Echarged">      0.00000000 </i>
    <i name="Edipol_quadrupol">      0.00000000 </i>
    <i name="Eion">      0.00000000 </i>
   </dipole>
   <energy>
    <i name="e_fr_energy">     15.16152926 </i>
    <i name="e_wo_entrp">     15.29506731 </i>
    <i name="e_0_energy">     15.22829828 </i>
   </energy>
  </scstep>
  <scstep>
   <time name="dav">    7.98    8.01</time>
   <time name="total">    7.99    8.01</time>
   <dipole>
    <v name="dipole">      0.00000000       0.00000000       0.00000222 </v>
    <i name="Tr[quadrupol]"> -10178.96346221 </i>
    <i name="Echarged">      0.00000000 </i>
    <i name="Edipol_quadrupol">      0.00000000 </i>
    <i name="Eion">      0.00000000 </i>
   </dipole>
   <energy>
    <i name="e_fr_energy">   -200.52083684 </i>
    <i name="e_wo_entrp">   -200.32057292 </i>
    <i name="e_0_energy">   -200.42070488 </i>
   </energy>
  </scstep>
  <scstep>
   <time name="dav">    8.06    8.16</time>
   <time name="total">    8.06    8.16</time>
   <dipole>
    <v name="dipole">      0.00000000       0.00000000       0.00000222 </v>
    <i name="Tr[quadrupol]"> -10178.96346221 </i>
    <i name="Echarged">      0.00000000 </i>
    <i name="Edipol_quadrupol">      0.00000000 </i>
    <i name="Eion">      0.00000000 </i>
   </dipole>
   <energy>
    <i name="e_fr_energy">   -206.28473521 </i>
    <i name="e_wo_entrp">   -206.06859420 </i>
    <i name="e_0_energy">   -206.17666471 </i>
   </energy>
  </scstep>
  <scstep>
   <time name="dav">    8.45    8.50</time>
   <time name="total">    8.69    8.75</time>
   <dipole>
    <v name="dipole">      0.00000000       0.00000000       0.00000222 </v>
    <i name="Tr[quadrupol]"> -10178.96346221 </i>
    <i name="Echarged">      0.00000000 </i>
    <i name="Edipol_quadrupol">      0.00000000 </i>
    <i name="Eion">      0.00000000 </i>
   </dipole>
   <energy>
    <i name="e_fr_energy">   -206.48451496 </i>
    <i name="e_wo_entrp">   -206.26886040 </i>
    <i name="e_0_energy">   -206.37668768 </i>
   </energy>
  </scstep>
  <scstep>
   <time name="diag">    1.23    1.24</time>
   <time name="diis">    3.41    3.42</time>
   <time name="orth">    0.30    0.30</time>
   <time name="total">    5.23    5.25</time>
   <dipole>
    <v name="dipole">      0.00000000       0.00000000       1.00921209 </v>
    <i name="Tr[quadrupol]"> -10179.65070866 </i>
    <i name="Echarged">      0.00000000 </i>
    <i name="Edipol_quadrupol">      0.00000000 </i>
    <i name="Eion">      0.00000000 </i>
   </dipole>
   <energy>
    <i name="e_fr_energy">   -205.07092469 </i>
    <i name="e_wo_entrp">   -204.78930162 </i>
    <i name="e_0_energy">   -204.93011316 </i>
   </energy>
  </scstep>
  <scstep>
   <time name="diag">    1.24    1.24</time>
   <time name="diis">    3.39    3.39</time>
   <time name="orth">    0.30    0.30</time>
   <time name="total">    5.21    5.23</time>
   <dipole>
    <v name="dipole">      0.00000000       0.00000000      -1.38881532 </v>
    <i name="Tr[quadrupol]"> -10179.21894094 </i>
    <i name="Echarged">      0.00000000 </i>
    <i name="Edipol_quadrupol">      0.00000000 </i>
    <i name="Eion">      0.00000000 </i>
   </dipole>
   <energy>
    <i name="e_fr_energy">   -214.64269111 </i>
    <i name="e_wo_entrp">   -214.39011721 </i>
    <i name="e_0_energy">   -214.51640416 </i>
   </energy>
  </scstep>
  <scstep>
   <time name="diag">    1.25    1.25</time>
   <time name="diis">    3.37    3.38</time>
   <time name="orth">    0.30    0.30</time>
   <time name="total">    5.20    5.22</time>
   <dipole>
    <v name="dipole">      0.00000000       0.00000000       1.74521949 </v>
    <i name="Tr[quadrupol]"> -10180.08949456 </i>
    <i name="Echarged">      0.00000000 </i>
    <i name="Edipol_quadrupol">      0.00000000 </i>
    <i name="Eion">      0.00000000 </i>
   </dipole>
   <energy>
    <i name="e_fr_energy">   -220.42045116 </i>
    <i name="e_wo_entrp">   -220.15582424 </i>
    <i name="e_0_energy">   -220.28813770 </i>
   </energy>
  </scstep>
  <scstep>
   <time name="diag">    1.24    1.24</time>
   <time name="diis">    3.40    3.41</time>
   <time name="orth">    0.30    0.30</time>
   <time name="total">    5.22    5.24</time>
   <dipole>
    <v name="dipole">      0.00000000       0.00000000      -0.12671453 </v>
    <i name="Tr[quadrupol]"> -10181.02635505 </i>
    <i name="Echarged">      0.00000000 </i>
    <i name="Edipol_quadrupol">      0.00000000 </i>
    <i name="Eion">      0.00000000 </i>
   </dipole>
   <energy>
    <i name="e_fr_energy">   -218.51100699 </i>
    <i name="e_wo_entrp">   -218.30230844 </i>
    <i name="e_0_energy">   -218.40665772 </i>
   </energy>
  </scstep>
  <scstep>
   <time name="diag">    1.23    1.23</time>
   <time name="diis">    3.40    3.41</time>
   <time name="orth">    0.30    0.30</time>
   <time name="total">    5.22    5.24</time>
   <dipole>
    <v name="dipole">      0.00000000       0.00000000       0.43488713 </v>
    <i name="Tr[quadrupol]"> -10179.88995972 </i>
    <i name="Echarged">      0.00000000 </i>
    <i name="Edipol_quadrupol">      0.00000000 </i>
    <i name="Eion">      0.00000000 </i>
   </dipole>
   <energy>
    <i name="e_fr_energy">   -202.28960468 </i>
    <i name="e_wo_entrp">   -202.07412710 </i>
    <i name="e_0_energy">   -202.18186589 </i>
   </energy>
  </scstep>
  <scstep>
   <time name="diag">    1.24    1.24</time>
   <time name="diis">    3.33    3.42</time>
   <time name="orth">    0.30    0.30</time>
   <time name="total">    5.15    5.25</time>
   <dipole>
    <v name="dipole">      0.00000000       0.00000000       0.15142466 </v>
    <i name="Tr[quadrupol]"> -10181.05981163 </i>
    <i name="Echarged">      0.00000000 </i>
    <i name="Edipol_quadrupol">      0.00000000 </i>
    <i name="Eion">      0.00000000 </i>
   </dipole>
   <energy>
    <i name="e_fr_energy">   -195.53631859 </i>
    <i name="e_wo_entrp">   -195.33220309 </i>
    <i name="e_0_energy">   -195.43426084 </i>
   </energy>
  </scstep>
  <scstep>
   <time name="diag">    1.23    1.24</time>
   <time name="diis">    3.37    3.38</time>
   <time name="orth">    0.30    0.30</time>
   <time name="total">    5.19    5.21</time>
   <dipole>
    <v name="dipole">      0.00000000       0.00000000       0.14553633 </v>
    <i name="Tr[quadrupol]"> -10180.92835558 </i>
    <i name="Echarged">      0.00000000 </i>
    <i name="Edipol_quadrupol">      0.00000000 </i>
    <i name="Eion">      0.00000000 </i>
   </dipole>
   <energy>
    <i name="e_fr_energy">   -189.85214816 </i>
    <i name="e_wo_entrp">   -189.66136692 </i>
    <i name="e_0_energy">   -189.75675754 </i>
   </energy>
  </scstep>
  <scstep>
   <time name="diag">    1.23    1.23</time>
   <time name="diis">    3.35    3.36</time>
   <time name="orth">    0.30    0.30</time>
   <time name="total">    5.17    5.18</time>
   <dipole>
    <v name="dipole">      0.00000000       0.00000000       0.16504394 </v>
    <i name="Tr[quadrupol]"> -10181.13497937 </i>
    <i name="Echarged">      0.00000000 </i>
    <i name="Edipol_quadrupol">      0.00000000 </i>
    <i name="Eion">      0.00000000 </i>
   </dipole>
   <energy>
    <i name="e_fr_energy">   -188.47946594 </i>
    <i name="e_wo_entrp">   -188.24717161 </i>
    <i name="e_0_energy">   -188.36331877 </i>
   </energy>
  </scstep>
  <scstep>
   <time name="diag">    1.23    1.23</time>
   <time name="diis">    3.38    3.39</time>
   <time name="orth">    0.30    0.30</time>
   <time name="total">    5.19    5.21</time>
   <dipole>
    <v name="dipole">      0.00000000       0.00000000       0.11181500 </v>
    <i name="Tr[quadrupol]"> -10181.53555444 </i>
    <i name="Echarged">      0.00000000 </i>
    <i name="Edipol_quadrupol">      0.00000000 </i>
    <i name="Eion">      0.00000000 </i>
   </dipole>
   <energy>
    <i name="e_fr_energy">   -188.28452857 </i>
    <i name="e_wo_entrp">   -188.02522906 </i>
    <i name="e_0_energy">   -188.15487882 </i>
   </energy>
  </scstep>
  <scstep>
   <time name="diag">    1.24    1.24</time>
   <time name="diis">    3.41    3.42</time>
   <time name="orth">    0.30    0.30</time>
   <time name="total">    5.23    5.25</time>
   <dipole>
    <v name="dipole">      0.00000000       0.00000000       0.08821622 </v>
    <i name="Tr[quadrupol]"> -10181.71305300 </i>
    <i name="Echarged">      0.00000000 </i>
    <i name="Edipol_quadrupol">      0.00000000 </i>
    <i name="Eion">      0.00000000 </i>
   </dipole>
   <energy>
    <i name="e_fr_energy">   -188.42259369 </i>
    <i name="e_wo_entrp">   -188.17711463 </i>
    <i name="e_0_energy">   -188.29985416 </i>
   </energy>
  </scstep>
  <scstep>
   <time name="diag">    1.23    1.24</time>
   <time name="diis">    3.42    3.44</time>
   <time name="orth">    0.30    0.30</time>
   <time name="total">    5.24    5.27</time>
   <dipole>
    <v name="dipole">      0.00000000       0.00000000       0.08874881 </v>
    <i name="Tr[quadrupol]"> -10181.98403383 </i>
    <i name="Echarged">      0.00000000 </i>
    <i name="Edipol_quadrupol">      0.00000000 </i>
    <i name="Eion">      0.00000000 </i>
   </dipole>
   <energy>
    <i name="e_fr_energy">   -188.30233690 </i>
    <i name="e_wo_entrp">   -188.05143394 </i>
    <i name="e_0_energy">   -188.17688542 </i>
   </energy>
  </scstep>
  <scstep>
   <time name="diag">    1.23    1.24</time>
   <time name="diis">    3.43    3.43</time>
   <time name="orth">    0.30    0.30</time>
   <time name="total">    5.25    5.26</time>
   <dipole>
    <v name="dipole">      0.00000000       0.00000000       0.10391163 </v>
    <i name="Tr[quadrupol]"> -10182.36324613 </i>
    <i name="Echarged">      0.00000000 </i>
    <i name="Edipol_quadrupol">      0.00000000 </i>
    <i name="Eion">      0.00000000 </i>
   </dipole>
   <energy>
    <i name="e_fr_energy">   -188.12790187 </i>
    <i name="e_wo_entrp">   -187.87297528 </i>
    <i name="e_0_energy">   -188.00043857 </i>
   </energy>
  </scstep>
  <scstep>
   <time name="diag">    1.23    1.23</time>
   <time name="diis">    3.41    3.42</time>
   <time name="orth">    0.30    0.30</time>
   <time name="total">    5.23    5.24</time>
   <dipole>
    <v name="dipole">      0.00000000       0.00000000       0.11212679 </v>
    <i name="Tr[quadrupol]"> -10182.69601078 </i>
    <i name="Echarged">      0.00000000 </i>
    <i name="Edipol_quadrupol">      0.00000000 </i>
    <i name="Eion">      0.00000000 </i>
   </dipole>
   <energy>
    <i name="e_fr_energy">   -187.99656075 </i>
    <i name="e_wo_entrp">   -187.74298862 </i>
    <i name="e_0_energy">   -187.86977469 </i>
   </energy>
  </scstep>
  <scstep>
   <time name="diag">    1.23    1.24</time>
   <time name="diis">    3.31    3.40</time>
   <time name="orth">    0.30    0.30</time>
   <time name="total">    5.13    5.23</time>
   <dipole>
    <v name="dipole">      0.00000000       0.00000000       0.07371129 </v>
    <i name="Tr[quadrupol]"> -10182.93063728 </i>
    <i name="Echarged">      0.00000000 </i>
    <i name="Edipol_quadrupol">      0.00000000 </i>
    <i name="Eion">      0.00000000 </i>
   </dipole>
   <energy>
    <i name="e_fr_energy">   -187.93321043 </i>
    <i name="e_wo_entrp">   -187.66505731 </i>
    <i name="e_0_energy">   -187.79913387 </i>
   </energy>
  </scstep>
  <scstep>
   <time name="diag">    1.23    1.24</time>
   <time name="diis">    3.37    3.38</time>
   <time name="orth">    0.30    0.30</time>
   <time name="total">    5.19    5.20</time>
   <dipole>
    <v name="dipole">      0.00000000       0.00000000       0.05632620 </v>
    <i name="Tr[quadrupol]"> -10183.01131819 </i>
    <i name="Echarged">      0.00000000 </i>
    <i name="Edipol_quadrupol">      0.00000000 </i>
    <i name="Eion">      0.00000000 </i>
   </dipole>
   <energy>
    <i name="e_fr_energy">   -187.92022142 </i>
    <i name="e_wo_entrp">   -187.65453172 </i>
    <i name="e_0_energy">   -187.78737657 </i>
   </energy>
  </scstep>
  <scstep>
   <time name="diag">    1.23    1.23</time>
   <time name="diis">    3.41    3.41</time>
   <time name="orth">    0.30    0.30</time>
   <time name="total">    5.23    5.25</time>
   <dipole>
    <v name="dipole">      0.00000000       0.00000000       0.05113401 </v>
    <i name="Tr[quadrupol]"> -10183.09974643 </i>
    <i name="Echarged">      0.00000000 </i>
    <i name="Edipol_quadrupol">      0.00000000 </i>
    <i name="Eion">      0.00000000 </i>
   </dipole>
   <energy>
    <i name="e_fr_energy">   -187.92047866 </i>
    <i name="e_wo_entrp">   -187.65296425 </i>
    <i name="e_0_energy">   -187.78672145 </i>
   </energy>
  </scstep>
  <scstep>
   <time name="diag">    1.23    1.23</time>
   <time name="diis">    3.37    3.37</time>
   <time name="orth">    0.30    0.30</time>
   <time name="total">    5.18    5.20</time>
   <dipole>
    <v name="dipole">      0.00000000       0.00000000       0.04894723 </v>
    <i name="Tr[quadrupol]"> -10183.20010223 </i>
    <i name="Echarged">      0.00000000 </i>
    <i name="Edipol_quadrupol">      0.00000000 </i>
    <i name="Eion">      0.00000000 </i>
   </dipole>
   <energy>
    <i name="e_fr_energy">   -187.91628833 </i>
    <i name="e_wo_entrp">   -187.65002015 </i>
    <i name="e_0_energy">   -187.78315424 </i>
   </energy>
  </scstep>
  <scstep>
   <time name="diag">    1.24    1.24</time>
   <time name="diis">    3.38    3.39</time>
   <time name="orth">    0.30    0.30</time>
   <time name="total">    5.21    5.23</time>
   <dipole>
    <v name="dipole">      0.00000000       0.00000000       0.04625633 </v>
    <i name="Tr[quadrupol]"> -10183.41463305 </i>
    <i name="Echarged">      0.00000000 </i>
    <i name="Edipol_quadrupol">      0.00000000 </i>
    <i name="Eion">      0.00000000 </i>
   </dipole>
   <energy>
    <i name="e_fr_energy">   -187.91516738 </i>
    <i name="e_wo_entrp">   -187.65023334 </i>
    <i name="e_0_energy">   -187.78270036 </i>
   </energy>
  </scstep>
  <scstep>
   <time name="diag">    1.23    1.23</time>
   <time name="diis">    3.40    3.41</time>
   <time name="orth">    0.30    0.30</time>
   <time name="total">    5.22    5.24</time>
   <dipole>
    <v name="dipole">      0.00000000       0.00000000       0.04081141 </v>
    <i name="Tr[quadrupol]"> -10183.54078871 </i>
    <i name="Echarged">      0.00000000 </i>
    <i name="Edipol_quadrupol">      0.00000000 </i>
    <i name="Eion">      0.00000000 </i>
   </dipole>
   <energy>
    <i name="e_fr_energy">   -187.91246405 </i>
    <i name="e_wo_entrp">   -187.64638775 </i>
    <i name="e_0_energy">   -187.77942590 </i>
   </energy>
  </scstep>
  <scstep>
   <time name="diag">    1.23    1.23</time>
   <time name="diis">    3.35    3.36</time>
   <time name="orth">    0.30    0.30</time>
   <time name="total">    5.16    5.18</time>
   <dipole>
    <v name="dipole">      0.00000000       0.00000000       0.03651879 </v>
    <i name="Tr[quadrupol]"> -10183.62248251 </i>
    <i name="Echarged">      0.00000000 </i>
    <i name="Edipol_quadrupol">      0.00000000 </i>
    <i name="Eion">      0.00000000 </i>
   </dipole>
   <energy>
    <i name="e_fr_energy">   -187.91230251 </i>
    <i name="e_wo_entrp">   -187.64551400 </i>
    <i name="e_0_energy">   -187.77890826 </i>
   </energy>
  </scstep>
  <scstep>
   <time name="diag">    1.22    1.22</time>
   <time name="diis">    3.40    3.42</time>
   <time name="orth">    0.29    0.29</time>
   <time name="total">    5.20    5.23</time>
   <dipole>
    <v name="dipole">      0.00000000       0.00000000       0.03138322 </v>
    <i name="Tr[quadrupol]"> -10183.72550720 </i>
    <i name="Echarged">      0.00000000 </i>
    <i name="Edipol_quadrupol">      0.00000000 </i>
    <i name="Eion">      0.00000000 </i>
   </dipole>
   <energy>
    <i name="e_fr_energy">   -187.91240610 </i>
    <i name="e_wo_entrp">   -187.64498879 </i>
    <i name="e_0_energy">   -187.77869744 </i>
   </energy>
  </scstep>
  <scstep>
   <time name="diag">    1.22    1.25</time>
   <time name="diis">    3.32    3.39</time>
   <time name="orth">    0.29    0.30</time>
   <time name="total">    5.12    5.22</time>
   <dipole>
    <v name="dipole">      0.00000000       0.00000000       0.02948846 </v>
    <i name="Tr[quadrupol]"> -10183.79394460 </i>
    <i name="Echarged">      0.00000000 </i>
    <i name="Edipol_quadrupol">      0.00000000 </i>
    <i name="Eion">      0.00000000 </i>
   </dipole>
   <energy>
    <i name="e_fr_energy">   -187.91268437 </i>
    <i name="e_wo_entrp">   -187.64559954 </i>
    <i name="e_0_energy">   -187.77914195 </i>
   </energy>
  </scstep>
  <scstep>
   <time name="diag">    1.22    1.23</time>
   <time name="diis">    3.42    3.46</time>
   <time name="orth">    0.29    0.29</time>
   <time name="total">    5.23    5.27</time>
   <dipole>
    <v name="dipole">      0.00000000       0.00000000       0.02671989 </v>
    <i name="Tr[quadrupol]"> -10183.88657389 </i>
    <i name="Echarged">      0.00000000 </i>
    <i name="Edipol_quadrupol">      0.00000000 </i>
    <i name="Eion">      0.00000000 </i>
   </dipole>
   <energy>
    <i name="e_fr_energy">   -187.91316980 </i>
    <i name="e_wo_entrp">   -187.64606998 </i>
    <i name="e_0_energy">   -187.77961989 </i>
   </energy>
  </scstep>
  <scstep>
   <time name="diag">    1.22    1.23</time>
   <time name="diis">    3.47    3.48</time>
   <time name="orth">    0.29    0.29</time>
   <time name="total">    5.27    5.29</time>
   <dipole>
    <v name="dipole">      0.00000000       0.00000000       0.02493014 </v>
    <i name="Tr[quadrupol]"> -10183.94092486 </i>
    <i name="Echarged">      0.00000000 </i>
    <i name="Edipol_quadrupol">      0.00000000 </i>
    <i name="Eion">      0.00000000 </i>
   </dipole>
   <energy>
    <i name="e_fr_energy">   -187.91358923 </i>
    <i name="e_wo_entrp">   -187.64663524 </i>
    <i name="e_0_energy">   -187.78011224 </i>
   </energy>
  </scstep>
  <scstep>
   <time name="diag">    1.22    1.22</time>
   <time name="diis">    3.42    3.43</time>
   <time name="orth">    0.29    0.29</time>
   <time name="total">    5.23    5.24</time>
   <dipole>
    <v name="dipole">      0.00000000       0.00000000       0.02192754 </v>
    <i name="Tr[quadrupol]"> -10184.01643029 </i>
    <i name="Echarged">      0.00000000 </i>
    <i name="Edipol_quadrupol">      0.00000000 </i>
    <i name="Eion">      0.00000000 </i>
   </dipole>
   <energy>
    <i name="e_fr_energy">   -187.91422343 </i>
    <i name="e_wo_entrp">   -187.64703923 </i>
    <i name="e_0_energy">   -187.78063133 </i>
   </energy>
  </scstep>
  <scstep>
   <time name="diag">    1.23    1.23</time>
   <time name="diis">    3.40    3.41</time>
   <time name="orth">    0.29    0.29</time>
   <time name="total">    5.21    5.23</time>
   <dipole>
    <v name="dipole">      0.00000000       0.00000000       0.01794499 </v>
    <i name="Tr[quadrupol]"> -10184.10895988 </i>
    <i name="Echarged">      0.00000000 </i>
    <i name="Edipol_quadrupol">      0.00000000 </i>
    <i name="Eion">      0.00000000 </i>
   </dipole>
   <energy>
    <i name="e_fr_energy">   -187.91504441 </i>
    <i name="e_wo_entrp">   -187.64791715 </i>
    <i name="e_0_energy">   -187.78148078 </i>
   </energy>
  </scstep>
  <scstep>
   <time name="diag">    1.22    1.23</time>
   <time name="diis">    3.04    3.05</time>
   <time name="orth">    0.29    0.29</time>
   <time name="total">    4.85    4.86</time>
   <dipole>
    <v name="dipole">      0.00000000       0.00000000       0.01618770 </v>
    <i name="Tr[quadrupol]"> -10184.14773665 </i>
    <i name="Echarged">      0.00000000 </i>
    <i name="Edipol_quadrupol">      0.00000000 </i>
    <i name="Eion">      0.00000000 </i>
   </dipole>
   <energy>
    <i name="e_fr_energy">   -187.91535660 </i>
    <i name="e_wo_entrp">   -187.64818448 </i>
    <i name="e_0_energy">   -187.78177054 </i>
   </energy>
  </scstep>
  <scstep>
   <time name="diag">    1.23    1.23</time>
   <time name="diis">    2.82    2.83</time>
   <time name="orth">    0.29    0.29</time>
   <time name="total">    4.63    4.65</time>
   <dipole>
    <v name="dipole">      0.00000000       0.00000000       0.01466670 </v>
    <i name="Tr[quadrupol]"> -10184.17756917 </i>
    <i name="Echarged">      0.00000000 </i>
    <i name="Edipol_quadrupol">      0.00000000 </i>
    <i name="Eion">      0.00000000 </i>
   </dipole>
   <energy>
    <i name="e_fr_energy">   -187.91560513 </i>
    <i name="e_wo_entrp">   -187.64849302 </i>
    <i name="e_0_energy">   -187.78204908 </i>
   </energy>
  </scstep>
  <scstep>
   <time name="diag">    1.22    1.23</time>
   <time name="diis">    2.45    2.45</time>
   <time name="orth">    0.29    0.29</time>
   <time name="total">    4.25    4.26</time>
   <dipole>
    <v name="dipole">      0.00000000       0.00000000       0.01397017 </v>
    <i name="Tr[quadrupol]"> -10184.19016855 </i>
    <i name="Echarged">      0.00000000 </i>
    <i name="Edipol_quadrupol">      0.00000000 </i>
    <i name="Eion">      0.00000000 </i>
   </dipole>
   <energy>
    <i name="e_fr_energy">   -187.91568791 </i>
    <i name="e_wo_entrp">   -187.64856763 </i>
    <i name="e_0_energy">   -187.78212777 </i>
   </energy>
  </scstep>
  <scstep>
   <time name="diag">    1.22    1.25</time>
   <time name="diis">    2.16    2.22</time>
   <time name="orth">    0.29    0.29</time>
   <time name="total">    3.97    4.06</time>
   <dipole>
    <v name="dipole">      0.00000000       0.00000000       0.01312769 </v>
    <i name="Tr[quadrupol]"> -10184.20158843 </i>
    <i name="Echarged">      0.00000000 </i>
    <i name="Edipol_quadrupol">      0.00000000 </i>
    <i name="Eion">      0.00000000 </i>
   </dipole>
   <energy>
    <i name="e_fr_energy">   -187.91577496 </i>
    <i name="e_wo_entrp">   -187.64865134 </i>
    <i name="e_0_energy">   -187.78221315 </i>
   </energy>
  </scstep>
  <scstep>
   <time name="diag">    1.23    1.23</time>
   <time name="diis">    2.11    2.11</time>
   <time name="orth">    0.29    0.29</time>
   <time name="total">    3.91    3.92</time>
   <dipole>
    <v name="dipole">      0.00000000       0.00000000       0.01255622 </v>
    <i name="Tr[quadrupol]"> -10184.20878688 </i>
    <i name="Echarged">      0.00000000 </i>
    <i name="Edipol_quadrupol">      0.00000000 </i>
    <i name="Eion">      0.00000000 </i>
   </dipole>
   <energy>
    <i name="e_fr_energy">   -187.91582366 </i>
    <i name="e_wo_entrp">   -187.64871608 </i>
    <i name="e_0_energy">   -187.78226987 </i>
   </energy>
  </scstep>
  <scstep>
   <time name="diag">    1.22    1.23</time>
   <time name="diis">    2.11    2.11</time>
   <time name="orth">    0.29    0.29</time>
   <time name="total">    3.91    3.93</time>
   <dipole>
    <v name="dipole">      0.00000000       0.00000000       0.01181787 </v>
    <i name="Tr[quadrupol]"> -10184.21618470 </i>
    <i name="Echarged">      0.00000000 </i>
    <i name="Edipol_quadrupol">      0.00000000 </i>
    <i name="Eion">      0.00000000 </i>
   </dipole>
   <energy>
    <i name="e_fr_energy">   -187.91587126 </i>
    <i name="e_wo_entrp">   -187.64875124 </i>
    <i name="e_0_energy">   -187.78231125 </i>
   </energy>
  </scstep>
  <scstep>
   <time name="diag">    1.22    1.22</time>
   <time name="diis">    2.08    2.08</time>
   <time name="orth">    0.29    0.29</time>
   <time name="total">    3.88    3.89</time>
   <dipole>
    <v name="dipole">      0.00000000       0.00000000       0.01139133 </v>
    <i name="Tr[quadrupol]"> -10184.22061294 </i>
    <i name="Echarged">      0.00000000 </i>
    <i name="Edipol_quadrupol">      0.00000000 </i>
    <i name="Eion">      0.00000000 </i>
   </dipole>
   <energy>
    <i name="e_fr_energy">   -187.91589013 </i>
    <i name="e_wo_entrp">   -187.64877525 </i>
    <i name="e_0_energy">   -187.78233269 </i>
   </energy>
  </scstep>
  <scstep>
   <time name="diag">    1.23    1.23</time>
   <time name="diis">    1.89    1.89</time>
   <time name="orth">    0.29    0.29</time>
   <time name="total">    3.70    3.71</time>
   <dipole>
    <v name="dipole">      0.00000000       0.00000000       0.01097298 </v>
    <i name="Tr[quadrupol]"> -10184.22528290 </i>
    <i name="Echarged">      0.00000000 </i>
    <i name="Edipol_quadrupol">      0.00000000 </i>
    <i name="Eion">      0.00000000 </i>
   </dipole>
   <energy>
    <i name="e_fr_energy">   -187.91590125 </i>
    <i name="e_wo_entrp">   -187.64879369 </i>
    <i name="e_0_energy">   -187.78234747 </i>
   </energy>
  </scstep>
  <scstep>
   <time name="diag">    1.22    1.22</time>
   <time name="diis">    1.78    1.78</time>
   <time name="orth">    0.29    0.29</time>
   <time name="total">    3.58    3.59</time>
   <dipole>
    <v name="dipole">      0.00000000       0.00000000       0.01069058 </v>
    <i name="Tr[quadrupol]"> -10184.22843737 </i>
    <i name="Echarged">      0.00000000 </i>
    <i name="Edipol_quadrupol">      0.00000000 </i>
    <i name="Eion">      0.00000000 </i>
   </dipole>
   <energy>
    <i name="e_fr_energy">   -187.91590522 </i>
    <i name="e_wo_entrp">   -187.64880115 </i>
    <i name="e_0_energy">   -187.78235318 </i>
   </energy>
  </scstep>
  <scstep>
   <time name="diag">    1.22    1.23</time>
   <time name="diis">    1.63    1.65</time>
   <time name="orth">    0.29    0.29</time>
   <time name="total">    3.43    3.47</time>
   <dipole>
    <v name="dipole">      0.00000000       0.00000000       0.01041538 </v>
    <i name="Tr[quadrupol]"> -10184.23152163 </i>
    <i name="Echarged">      0.00000000 </i>
    <i name="Edipol_quadrupol">      0.00000000 </i>
    <i name="Eion">      0.00000000 </i>
   </dipole>
   <energy>
    <i name="e_fr_energy">   -187.91590734 </i>
    <i name="e_wo_entrp">   -187.64880410 </i>
    <i name="e_0_energy">   -187.78235572 </i>
   </energy>
  </scstep>
  <scstep>
   <time name="diag">    1.22    1.23</time>
   <time name="diis">    1.50    1.51</time>
   <time name="orth">    0.29    0.29</time>
   <time name="total">    3.31    3.32</time>
   <dipole>
    <v name="dipole">      0.00000000       0.00000000       0.01028593 </v>
    <i name="Tr[quadrupol]"> -10184.23315964 </i>
    <i name="Echarged">      0.00000000 </i>
    <i name="Edipol_quadrupol">      0.00000000 </i>
    <i name="Eion">      0.00000000 </i>
   </dipole>
   <energy>
    <i name="e_fr_energy">   -187.91590836 </i>
    <i name="e_wo_entrp">   -187.64880372 </i>
    <i name="e_0_energy">   -187.78235604 </i>
   </energy>
  </scstep>
  <scstep>
   <time name="diag">    1.22    1.23</time>
   <time name="diis">    1.48    1.48</time>
   <time name="orth">    0.29    0.29</time>
   <time name="total">    3.29    3.30</time>
   <dipole>
    <v name="dipole">      0.00000000       0.00000000       0.01012437 </v>
    <i name="Tr[quadrupol]"> -10184.23525089 </i>
    <i name="Echarged">      0.00000000 </i>
    <i name="Edipol_quadrupol">      0.00000000 </i>
    <i name="Eion">      0.00000000 </i>
   </dipole>
   <energy>
    <i name="e_fr_energy">   -187.91590943 </i>
    <i name="e_wo_entrp">   -187.64880697 </i>
    <i name="e_0_energy">   -187.78235820 </i>
   </energy>
  </scstep>
  <scstep>
   <time name="diag">    1.22    1.22</time>
   <time name="diis">    1.42    1.42</time>
   <time name="orth">    0.29    0.29</time>
   <time name="total">    3.22    3.23</time>
   <dipole>
    <v name="dipole">      0.00000000       0.00000000       0.00996610 </v>
    <i name="Tr[quadrupol]"> -10184.23742527 </i>
    <i name="Echarged">      0.00000000 </i>
    <i name="Edipol_quadrupol">      0.00000000 </i>
    <i name="Eion">      0.00000000 </i>
   </dipole>
   <energy>
    <i name="e_fr_energy">   -187.91591048 </i>
    <i name="e_wo_entrp">   -187.64880672 </i>
    <i name="e_0_energy">   -187.78235860 </i>
   </energy>
  </scstep>
  <scstep>
   <time name="diag">    1.22    1.22</time>
   <time name="diis">    1.39    1.39</time>
   <time name="orth">    0.29    0.29</time>
   <time name="total">    2.95    2.96</time>
   <dipole>
    <v name="dipole">      0.00000000       0.00000000       0.00986159 </v>
    <i name="Tr[quadrupol]"> -10184.23894312 </i>
    <i name="Echarged">      0.00000000 </i>
    <i name="Edipol_quadrupol">      0.00000000 </i>
    <i name="Eion">      0.00000000 </i>
   </dipole>
   <energy>
    <i name="alphaZ">    805.87404349 </i>
    <i name="ewald"> 200412.64027762 </i>
    <i name="hartreedc">-242595.94565890 </i>
    <i name="XCdc">   -343.22881012 </i>
    <i name="pawpsdc">  49438.62639504 </i>
    <i name="pawaedc"> -47516.63042754 </i>
    <i name="eentropy">     -0.26710299 </i>
    <i name="bandstr">  -2048.77049991 </i>
    <i name="atom">  41659.78587232 </i>
    <i name="e_fr_energy">   -187.91591100 </i>
    <i name="e_wo_entrp">   -187.64880801 </i>
    <i name="e_0_energy">   -187.78235951 </i>
   </energy>
  </scstep>
  <structure>
   <crystal>
    <varray name="basis" >
     <v>      11.00258152       0.00000000       0.00000000 </v>
     <v>       5.50129076       9.52851510       0.00000000 </v>
     <v>       0.00000000       0.00000000      24.49178509 </v>
    </varray>
    <i name="volume">   2567.67623402 </i>
    <varray name="rec_basis" >
     <v>       0.09088776      -0.05247407       0.00000000 </v>
     <v>       0.00000000       0.10494815       0.00000000 </v>
     <v>       0.00000000       0.00000000       0.04083002 </v>
    </varray>
   </crystal>
   <varray name="positions" >
    <v>       0.08333333       0.08333333       0.40830017 </v>
    <v>       0.41666667       0.91666667       0.50000000 </v>
    <v>       0.66666667       0.16666667       0.50000000 </v>
    <v>       0.75000000       0.00000000       0.59169983 </v>
    <v>       0.16666667       0.91666667       0.50000000 </v>
    <v>       0.33333333       0.83333333       0.40830017 </v>
    <v>       0.83333333       0.33333333       0.40830017 </v>
    <v>       0.16666667       0.66666667       0.50000000 </v>
    <v>       0.33333333       0.58333333       0.40830017 </v>
    <v>       0.25000000       0.25000000       0.59169983 </v>
    <v>       0.66666667       0.41666667       0.50000000 </v>
    <v>       0.58333333       0.58333333       0.40830017 </v>
    <v>       0.25000000       0.00000000       0.59169983 </v>
    <v>       0.33333333       0.33333333       0.40830017 </v>
    <v>       0.83333333       0.58333333       0.40830017 </v>
    <v>       0.91666667       0.16666667       0.50000000 </v>
    <v>       0.00000000       0.00000000       0.59169983 </v>
    <v>       0.08333333       0.33333333       0.40830017 </v>
    <v>       0.00000000       0.25000000       0.59169983 </v>
    <v>       0.41666667       0.66666667       0.50000000 </v>
    <v>       0.00000000       0.50000000       0.59169983 </v>
    <v>       0.08333333       0.83333333       0.40830017 </v>
    <v>       0.91666667       0.91666667       0.50000000 </v>
    <v>       0.91666667       0.66666667       0.50000000 </v>
    <v>       0.75000000       0.50000000       0.59169983 </v>
    <v>       0.75000000       0.25000000       0.59169983 </v>
    <v>       0.83333333       0.08333333       0.40830017 </v>
    <v>       0.50000000       0.75000000       0.59169983 </v>
    <v>       0.66666667       0.66666667       0.50000000 </v>
    <v>       0.58333333       0.83333333       0.40830017 </v>
    <v>       0.50000000       0.50000000       0.59169983 </v>
    <v>       0.83333333       0.83333333       0.40830017 </v>
    <v>       0.25000000       0.75000000       0.59169983 </v>
    <v>       0.41666667       0.41666667       0.50000000 </v>
    <v>       0.58333333       0.33333333       0.40830017 </v>
    <v>       0.50000000       0.00000000       0.59169983 </v>
    <v>       0.41666667       0.16666667       0.50000000 </v>
    <v>       0.58333333       0.08333333       0.40830017 </v>
    <v>       0.66666667       0.91666667       0.50000000 </v>
    <v>       0.25000000       0.50000000       0.59169983 </v>
    <v>       0.16666667       0.41666667       0.50000000 </v>
    <v>       0.16666667       0.16666667       0.50000000 </v>
    <v>       0.33333333       0.08333333       0.40830017 </v>
    <v>       0.00000000       0.75000000       0.59169983 </v>
    <v>       0.08333333       0.58333333       0.40830017 </v>
    <v>       0.91666667       0.41666667       0.50000000 </v>
    <v>       0.50000000       0.25000000       0.59169983 </v>
    <v>       0.75000000       0.75000000       0.59169983 </v>
   </varray>
  </structure>
  <varray name="forces" >
   <v>       0.12594784       0.08518906      -1.62720492 </v>
   <v>       0.84974685       0.24245383       0.02539766 </v>
   <v>      -0.65032386       0.18751039      -0.26638835 </v>
   <v>      -0.39070895      -0.05475902       1.58625551 </v>
   <v>       0.18490439       0.02177263       0.33542160 </v>
   <v>       0.41021020       0.23564734      -1.88702435 </v>
   <v>      -0.19872721      -0.12046367      -1.63964274 </v>
   <v>      -0.17955676      -0.65019441       0.58481025 </v>
   <v>      -0.15202139      -0.40358537      -1.64086771 </v>
   <v>       0.52094569       0.04551618       1.10558778 </v>
   <v>      -0.06025974       0.15261367       0.62633045 </v>
   <v>       0.16869215       0.07009629      -1.65181937 </v>
   <v>       0.27745240      -0.29389081       1.62318974 </v>
   <v>       0.09284567      -0.21449486      -1.08963667 </v>
   <v>       0.11644183       0.38902475      -1.33513662 </v>
   <v>      -0.00287307       0.33063442      -0.00540836 </v>
   <v>      -0.11504832      -0.20836214       1.89673305 </v>
   <v>       0.27736954      -0.02187003      -1.11688659 </v>
   <v>      -0.22083369       0.30026781       1.38226351 </v>
   <v>       0.18872344      -0.33134819       0.90218920 </v>
   <v>      -0.04923080       0.26945578       1.31269187 </v>
   <v>      -0.51778307       0.02066583      -1.91906583 </v>
   <v>      -0.56212772      -0.12533362      -0.27396997 </v>
   <v>      -0.29970630       0.04436072       0.03427896 </v>
   <v>      -0.18120833       0.20599622       0.68147096 </v>
   <v>      -0.13396841       0.29976181       1.03190417 </v>
   <v>      -0.31497463      -0.02570987      -1.01355803 </v>
   <v>       0.17847302      -0.14668121       0.81516358 </v>
   <v>       0.23455406       0.16503478       0.40659192 </v>
   <v>       0.22377804       0.23377281      -0.66208185 </v>
   <v>      -0.04540031      -0.01959114       0.78553471 </v>
   <v>      -0.19451176       0.18194700      -0.81771751 </v>
   <v>      -0.01365406      -0.28050164       1.00237528 </v>
   <v>      -0.21932138      -0.25402468       0.36357054 </v>
   <v>      -0.12560095      -0.23887277      -0.86078313 </v>
   <v>       0.16391840      -0.14161293       0.66793480 </v>
   <v>       0.07424620       0.00592658      -0.01156989 </v>
   <v>       0.05755165      -0.20027984      -0.62620790 </v>
   <v>      -0.37180784      -0.04113889      -0.18937151 </v>
   <v>       0.29746443       0.01828542       0.64315547 </v>
   <v>       0.17846451      -0.18948531       0.01443960 </v>
   <v>       0.34976222       0.24537006      -0.18443952 </v>
   <v>       0.27329436      -0.01180523      -0.65916547 </v>
   <v>       0.08182200      -0.13914279       1.03158142 </v>
   <v>      -0.06834804       0.05545141      -0.91163196 </v>
   <v>       0.06505162       0.11317663       0.22122353 </v>
   <v>      -0.08316794       0.15123463       0.61533905 </v>
   <v>      -0.24049596       0.04198236       0.69414362 </v>
  </varray>
  <energy>
   <i name="e_fr_energy">   -187.91591100 </i>
   <i name="e_wo_entrp">   -187.78235951 </i>
   <i name="e_0_energy">     -0.26710299 </i>
  </energy>
  <time name="totalsc">  230.32  231.64</time>
 </calculation>
 <calculation>
  <scstep>
   <time name="dav">    7.12    7.13</time>
   <time name="total">    7.40    7.42</time>
   <dipole>
    <v name="dipole">      0.00000000       0.00000000       0.00976980 </v>
    <i name="Tr[quadrupol]"> -10197.37682371 </i>
    <i name="Echarged">      0.00000000 </i>
    <i name="Edipol_quadrupol">      0.00000000 </i>
    <i name="Eion">      0.00000000 </i>
   </dipole>
   <energy>
    <i name="alphaZ">    805.87407061 </i>
    <i name="ewald"> 197668.73585615 </i>
    <i name="hartreedc">-239868.99264446 </i>
    <i name="XCdc">   -345.50673967 </i>
    <i name="pawpsdc">  49438.62817531 </i>
    <i name="pawaedc"> -47516.63212530 </i>
    <i name="eentropy">     -0.26320684 </i>
    <i name="bandstr">  -2030.70622322 </i>
    <i name="atom">  41659.78587232 </i>
    <i name="e_fr_energy">   -189.07696510 </i>
    <i name="e_wo_entrp">   -188.81375827 </i>
    <i name="e_0_energy">   -188.94536168 </i>
   </energy>
  </scstep>
  <scstep>
   <time name="diag">    1.22    1.22</time>
   <time name="diis">    3.42    3.43</time>
   <time name="orth">    0.29    0.29</time>
   <time name="total">    5.22    5.23</time>
   <dipole>
    <v name="dipole">      0.00000000       0.00000000      -0.00867486 </v>
    <i name="Tr[quadrupol]"> -10197.12237396 </i>
    <i name="Echarged">      0.00000000 </i>
    <i name="Edipol_quadrupol">      0.00000000 </i>
    <i name="Eion">      0.00000000 </i>
   </dipole>
   <energy>
    <i name="e_fr_energy">   -189.49252037 </i>
    <i name="e_wo_entrp">   -189.22829160 </i>
    <i name="e_0_energy">   -189.36040599 </i>
   </energy>
  </scstep>
  <scstep>
   <time name="diag">    1.22    1.23</time>
   <time name="diis">    3.50    3.52</time>
   <time name="orth">    0.29    0.29</time>
   <time name="total">    5.31    5.33</time>
   <dipole>
    <v name="dipole">      0.00000000       0.00000000       0.09974456 </v>
    <i name="Tr[quadrupol]"> -10197.58559701 </i>
    <i name="Echarged">      0.00000000 </i>
    <i name="Edipol_quadrupol">      0.00000000 </i>
    <i name="Eion">      0.00000000 </i>
   </dipole>
   <energy>
    <i name="e_fr_energy">   -189.68440534 </i>
    <i name="e_wo_entrp">   -189.43310109 </i>
    <i name="e_0_energy">   -189.55875322 </i>
   </energy>
  </scstep>
  <scstep>
   <time name="diag">    1.23    1.23</time>
   <time name="diis">    3.39    3.39</time>
   <time name="orth">    0.29    0.29</time>
   <time name="total">    5.19    5.21</time>
   <dipole>
    <v name="dipole">      0.00000000       0.00000000      -0.04115905 </v>
    <i name="Tr[quadrupol]"> -10197.53376527 </i>
    <i name="Echarged">      0.00000000 </i>
    <i name="Edipol_quadrupol">      0.00000000 </i>
    <i name="Eion">      0.00000000 </i>
   </dipole>
   <energy>
    <i name="e_fr_energy">   -189.51267156 </i>
    <i name="e_wo_entrp">   -189.23112188 </i>
    <i name="e_0_energy">   -189.37189672 </i>
   </energy>
  </scstep>
  <scstep>
   <time name="diag">    1.23    1.24</time>
   <time name="diis">    3.40    3.40</time>
   <time name="orth">    0.29    0.29</time>
   <time name="total">    5.20    5.22</time>
   <dipole>
    <v name="dipole">      0.00000000       0.00000000       0.05374613 </v>
    <i name="Tr[quadrupol]"> -10197.43195525 </i>
    <i name="Echarged">      0.00000000 </i>
    <i name="Edipol_quadrupol">      0.00000000 </i>
    <i name="Eion">      0.00000000 </i>
   </dipole>
   <energy>
    <i name="e_fr_energy">   -189.52861076 </i>
    <i name="e_wo_entrp">   -189.29453209 </i>
    <i name="e_0_energy">   -189.41157143 </i>
   </energy>
  </scstep>
  <scstep>
   <time name="diag">    1.23    1.24</time>
   <time name="diis">    3.39    3.40</time>
   <time name="orth">    0.29    0.29</time>
   <time name="total">    5.21    5.23</time>
   <dipole>
    <v name="dipole">      0.00000000       0.00000000      -0.00628962 </v>
    <i name="Tr[quadrupol]"> -10197.46370796 </i>
    <i name="Echarged">      0.00000000 </i>
    <i name="Edipol_quadrupol">      0.00000000 </i>
    <i name="Eion">      0.00000000 </i>
   </dipole>
   <energy>
    <i name="e_fr_energy">   -189.46803882 </i>
    <i name="e_wo_entrp">   -189.20207382 </i>
    <i name="e_0_energy">   -189.33505632 </i>
   </energy>
  </scstep>
  <scstep>
   <time name="diag">    1.23    1.24</time>
   <time name="diis">    3.38    3.39</time>
   <time name="orth">    0.29    0.29</time>
   <time name="total">    5.19    5.21</time>
   <dipole>
    <v name="dipole">      0.00000000       0.00000000       0.01050707 </v>
    <i name="Tr[quadrupol]"> -10197.44026709 </i>
    <i name="Echarged">      0.00000000 </i>
    <i name="Edipol_quadrupol">      0.00000000 </i>
    <i name="Eion">      0.00000000 </i>
   </dipole>
   <energy>
    <i name="e_fr_energy">   -189.46331787 </i>
    <i name="e_wo_entrp">   -189.20003728 </i>
    <i name="e_0_energy">   -189.33167757 </i>
   </energy>
  </scstep>
  <scstep>
   <time name="diag">    1.21    1.28</time>
   <time name="diis">    3.37    3.38</time>
   <time name="orth">    0.29    0.29</time>
   <time name="total">    5.16    5.25</time>
   <dipole>
    <v name="dipole">      0.00000000       0.00000000       0.00700273 </v>
    <i name="Tr[quadrupol]"> -10197.41814070 </i>
    <i name="Echarged">      0.00000000 </i>
    <i name="Edipol_quadrupol">      0.00000000 </i>
    <i name="Eion">      0.00000000 </i>
   </dipole>
   <energy>
    <i name="e_fr_energy">   -189.45989007 </i>
    <i name="e_wo_entrp">   -189.19588164 </i>
    <i name="e_0_energy">   -189.32788585 </i>
   </energy>
  </scstep>
  <scstep>
   <time name="diag">    1.22    1.23</time>
   <time name="diis">    3.40    3.40</time>
   <time name="orth">    0.29    0.29</time>
   <time name="total">    5.21    5.22</time>
   <dipole>
    <v name="dipole">      0.00000000       0.00000000       0.00578023 </v>
    <i name="Tr[quadrupol]"> -10197.40635755 </i>
    <i name="Echarged">      0.00000000 </i>
    <i name="Edipol_quadrupol">      0.00000000 </i>
    <i name="Eion">      0.00000000 </i>
   </dipole>
   <energy>
    <i name="e_fr_energy">   -189.45857494 </i>
    <i name="e_wo_entrp">   -189.19401185 </i>
    <i name="e_0_energy">   -189.32629340 </i>
   </energy>
  </scstep>
  <scstep>
   <time name="diag">    1.22    1.23</time>
   <time name="diis">    3.42    3.43</time>
   <time name="orth">    0.29    0.29</time>
   <time name="total">    5.22    5.24</time>
   <dipole>
    <v name="dipole">      0.00000000       0.00000000       0.00619489 </v>
    <i name="Tr[quadrupol]"> -10197.40648741 </i>
    <i name="Echarged">      0.00000000 </i>
    <i name="Edipol_quadrupol">      0.00000000 </i>
    <i name="Eion">      0.00000000 </i>
   </dipole>
   <energy>
    <i name="e_fr_energy">   -189.45857264 </i>
    <i name="e_wo_entrp">   -189.19345992 </i>
    <i name="e_0_energy">   -189.32601628 </i>
   </energy>
  </scstep>
  <scstep>
   <time name="diag">    1.22    1.23</time>
   <time name="diis">    3.41    3.42</time>
   <time name="orth">    0.29    0.29</time>
   <time name="total">    5.21    5.23</time>
   <dipole>
    <v name="dipole">      0.00000000       0.00000000       0.00451673 </v>
    <i name="Tr[quadrupol]"> -10197.40575311 </i>
    <i name="Echarged">      0.00000000 </i>
    <i name="Edipol_quadrupol">      0.00000000 </i>
    <i name="Eion">      0.00000000 </i>
   </dipole>
   <energy>
    <i name="e_fr_energy">   -189.45844973 </i>
    <i name="e_wo_entrp">   -189.19310853 </i>
    <i name="e_0_energy">   -189.32577913 </i>
   </energy>
  </scstep>
  <scstep>
   <time name="diag">    1.22    1.23</time>
   <time name="diis">    3.39    3.40</time>
   <time name="orth">    0.29    0.29</time>
   <time name="total">    5.19    5.21</time>
   <dipole>
    <v name="dipole">      0.00000000       0.00000000       0.00551751 </v>
    <i name="Tr[quadrupol]"> -10197.40953985 </i>
    <i name="Echarged">      0.00000000 </i>
    <i name="Edipol_quadrupol">      0.00000000 </i>
    <i name="Eion">      0.00000000 </i>
   </dipole>
   <energy>
    <i name="e_fr_energy">   -189.45844172 </i>
    <i name="e_wo_entrp">   -189.19341935 </i>
    <i name="e_0_energy">   -189.32593053 </i>
   </energy>
  </scstep>
  <scstep>
   <time name="diag">    1.22    1.23</time>
   <time name="diis">    3.47    3.48</time>
   <time name="orth">    0.29    0.29</time>
   <time name="total">    5.27    5.29</time>
   <dipole>
    <v name="dipole">      0.00000000       0.00000000       0.00567848 </v>
    <i name="Tr[quadrupol]"> -10197.41446812 </i>
    <i name="Echarged">      0.00000000 </i>
    <i name="Edipol_quadrupol">      0.00000000 </i>
    <i name="Eion">      0.00000000 </i>
   </dipole>
   <energy>
    <i name="e_fr_energy">   -189.45843054 </i>
    <i name="e_wo_entrp">   -189.19325465 </i>
    <i name="e_0_energy">   -189.32584259 </i>
   </energy>
  </scstep>
  <scstep>
   <time name="diag">    1.22    1.22</time>
   <time name="diis">    3.38    3.38</time>
   <time name="orth">    0.29    0.29</time>
   <time name="total">    5.17    5.19</time>
   <dipole>
    <v name="dipole">      0.00000000       0.00000000       0.00571695 </v>
    <i name="Tr[quadrupol]"> -10197.41836238 </i>
    <i name="Echarged">      0.00000000 </i>
    <i name="Edipol_quadrupol">      0.00000000 </i>
    <i name="Eion">      0.00000000 </i>
   </dipole>
   <energy>
    <i name="e_fr_energy">   -189.45842621 </i>
    <i name="e_wo_entrp">   -189.19345566 </i>
    <i name="e_0_energy">   -189.32594093 </i>
   </energy>
  </scstep>
  <scstep>
   <time name="diag">    1.23    1.23</time>
   <time name="diis">    2.51    2.53</time>
   <time name="orth">    0.28    0.31</time>
   <time name="total">    4.07    4.12</time>
   <dipole>
    <v name="dipole">      0.00000000       0.00000000       0.00570588 </v>
    <i name="Tr[quadrupol]"> -10197.42090618 </i>
    <i name="Echarged">      0.00000000 </i>
    <i name="Edipol_quadrupol">      0.00000000 </i>
    <i name="Eion">      0.00000000 </i>
   </dipole>
   <energy>
    <i name="alphaZ">    805.87211375 </i>
    <i name="ewald"> 197668.73585615 </i>
    <i name="hartreedc">-239871.38058724 </i>
    <i name="XCdc">   -345.43967997 </i>
    <i name="pawpsdc">  48971.55980264 </i>
    <i name="pawaedc"> -47046.38238823 </i>
    <i name="eentropy">     -0.26499947 </i>
    <i name="bandstr">  -2031.94441612 </i>
    <i name="atom">  41659.78587232 </i>
    <i name="e_fr_energy">   -189.45842618 </i>
    <i name="e_wo_entrp">   -189.19342671 </i>
    <i name="e_0_energy">   -189.32592645 </i>
   </energy>
  </scstep>
  <structure>
   <crystal>
    <varray name="basis" >
     <v>      11.00258152       0.00000000       0.00000000 </v>
     <v>       5.50129076       9.52851510       0.00000000 </v>
     <v>       0.00000000       0.00000000      24.49178509 </v>
    </varray>
    <i name="volume">   2567.67623402 </i>
    <varray name="rec_basis" >
     <v>       0.09088776      -0.05247407       0.00000000 </v>
     <v>       0.00000000       0.10494815       0.00000000 </v>
     <v>       0.00000000       0.00000000       0.04083002 </v>
    </varray>
   </crystal>
   <varray name="positions" >
    <v>       0.08356894       0.08363525       0.40605654 </v>
    <v>       0.41884513       0.91752594       0.50003502 </v>
    <v>       0.66433837       0.16733122       0.49963270 </v>
    <v>       0.74889785      -0.00019407       0.59388700 </v>
    <v>       0.16719561       0.91674383       0.50046249 </v>
    <v>       0.33417480       0.83416849       0.40569830 </v>
    <v>       0.83293685       0.33290640       0.40603939 </v>
    <v>       0.16726773       0.66436232       0.50080635 </v>
    <v>       0.33358191       0.58190299       0.40603770 </v>
    <v>       0.25151826       0.25016131       0.59322424 </v>
    <v>       0.66621128       0.41720754       0.50086360 </v>
    <v>       0.58372688       0.58358176       0.40602260 </v>
    <v>       0.25137236      -0.00104157       0.59393792 </v>
    <v>       0.33399840       0.33257315       0.40679775 </v>
    <v>       0.83300136       0.58471207       0.40645925 </v>
    <v>       0.91607195       0.16783846       0.49999254 </v>
    <v>       0.00001611      -0.00073845       0.59431509 </v>
    <v>       0.08422341       0.33325582       0.40676018 </v>
    <v>      -0.00120988       0.25106417       0.59360573 </v>
    <v>       0.41783307       0.66549234       0.50124396 </v>
    <v>      -0.00062859       0.50095497       0.59350980 </v>
    <v>       0.08170750       0.83340657       0.40565412 </v>
    <v>       0.91516344       0.91622247       0.49962224 </v>
    <v>       0.91566818       0.66682388       0.50004726 </v>
    <v>       0.74907879       0.50073007       0.59263946 </v>
    <v>       0.74905762       0.25106238       0.59312264 </v>
    <v>       0.83241215       0.08324222       0.40690265 </v>
    <v>       0.50080771       0.74948015       0.59282380 </v>
    <v>       0.66709413       0.66725156       0.50056062 </v>
    <v>       0.58360591       0.83416184       0.40738728 </v>
    <v>       0.49989537       0.49993057       0.59278294 </v>
    <v>       0.83241391       0.83397817       0.40717268 </v>
    <v>       0.25045515       0.74900588       0.59308193 </v>
    <v>       0.41644365       0.41576638       0.50050130 </v>
    <v>       0.58337112       0.33248675       0.40711330 </v>
    <v>       0.50075405      -0.00050189       0.59262080 </v>
    <v>       0.41688405       0.16668767       0.49998405 </v>
    <v>       0.58386488       0.08262352       0.40743674 </v>
    <v>       0.66559839       0.91652087       0.49973889 </v>
    <v>       0.25088060       0.50006481       0.59258663 </v>
    <v>       0.16755020       0.41599511       0.50001991 </v>
    <v>       0.16730537       0.16753628       0.49974569 </v>
    <v>       0.33419307       0.08329149       0.40739130 </v>
    <v>       0.00049770       0.74950687       0.59312220 </v>
    <v>       0.08302529       0.58352986       0.40704319 </v>
    <v>       0.91666577       0.41706777       0.50030503 </v>
    <v>       0.49947674       0.25053599       0.59254827 </v>
    <v>       0.74918746       0.75014879       0.59265693 </v>
   </varray>
  </structure>
  <varray name="forces" >
   <v>       0.04162854      -0.01814585      -1.11354157 </v>
   <v>       0.25401708       0.08744201      -0.00191439 </v>
   <v>      -0.28452662       0.02667106      -0.05336612 </v>
   <v>      -0.20186476      -0.00508021       1.10344419 </v>
   <v>       0.08649679      -0.01518289       0.06106558 </v>
   <v>       0.16422421       0.04813771      -1.17567000 </v>
   <v>      -0.12362650      -0.01264742      -1.12824083 </v>
   <v>      -0.03616266      -0.22280662       0.10617824 </v>
   <v>      -0.03163795      -0.11376059      -1.05036055 </v>
   <v>       0.25820449       0.01923766       0.84938703 </v>
   <v>       0.01593556       0.09476630       0.14676182 </v>
   <v>       0.05190646       0.04957913      -1.07668162 </v>
   <v>       0.17362031      -0.13875160       1.14918576 </v>
   <v>       0.08014862      -0.15200771      -0.84134984 </v>
   <v>       0.05488867       0.19422958      -0.98304516 </v>
   <v>      -0.00065448       0.07532555       0.00891217 </v>
   <v>      -0.12178865      -0.10018514       1.26791249 </v>
   <v>       0.11460565       0.05019735      -0.83350688 </v>
   <v>      -0.07495053       0.11201659       0.99947129 </v>
   <v>       0.08516878      -0.06254779       0.19098994 </v>
   <v>       0.01116692       0.16170169       0.98189567 </v>
   <v>      -0.20101708      -0.03704835      -1.24372880 </v>
   <v>      -0.19750273       0.00838975      -0.05325966 </v>
   <v>      -0.17528787      -0.05005883       0.01816723 </v>
   <v>      -0.10999343       0.15552147       0.61539900 </v>
   <v>      -0.13575038       0.10090728       0.77460152 </v>
   <v>      -0.17792092      -0.00258347      -0.73471627 </v>
   <v>       0.11693675      -0.06507585       0.71402860 </v>
   <v>       0.10665054       0.02300426       0.10673301 </v>
   <v>       0.13667839       0.13457087      -0.56484600 </v>
   <v>      -0.04675083      -0.04492180       0.77592418 </v>
   <v>      -0.14261430       0.10727908      -0.68009526 </v>
   <v>      -0.00958883      -0.15573053       0.83246733 </v>
   <v>      -0.14219489      -0.11440460       0.09107026 </v>
   <v>      -0.03571191      -0.10456957      -0.62345426 </v>
   <v>       0.10979723      -0.08571988       0.58451945 </v>
   <v>      -0.00273893       0.07066306      -0.01111678 </v>
   <v>       0.03788604      -0.13995081      -0.57409333 </v>
   <v>      -0.11601479       0.00534509      -0.05293379 </v>
   <v>       0.17025912      -0.00979345       0.62863822 </v>
   <v>       0.02995036      -0.15888863       0.01420780 </v>
   <v>       0.14793934       0.10773673      -0.00089443 </v>
   <v>       0.19325118      -0.01401634      -0.54067927 </v>
   <v>       0.01841585      -0.04780393       0.77995851 </v>
   <v>      -0.03343364       0.05559846      -0.64494058 </v>
   <v>       0.06471123       0.06549600       0.02884970 </v>
   <v>       0.00499509       0.07546091       0.55052243 </v>
   <v>      -0.12775055       0.04240427       0.60214397 </v>
  </varray>
  <energy>
   <i name="e_fr_energy">   -189.45842618 </i>
   <i name="e_wo_entrp">   -189.32592645 </i>
   <i name="e_0_energy">     -0.26499947 </i>
  </energy>
  <time name="totalsc">   81.67   82.08</time>
 </calculation>
 <calculation>
  <scstep>
   <time name="dav">    7.15    7.17</time>
   <time name="total">    7.44    7.46</time>
   <dipole>
    <v name="dipole">      0.00000000       0.00000000       0.00578135 </v>
    <i name="Tr[quadrupol]"> -10237.87085333 </i>
    <i name="Echarged">      0.00000000 </i>
    <i name="Edipol_quadrupol">      0.00000000 </i>
    <i name="Eion">      0.00000000 </i>
   </dipole>
   <energy>
    <i name="alphaZ">    805.87227549 </i>
    <i name="ewald"> 189578.72120984 </i>
    <i name="hartreedc">-231824.93308512 </i>
    <i name="XCdc">   -351.04639106 </i>
    <i name="pawpsdc">  48971.42644874 </i>
    <i name="pawaedc"> -47046.24870585 </i>
    <i name="eentropy">     -0.25286378 </i>
    <i name="bandstr">  -1981.06215713 </i>
    <i name="atom">  41659.78587232 </i>
    <i name="e_fr_energy">   -187.73739655 </i>
    <i name="e_wo_entrp">   -187.48453277 </i>
    <i name="e_0_energy">   -187.61096466 </i>
   </energy>
  </scstep>
  <scstep>
   <time name="diag">    1.22    1.23</time>
   <time name="diis">    3.37    3.38</time>
   <time name="orth">    0.29    0.29</time>
   <time name="total">    5.18    5.19</time>
   <dipole>
    <v name="dipole">      0.00000000       0.00000000      -0.03744288 </v>
    <i name="Tr[quadrupol]"> -10237.04334943 </i>
    <i name="Echarged">      0.00000000 </i>
    <i name="Edipol_quadrupol">      0.00000000 </i>
    <i name="Eion">      0.00000000 </i>
   </dipole>
   <energy>
    <i name="e_fr_energy">   -191.42550985 </i>
    <i name="e_wo_entrp">   -191.17457636 </i>
    <i name="e_0_energy">   -191.30004311 </i>
   </energy>
  </scstep>
  <scstep>
   <time name="diag">    1.22    1.23</time>
   <time name="diis">    3.49    3.50</time>
   <time name="orth">    0.29    0.29</time>
   <time name="total">    5.29    5.30</time>
   <dipole>
    <v name="dipole">      0.00000000       0.00000000       0.16983643 </v>
    <i name="Tr[quadrupol]"> -10238.18714944 </i>
    <i name="Echarged">      0.00000000 </i>
    <i name="Edipol_quadrupol">      0.00000000 </i>
    <i name="Eion">      0.00000000 </i>
   </dipole>
   <energy>
    <i name="e_fr_energy">   -192.11856981 </i>
    <i name="e_wo_entrp">   -191.87842018 </i>
    <i name="e_0_energy">   -191.99849500 </i>
   </energy>
  </scstep>
  <scstep>
   <time name="diag">    1.22    1.23</time>
   <time name="diis">    3.39    3.41</time>
   <time name="orth">    0.29    0.29</time>
   <time name="total">    5.18    5.21</time>
   <dipole>
    <v name="dipole">      0.00000000       0.00000000      -0.07299990 </v>
    <i name="Tr[quadrupol]"> -10237.96773249 </i>
    <i name="Echarged">      0.00000000 </i>
    <i name="Edipol_quadrupol">      0.00000000 </i>
    <i name="Eion">      0.00000000 </i>
   </dipole>
   <energy>
    <i name="e_fr_energy">   -191.26650758 </i>
    <i name="e_wo_entrp">   -190.99623446 </i>
    <i name="e_0_energy">   -191.13137102 </i>
   </energy>
  </scstep>
  <scstep>
   <time name="diag">    1.21    1.23</time>
   <time name="diis">    3.41    3.42</time>
   <time name="orth">    0.29    0.29</time>
   <time name="total">    5.19    5.23</time>
   <dipole>
    <v name="dipole">      0.00000000       0.00000000       0.19433651 </v>
    <i name="Tr[quadrupol]"> -10237.91163898 </i>
    <i name="Echarged">      0.00000000 </i>
    <i name="Edipol_quadrupol">      0.00000000 </i>
    <i name="Eion">      0.00000000 </i>
[...]
       <r>    2.2589    0.0000 </r>
       <r>    2.3370    0.0000 </r>
       <r>    2.4161    0.0000 </r>
       <r>    2.5936    0.0000 </r>
       <r>    2.6933    0.0000 </r>
       <r>    2.9744    0.0000 </r>
       <r>    3.1634    0.0000 </r>
       <r>    3.2813    0.0000 </r>
       <r>    3.5130    0.0000 </r>
       <r>    3.5947    0.0000 </r>
       <r>    3.7004    0.0000 </r>
       <r>    3.9613    0.0000 </r>
       <r>    4.0964    0.0000 </r>
       <r>    4.1671    0.0000 </r>
       <r>    4.4463    0.0000 </r>
       <r>    4.4966    0.0000 </r>
       <r>    4.5960    0.0000 </r>
       <r>    4.6386    0.0000 </r>
       <r>    4.6911    0.0000 </r>
       <r>    4.7438    0.0000 </r>
       <r>    4.8617    0.0000 </r>
       <r>    4.9024    0.0000 </r>
       <r>    4.9570    0.0000 </r>
       <r>    5.0403    0.0000 </r>
       <r>    5.0616    0.0000 </r>
       <r>    5.0904    0.0000 </r>
       <r>    5.1416    0.0000 </r>
       <r>    5.2102    0.0000 </r>
      </set>
     </set>
    </set>
   </array>
  </eigenvalues>
  <separator name="orbital magnetization" >
   <v name="MAGDIPOLOUT">      0.00000000      0.00000000      0.00000000</v>
  </separator>
  <dos>
   <i name="efermi">     -1.09091510 </i>
   <total>
    <array>
     <dimension dim="1">gridpoints</dimension>
     <dimension dim="2">spin</dimension>
     <field>energy</field>
     <field>total</field>
     <field>integrated</field>
     <set>
      <set comment="spin 1">
       <r>    -9.8859     0.0000     0.0000 </r>
       <r>    -9.8319     0.0000     0.0000 </r>
       <r>    -9.7779     0.0000     0.0000 </r>
       <r>    -9.7239     0.0000     0.0000 </r>
       <r>    -9.6699     0.0000     0.0000 </r>
       <r>    -9.6159     0.0000     0.0000 </r>
       <r>    -9.5619     0.0000     0.0000 </r>
       <r>    -9.5079     0.0000     0.0000 </r>
       <r>    -9.4540     0.0000     0.0000 </r>
       <r>    -9.4000     0.0000     0.0000 </r>
       <r>    -9.3460     0.0000     0.0000 </r>
       <r>    -9.2920     0.0000     0.0000 </r>
       <r>    -9.2380     0.0000     0.0000 </r>
       <r>    -9.1840     0.0001     0.0000 </r>
       <r>    -9.1300     0.0026     0.0001 </r>
       <r>    -9.0760     0.0356     0.0021 </r>
       <r>    -9.0220     0.2814     0.0173 </r>
       <r>    -8.9680     1.2920     0.0870 </r>
       <r>    -8.9140     3.4620     0.2740 </r>
       <r>    -8.8600     5.5376     0.5730 </r>
       <r>    -8.8060     5.8287     0.8877 </r>
       <r>    -8.7520     5.3957     1.1791 </r>
       <r>    -8.6980     5.5593     1.4793 </r>
       <r>    -8.6440     5.0019     1.7494 </r>
       <r>    -8.5900     3.0846     1.9159 </r>
       <r>    -8.5360     1.2125     1.9814 </r>
       <r>    -8.4820     0.3006     1.9977 </r>
       <r>    -8.4280     0.0889     2.0025 </r>
       <r>    -8.3740     0.2647     2.0167 </r>
       <r>    -8.3200     0.8788     2.0642 </r>
       <r>    -8.2660     1.7913     2.1609 </r>
       <r>    -8.2120     2.5482     2.2985 </r>
       <r>    -8.1580     3.3113     2.4773 </r>
       <r>    -8.1040     4.3018     2.7096 </r>
       <r>    -8.0500     5.0576     2.9827 </r>
       <r>    -7.9960     5.9570     3.3044 </r>
       <r>    -7.9420     7.4792     3.7083 </r>
       <r>    -7.8880     8.5116     4.1679 </r>
       <r>    -7.8340     8.1131     4.6060 </r>
       <r>    -7.7800     7.4637     5.0090 </r>
       <r>    -7.7260     7.6457     5.4219 </r>
       <r>    -7.6720     7.8872     5.8478 </r>
       <r>    -7.6180     8.6493     6.3148 </r>
       <r>    -7.5640    10.9803     6.9077 </r>
       <r>    -7.5100    12.7153     7.5944 </r>
       <r>    -7.4560    11.5229     8.2166 </r>
       <r>    -7.4020     8.9933     8.7022 </r>
       <r>    -7.3480     8.7232     9.1732 </r>
       <r>    -7.2940    11.8570     9.8135 </r>
       <r>    -7.2400    16.0311    10.6792 </r>
       <r>    -7.1860    19.4135    11.7275 </r>
       <r>    -7.1320    22.6473    12.9504 </r>
       <r>    -7.0780    26.1784    14.3640 </r>
       <r>    -7.0240    28.5319    15.9047 </r>
       <r>    -6.9700    28.5163    17.4445 </r>
       <r>    -6.9160    28.5775    18.9877 </r>
       <r>    -6.8620    31.4412    20.6855 </r>
       <r>    -6.8080    35.6347    22.6097 </r>
       <r>    -6.7540    38.1723    24.6709 </r>
       <r>    -6.7000    38.4300    26.7461 </r>
       <r>    -6.6460    37.7666    28.7855 </r>
       <r>    -6.5920    38.3372    30.8556 </r>
       <r>    -6.5380    41.8239    33.1141 </r>
       <r>    -6.4840    48.6069    35.7388 </r>
       <r>    -6.4300    58.4089    38.8928 </r>
       <r>    -6.3760    67.4773    42.5365 </r>
       <r>    -6.3220    69.8438    46.3079 </r>
       <r>    -6.2680    67.1219    49.9324 </r>
       <r>    -6.2140    67.1977    53.5610 </r>
       <r>    -6.1600    71.6091    57.4278 </r>
       <r>    -6.1060    75.8288    61.5225 </r>
       <r>    -6.0520    77.6555    65.7158 </r>
       <r>    -5.9980    77.3532    69.8928 </r>
       <r>    -5.9440    76.0397    73.9988 </r>
       <r>    -5.8900    74.8975    78.0432 </r>
       <r>    -5.8360    74.0768    82.0432 </r>
       <r>    -5.7820    73.1181    85.9915 </r>
       <r>    -5.7280    70.5530    89.8013 </r>
       <r>    -5.6740    66.8679    93.4121 </r>
       <r>    -5.6200    66.1566    96.9845 </r>
       <r>    -5.5660    69.3861   100.7312 </r>
       <r>    -5.5120    72.6319   104.6532 </r>
       <r>    -5.4580    73.6291   108.6291 </r>
       <r>    -5.4040    73.9321   112.6214 </r>
       <r>    -5.3500    75.4640   116.6963 </r>
       <r>    -5.2960    77.4412   120.8780 </r>
       <r>    -5.2420    78.9997   125.1439 </r>
       <r>    -5.1881    81.0228   129.5191 </r>
       <r>    -5.1341    82.5944   133.9791 </r>
       <r>    -5.0801    83.0138   138.4617 </r>
       <r>    -5.0261    83.7131   142.9821 </r>
       <r>    -4.9721    84.2305   147.5304 </r>
       <r>    -4.9181    83.5881   152.0441 </r>
       <r>    -4.8641    82.8295   156.5168 </r>
       <r>    -4.8101    83.0149   160.9995 </r>
       <r>    -4.7561    83.0026   165.4815 </r>
       <r>    -4.7021    81.3185   169.8726 </r>
       <r>    -4.6481    79.0633   174.1419 </r>
       <r>    -4.5941    78.1120   178.3599 </r>
       <r>    -4.5401    80.0471   182.6823 </r>
       <r>    -4.4861    84.7147   187.2568 </r>
       <r>    -4.4321    89.0914   192.0676 </r>
       <r>    -4.3781    91.3935   197.0028 </r>
       <r>    -4.3241    92.2322   201.9832 </r>
       <r>    -4.2701    92.1432   206.9588 </r>
       <r>    -4.2161    91.6216   211.9062 </r>
       <r>    -4.1621    91.3843   216.8409 </r>
       <r>    -4.1081    91.6950   221.7923 </r>
       <r>    -4.0541    92.0913   226.7651 </r>
       <r>    -4.0001    92.1347   231.7403 </r>
       <r>    -3.9461    92.3843   236.7289 </r>
       <r>    -3.8921    93.4515   241.7752 </r>
       <r>    -3.8381    95.1067   246.9108 </r>
       <r>    -3.7841    97.5025   252.1758 </r>
       <r>    -3.7301   101.1709   257.6389 </r>
       <r>    -3.6761   104.8151   263.2988 </r>
       <r>    -3.6221   105.9688   269.0210 </r>
       <r>    -3.5681   104.1393   274.6444 </r>
       <r>    -3.5141   101.4783   280.1241 </r>
       <r>    -3.4601    99.9748   285.5226 </r>
       <r>    -3.4061    99.8620   290.9150 </r>
       <r>    -3.3521   100.6818   296.3517 </r>
       <r>    -3.2981   101.9167   301.8551 </r>
       <r>    -3.2441   102.2117   307.3744 </r>
       <r>    -3.1901   101.3035   312.8446 </r>
       <r>    -3.1361   100.6066   318.2773 </r>
       <r>    -3.0821    99.2445   323.6363 </r>
       <r>    -3.0281    95.2774   328.7812 </r>
       <r>    -2.9741    89.6959   333.6247 </r>
       <r>    -2.9201    85.9883   338.2679 </r>
       <r>    -2.8661    87.0594   342.9690 </r>
       <r>    -2.8121    91.5692   347.9136 </r>
       <r>    -2.7581    94.7343   353.0292 </r>
       <r>    -2.7041    94.1354   358.1124 </r>
       <r>    -2.6501    90.8760   363.0196 </r>
       <r>    -2.5961    87.5500   367.7472 </r>
       <r>    -2.5421    87.0011   372.4451 </r>
       <r>    -2.4881    89.4593   377.2758 </r>
       <r>    -2.4341    91.7463   382.2300 </r>
       <r>    -2.3801    91.3276   387.1616 </r>
       <r>    -2.3261    89.2684   391.9819 </r>
       <r>    -2.2721    88.2119   396.7453 </r>
       <r>    -2.2181    88.6148   401.5303 </r>
       <r>    -2.1641    88.6704   406.3184 </r>
       <r>    -2.1101    88.3768   411.0907 </r>
       <r>    -2.0561    89.8033   415.9399 </r>
       <r>    -2.0021    93.1065   420.9676 </r>
       <r>    -1.9481    96.2236   426.1635 </r>
       <r>    -1.8941    98.2190   431.4672 </r>
       <r>    -1.8401    99.4144   436.8355 </r>
       <r>    -1.7861    99.5274   442.2098 </r>
       <r>    -1.7321    98.3983   447.5232 </r>
       <r>    -1.6781    97.0337   452.7629 </r>
       <r>    -1.6241    97.1622   458.0096 </r>
       <r>    -1.5701    98.0189   463.3025 </r>
       <r>    -1.5161    97.1515   468.5485 </r>
       <r>    -1.4621    94.7813   473.6666 </r>
       <r>    -1.4081    92.9074   478.6835 </r>
       <r>    -1.3541    91.9594   483.6492 </r>
       <r>    -1.3001    90.8677   488.5559 </r>
       <r>    -1.2461    87.7353   493.2935 </r>
       <r>    -1.1921    80.3022   497.6297 </r>
       <r>    -1.1381    68.7288   501.3410 </r>
       <r>    -1.0841    55.4633   504.3359 </r>
       <r>    -1.0301    42.2632   506.6181 </r>
       <r>    -0.9761    29.2374   508.1969 </r>
       <r>    -0.9222    17.5959   509.1470 </r>
       <r>    -0.8682    10.6793   509.7237 </r>
       <r>    -0.8142     8.8439   510.2013 </r>
       <r>    -0.7602     8.8461   510.6789 </r>
       <r>    -0.7062     9.4154   511.1873 </r>
       <r>    -0.6522    12.1672   511.8444 </r>
       <r>    -0.5982    16.8612   512.7548 </r>
       <r>    -0.5442    21.3424   513.9073 </r>
       <r>    -0.4902    23.9218   515.1991 </r>
       <r>    -0.4362    22.7105   516.4254 </r>
       <r>    -0.3822    18.1707   517.4066 </r>
       <r>    -0.3282    14.6705   518.1988 </r>
       <r>    -0.2742    15.6985   519.0465 </r>
       <r>    -0.2202    19.1533   520.0807 </r>
       <r>    -0.1662    19.8832   521.1544 </r>
       <r>    -0.1122    17.0465   522.0749 </r>
       <r>    -0.0582    13.7509   522.8174 </r>
       <r>    -0.0042    11.8302   523.4562 </r>
       <r>     0.0498    11.8733   524.0974 </r>
       <r>     0.1038    13.5114   524.8270 </r>
       <r>     0.1578    14.7744   525.6248 </r>
       <r>     0.2118    14.2329   526.3933 </r>
       <r>     0.2658    12.8896   527.0894 </r>
       <r>     0.3198    13.5306   527.8200 </r>
       <r>     0.3738    17.7486   528.7784 </r>
       <r>     0.4278    22.6158   529.9996 </r>
       <r>     0.4818    23.8220   531.2860 </r>
       <r>     0.5358    22.5565   532.5040 </r>
       <r>     0.5898    22.2884   533.7075 </r>
       <r>     0.6438    22.9852   534.9487 </r>
       <r>     0.6978    23.0316   536.1924 </r>
       <r>     0.7518    21.3116   537.3432 </r>
       <r>     0.8058    17.4393   538.2849 </r>
       <r>     0.8598    13.1132   538.9930 </r>
       <r>     0.9138    11.1705   539.5962 </r>
       <r>     0.9678    11.6225   540.2238 </r>
       <r>     1.0218    12.4586   540.8965 </r>
       <r>     1.0758    12.9408   541.5953 </r>
       <r>     1.1298    12.5432   542.2726 </r>
       <r>     1.1838    10.8161   542.8567 </r>
       <r>     1.2378     8.1738   543.2981 </r>
       <r>     1.2918     5.2804   543.5832 </r>
       <r>     1.3458     3.5534   543.7751 </r>
       <r>     1.3998     4.0530   543.9939 </r>
       <r>     1.4538     7.0472   544.3745 </r>
       <r>     1.5078    12.4074   545.0445 </r>
       <r>     1.5618    17.6829   545.9993 </r>
       <r>     1.6158    18.9872   547.0246 </r>
       <r>     1.6698    16.0309   547.8902 </r>
       <r>     1.7238    13.3846   548.6130 </r>
       <r>     1.7778    14.3140   549.3859 </r>
       <r>     1.8318    16.7374   550.2897 </r>
       <r>     1.8858    17.2967   551.2237 </r>
       <r>     1.9398    15.1759   552.0432 </r>
       <r>     1.9938    11.9429   552.6881 </r>
       <r>     2.0478    10.8803   553.2756 </r>
       <r>     2.1018    13.9820   554.0306 </r>
       <r>     2.1558    19.0081   555.0571 </r>
       <r>     2.2098    22.5129   556.2727 </r>
       <r>     2.2638    23.3742   557.5349 </r>
       <r>     2.3178    22.3562   558.7421 </r>
       <r>     2.3718    20.2401   559.8350 </r>
       <r>     2.4258    17.0561   560.7561 </r>
       <r>     2.4798    15.0317   561.5677 </r>
       <r>     2.5338    17.4088   562.5078 </r>
       <r>     2.5878    22.1104   563.7017 </r>
       <r>     2.6418    24.2185   565.0095 </r>
       <r>     2.6958    22.7689   566.2390 </r>
       <r>     2.7498    18.9508   567.2623 </r>
       <r>     2.8038    14.1770   568.0278 </r>
       <r>     2.8578    10.5863   568.5995 </r>
       <r>     2.9118     8.8410   569.0769 </r>
       <r>     2.9658     7.7735   569.4967 </r>
       <r>     3.0198     6.0601   569.8239 </r>
       <r>     3.0738     4.6278   570.0738 </r>
       <r>     3.1278     5.2761   570.3587 </r>
       <r>     3.1818     7.0921   570.7417 </r>
       <r>     3.2358     9.0264   571.2291 </r>
       <r>     3.2898    11.5051   571.8503 </r>
       <r>     3.3437    12.7480   572.5387 </r>
       <r>     3.3977    12.1483   573.1947 </r>
       <r>     3.4517    13.0233   573.8979 </r>
       <r>     3.5057    16.3799   574.7824 </r>
       <r>     3.5597    19.3646   575.8281 </r>
       <r>     3.6137    19.9957   576.9078 </r>
       <r>     3.6677    19.2345   577.9465 </r>
       <r>     3.7217    17.8421   578.9099 </r>
       <r>     3.7757    15.3052   579.7364 </r>
       <r>     3.8297    12.2737   580.3992 </r>
       <r>     3.8837    10.2617   580.9533 </r>
       <r>     3.9377     9.9897   581.4927 </r>
       <r>     3.9917    11.4757   582.1124 </r>
       <r>     4.0457    13.2846   582.8297 </r>
       <r>     4.0997    13.9444   583.5827 </r>
       <r>     4.1537    13.8239   584.3292 </r>
       <r>     4.2077    12.7785   585.0192 </r>
       <r>     4.2617    10.0841   585.5637 </r>
       <r>     4.3157     7.2745   585.9565 </r>
       <r>     4.3697     7.6341   586.3688 </r>
       <r>     4.4237    11.4603   586.9876 </r>
       <r>     4.4777    15.1258   587.8044 </r>
       <r>     4.5317    17.7177   588.7611 </r>
       <r>     4.5857    21.7712   589.9367 </r>
       <r>     4.6397    26.5696   591.3715 </r>
       <r>     4.6937    28.9558   592.9350 </r>
       <r>     4.7477    28.0026   594.4472 </r>
       <r>     4.8017    25.6833   595.8340 </r>
       <r>     4.8557    25.2964   597.2000 </r>
       <r>     4.9097    27.2325   598.6705 </r>
       <r>     4.9637    30.0994   600.2958 </r>
       <r>     5.0177    34.2466   602.1451 </r>
       <r>     5.0717    37.9939   604.1967 </r>
       <r>     5.1257    37.2798   606.2098 </r>
       <r>     5.1797    32.6839   607.9747 </r>
       <r>     5.2337    27.6203   609.4661 </r>
       <r>     5.2877    22.0342   610.6560 </r>
       <r>     5.3417    14.7190   611.4508 </r>
       <r>     5.3957     7.2426   611.8419 </r>
       <r>     5.4497     2.3767   611.9702 </r>
       <r>     5.5037     0.4872   611.9965 </r>
       <r>     5.5577     0.0600   611.9998 </r>
       <r>     5.6117     0.0043   612.0000 </r>
       <r>     5.6657     0.0002   612.0000 </r>
       <r>     5.7197     0.0000   612.0000 </r>
       <r>     5.7737     0.0000   612.0000 </r>
       <r>     5.8277     0.0000   612.0000 </r>
       <r>     5.8817     0.0000   612.0000 </r>
       <r>     5.9357     0.0000   612.0000 </r>
       <r>     5.9897     0.0000   612.0000 </r>
       <r>     6.0437     0.0000   612.0000 </r>
       <r>     6.0977     0.0000   612.0000 </r>
       <r>     6.1517     0.0000   612.0000 </r>
       <r>     6.2057     0.0000   612.0000 </r>
       <r>     6.2597     0.0000   612.0000 </r>
       <r>     6.3137     0.0000   612.0000 </r>
      </set>
     </set>
    </array>
   </total>
  </dos>
 </calculation>
 <structure name="finalpos" >
  <crystal>
   <varray name="basis" >
    <v>      11.00258152       0.00000000       0.00000000 </v>
    <v>       5.50129076       9.52851510       0.00000000 </v>
    <v>       0.00000000       0.00000000      24.49178509 </v>
   </varray>
   <i name="volume">   2567.67623402 </i>
   <varray name="rec_basis" >
    <v>       0.09088776      -0.05247407       0.00000000 </v>
    <v>       0.00000000       0.10494815       0.00000000 </v>
    <v>       0.00000000       0.00000000       0.04083002 </v>
   </varray>
  </crystal>
  <varray name="positions" >
   <v>       0.08434818       0.08210934       0.39775800 </v>
   <v>       0.41802977       0.91804527       0.50122475 </v>
   <v>       0.66273168       0.16727924       0.50157545 </v>
   <v>       0.74739700      -0.00016888       0.60646591 </v>
   <v>       0.16701210       0.91783387       0.50149396 </v>
   <v>       0.33492004       0.83471387       0.39251656 </v>
   <v>       0.83262262       0.33216042       0.39417733 </v>
   <v>       0.16743135       0.66407654       0.49929335 </v>
   <v>       0.33378938       0.58146102       0.39356031 </v>
   <v>       0.25337259       0.25045994       0.60262622 </v>
   <v>       0.66650889       0.41801860       0.49898578 </v>
   <v>       0.58397235       0.58409652       0.39268348 </v>
   <v>       0.25351839      -0.00340282       0.60650092 </v>
   <v>       0.33608713       0.33053635       0.40015371 </v>
   <v>       0.83272931       0.58678154       0.39683230 </v>
   <v>       0.91681196       0.16828005       0.50106850 </v>
   <v>      -0.00037725      -0.00162149       0.60940982 </v>
   <v>       0.08464512       0.33304210       0.40137592 </v>
   <v>      -0.00210729       0.25131378       0.60309295 </v>
   <v>       0.41805620       0.66572944       0.49879424 </v>
   <v>      -0.00131241       0.50275279       0.60186515 </v>
   <v>       0.07981815       0.83312227       0.39218456 </v>
   <v>       0.91516296       0.91660166       0.50164932 </v>
   <v>       0.91484448       0.66493884       0.50036827 </v>
   <v>       0.74778932       0.50158588       0.59537181 </v>
   <v>       0.74776232       0.25184810       0.59899958 </v>
   <v>       0.83217579       0.08266074       0.40382593 </v>
   <v>       0.50202646       0.74815897       0.59674089 </v>
   <v>       0.66744461       0.66666059       0.49836827 </v>
   <v>       0.58325548       0.83588009       0.40361256 </v>
   <v>       0.50013148       0.49983572       0.59628552 </v>
   <v>       0.83127050       0.83524740       0.40392616 </v>
   <v>       0.25131069       0.74782035       0.59757516 </v>
   <v>       0.41467079       0.41666364       0.49874308 </v>
   <v>       0.58478890       0.33129101       0.40207620 </v>
   <v>       0.50147867      -0.00097764       0.59862333 </v>
   <v>       0.41460440       0.16880222       0.50184250 </v>
   <v>       0.58556441       0.08144275       0.40497241 </v>
   <v>       0.66489012       0.91722022       0.50173660 </v>
   <v>       0.25202671       0.50097816       0.59629404 </v>
   <v>       0.16786633       0.41353483       0.50109385 </v>
   <v>       0.16685657       0.16793351       0.50248772 </v>
   <v>       0.33541563       0.08241898       0.40567978 </v>
   <v>       0.00086302       0.74983186       0.59881278 </v>
   <v>       0.08311419       0.58411834       0.40252897 </v>
   <v>       0.91734821       0.41631810       0.49978217 </v>
   <v>       0.49947108       0.25230267       0.59776774 </v>
   <v>       0.74786160       0.75026325       0.59719617 </v>
  </varray>
 </structure>
</modeling>
