       N       E                     dE             d eps       ncg     rms          rms(c)
DAV:   1     0.363122168795E+04    0.36312E+04   -0.21014E+05  4068   0.112E+03
DAV:   2     0.526544514411E+02   -0.35786E+04   -0.33231E+04  4836   0.271E+02
DAV:   3    -0.251448212183E+03   -0.30410E+03   -0.28186E+03  4572   0.755E+01
DAV:   4    -0.262621446625E+03   -0.11173E+02   -0.10970E+02  4524   0.152E+01
DAV:   5    -0.262929075007E+03   -0.30763E+00   -0.30680E+00  4692   0.247E+00    0.670E+01
RMM:   6    -0.248888116463E+03    0.14041E+02   -0.19018E+02  4035   0.205E+01    0.629E+01
RMM:   7    -0.243373157621E+03    0.55150E+01   -0.54973E+01  4032   0.111E+01    0.521E+01
RMM:   8    -0.273958618985E+03   -0.30585E+02   -0.51031E+01  4032   0.999E+00    0.490E+01
RMM:   9    -0.267287214409E+03    0.66714E+01   -0.64494E+01  4032   0.115E+01    0.606E+01
RMM:  10    -0.246057219788E+03    0.21230E+02   -0.35396E+01  4032   0.910E+00    0.359E+01
RMM:  11    -0.232573540463E+03    0.13484E+02   -0.17335E+01  4038   0.638E+00    0.171E+01
RMM:  12    -0.229928658570E+03    0.26449E+01   -0.71436E+00  4036   0.394E+00    0.141E+01
RMM:  13    -0.229205153441E+03    0.72351E+00   -0.20338E+00  4036   0.218E+00    0.111E+01
RMM:  14    -0.228711160957E+03    0.49399E+00   -0.73239E-01  4037   0.132E+00    0.782E+00
RMM:  15    -0.228422805002E+03    0.28836E+00   -0.31505E-01  4036   0.786E-01    0.554E+00
RMM:  16    -0.228398368937E+03    0.24436E-01   -0.18074E-01  4038   0.634E-01    0.509E+00
RMM:  17    -0.228262344102E+03    0.13602E+00   -0.12988E-01  4034   0.535E-01    0.375E+00
RMM:  18    -0.228175741754E+03    0.86602E-01   -0.85384E-02  4036   0.427E-01    0.224E+00
RMM:  19    -0.228150340943E+03    0.25401E-01   -0.37602E-02  4037   0.287E-01    0.154E+00
RMM:  20    -0.228136313669E+03    0.14027E-01   -0.13510E-02  4035   0.173E-01    0.881E-01
RMM:  21    -0.228135145641E+03    0.11680E-02   -0.66279E-03  4036   0.122E-01    0.715E-01
RMM:  22    -0.228133305274E+03    0.18404E-02   -0.31488E-03  4037   0.820E-02    0.487E-01
RMM:  23    -0.228132401012E+03    0.90426E-03   -0.29072E-03  4034   0.791E-02    0.395E-01
RMM:  24    -0.228132054094E+03    0.34692E-03   -0.10914E-03  4033   0.482E-02    0.236E-01
RMM:  25    -0.228132164115E+03   -0.11002E-03   -0.52455E-04  4036   0.338E-02    0.138E-01
RMM:  26    -0.228132407584E+03   -0.24347E-03   -0.27395E-04  4035   0.243E-02    0.781E-02
RMM:  27    -0.228132654654E+03   -0.24707E-03   -0.10109E-04  4029   0.143E-02    0.520E-02
RMM:  28    -0.228132927519E+03   -0.27286E-03   -0.50408E-05  4028   0.102E-02    0.319E-02
RMM:  29    -0.228133179634E+03   -0.25211E-03   -0.25860E-05  4014   0.701E-03    0.290E-02
RMM:  30    -0.228133495307E+03   -0.31567E-03   -0.24966E-05  4026   0.642E-03    0.205E-02
RMM:  31    -0.228133816732E+03   -0.32142E-03   -0.22614E-05  4020   0.580E-03    0.176E-02
RMM:  32    -0.228134110049E+03   -0.29332E-03   -0.25374E-05  4008   0.599E-03    0.179E-02
RMM:  33    -0.228134309559E+03   -0.19951E-03   -0.19439E-05  3941   0.496E-03    0.959E-03
RMM:  34    -0.228134387715E+03   -0.78156E-04   -0.86374E-06  3180   0.328E-03    0.880E-03
RMM:  35    -0.228134436241E+03   -0.48526E-04   -0.30882E-06  2723   0.212E-03    0.671E-03
RMM:  36    -0.228134477589E+03   -0.41348E-04   -0.11321E-06  2413   0.154E-03    0.617E-03
RMM:  37    -0.228134525059E+03   -0.47470E-04   -0.98740E-07  2382   0.159E-03    0.459E-03
RMM:  38    -0.228134560681E+03   -0.35622E-04   -0.72043E-07  2361   0.132E-03    0.394E-03
RMM:  39    -0.228134588424E+03   -0.27744E-04   -0.63230E-07  2368   0.114E-03    0.255E-03
RMM:  40    -0.228134603166E+03   -0.14742E-04   -0.38292E-07  2306   0.827E-04    0.195E-03
RMM:  41    -0.228134613147E+03   -0.99808E-05   -0.30374E-07  2264   0.708E-04    0.107E-03
RMM:  42    -0.228134616682E+03   -0.35353E-05   -0.11128E-07  1232   0.441E-04    0.602E-04
RMM:  43    -0.228134619292E+03   -0.26096E-05   -0.73895E-08  1379   0.452E-04    0.330E-04
RMM:  44    -0.228134620511E+03   -0.12192E-05   -0.36878E-08  1216   0.383E-04    0.256E-04
RMM:  45    -0.228134621225E+03   -0.71373E-06   -0.20229E-08   876   0.305E-04
   1 F= -.22813462E+03 E0= -.22800496E+03  d E =-.228135E+03
       N       E                     dE             d eps       ncg     rms          rms(c)
DAV:   1    -0.228156748266E+03   -0.22128E-01   -0.10119E+01  4176   0.521E+00    0.761E-01
RMM:   2    -0.228220595461E+03   -0.63847E-01   -0.24445E-01  4038   0.853E-01    0.300E+00
RMM:   3    -0.228176901266E+03    0.43694E-01   -0.16646E-02  4039   0.205E-01    0.954E-01
RMM:   4    -0.228185217365E+03   -0.83161E-02   -0.68221E-03  4038   0.122E-01    0.137E+00
RMM:   5    -0.228175532993E+03    0.96844E-02   -0.49698E-03  4038   0.102E-01    0.829E-01
RMM:   6    -0.228174517744E+03    0.10152E-02   -0.39800E-03  4038   0.952E-02    0.603E-01
RMM:   7    -0.228172660332E+03    0.18574E-02   -0.23252E-03  4038   0.748E-02    0.218E-01
RMM:   8    -0.228172512938E+03    0.14739E-03   -0.51444E-04  4038   0.347E-02    0.119E-01
RMM:   9    -0.228172454106E+03    0.58832E-04   -0.83735E-05  4038   0.146E-02    0.691E-02
RMM:  10    -0.228172457311E+03   -0.32045E-05   -0.58465E-05  4035   0.114E-02    0.662E-02
RMM:  11    -0.228172438505E+03    0.18805E-04   -0.61067E-05  4036   0.115E-02    0.389E-02
RMM:  12    -0.228172433645E+03    0.48603E-05   -0.19693E-05  4032   0.672E-03    0.182E-02
RMM:  13    -0.228172434651E+03   -0.10060E-05   -0.35051E-06  2739   0.304E-03    0.117E-02
RMM:  14    -0.228172435904E+03   -0.12529E-05   -0.13969E-06  2307   0.188E-03    0.659E-03
RMM:  15    -0.228172436790E+03   -0.88577E-06   -0.51716E-07  2191   0.122E-03
   2 F= -.22817244E+03 E0= -.22804330E+03  d E =-.378156E-01
       N       E                     dE             d eps       ncg     rms          rms(c)
DAV:   1    -0.228168052109E+03    0.43838E-02   -0.11820E+01  4152   0.563E+00    0.825E-01
RMM:   2    -0.228242064718E+03   -0.74013E-01   -0.28573E-01  4038   0.921E-01    0.327E+00
RMM:   3    -0.228191841966E+03    0.50223E-01   -0.18533E-02  4039   0.216E-01    0.107E+00
RMM:   4    -0.228203807096E+03   -0.11965E-01   -0.84554E-03  4038   0.135E-01    0.161E+00
RMM:   5    -0.228190267743E+03    0.13539E-01   -0.61540E-03  4038   0.113E-01    0.941E-01
RMM:   6    -0.228188857814E+03    0.14099E-02   -0.45952E-03  4038   0.102E-01    0.680E-01
RMM:   7    -0.228186628613E+03    0.22292E-02   -0.27148E-03  4038   0.806E-02    0.252E-01
RMM:   8    -0.228186410431E+03    0.21818E-03   -0.61956E-04  4038   0.380E-02    0.139E-01
RMM:   9    -0.228186347987E+03    0.62444E-04   -0.10058E-04  4038   0.159E-02    0.894E-02
RMM:  10    -0.228186351805E+03   -0.38173E-05   -0.70379E-05  4036   0.126E-02    0.804E-02
RMM:  11    -0.228186329315E+03    0.22490E-04   -0.77767E-05  4038   0.129E-02    0.463E-02
RMM:  12    -0.228186324717E+03    0.45979E-05   -0.25318E-05  4032   0.761E-03    0.206E-02
RMM:  13    -0.228186327191E+03   -0.24744E-05   -0.46873E-06  3101   0.348E-03    0.131E-02
RMM:  14    -0.228186329566E+03   -0.23745E-05   -0.17748E-06  2369   0.210E-03    0.728E-03
RMM:  15    -0.228186331187E+03   -0.16211E-05   -0.67256E-07  2214   0.139E-03    0.371E-03
RMM:  16    -0.228186333976E+03   -0.27890E-05   -0.37067E-07  2222   0.990E-04    0.309E-03
RMM:  17    -0.228186336048E+03   -0.20717E-05   -0.17267E-07  2193   0.663E-04    0.182E-03
RMM:  18    -0.228186337360E+03   -0.13119E-05   -0.30270E-08   863   0.390E-04    0.892E-04
RMM:  19    -0.228186338719E+03   -0.13591E-05   -0.30283E-08   915   0.403E-04    0.616E-04
RMM:  20    -0.228186340091E+03   -0.13728E-05   -0.71840E-08  1350   0.435E-04    0.494E-04
RMM:  21    -0.228186341541E+03   -0.14492E-05   -0.60246E-08  1158   0.394E-04    0.351E-04
RMM:  22    -0.228186342322E+03   -0.78110E-06   -0.37847E-08   823   0.333E-04
   3 F= -.22818634E+03 E0= -.22805774E+03  d E =-.517211E-01
       N       E                     dE             d eps       ncg     rms          rms(c)
DAV:   1    -0.228195867287E+03   -0.95257E-02   -0.13581E+01  4032   0.595E+00    0.698E-01
RMM:   2    -0.228234552047E+03   -0.38685E-01   -0.26534E-01  4038   0.928E-01    0.170E+00
RMM:   3    -0.228220427567E+03    0.14124E-01   -0.15825E-02  4042   0.201E-01    0.783E-01
RMM:   4    -0.228222695365E+03   -0.22678E-02   -0.66379E-03  4038   0.121E-01    0.963E-01
RMM:   5    -0.228217537580E+03    0.51578E-02   -0.44081E-03  4038   0.974E-02    0.620E-01
RMM:   6    -0.228217232125E+03    0.30545E-03   -0.36962E-03  4038   0.919E-02    0.489E-01
RMM:   7    -0.228216068659E+03    0.11635E-02   -0.23917E-03  4038   0.740E-02    0.286E-01
RMM:   8    -0.228215553619E+03    0.51504E-03   -0.68853E-04  4038   0.415E-02    0.107E-01
RMM:   9    -0.228215499798E+03    0.53822E-04   -0.10045E-04  4038   0.153E-02    0.605E-02
RMM:  10    -0.228215479125E+03    0.20673E-04   -0.41798E-05  4038   0.961E-03    0.463E-02
RMM:  11    -0.228215470742E+03    0.83829E-05   -0.53903E-05  4035   0.104E-02    0.361E-02
RMM:  12    -0.228215464099E+03    0.66424E-05   -0.28721E-05  4029   0.796E-03    0.162E-02
RMM:  13    -0.228215464031E+03    0.68205E-07   -0.50202E-06  3281   0.357E-03
   4 F= -.22821546E+03 E0= -.22808701E+03  d E =-.291217E-01
       N       E                     dE             d eps       ncg     rms          rms(c)
DAV:   1    -0.228183290560E+03    0.32174E-01   -0.34038E+01  4032   0.942E+00    0.111E+00
RMM:   2    -0.228279609774E+03   -0.96319E-01   -0.66591E-01  4038   0.147E+00    0.272E+00
RMM:   3    -0.228244161719E+03    0.35448E-01   -0.38200E-02  4042   0.313E-01    0.120E+00
RMM:   4    -0.228253243075E+03   -0.90814E-02   -0.17166E-02  4038   0.194E-01    0.164E+00
RMM:   5    -0.228237772962E+03    0.15470E-01   -0.11418E-02  4038   0.157E-01    0.100E+00
RMM:   6    -0.228237030497E+03    0.74246E-03   -0.94502E-03  4038   0.147E-01    0.787E-01
RMM:   7    -0.228233852707E+03    0.31778E-02   -0.60012E-03  4038   0.117E-01    0.458E-01
RMM:   8    -0.228232543086E+03    0.13096E-02   -0.16880E-03  4038   0.650E-02    0.168E-01
RMM:   9    -0.228232411616E+03    0.13147E-03   -0.24109E-04  4038   0.237E-02    0.100E-01
RMM:  10    -0.228232356546E+03    0.55070E-04   -0.11344E-04  4038   0.158E-02    0.757E-02
RMM:  11    -0.228232337084E+03    0.19462E-04   -0.14458E-04  4037   0.171E-02    0.587E-02
RMM:  12    -0.228232320542E+03    0.16542E-04   -0.68611E-05  4037   0.124E-02    0.261E-02
RMM:  13    -0.228232320859E+03   -0.31722E-06   -0.13522E-05  4025   0.573E-03    0.167E-02
RMM:  14    -0.228232321245E+03   -0.38643E-06   -0.33773E-06  2780   0.294E-03
   5 F= -.22823232E+03 E0= -.22810390E+03  d E =-.459789E-01
       N       E                     dE             d eps       ncg     rms          rms(c)
DAV:   1    -0.228238742988E+03   -0.64221E-02   -0.14970E+01  4032   0.617E+00    0.598E-01
RMM:   2    -0.228268717847E+03   -0.29975E-01   -0.25529E-01  4038   0.938E-01    0.103E+00
RMM:   3    -0.228265178066E+03    0.35398E-02   -0.15141E-02  4042   0.198E-01    0.771E-01
RMM:   4    -0.228262956227E+03    0.22218E-02   -0.53967E-03  4038   0.112E-01    0.668E-01
RMM:   5    -0.228260395889E+03    0.25603E-02   -0.27756E-03  4038   0.812E-02    0.419E-01
RMM:   6    -0.228260565111E+03   -0.16922E-03   -0.26130E-03  4038   0.777E-02    0.393E-01
RMM:   7    -0.228259360971E+03    0.12041E-02   -0.17973E-03  4038   0.644E-02    0.129E-01
RMM:   8    -0.228259312196E+03    0.48774E-04   -0.29433E-04  4038   0.268E-02    0.769E-02
RMM:   9    -0.228259262966E+03    0.49230E-04   -0.58259E-05  4038   0.121E-02    0.479E-02
RMM:  10    -0.228259253902E+03    0.90638E-05   -0.46728E-05  4026   0.977E-03    0.394E-02
RMM:  11    -0.228259246154E+03    0.77482E-05   -0.43045E-05  4038   0.937E-03    0.241E-02
RMM:  12    -0.228259247454E+03   -0.13003E-05   -0.11750E-05  4017   0.520E-03    0.191E-02
RMM:  13    -0.228259246204E+03    0.12508E-05   -0.30742E-06  2607   0.282E-03    0.990E-03
RMM:  14    -0.228259246103E+03    0.10070E-06   -0.96730E-07  2196   0.166E-03
   6 F= -.22825925E+03 E0= -.22813047E+03  d E =-.269249E-01
       N       E                     dE             d eps       ncg     rms          rms(c)
DAV:   1    -0.228151705646E+03    0.10754E+00   -0.10900E+02  4032   0.166E+01    0.161E+00
RMM:   2    -0.228363231370E+03   -0.21153E+00   -0.18504E+00  4038   0.252E+00    0.258E+00
RMM:   3    -0.228350097338E+03    0.13134E-01   -0.11067E-01  4042   0.534E-01    0.221E+00
RMM:   4    -0.228330789107E+03    0.19308E-01   -0.40611E-02  4038   0.304E-01    0.185E+00
RMM:   5    -0.228309561140E+03    0.21228E-01   -0.18968E-02  4038   0.212E-01    0.111E+00
RMM:   6    -0.228310352282E+03   -0.79114E-03   -0.17798E-02  4038   0.201E-01    0.105E+00
RMM:   7    -0.228302095872E+03    0.82564E-02   -0.12779E-02  4038   0.172E-01    0.380E-01
RMM:   8    -0.228301520256E+03    0.57562E-03   -0.22720E-03  4038   0.743E-02    0.222E-01
RMM:   9    -0.228301174693E+03    0.34556E-03   -0.49413E-04  4038   0.352E-02    0.155E-01
RMM:  10    -0.228301043203E+03    0.13149E-03   -0.28677E-04  4038   0.246E-02    0.115E-01
RMM:  11    -0.228300988827E+03    0.54376E-04   -0.32449E-04  4038   0.256E-02    0.800E-02
RMM:  12    -0.228300976514E+03    0.12313E-04   -0.11836E-04  4038   0.158E-02    0.528E-02
RMM:  13    -0.228300968007E+03    0.85071E-05   -0.29149E-05  4026   0.845E-03    0.241E-02
RMM:  14    -0.228300965912E+03    0.20945E-05   -0.80418E-06  3985   0.444E-03    0.796E-03
RMM:  15    -0.228300968890E+03   -0.29780E-05   -0.15907E-06  2292   0.207E-03    0.547E-03
RMM:  16    -0.228300974084E+03   -0.51942E-05   -0.92056E-07  2265   0.155E-03    0.371E-03
RMM:  17    -0.228300977229E+03   -0.31443E-05   -0.35484E-07  2225   0.983E-04    0.246E-03
RMM:  18    -0.228300979745E+03   -0.25160E-05   -0.11282E-07  1655   0.541E-04    0.169E-03
RMM:  19    -0.228300981775E+03   -0.20301E-05   -0.42690E-08  1042   0.410E-04    0.109E-03
RMM:  20    -0.228300984386E+03   -0.26110E-05   -0.12452E-07  1764   0.489E-04    0.964E-04
RMM:  21    -0.228300987040E+03   -0.26541E-05   -0.70142E-08  1096   0.407E-04    0.588E-04
RMM:  22    -0.228300988781E+03   -0.17410E-05   -0.72240E-08  1088   0.397E-04    0.511E-04
RMM:  23    -0.228300990497E+03   -0.17164E-05   -0.10959E-07  1271   0.422E-04    0.401E-04
RMM:  24    -0.228300991452E+03   -0.95491E-06   -0.50620E-08   960   0.372E-04
   7 F= -.22830099E+03 E0= -.22817125E+03  d E =-.686702E-01
       N       E                     dE             d eps       ncg     rms          rms(c)
DAV:   1    -0.228277232208E+03    0.23758E-01   -0.20319E+01  4032   0.718E+00    0.694E-01
RMM:   2    -0.228319830867E+03   -0.42599E-01   -0.34726E-01  4038   0.109E+00    0.130E+00
RMM:   3    -0.228311833126E+03    0.79977E-02   -0.20569E-02  4042   0.230E-01    0.807E-01
RMM:   4    -0.228310783242E+03    0.10499E-02   -0.74602E-03  4038   0.132E-01    0.826E-01
RMM:   5    -0.228306586894E+03    0.41963E-02   -0.37330E-03  4038   0.939E-02    0.505E-01
RMM:   6    -0.228306759628E+03   -0.17273E-03   -0.34920E-03  4038   0.895E-02    0.462E-01
RMM:   7    -0.228305116279E+03    0.16433E-02   -0.24457E-03  4038   0.748E-02    0.146E-01
RMM:   8    -0.228305047663E+03    0.68616E-04   -0.40160E-04  4038   0.313E-02    0.871E-02
RMM:   9    -0.228304986647E+03    0.61017E-04   -0.80901E-05  4038   0.143E-02    0.565E-02
RMM:  10    -0.228304972046E+03    0.14601E-04   -0.66487E-05  4032   0.118E-02    0.451E-02
RMM:  11    -0.228304963423E+03    0.86228E-05   -0.61067E-05  4038   0.111E-02    0.300E-02
RMM:  12    -0.228304963067E+03    0.35606E-06   -0.15395E-05  4032   0.581E-03    0.201E-02
RMM:  13    -0.228304961917E+03    0.11497E-05   -0.35258E-06  2758   0.301E-03    0.119E-02
RMM:  14    -0.228304961602E+03    0.31538E-06   -0.12792E-06  2224   0.191E-03
   8 F= -.22830496E+03 E0= -.22817484E+03  d E =-.726404E-01
       N       E                     dE             d eps       ncg     rms          rms(c)
DAV:   1    -0.228308691773E+03   -0.37299E-02   -0.17257E+01  4032   0.661E+00    0.644E-01
RMM:   2    -0.228338760405E+03   -0.30069E-01   -0.29648E-01  4038   0.101E+00    0.875E-01
RMM:   3    -0.228335374073E+03    0.33863E-02   -0.16510E-02  4038   0.216E-01    0.612E-01
RMM:   4    -0.228339555243E+03   -0.41812E-02   -0.50332E-03  4041   0.106E-01    0.943E-01
RMM:   5    -0.228334187423E+03    0.53678E-02   -0.36910E-03  4038   0.868E-02    0.525E-01
RMM:   6    -0.228332999052E+03    0.11884E-02   -0.29447E-03  4038   0.803E-02    0.374E-01
RMM:   7    -0.228332537608E+03    0.46144E-03   -0.23850E-03  4038   0.741E-02    0.259E-01
RMM:   8    -0.228332148758E+03    0.38885E-03   -0.57026E-04  4038   0.367E-02    0.114E-01
RMM:   9    -0.228332085096E+03    0.63662E-04   -0.10891E-04  4038   0.159E-02    0.664E-02
RMM:  10    -0.228332059065E+03    0.26031E-04   -0.47943E-05  4034   0.105E-02    0.449E-02
RMM:  11    -0.228332054987E+03    0.40779E-05   -0.46763E-05  4036   0.100E-02    0.359E-02
RMM:  12    -0.228332049199E+03    0.57889E-05   -0.30373E-05  4027   0.812E-03    0.189E-02
RMM:  13    -0.228332050017E+03   -0.81837E-06   -0.61741E-06  3464   0.387E-03
   9 F= -.22833205E+03 E0= -.22820173E+03  d E =-.270884E-01
       N       E                     dE             d eps       ncg     rms          rms(c)
DAV:   1    -0.228162203314E+03    0.16985E+00   -0.15608E+02  4032   0.199E+01    0.195E+00
RMM:   2    -0.228436465132E+03   -0.27426E+00   -0.26926E+00  4038   0.305E+00    0.262E+00
RMM:   3    -0.228396704917E+03    0.39760E-01   -0.14874E-01  4038   0.650E-01    0.151E+00
RMM:   4    -0.228395598981E+03    0.11059E-02   -0.33347E-02  4040   0.290E-01    0.171E+00
RMM:   5    -0.228416229013E+03   -0.20630E-01   -0.30912E-02  4038   0.250E-01    0.228E+00
RMM:   6    -0.228389002775E+03    0.27226E-01   -0.25140E-02  4038   0.224E-01    0.142E+00
RMM:   7    -0.228378280270E+03    0.10723E-01   -0.21713E-02  4038   0.222E-01    0.791E-01
RMM:   8    -0.228374484570E+03    0.37957E-02   -0.50147E-03  4038   0.108E-01    0.354E-01
RMM:   9    -0.228373816180E+03    0.66839E-03   -0.10220E-03  4038   0.480E-02    0.226E-01
RMM:  10    -0.228373493444E+03    0.32274E-03   -0.48562E-04  4038   0.329E-02    0.137E-01
RMM:  11    -0.228373442671E+03    0.50773E-04   -0.43040E-04  4038   0.304E-02    0.103E-01
RMM:  12    -0.228373392358E+03    0.50313E-04   -0.24635E-04  4038   0.233E-02    0.589E-02
RMM:  13    -0.228373384521E+03    0.78366E-05   -0.51619E-05  4029   0.113E-02    0.315E-02
RMM:  14    -0.228373381497E+03    0.30243E-05   -0.11280E-05  4013   0.531E-03    0.131E-02
RMM:  15    -0.228373385113E+03   -0.36164E-05   -0.26344E-06  2487   0.264E-03    0.948E-03
RMM:  16    -0.228373393187E+03   -0.80733E-05   -0.17610E-06  2303   0.210E-03    0.748E-03
RMM:  17    -0.228373398662E+03   -0.54754E-05   -0.81480E-07  2251   0.151E-03    0.358E-03
RMM:  18    -0.228373403280E+03   -0.46179E-05   -0.28042E-07  2225   0.832E-04    0.239E-03
RMM:  19    -0.228373407168E+03   -0.38884E-05   -0.10803E-07  1526   0.514E-04    0.161E-03
RMM:  20    -0.228373412665E+03   -0.54962E-05   -0.20609E-07  2237   0.603E-04    0.115E-03
RMM:  21    -0.228373417703E+03   -0.50381E-05   -0.12229E-07  1363   0.482E-04    0.904E-04
RMM:  22    -0.228373421524E+03   -0.38215E-05   -0.18716E-07  1990   0.547E-04    0.708E-04
RMM:  23    -0.228373424575E+03   -0.30512E-05   -0.13687E-07  1333   0.456E-04    0.594E-04
RMM:  24    -0.228373425936E+03   -0.13608E-05   -0.66959E-08  1139   0.421E-04    0.552E-04
RMM:  25    -0.228373427137E+03   -0.12007E-05   -0.89890E-08  1351   0.408E-04    0.479E-04
RMM:  26    -0.228373427773E+03   -0.63653E-06   -0.38342E-08   839   0.319E-04
  10 F= -.22837343E+03 E0= -.22824271E+03  d E =-.684662E-01
       N       E                     dE             d eps       ncg     rms          rms(c)
DAV:   1    -0.228379485030E+03   -0.60579E-02   -0.11609E+01  4104   0.555E+00    0.569E-01
RMM:   2    -0.228400230847E+03   -0.20746E-01   -0.21449E-01  4038   0.840E-01    0.537E-01
RMM:   3    -0.228402748930E+03   -0.25181E-02   -0.11936E-02  4040   0.178E-01    0.779E-01
RMM:   4    -0.228401355812E+03    0.13931E-02   -0.41886E-03  4041   0.951E-02    0.710E-01
RMM:   5    -0.228397887948E+03    0.34679E-02   -0.25664E-03  4038   0.755E-02    0.383E-01
RMM:   6    -0.228397795876E+03    0.92072E-04   -0.16699E-03  4038   0.607E-02    0.361E-01
RMM:   7    -0.228397109259E+03    0.68662E-03   -0.11308E-03  4038   0.504E-02    0.147E-01
RMM:   8    -0.228397058761E+03    0.50498E-04   -0.29487E-04  4038   0.266E-02    0.849E-02
RMM:   9    -0.228396999225E+03    0.59536E-04   -0.52067E-05  4038   0.113E-02    0.408E-02
RMM:  10    -0.228396989795E+03    0.94301E-05   -0.24499E-05  4032   0.738E-03    0.306E-02
RMM:  11    -0.228396982956E+03    0.68391E-05   -0.34644E-05  4038   0.834E-03    0.203E-02
RMM:  12    -0.228396982768E+03    0.18768E-06   -0.11118E-05  4014   0.495E-03    0.160E-02
RMM:  13    -0.228396982360E+03    0.40803E-06   -0.21949E-06  2408   0.245E-03
  11 F= -.22839698E+03 E0= -.22826622E+03  d E =-.235546E-01
       N       E                     dE             d eps       ncg     rms          rms(c)
DAV:   1    -0.228307398740E+03    0.89584E-01   -0.75790E+01  4032   0.142E+01    0.145E+00
RMM:   2    -0.228443846854E+03   -0.13645E+00   -0.14028E+00  4038   0.215E+00    0.138E+00
RMM:   3    -0.228468807870E+03   -0.24961E-01   -0.78683E-02  4039   0.455E-01    0.218E+00
RMM:   4    -0.228446842633E+03    0.21965E-01   -0.27947E-02  4040   0.245E-01    0.169E+00
RMM:   5    -0.228428503184E+03    0.18339E-01   -0.16383E-02  4038   0.194E-01    0.981E-01
RMM:   6    -0.228427239139E+03    0.12640E-02   -0.10818E-02  4038   0.154E-01    0.910E-01
RMM:   7    -0.228422804685E+03    0.44345E-02   -0.77306E-03  4038   0.131E-01    0.390E-01
RMM:   8    -0.228422348218E+03    0.45647E-03   -0.20423E-03  4038   0.696E-02    0.221E-01
RMM:   9    -0.228421955662E+03    0.39256E-03   -0.35801E-04  4038   0.294E-02    0.113E-01
RMM:  10    -0.228421885995E+03    0.69667E-04   -0.17098E-04  4038   0.196E-02    0.828E-02
RMM:  11    -0.228421836011E+03    0.49984E-04   -0.23802E-04  4038   0.220E-02    0.508E-02
RMM:  12    -0.228421836648E+03   -0.63713E-06   -0.69646E-05  4038   0.125E-02    0.401E-02
RMM:  13    -0.228421834135E+03    0.25135E-05   -0.16180E-05  4026   0.634E-03    0.183E-02
RMM:  14    -0.228421834479E+03   -0.34383E-06   -0.41309E-06  2960   0.324E-03
  12 F= -.22842183E+03 E0= -.22829079E+03  d E =-.484067E-01
       N       E                     dE             d eps       ncg     rms          rms(c)
DAV:   1    -0.228414856230E+03    0.69779E-02   -0.19632E+01  4104   0.726E+00    0.701E-01
RMM:   2    -0.228454155097E+03   -0.39299E-01   -0.36041E-01  4038   0.109E+00    0.114E+00
RMM:   3    -0.228454769387E+03   -0.61429E-03   -0.21621E-02  4039   0.237E-01    0.113E+00
RMM:   4    -0.228450609222E+03    0.41602E-02   -0.70105E-03  4040   0.123E-01    0.815E-01
RMM:   5    -0.228444910237E+03    0.56990E-02   -0.37180E-03  4038   0.908E-02    0.377E-01
RMM:   6    -0.228444977528E+03   -0.67291E-04   -0.27170E-03  4038   0.774E-02    0.358E-01
RMM:   7    -0.228444236829E+03    0.74070E-03   -0.20955E-03  4038   0.691E-02    0.192E-01
RMM:   8    -0.228444001724E+03    0.23510E-03   -0.53010E-04  4038   0.355E-02    0.811E-02
RMM:   9    -0.228443966639E+03    0.35085E-04   -0.72854E-05  4038   0.135E-02    0.548E-02
RMM:  10    -0.228443950592E+03    0.16047E-04   -0.41108E-05  4035   0.973E-03    0.417E-02
RMM:  11    -0.228443949286E+03    0.13060E-05   -0.52312E-05  4037   0.104E-02    0.324E-02
RMM:  12    -0.228443945652E+03    0.36345E-05   -0.17486E-05  4032   0.627E-03    0.160E-02
RMM:  13    -0.228443947807E+03   -0.21552E-05   -0.38718E-06  2850   0.308E-03    0.952E-03
RMM:  14    -0.228443948969E+03   -0.11622E-05   -0.10192E-06  2225   0.172E-03    0.381E-03
RMM:  15    -0.228443950419E+03   -0.14496E-05   -0.31206E-07  2187   0.951E-04    0.254E-03
RMM:  16    -0.228443953068E+03   -0.26493E-05   -0.20242E-07  2215   0.693E-04    0.190E-03
RMM:  17    -0.228443955231E+03   -0.21623E-05   -0.73285E-08  1424   0.476E-04    0.115E-03
RMM:  18    -0.228443956573E+03   -0.13425E-05   -0.18004E-08   784   0.371E-04    0.841E-04
RMM:  19    -0.228443957984E+03   -0.14113E-05   -0.36051E-08  1010   0.392E-04    0.721E-04
RMM:  20    -0.228443960186E+03   -0.22018E-05   -0.12161E-07  1541   0.458E-04    0.566E-04
RMM:  21    -0.228443961685E+03   -0.14985E-05   -0.50614E-08   933   0.363E-04    0.410E-04
RMM:  22    -0.228443962627E+03   -0.94221E-06   -0.37717E-08   875   0.363E-04
  13 F= -.22844396E+03 E0= -.22831320E+03  d E =-.221281E-01
       N       E                     dE             d eps       ncg     rms          rms(c)
DAV:   1    -0.228195800157E+03    0.24816E+00   -0.17771E+02  4032   0.219E+01    0.212E+00
RMM:   2    -0.228570650303E+03   -0.37485E+00   -0.33159E+00  4038   0.328E+00    0.383E+00
RMM:   3    -0.228564865575E+03    0.57847E-02   -0.19442E-01  4038   0.706E-01    0.322E+00
RMM:   4    -0.228520601820E+03    0.44264E-01   -0.64456E-02  4039   0.375E-01    0.237E+00
RMM:   5    -0.228473430906E+03    0.47171E-01   -0.33176E-02  4038   0.273E-01    0.113E+00
RMM:   6    -0.228471636163E+03    0.17947E-02   -0.23232E-02  4038   0.225E-01    0.997E-01
RMM:   7    -0.228466122757E+03    0.55134E-02   -0.17666E-02  4038   0.201E-01    0.575E-01
RMM:   8    -0.228464195676E+03    0.19271E-02   -0.52421E-03  4038   0.111E-01    0.327E-01
RMM:   9    -0.228463535961E+03    0.65971E-03   -0.87115E-04  4038   0.465E-02    0.188E-01
RMM:  10    -0.228463333890E+03    0.20207E-03   -0.42643E-04  4038   0.316E-02    0.134E-01
RMM:  11    -0.228463284994E+03    0.48896E-04   -0.40784E-04  4038   0.296E-02    0.104E-01
RMM:  12    -0.228463222978E+03    0.62016E-04   -0.16393E-04  4038   0.193E-02    0.527E-02
RMM:  13    -0.228463225057E+03   -0.20790E-05   -0.44839E-05  4032   0.998E-03    0.287E-02
RMM:  14    -0.228463225768E+03   -0.71152E-06   -0.90412E-06  3982   0.465E-03
  14 F= -.22846323E+03 E0= -.22833324E+03  d E =-.413913E-01
       N       E                     dE             d eps       ncg     rms          rms(c)
DAV:   1    -0.228452291253E+03    0.10934E-01   -0.85727E+00  4152   0.480E+00    0.466E-01
RMM:   2    -0.228469315675E+03   -0.17024E-01   -0.15818E-01  4038   0.720E-01    0.715E-01
RMM:   3    -0.228469309226E+03    0.64483E-05   -0.95053E-03  4038   0.158E-01    0.733E-01
RMM:   4    -0.228468186663E+03    0.11226E-02   -0.29791E-03  4044   0.803E-02    0.559E-01
RMM:   5    -0.228465561570E+03    0.26251E-02   -0.17074E-03  4038   0.609E-02    0.270E-01
RMM:   6    -0.228465517574E+03    0.43996E-04   -0.12203E-03  4038   0.517E-02    0.237E-01
RMM:   7    -0.228465207759E+03    0.30981E-03   -0.96073E-04  4038   0.471E-02    0.127E-01
RMM:   8    -0.228465102934E+03    0.10482E-03   -0.23394E-04  4038   0.235E-02    0.544E-02
RMM:   9    -0.228465085979E+03    0.16955E-04   -0.35203E-05  4037   0.939E-03    0.363E-02
RMM:  10    -0.228465078253E+03    0.77259E-05   -0.19527E-05  4020   0.671E-03    0.271E-02
RMM:  11    -0.228465076113E+03    0.21405E-05   -0.21988E-05  4008   0.677E-03    0.225E-02
RMM:  12    -0.228465073974E+03    0.21392E-05   -0.92522E-06  3998   0.451E-03    0.110E-02
RMM:  13    -0.228465073983E+03   -0.92768E-08   -0.17273E-06  2351   0.213E-03
  15 F= -.22846507E+03 E0= -.22833495E+03  d E =-.432395E-01
       N       E                     dE             d eps       ncg     rms          rms(c)
DAV:   1    -0.228452044919E+03    0.13029E-01   -0.23576E+01  4032   0.812E+00    0.815E-01
RMM:   2    -0.228506417962E+03   -0.54373E-01   -0.45969E-01  4038   0.120E+00    0.138E+00
RMM:   3    -0.228507620705E+03   -0.12027E-02   -0.29659E-02  4038   0.269E-01    0.144E+00
RMM:   4    -0.228492799853E+03    0.14821E-01   -0.90251E-03  4039   0.144E-01    0.618E-01
RMM:   5    -0.228490100756E+03    0.26991E-02   -0.42811E-03  4038   0.983E-02    0.411E-01
RMM:   6    -0.228490347753E+03   -0.24700E-03   -0.32286E-03  4038   0.833E-02    0.411E-01
RMM:   7    -0.228489358720E+03    0.98903E-03   -0.22618E-03  4038   0.727E-02    0.215E-01
RMM:   8    -0.228489093176E+03    0.26554E-03   -0.48953E-04  4038   0.342E-02    0.101E-01
RMM:   9    -0.228489039998E+03    0.53177E-04   -0.91915E-05  4038   0.146E-02    0.572E-02
RMM:  10    -0.228489016124E+03    0.23874E-04   -0.46637E-05  4034   0.104E-02    0.357E-02
RMM:  11    -0.228489013611E+03    0.25135E-05   -0.50652E-05  4036   0.103E-02    0.314E-02
RMM:  12    -0.228489008445E+03    0.51653E-05   -0.20486E-05  4032   0.663E-03    0.143E-02
RMM:  13    -0.228489008891E+03   -0.44586E-06   -0.36409E-06  2804   0.307E-03
  16 F= -.22848901E+03 E0= -.22835869E+03  d E =-.239349E-01
       N       E                     dE             d eps       ncg     rms          rms(c)
DAV:   1    -0.228248924123E+03    0.24008E+00   -0.16772E+02  4032   0.217E+01    0.221E+00
RMM:   2    -0.228668994956E+03   -0.42007E+00   -0.33769E+00  4038   0.322E+00    0.412E+00
RMM:   3    -0.228647356486E+03    0.21638E-01   -0.21438E-01  4038   0.721E-01    0.359E+00
RMM:   4    -0.228545837570E+03    0.10152E+00   -0.64819E-02  4038   0.387E-01    0.159E+00
RMM:   5    -0.228526855574E+03    0.18982E-01   -0.29379E-02  4038   0.259E-01    0.105E+00
RMM:   6    -0.228528411166E+03   -0.15556E-02   -0.22793E-02  4038   0.221E-01    0.107E+00
RMM:   7    -0.228521391230E+03    0.70199E-02   -0.14940E-02  4038   0.186E-01    0.548E-01
RMM:   8    -0.228519817312E+03    0.15739E-02   -0.37790E-03  4038   0.954E-02    0.320E-01
RMM:   9    -0.228519309533E+03    0.50778E-03   -0.78553E-04  4038   0.428E-02    0.174E-01
RMM:  10    -0.228519090406E+03    0.21913E-03   -0.35338E-04  4038   0.287E-02    0.942E-02
RMM:  11    -0.228519079990E+03    0.10416E-04   -0.32837E-04  4038   0.266E-02    0.865E-02
RMM:  12    -0.228519034700E+03    0.45290E-04   -0.14999E-04  4038   0.180E-02    0.401E-02
RMM:  13    -0.228519039427E+03   -0.47268E-05   -0.33492E-05  4027   0.884E-03    0.317E-02
RMM:  14    -0.228519036213E+03    0.32137E-05   -0.79504E-06  3920   0.448E-03    0.908E-03
RMM:  15    -0.228519040906E+03   -0.46923E-05   -0.23630E-06  2524   0.242E-03    0.877E-03
RMM:  16    -0.228519046890E+03   -0.59842E-05   -0.17247E-06  2286   0.211E-03    0.652E-03
RMM:  17    -0.228519051455E+03   -0.45656E-05   -0.72825E-07  2236   0.144E-03    0.345E-03
RMM:  18    -0.228519055965E+03   -0.45093E-05   -0.24978E-07  2221   0.784E-04    0.165E-03
RMM:  19    -0.228519059381E+03   -0.34159E-05   -0.95431E-08  1431   0.501E-04    0.117E-03
RMM:  20    -0.228519064304E+03   -0.49230E-05   -0.18780E-07  2206   0.584E-04    0.970E-04
RMM:  21    -0.228519068973E+03   -0.46694E-05   -0.12255E-07  1526   0.485E-04    0.786E-04
RMM:  22    -0.228519073141E+03   -0.41683E-05   -0.18490E-07  1904   0.539E-04    0.642E-04
RMM:  23    -0.228519075251E+03   -0.21098E-05   -0.88060E-08  1128   0.396E-04    0.598E-04
RMM:  24    -0.228519076724E+03   -0.14727E-05   -0.73883E-08  1050   0.405E-04    0.561E-04
RMM:  25    -0.228519077854E+03   -0.11301E-05   -0.73825E-08  1207   0.426E-04    0.449E-04
RMM:  26    -0.228519078588E+03   -0.73456E-06   -0.62028E-08  1136   0.370E-04
  17 F= -.22851908E+03 E0= -.22838822E+03  d E =-.540046E-01
       N       E                     dE             d eps       ncg     rms          rms(c)
DAV:   1    -0.228474519637E+03    0.44558E-01   -0.46678E+01  4032   0.118E+01    0.125E+00
RMM:   2    -0.228572007970E+03   -0.97488E-01   -0.99558E-01  4038   0.170E+00    0.110E+00
RMM:   3    -0.228593726963E+03   -0.21719E-01   -0.59654E-02  4038   0.388E-01    0.207E+00
RMM:   4    -0.228565680723E+03    0.28046E-01   -0.15268E-02  4043   0.183E-01    0.109E+00
RMM:   5    -0.228559965387E+03    0.57153E-02   -0.99178E-03  4038   0.153E-01    0.827E-01
RMM:   6    -0.228557623298E+03    0.23421E-02   -0.54621E-03  4038   0.112E-01    0.531E-01
RMM:   7    -0.228556276135E+03    0.13472E-02   -0.49263E-03  4038   0.106E-01    0.317E-01
RMM:   8    -0.228555711043E+03    0.56509E-03   -0.11972E-03  4038   0.529E-02    0.170E-01
RMM:   9    -0.228555545167E+03    0.16588E-03   -0.22597E-04  4038   0.228E-02    0.103E-01
RMM:  10    -0.228555477833E+03    0.67334E-04   -0.91053E-05  4037   0.146E-02    0.606E-02
RMM:  11    -0.228555469154E+03    0.86790E-05   -0.86078E-05  4037   0.138E-02    0.497E-02
RMM:  12    -0.228555454857E+03    0.14297E-04   -0.49556E-05  4033   0.104E-02    0.247E-02
RMM:  13    -0.228555458417E+03   -0.35598E-05   -0.13039E-05  4018   0.554E-03    0.194E-02
RMM:  14    -0.228555456597E+03    0.18197E-05   -0.31570E-06  2757   0.287E-03    0.669E-03
RMM:  15    -0.228555457841E+03   -0.12437E-05   -0.80199E-07  2212   0.154E-03    0.368E-03
RMM:  16    -0.228555460421E+03   -0.25800E-05   -0.48692E-07  2221   0.108E-03    0.245E-03
RMM:  17    -0.228555462571E+03   -0.21504E-05   -0.23429E-07  2223   0.766E-04    0.114E-03
RMM:  18    -0.228555463778E+03   -0.12072E-05   -0.39798E-08  1031   0.404E-04    0.821E-04
RMM:  19    -0.228555464992E+03   -0.12143E-05   -0.14973E-08   707   0.370E-04    0.497E-04
RMM:  20    -0.228555466706E+03   -0.17137E-05   -0.11855E-07  1722   0.484E-04    0.532E-04
RMM:  21    -0.228555468026E+03   -0.13193E-05   -0.52261E-08  1081   0.371E-04    0.388E-04
RMM:  22    -0.228555468831E+03   -0.80509E-06   -0.32299E-08   756   0.343E-04
  18 F= -.22855547E+03 E0= -.22842374E+03  d E =-.363902E-01
       N       E                     dE             d eps       ncg     rms          rms(c)
DAV:   1    -0.227779476823E+03    0.77599E+00   -0.42272E+02  4032   0.355E+01    0.397E+00
RMM:   2    -0.228909411839E+03   -0.11299E+01   -0.10336E+01  4038   0.524E+00    0.547E+00
RMM:   3    -0.228995242213E+03   -0.85830E-01   -0.62456E-01  4038   0.124E+00    0.612E+00
RMM:   4    -0.228708530371E+03    0.28671E+00   -0.17077E-01  4040   0.612E-01    0.354E+00
RMM:   5    -0.228650606300E+03    0.57924E-01   -0.92453E-02  4038   0.464E-01    0.263E+00
RMM:   6    -0.228621345400E+03    0.29261E-01   -0.50677E-02  4038   0.348E-01    0.163E+00
RMM:   7    -0.228612367131E+03    0.89783E-02   -0.46530E-02  4038   0.327E-01    0.124E+00
RMM:   8    -0.228605899429E+03    0.64677E-02   -0.14962E-02  4038   0.184E-01    0.802E-01
RMM:   9    -0.228602472414E+03    0.34270E-02   -0.47895E-03  4038   0.105E-01    0.448E-01
RMM:  10    -0.228601157200E+03    0.13152E-02   -0.14558E-03  4038   0.596E-02    0.228E-01
RMM:  11    -0.228601081020E+03    0.76181E-04   -0.82902E-04  4038   0.435E-02    0.194E-01
RMM:  12    -0.228600873020E+03    0.20800E-03   -0.51139E-04  4038   0.336E-02    0.104E-01
RMM:  13    -0.228600876281E+03   -0.32615E-05   -0.19540E-04  4038   0.211E-02    0.682E-02
RMM:  14    -0.228600856552E+03    0.19729E-04   -0.47608E-05  4033   0.108E-02    0.300E-02
RMM:  15    -0.228600863706E+03   -0.71534E-05   -0.11265E-05  3994   0.530E-03    0.168E-02
RMM:  16    -0.228600876982E+03   -0.13276E-04   -0.51100E-06  3274   0.342E-03    0.129E-02
RMM:  17    -0.228600892154E+03   -0.15173E-04   -0.22430E-06  2414   0.233E-03    0.769E-03
RMM:  18    -0.228600902143E+03   -0.99892E-05   -0.10564E-06  2307   0.165E-03    0.445E-03
RMM:  19    -0.228600914832E+03   -0.12689E-04   -0.53191E-07  2306   0.104E-03    0.202E-03
RMM:  20    -0.228600922992E+03   -0.81599E-05   -0.29763E-07  2139   0.675E-04    0.177E-03
RMM:  21    -0.228600936131E+03   -0.13139E-04   -0.47195E-07  2345   0.787E-04    0.129E-03
RMM:  22    -0.228600945889E+03   -0.97578E-05   -0.41355E-07  2244   0.680E-04    0.110E-03
RMM:  23    -0.228600953019E+03   -0.71304E-05   -0.33810E-07  1925   0.614E-04    0.863E-04
RMM:  24    -0.228600956200E+03   -0.31809E-05   -0.16051E-07  1487   0.477E-04    0.690E-04
RMM:  25    -0.228600959715E+03   -0.35151E-05   -0.21621E-07  1843   0.549E-04    0.569E-04
RMM:  26    -0.228600961207E+03   -0.14914E-05   -0.57214E-08  1020   0.386E-04    0.287E-04
RMM:  27    -0.228600961970E+03   -0.76379E-06   -0.49676E-08  1037   0.378E-04
  19 F= -.22860096E+03 E0= -.22846702E+03  d E =-.818834E-01
       N       E                     dE             d eps       ncg     rms          rms(c)
DAV:   1    -0.228569269458E+03    0.31692E-01   -0.32441E+01  4032   0.994E+00    0.115E+00
RMM:   2    -0.228671837527E+03   -0.10257E+00   -0.75597E-01  4038   0.146E+00    0.234E+00
RMM:   3    -0.228654799999E+03    0.17038E-01   -0.53108E-02  4039   0.357E-01    0.182E+00
RMM:   4    -0.228636188464E+03    0.18612E-01   -0.18087E-02  4038   0.201E-01    0.115E+00
RMM:   5    -0.228628639283E+03    0.75492E-02   -0.78957E-03  4038   0.136E-01    0.735E-01
RMM:   6    -0.228626696354E+03    0.19429E-02   -0.49227E-03  4038   0.108E-01    0.489E-01
RMM:   7    -0.228626626663E+03    0.69691E-04   -0.39238E-03  4038   0.933E-02    0.453E-01
RMM:   8    -0.228625371422E+03    0.12552E-02   -0.15025E-03  4038   0.584E-02    0.175E-01
RMM:   9    -0.228625222030E+03    0.14939E-03   -0.31678E-04  4038   0.278E-02    0.951E-02
RMM:  10    -0.228625173782E+03    0.48248E-04   -0.74849E-05  4037   0.134E-02    0.656E-02
RMM:  11    -0.228625164218E+03    0.95635E-05   -0.68430E-05  4034   0.123E-02    0.501E-02
RMM:  12    -0.228625156604E+03    0.76146E-05   -0.50410E-05  4036   0.105E-02    0.305E-02
RMM:  13    -0.228625154018E+03    0.25859E-05   -0.15821E-05  4008   0.609E-03    0.166E-02
RMM:  14    -0.228625154857E+03   -0.83963E-06   -0.32939E-06  2790   0.289E-03
  20 F= -.22862515E+03 E0= -.22849097E+03  d E =-.241929E-01
       N       E                     dE             d eps       ncg     rms          rms(c)
DAV:   1    -0.228421760256E+03    0.20339E+00   -0.12211E+02  4032   0.193E+01    0.232E+00
RMM:   2    -0.228834139219E+03   -0.41238E+00   -0.30264E+00  4038   0.284E+00    0.501E+00
RMM:   3    -0.228733834935E+03    0.10030E+00   -0.18821E-01  4038   0.678E-01    0.313E+00
RMM:   4    -0.228703442661E+03    0.30392E-01   -0.72765E-02  4039   0.401E-01    0.276E+00
RMM:   5    -0.228661373309E+03    0.42069E-01   -0.35218E-02  4038   0.285E-01    0.172E+00
RMM:   6    -0.228649019954E+03    0.12353E-01   -0.22521E-02  4038   0.233E-01    0.107E+00
RMM:   7    -0.228648845322E+03    0.17463E-03   -0.15836E-02  4038   0.187E-01    0.999E-01
RMM:   8    -0.228643067014E+03    0.57783E-02   -0.68223E-03  4038   0.124E-01    0.407E-01
RMM:   9    -0.228642373475E+03    0.69354E-03   -0.15654E-03  4038   0.619E-02    0.238E-01
RMM:  10    -0.228642094440E+03    0.27903E-03   -0.36113E-04  4038   0.295E-02    0.166E-01
RMM:  11    -0.228642046350E+03    0.48090E-04   -0.31339E-04  4038   0.266E-02    0.125E-01
RMM:  12    -0.228641986971E+03    0.59379E-04   -0.24272E-04  4038   0.231E-02    0.715E-02
RMM:  13    -0.228641970711E+03    0.16260E-04   -0.75430E-05  4038   0.133E-02    0.374E-02
RMM:  14    -0.228641974618E+03   -0.39075E-05   -0.17109E-05  4026   0.639E-03    0.215E-02
RMM:  15    -0.228641979737E+03   -0.51190E-05   -0.42208E-06  3010   0.326E-03    0.109E-02
RMM:  16    -0.228641988440E+03   -0.87030E-05   -0.14638E-06  2323   0.195E-03    0.771E-03
RMM:  17    -0.228642001202E+03   -0.12762E-04   -0.11133E-06  2326   0.163E-03    0.511E-03
RMM:  18    -0.228642011668E+03   -0.10466E-04   -0.69161E-07  2300   0.122E-03    0.248E-03
RMM:  19    -0.228642017503E+03   -0.58345E-05   -0.24055E-07  2180   0.675E-04    0.164E-03
RMM:  20    -0.228642024452E+03   -0.69492E-05   -0.18506E-07  1748   0.552E-04    0.127E-03
RMM:  21    -0.228642034469E+03   -0.10018E-04   -0.39014E-07  2284   0.725E-04    0.956E-04
RMM:  22    -0.228642041199E+03   -0.67296E-05   -0.27970E-07  1994   0.577E-04    0.906E-04
RMM:  23    -0.228642045374E+03   -0.41752E-05   -0.19678E-07  1577   0.511E-04    0.606E-04
RMM:  24    -0.228642047746E+03   -0.23716E-05   -0.13699E-07  1575   0.468E-04    0.427E-04
RMM:  25    -0.228642049888E+03   -0.21419E-05   -0.11701E-07  1265   0.440E-04    0.282E-04
RMM:  26    -0.228642050674E+03   -0.78666E-06   -0.34916E-08   899   0.384E-04
  21 F= -.22864205E+03 E0= -.22850757E+03  d E =-.410887E-01
       N       E                     dE             d eps       ncg     rms          rms(c)
DAV:   1    -0.228633861848E+03    0.81880E-02   -0.51601E+00  4152   0.395E+00    0.482E-01
RMM:   2    -0.228648955351E+03   -0.15094E-01   -0.12146E-01  4038   0.583E-01    0.864E-01
RMM:   3    -0.228646436452E+03    0.25189E-02   -0.80896E-03  4039   0.142E-01    0.662E-01
RMM:   4    -0.228645897031E+03    0.53942E-03   -0.30805E-03  4039   0.809E-02    0.610E-01
RMM:   5    -0.228643628517E+03    0.22685E-02   -0.16903E-03  4038   0.622E-02    0.377E-01
RMM:   6    -0.228643190792E+03    0.43773E-03   -0.10215E-03  4038   0.489E-02    0.246E-01
RMM:   7    -0.228643180015E+03    0.10777E-04   -0.76652E-04  4038   0.408E-02    0.216E-01
RMM:   8    -0.228642876746E+03    0.30327E-03   -0.30644E-04  4038   0.264E-02    0.764E-02
RMM:   9    -0.228642847297E+03    0.29448E-04   -0.57485E-05  4032   0.120E-02    0.349E-02
RMM:  10    -0.228642842384E+03    0.49133E-05   -0.15228E-05  4003   0.589E-03    0.286E-02
RMM:  11    -0.228642838558E+03    0.38263E-05   -0.13218E-05  4014   0.538E-03    0.186E-02
RMM:  12    -0.228642838699E+03   -0.14079E-06   -0.96765E-06  3990   0.461E-03
  22 F= -.22864284E+03 E0= -.22850838E+03  d E =-.418767E-01
       N       E                     dE             d eps       ncg     rms          rms(c)
DAV:   1    -0.228662225830E+03   -0.19387E-01   -0.38638E+00  4056   0.317E+00    0.425E-01
RMM:   2    -0.228681061626E+03   -0.18836E-01   -0.78614E-02  4038   0.502E-01    0.136E+00
RMM:   3    -0.228668972999E+03    0.12089E-01   -0.46153E-03  4039   0.108E-01    0.506E-01
RMM:   4    -0.228672864582E+03   -0.38916E-02   -0.27566E-03  4038   0.813E-02    0.845E-01
RMM:   5    -0.228669769736E+03    0.30948E-02   -0.16776E-03  4038   0.624E-02    0.566E-01
RMM:   6    -0.228668564141E+03    0.12056E-02   -0.11350E-03  4038   0.507E-02    0.346E-01
RMM:   7    -0.228668209406E+03    0.35473E-03   -0.75031E-04  4038   0.413E-02    0.196E-01
RMM:   8    -0.228667921945E+03    0.28746E-03   -0.26720E-04  4038   0.245E-02    0.543E-02
RMM:   9    -0.228667916457E+03    0.54881E-05   -0.37158E-05  4027   0.952E-03    0.307E-02
RMM:  10    -0.228667914141E+03    0.23151E-05   -0.18686E-05  4020   0.666E-03    0.281E-02
RMM:  11    -0.228667908460E+03    0.56810E-05   -0.20021E-05  4032   0.654E-03    0.162E-02
RMM:  12    -0.228667908358E+03    0.10282E-06   -0.85032E-06  4014   0.441E-03
  23 F= -.22866791E+03 E0= -.22853366E+03  d E =-.250697E-01
       N       E                     dE             d eps       ncg     rms          rms(c)
DAV:   1    -0.228651411691E+03    0.16497E-01   -0.31737E+01  4032   0.908E+00    0.126E+00
RMM:   2    -0.228806683077E+03   -0.15527E+00   -0.65357E-01  4038   0.145E+00    0.399E+00
RMM:   3    -0.228710337438E+03    0.96346E-01   -0.35946E-02  4038   0.301E-01    0.162E+00
RMM:   4    -0.228747171116E+03   -0.36834E-01   -0.23951E-02  4038   0.238E-01    0.269E+00
RMM:   5    -0.228716570994E+03    0.30600E-01   -0.15030E-02  4038   0.186E-01    0.177E+00
RMM:   6    -0.228704059803E+03    0.12511E-01   -0.10082E-02  4038   0.151E-01    0.105E+00
RMM:   7    -0.228700667985E+03    0.33918E-02   -0.61777E-03  4038   0.119E-01    0.576E-01
RMM:   8    -0.228698177542E+03    0.24904E-02   -0.21688E-03  4038   0.693E-02    0.179E-01
RMM:   9    -0.228698101480E+03    0.76062E-04   -0.33138E-04  4038   0.283E-02    0.114E-01
RMM:  10    -0.228698064847E+03    0.36633E-04   -0.18454E-04  4038   0.210E-02    0.954E-02
RMM:  11    -0.228698012045E+03    0.52802E-04   -0.19844E-04  4038   0.207E-02    0.616E-02
RMM:  12    -0.228698004674E+03    0.73718E-05   -0.91832E-05  4038   0.145E-02    0.404E-02
RMM:  13    -0.228697998068E+03    0.66056E-05   -0.19595E-05  4026   0.687E-03    0.203E-02
RMM:  14    -0.228697998121E+03   -0.53238E-07   -0.49559E-06  3179   0.350E-03
  24 F= -.22869800E+03 E0= -.22856427E+03  d E =-.551594E-01
       N       E                     dE             d eps       ncg     rms          rms(c)
DAV:   1    -0.228708505170E+03   -0.10507E-01   -0.65615E+00  4032   0.429E+00    0.512E-01
RMM:   2    -0.228725066599E+03   -0.16561E-01   -0.13946E-01  4038   0.654E-01    0.873E-01
RMM:   3    -0.228722467599E+03    0.25990E-02   -0.88486E-03  4038   0.151E-01    0.629E-01
RMM:   4    -0.228724919295E+03   -0.24517E-02   -0.40958E-03  4038   0.910E-02    0.818E-01
RMM:   5    -0.228719772609E+03    0.51467E-02   -0.21356E-03  4038   0.684E-02    0.315E-01
RMM:   6    -0.228719880742E+03   -0.10813E-03   -0.14019E-03  4038   0.580E-02    0.289E-01
RMM:   7    -0.228719523870E+03    0.35687E-03   -0.95930E-04  4038   0.461E-02    0.204E-01
RMM:   8    -0.228719295038E+03    0.22883E-03   -0.30006E-04  4038   0.265E-02    0.792E-02
RMM:   9    -0.228719263610E+03    0.31428E-04   -0.48490E-05  4037   0.109E-02    0.377E-02
RMM:  10    -0.228719254290E+03    0.93209E-05   -0.13786E-05  4032   0.571E-03    0.238E-02
RMM:  11    -0.228719252696E+03    0.15932E-05   -0.14228E-05  4026   0.561E-03    0.232E-02
RMM:  12    -0.228719250481E+03    0.22155E-05   -0.12880E-05  4013   0.522E-03    0.140E-02
RMM:  13    -0.228719250097E+03    0.38357E-06   -0.36017E-06  2828   0.298E-03
  25 F= -.22871925E+03 E0= -.22858541E+03  d E =-.212520E-01
       N       E                     dE             d eps       ncg     rms          rms(c)
DAV:   1    -0.228670887359E+03    0.48363E-01   -0.43210E+01  4032   0.110E+01    0.130E+00
RMM:   2    -0.228779121262E+03   -0.10823E+00   -0.92006E-01  4038   0.168E+00    0.215E+00
RMM:   3    -0.228762953232E+03    0.16168E-01   -0.59573E-02  4038   0.391E-01    0.160E+00
RMM:   4    -0.228779207118E+03   -0.16254E-01   -0.25747E-02  4038   0.228E-01    0.205E+00
RMM:   5    -0.228745329192E+03    0.33878E-01   -0.13450E-02  4038   0.170E-01    0.757E-01
RMM:   6    -0.228746001434E+03   -0.67224E-03   -0.88836E-03  4038   0.147E-01    0.717E-01
RMM:   7    -0.228743828381E+03    0.21731E-02   -0.62812E-03  4038   0.118E-01    0.544E-01
RMM:   8    -0.228742185423E+03    0.16430E-02   -0.19952E-03  4038   0.682E-02    0.200E-01
RMM:   9    -0.228741985854E+03    0.19957E-03   -0.33808E-04  4038   0.286E-02    0.106E-01
RMM:  10    -0.228741900414E+03    0.85439E-04   -0.10338E-04  4038   0.156E-02    0.580E-02
RMM:  11    -0.228741896758E+03    0.36564E-05   -0.99544E-05  4038   0.148E-02    0.576E-02
RMM:  12    -0.228741884080E+03    0.12677E-04   -0.74063E-05  4038   0.126E-02    0.355E-02
RMM:  13    -0.228741883424E+03    0.65596E-06   -0.23761E-05  4026   0.740E-03    0.181E-02
RMM:  14    -0.228741885604E+03   -0.21797E-05   -0.38022E-06  2922   0.317E-03    0.844E-03
RMM:  15    -0.228741887244E+03   -0.16401E-05   -0.10080E-06  2231   0.172E-03    0.404E-03
RMM:  16    -0.228741891862E+03   -0.46178E-05   -0.66389E-07  2259   0.126E-03    0.384E-03
RMM:  17    -0.228741895187E+03   -0.33248E-05   -0.33326E-07  2233   0.903E-04    0.185E-03
RMM:  18    -0.228741897677E+03   -0.24905E-05   -0.12045E-07  1674   0.528E-04    0.137E-03
RMM:  19    -0.228741900372E+03   -0.26951E-05   -0.85887E-08  1322   0.443E-04    0.912E-04
RMM:  20    -0.228741903419E+03   -0.30462E-05   -0.19003E-07  1862   0.524E-04    0.809E-04
RMM:  21    -0.228741906069E+03   -0.26506E-05   -0.12917E-07  1400   0.449E-04    0.458E-04
RMM:  22    -0.228741907793E+03   -0.17236E-05   -0.12427E-07  1338   0.438E-04    0.474E-04
RMM:  23    -0.228741909216E+03   -0.14235E-05   -0.11697E-07  1271   0.432E-04    0.342E-04
RMM:  24    -0.228741909848E+03   -0.63187E-06   -0.43756E-08   904   0.370E-04
  26 F= -.22874191E+03 E0= -.22860786E+03  d E =-.439117E-01
       N       E                     dE             d eps       ncg     rms          rms(c)
DAV:   1    -0.228744809349E+03   -0.29001E-02   -0.84826E+00  4032   0.498E+00    0.589E-01
RMM:   2    -0.228770609163E+03   -0.25800E-01   -0.19444E-01  4038   0.749E-01    0.125E+00
RMM:   3    -0.228760315813E+03    0.10293E-01   -0.12889E-02  4038   0.182E-01    0.380E-01
RMM:   4    -0.228761866603E+03   -0.15508E-02   -0.28534E-03  4039   0.824E-02    0.576E-01
RMM:   5    -0.228761658383E+03    0.20822E-03   -0.18181E-03  4038   0.606E-02    0.580E-01
RMM:   6    -0.228759802894E+03    0.18555E-02   -0.14044E-03  4038   0.545E-02    0.281E-01
RMM:   7    -0.228759522646E+03    0.28025E-03   -0.99748E-04  4038   0.473E-02    0.153E-01
RMM:   8    -0.228759378946E+03    0.14370E-03   -0.29729E-04  4038   0.266E-02    0.701E-02
RMM:   9    -0.228759357423E+03    0.21523E-04   -0.46199E-05  4037   0.105E-02    0.363E-02
RMM:  10    -0.228759348774E+03    0.86483E-05   -0.16190E-05  4032   0.607E-03    0.247E-02
RMM:  11    -0.228759345887E+03    0.28879E-05   -0.16763E-05  4032   0.607E-03    0.190E-02
RMM:  12    -0.228759345207E+03    0.67946E-06   -0.10266E-05  3996   0.476E-03    0.134E-02
RMM:  13    -0.228759344766E+03    0.44122E-06   -0.24888E-06  2604   0.253E-03
  27 F= -.22875934E+03 E0= -.22862519E+03  d E =-.174349E-01
       N       E                     dE             d eps       ncg     rms          rms(c)
DAV:   1    -0.228643891311E+03    0.11545E+00   -0.76363E+01  4032   0.149E+01    0.177E+00
RMM:   2    -0.228879309696E+03   -0.23542E+00   -0.17686E+00  4038   0.225E+00    0.368E+00
RMM:   3    -0.228788099533E+03    0.91210E-01   -0.11694E-01  4038   0.547E-01    0.121E+00
RMM:   4    -0.228825662457E+03   -0.37563E-01   -0.33178E-02  4039   0.270E-01    0.249E+00
RMM:   5    -0.228789068368E+03    0.36594E-01   -0.18111E-02  4038   0.193E-01    0.141E+00
RMM:   6    -0.228780364666E+03    0.87037E-02   -0.12545E-02  4038   0.166E-01    0.804E-01
RMM:   7    -0.228778594103E+03    0.17706E-02   -0.87663E-03  4038   0.139E-01    0.529E-01
RMM:   8    -0.228776852658E+03    0.17414E-02   -0.32595E-03  4038   0.880E-02    0.240E-01
RMM:   9    -0.228776623598E+03    0.22906E-03   -0.57688E-04  4038   0.374E-02    0.130E-01
RMM:  10    -0.228776490210E+03    0.13339E-03   -0.18161E-04  4038   0.205E-02    0.756E-02
RMM:  11    -0.228776462436E+03    0.27774E-04   -0.13749E-04  4033   0.176E-02    0.605E-02
RMM:  12    -0.228776458648E+03    0.37875E-05   -0.88660E-05  4033   0.140E-02    0.504E-02
RMM:  13    -0.228776448742E+03    0.99066E-05   -0.36843E-05  4032   0.925E-03    0.294E-02
RMM:  14    -0.228776447692E+03    0.10496E-05   -0.77823E-06  3782   0.443E-03    0.112E-02
RMM:  15    -0.228776449743E+03   -0.20502E-05   -0.18491E-06  2397   0.224E-03    0.654E-03
RMM:  16    -0.228776453734E+03   -0.39918E-05   -0.80914E-07  2264   0.149E-03    0.423E-03
RMM:  17    -0.228776457006E+03   -0.32714E-05   -0.41803E-07  2244   0.104E-03    0.247E-03
RMM:  18    -0.228776459673E+03   -0.26675E-05   -0.18457E-07  2162   0.644E-04    0.181E-03
RMM:  19    -0.228776461613E+03   -0.19393E-05   -0.49838E-08  1005   0.393E-04    0.131E-03
RMM:  20    -0.228776463700E+03   -0.20876E-05   -0.70572E-08  1237   0.445E-04    0.101E-03
RMM:  21    -0.228776466524E+03   -0.28240E-05   -0.17078E-07  1746   0.522E-04    0.671E-04
RMM:  22    -0.228776468277E+03   -0.17524E-05   -0.87119E-08  1166   0.387E-04    0.455E-04
RMM:  23    -0.228776469994E+03   -0.17172E-05   -0.95804E-08  1091   0.405E-04    0.385E-04
RMM:  24    -0.228776471050E+03   -0.10566E-05   -0.72265E-08  1141   0.423E-04    0.352E-04
RMM:  25    -0.228776471835E+03   -0.78471E-06   -0.13113E-07  1479   0.406E-04
  28 F= -.22877647E+03 E0= -.22864234E+03  d E =-.345620E-01
       N       E                     dE             d eps       ncg     rms          rms(c)
DAV:   1    -0.228773846095E+03    0.26250E-02   -0.84477E+00  4032   0.511E+00    0.564E-01
RMM:   2    -0.228796048123E+03   -0.22202E-01   -0.19857E-01  4038   0.745E-01    0.877E-01
RMM:   3    -0.228793542883E+03    0.25052E-02   -0.12221E-02  4038   0.172E-01    0.718E-01
RMM:   4    -0.228794146013E+03   -0.60313E-03   -0.41885E-03  4039   0.936E-02    0.789E-01
RMM:   5    -0.228789939238E+03    0.42068E-02   -0.20744E-03  4038   0.697E-02    0.350E-01
RMM:   6    -0.228789832122E+03    0.10712E-03   -0.14163E-03  4038   0.567E-02    0.325E-01
RMM:   7    -0.228789545067E+03    0.28705E-03   -0.11156E-03  4038   0.493E-02    0.190E-01
RMM:   8    -0.228789288394E+03    0.25667E-03   -0.42124E-04  4038   0.308E-02    0.768E-02
RMM:   9    -0.228789260500E+03    0.27894E-04   -0.63968E-05  4038   0.125E-02    0.398E-02
RMM:  10    -0.228789251117E+03    0.93835E-05   -0.13165E-05  4026   0.562E-03    0.239E-02
RMM:  11    -0.228789248458E+03    0.26586E-05   -0.15487E-05  4032   0.591E-03    0.198E-02
RMM:  12    -0.228789247856E+03    0.60183E-06   -0.12936E-05  4020   0.533E-03    0.145E-02
RMM:  13    -0.228789247263E+03    0.59350E-06   -0.31435E-06  2723   0.280E-03
  29 F= -.22878925E+03 E0= -.22865531E+03  d E =-.127754E-01
       N       E                     dE             d eps       ncg     rms          rms(c)
DAV:   1    -0.228666668243E+03    0.12258E+00   -0.76026E+01  4032   0.153E+01    0.170E+00
RMM:   2    -0.228870791538E+03   -0.20412E+00   -0.18181E+00  4038   0.224E+00    0.266E+00
RMM:   3    -0.228850380852E+03    0.20411E-01   -0.10859E-01  4038   0.512E-01    0.220E+00
RMM:   4    -0.228848145984E+03    0.22349E-02   -0.38114E-02  4039   0.283E-01    0.228E+00
RMM:   5    -0.228814751640E+03    0.33394E-01   -0.18269E-02  4038   0.208E-01    0.106E+00
RMM:   6    -0.228812575916E+03    0.21757E-02   -0.12600E-02  4038   0.170E-01    0.947E-01
RMM:   7    -0.228809996246E+03    0.25797E-02   -0.97168E-03  4038   0.146E-01    0.551E-01
RMM:   8    -0.228807789387E+03    0.22069E-02   -0.37425E-03  4038   0.922E-02    0.221E-01
RMM:   9    -0.228807574089E+03    0.21530E-03   -0.59855E-04  4038   0.382E-02    0.128E-01
RMM:  10    -0.228807460550E+03    0.11354E-03   -0.13755E-04  4038   0.180E-02    0.718E-02
RMM:  11    -0.228807438783E+03    0.21767E-04   -0.14116E-04  4036   0.179E-02    0.577E-02
RMM:  12    -0.228807426488E+03    0.12295E-04   -0.10087E-04  4037   0.150E-02    0.332E-02
RMM:  13    -0.228807429475E+03   -0.29867E-05   -0.22991E-05  4032   0.729E-03    0.233E-02
RMM:  14    -0.228807430804E+03   -0.13291E-05   -0.55757E-06  3288   0.380E-03    0.105E-02
RMM:  15    -0.228807433199E+03   -0.23951E-05   -0.15031E-06  2313   0.205E-03    0.494E-03
RMM:  16    -0.228807437518E+03   -0.43192E-05   -0.68692E-07  2248   0.135E-03    0.364E-03
RMM:  17    -0.228807442854E+03   -0.53359E-05   -0.49579E-07  2272   0.108E-03    0.246E-03
RMM:  18    -0.228807446404E+03   -0.35498E-05   -0.22046E-07  2199   0.667E-04    0.166E-03
RMM:  19    -0.228807449125E+03   -0.27215E-05   -0.80570E-08  1221   0.437E-04    0.127E-03
RMM:  20    -0.228807451877E+03   -0.27521E-05   -0.89207E-08  1361   0.457E-04    0.951E-04
RMM:  21    -0.228807456448E+03   -0.45706E-05   -0.27953E-07  1989   0.618E-04    0.728E-04
RMM:  22    -0.228807459095E+03   -0.26476E-05   -0.13897E-07  1369   0.456E-04    0.557E-04
RMM:  23    -0.228807460913E+03   -0.18179E-05   -0.12067E-07  1429   0.453E-04    0.427E-04
RMM:  24    -0.228807462002E+03   -0.10883E-05   -0.81640E-08  1170   0.398E-04    0.357E-04
RMM:  25    -0.228807462916E+03   -0.91395E-06   -0.68486E-08  1081   0.391E-04
  30 F= -.22880746E+03 E0= -.22867395E+03  d E =-.309911E-01
       N       E                     dE             d eps       ncg     rms          rms(c)
DAV:   1    -0.228812793717E+03   -0.53317E-02   -0.59001E+00  4032   0.428E+00    0.509E-01
RMM:   2    -0.228829550580E+03   -0.16757E-01   -0.13930E-01  4038   0.619E-01    0.867E-01
RMM:   3    -0.228828355015E+03    0.11956E-02   -0.81002E-03  4038   0.137E-01    0.746E-01
RMM:   4    -0.228826886068E+03    0.14689E-02   -0.37917E-03  4038   0.904E-02    0.627E-01
RMM:   5    -0.228824408306E+03    0.24778E-02   -0.19546E-03  4038   0.663E-02    0.349E-01
RMM:   6    -0.228824171146E+03    0.23716E-03   -0.11956E-03  4038   0.546E-02    0.265E-01
RMM:   7    -0.228823942295E+03    0.22885E-03   -0.78406E-04  4038   0.432E-02    0.185E-01
RMM:   8    -0.228823736142E+03    0.20615E-03   -0.25666E-04  4038   0.241E-02    0.581E-02
RMM:   9    -0.228823721936E+03    0.14206E-04   -0.38051E-05  4038   0.971E-03    0.334E-02
RMM:  10    -0.228823715142E+03    0.67938E-05   -0.91166E-06  4014   0.474E-03    0.187E-02
RMM:  11    -0.228823715147E+03   -0.48749E-08   -0.10606E-05  4026   0.485E-03    0.214E-02
RMM:  12    -0.228823712415E+03    0.27316E-05   -0.89742E-06  4020   0.437E-03    0.104E-02
RMM:  13    -0.228823712306E+03    0.10911E-06   -0.18730E-06  2365   0.219E-03
  31 F= -.22882371E+03 E0= -.22869044E+03  d E =-.162494E-01
       N       E                     dE             d eps       ncg     rms          rms(c)
DAV:   1    -0.228784116567E+03    0.39596E-01   -0.29375E+01  4032   0.956E+00    0.115E+00
RMM:   2    -0.228868062909E+03   -0.83946E-01   -0.70126E-01  4038   0.138E+00    0.195E+00
RMM:   3    -0.228860905020E+03    0.71579E-02   -0.39453E-02  4038   0.304E-01    0.159E+00
RMM:   4    -0.228857138109E+03    0.37669E-02   -0.19650E-02  4038   0.205E-01    0.150E+00
RMM:   5    -0.228842727050E+03    0.14411E-01   -0.99219E-03  4038   0.150E-01    0.809E-01
RMM:   6    -0.228841279429E+03    0.14476E-02   -0.62188E-03  4038   0.124E-01    0.602E-01
RMM:   7    -0.228839977813E+03    0.13016E-02   -0.39414E-03  4038   0.966E-02    0.400E-01
RMM:   8    -0.228839023657E+03    0.95416E-03   -0.12951E-03  4038   0.542E-02    0.127E-01
RMM:   9    -0.228838943716E+03    0.79941E-04   -0.18690E-04  4038   0.214E-02    0.725E-02
RMM:  10    -0.228838909824E+03    0.33892E-04   -0.45041E-05  4035   0.105E-02    0.399E-02
RMM:  11    -0.228838910895E+03   -0.10708E-05   -0.59307E-05  4038   0.114E-02    0.485E-02
RMM:  12    -0.228838898474E+03    0.12421E-04   -0.39263E-05  4035   0.920E-03    0.245E-02
RMM:  13    -0.228838897649E+03    0.82519E-06   -0.10366E-05  4011   0.488E-03    0.129E-02
RMM:  14    -0.228838898908E+03   -0.12597E-05   -0.16135E-06  2340   0.210E-03    0.579E-03
RMM:  15    -0.228838899989E+03   -0.10808E-05   -0.59245E-07  2201   0.135E-03    0.334E-03
RMM:  16    -0.228838901686E+03   -0.16971E-05   -0.24323E-07  2203   0.792E-04    0.203E-03
RMM:  17    -0.228838903631E+03   -0.19449E-05   -0.14643E-07  2164   0.582E-04    0.148E-03
RMM:  18    -0.228838904831E+03   -0.12001E-05   -0.19837E-08   741   0.364E-04    0.740E-04
RMM:  19    -0.228838905994E+03   -0.11625E-05   -0.32423E-08   901   0.387E-04    0.507E-04
RMM:  20    -0.228838907429E+03   -0.14353E-05   -0.77058E-08  1299   0.437E-04    0.443E-04
RMM:  21    -0.228838908638E+03   -0.12091E-05   -0.72919E-08  1279   0.396E-04    0.433E-04
RMM:  22    -0.228838909337E+03   -0.69886E-06   -0.39574E-08   831   0.319E-04
  32 F= -.22883891E+03 E0= -.22870606E+03  d E =-.314464E-01
       N       E                     dE             d eps       ncg     rms          rms(c)
DAV:   1    -0.228841440451E+03   -0.25318E-02   -0.59906E+00  4032   0.430E+00    0.445E-01
RMM:   2    -0.228854885588E+03   -0.13445E-01   -0.13025E-01  4038   0.604E-01    0.543E-01
RMM:   3    -0.228857009545E+03   -0.21240E-02   -0.75522E-03  4038   0.134E-01    0.777E-01
RMM:   4    -0.228854843175E+03    0.21664E-02   -0.28983E-03  4039   0.785E-02    0.575E-01
RMM:   5    -0.228852359517E+03    0.24837E-02   -0.12888E-03  4038   0.548E-02    0.211E-01
RMM:   6    -0.228852385094E+03   -0.25576E-04   -0.73118E-04  4038   0.411E-02    0.184E-01
RMM:   7    -0.228852229290E+03    0.15580E-03   -0.58313E-04  4038   0.366E-02    0.113E-01
RMM:   8    -0.228852165986E+03    0.63304E-04   -0.16022E-04  4038   0.193E-02    0.487E-02
RMM:   9    -0.228852151003E+03    0.14983E-04   -0.23994E-05  4026   0.780E-03    0.241E-02
RMM:  10    -0.228852146641E+03    0.43624E-05   -0.70717E-06  3977   0.404E-03    0.159E-02
RMM:  11    -0.228852145531E+03    0.11098E-05   -0.92746E-06  4002   0.444E-03    0.145E-02
RMM:  12    -0.228852145063E+03    0.46784E-06   -0.54958E-06  3590   0.353E-03
  33 F= -.22885215E+03 E0= -.22871934E+03  d E =-.132357E-01
       N       E                     dE             d eps       ncg     rms          rms(c)
DAV:   1    -0.228779350105E+03    0.72795E-01   -0.53884E+01  4032   0.129E+01    0.134E+00
RMM:   2    -0.228906542811E+03   -0.12719E+00   -0.12011E+00  4038   0.182E+00    0.177E+00
RMM:   3    -0.228920804723E+03   -0.14262E-01   -0.67927E-02  4038   0.400E-01    0.225E+00
RMM:   4    -0.228902650410E+03    0.18154E-01   -0.26672E-02  4039   0.238E-01    0.173E+00
RMM:   5    -0.228880189186E+03    0.22461E-01   -0.11535E-02  4038   0.164E-01    0.648E-01
RMM:   6    -0.228879725410E+03    0.46378E-03   -0.63578E-03  4038   0.121E-01    0.544E-01
RMM:   7    -0.228878352266E+03    0.13731E-02   -0.50859E-03  4038   0.108E-01    0.343E-01
RMM:   8    -0.228877804366E+03    0.54790E-03   -0.15594E-03  4038   0.599E-02    0.155E-01
RMM:   9    -0.228877654064E+03    0.15030E-03   -0.24839E-04  4038   0.251E-02    0.786E-02
RMM:  10    -0.228877608120E+03    0.45944E-04   -0.73311E-05  4038   0.130E-02    0.494E-02
RMM:  11    -0.228877594816E+03    0.13304E-04   -0.77331E-05  4037   0.128E-02    0.427E-02
RMM:  12    -0.228877590358E+03    0.44586E-05   -0.45629E-05  4036   0.101E-02    0.269E-02
RMM:  13    -0.228877591610E+03   -0.12523E-05   -0.12020E-05  4016   0.534E-03    0.174E-02
RMM:  14    -0.228877590658E+03    0.95161E-06   -0.26874E-06  2581   0.269E-03
  34 F= -.22887759E+03 E0= -.22874469E+03  d E =-.386813E-01
       N       E                     dE             d eps       ncg     rms          rms(c)
DAV:   1    -0.228450064338E+03    0.42753E+00   -0.21525E+02  4032   0.257E+01    0.272E+00
RMM:   2    -0.228997016472E+03   -0.54695E+00   -0.50966E+00  4038   0.369E+00    0.382E+00
RMM:   3    -0.229023964760E+03   -0.26948E-01   -0.27304E-01  4038   0.803E-01    0.415E+00
RMM:   4    -0.228967577943E+03    0.56387E-01   -0.10698E-01  4039   0.475E-01    0.345E+00
RMM:   5    -0.228878880457E+03    0.88697E-01   -0.44925E-02  4038   0.324E-01    0.135E+00
RMM:   6    -0.228873514766E+03    0.53657E-02   -0.23529E-02  4038   0.232E-01    0.104E+00
RMM:   7    -0.228869094563E+03    0.44202E-02   -0.18614E-02  4038   0.206E-01    0.716E-01
RMM:   8    -0.228867073698E+03    0.20209E-02   -0.74246E-03  4038   0.131E-01    0.366E-01
RMM:   9    -0.228866311606E+03    0.76209E-03   -0.14068E-03  4038   0.595E-02    0.195E-01
RMM:  10    -0.228866061101E+03    0.25050E-03   -0.39923E-04  4038   0.306E-02    0.111E-01
RMM:  11    -0.228865983852E+03    0.77249E-04   -0.26039E-04  4038   0.238E-02    0.878E-02
RMM:  12    -0.228865970485E+03    0.13367E-04   -0.15639E-04  4038   0.185E-02    0.544E-02
RMM:  13    -0.228865971681E+03   -0.11965E-05   -0.55347E-05  4038   0.111E-02    0.350E-02
RMM:  14    -0.228865969838E+03    0.18434E-05   -0.12236E-05  4014   0.563E-03    0.140E-02
RMM:  15    -0.228865973945E+03   -0.41070E-05   -0.27246E-06  2617   0.265E-03    0.955E-03
RMM:  16    -0.228865980721E+03   -0.67756E-05   -0.14566E-06  2309   0.195E-03    0.503E-03
RMM:  17    -0.228865987923E+03   -0.72021E-05   -0.10517E-06  2293   0.165E-03    0.434E-03
RMM:  18    -0.228865993223E+03   -0.53005E-05   -0.43273E-07  2265   0.106E-03    0.254E-03
RMM:  19    -0.228865997342E+03   -0.41188E-05   -0.19322E-07  2127   0.618E-04    0.144E-03
RMM:  20    -0.228866002053E+03   -0.47107E-05   -0.13769E-07  1513   0.504E-04    0.990E-04
RMM:  21    -0.228866006776E+03   -0.47233E-05   -0.21889E-07  2073   0.569E-04    0.789E-04
RMM:  22    -0.228866010718E+03   -0.39426E-05   -0.12948E-07  1307   0.453E-04    0.706E-04
RMM:  23    -0.228866014268E+03   -0.35493E-05   -0.23037E-07  2002   0.545E-04    0.387E-04
RMM:  24    -0.228866015922E+03   -0.16539E-05   -0.57961E-08   951   0.346E-04    0.293E-04
RMM:  25    -0.228866017234E+03   -0.13127E-05   -0.83584E-08  1148   0.398E-04    0.268E-04
RMM:  26    -0.228866018089E+03   -0.85420E-06   -0.55425E-08  1007   0.397E-04
  35 F= -.22886602E+03 E0= -.22873223E+03  d E =-.271088E-01
       N       E                     dE             d eps       ncg     rms          rms(c)
DAV:   1    -0.228724903602E+03    0.14111E+00   -0.87220E+01  4032   0.164E+01    0.164E+00
RMM:   2    -0.228910480962E+03   -0.18558E+00   -0.18744E+00  4038   0.229E+00    0.165E+00
RMM:   3    -0.228910252106E+03    0.22886E-03   -0.99591E-02  4038   0.495E-01    0.188E+00
RMM:   4    -0.228895080434E+03    0.15172E-01   -0.22811E-02  4040   0.237E-01    0.122E+00
RMM:   5    -0.228895146563E+03   -0.66130E-04   -0.10312E-02  4038   0.145E-01    0.125E+00
RMM:   6    -0.228887054141E+03    0.80924E-02   -0.95521E-03  4038   0.146E-01    0.716E-01
RMM:   7    -0.228884787080E+03    0.22671E-02   -0.86800E-03  4038   0.143E-01    0.457E-01
RMM:   8    -0.228883560274E+03    0.12268E-02   -0.27654E-03  4038   0.804E-02    0.220E-01
RMM:   9    -0.228883250750E+03    0.30952E-03   -0.41980E-04  4038   0.325E-02    0.125E-01
RMM:  10    -0.228883161235E+03    0.89514E-04   -0.13079E-04  4038   0.177E-02    0.842E-02
RMM:  11    -0.228883118601E+03    0.42634E-04   -0.10851E-04  4038   0.155E-02    0.645E-02
RMM:  12    -0.228883101467E+03    0.17134E-04   -0.10053E-04  4036   0.148E-02    0.339E-02
RMM:  13    -0.228883101241E+03    0.22646E-06   -0.20285E-05  4026   0.686E-03    0.186E-02
RMM:  14    -0.228883100641E+03    0.59938E-06   -0.38540E-06  2921   0.321E-03
  36 F= -.22888310E+03 E0= -.22874994E+03  d E =-.441913E-01
       N       E                     dE             d eps       ncg     rms          rms(c)
DAV:   1    -0.228886412181E+03   -0.33109E-02   -0.38691E+00  4032   0.352E+00    0.377E-01
RMM:   2    -0.228895623068E+03   -0.92109E-02   -0.86504E-02  4038   0.485E-01    0.503E-01
RMM:   3    -0.228894330949E+03    0.12921E-02   -0.47113E-03  4038   0.108E-01    0.349E-01
RMM:   4    -0.228894511299E+03   -0.18035E-03   -0.11429E-03  4040   0.527E-02    0.376E-01
RMM:   5    -0.228893603476E+03    0.90782E-03   -0.38170E-04  4042   0.277E-02    0.177E-01
RMM:   6    -0.228893661084E+03   -0.57608E-04   -0.41184E-04  4038   0.303E-02    0.187E-01
RMM:   7    -0.228893549226E+03    0.11186E-03   -0.39756E-04  4038   0.305E-02    0.105E-01
RMM:   8    -0.228893462351E+03    0.86875E-04   -0.11761E-04  4038   0.167E-02    0.323E-02
RMM:   9    -0.228893460472E+03    0.18788E-05   -0.13949E-05  4028   0.580E-03    0.224E-02
RMM:  10    -0.228893456314E+03    0.41581E-05   -0.52189E-06  3410   0.351E-03    0.140E-02
RMM:  11    -0.228893455709E+03    0.60459E-06   -0.57557E-06  3856   0.362E-03
  37 F= -.22889346E+03 E0= -.22876018E+03  d E =-.103551E-01
       N       E                     dE             d eps       ncg     rms          rms(c)
DAV:   1    -0.228856771253E+03    0.36685E-01   -0.34794E+01  4032   0.105E+01    0.114E+00
RMM:   2    -0.228942321982E+03   -0.85551E-01   -0.79511E-01  4039   0.146E+00    0.154E+00
RMM:   3    -0.228928886907E+03    0.13435E-01   -0.42915E-02  4038   0.325E-01    0.103E+00
RMM:   4    -0.228926062006E+03    0.28249E-02   -0.90610E-03  4039   0.152E-01    0.820E-01
RMM:   5    -0.228924078698E+03    0.19833E-02   -0.32222E-03  4042   0.808E-02    0.657E-01
RMM:   6    -0.228923680428E+03    0.39827E-03   -0.36069E-03  4038   0.873E-02    0.614E-01
RMM:   7    -0.228922007038E+03    0.16734E-02   -0.34824E-03  4038   0.900E-02    0.330E-01
RMM:   8    -0.228921204930E+03    0.80211E-03   -0.11663E-03  4038   0.523E-02    0.111E-01
RMM:   9    -0.228921176348E+03    0.28583E-04   -0.14797E-04  4038   0.190E-02    0.748E-02
RMM:  10    -0.228921128288E+03    0.48059E-04   -0.52484E-05  4034   0.110E-02    0.449E-02
RMM:  11    -0.228921119377E+03    0.89110E-05   -0.54882E-05  4036   0.109E-02    0.332E-02
RMM:  12    -0.228921116523E+03    0.28540E-05   -0.25190E-05  4026   0.747E-03    0.220E-02
RMM:  13    -0.228921116410E+03    0.11294E-06   -0.73149E-06  3753   0.423E-03
  38 F= -.22892112E+03 E0= -.22878740E+03  d E =-.380158E-01
       N       E                     dE             d eps       ncg     rms          rms(c)
DAV:   1    -0.228686729582E+03    0.23439E+00   -0.13888E+02  4032   0.210E+01    0.228E+00
RMM:   2    -0.229049567924E+03   -0.36284E+00   -0.33433E+00  4040   0.294E+00    0.313E+00
RMM:   3    -0.228993766966E+03    0.55801E-01   -0.17873E-01  4038   0.661E-01    0.217E+00
RMM:   4    -0.229005318702E+03   -0.11552E-01   -0.46708E-02  4039   0.334E-01    0.241E+00
RMM:   5    -0.228965255152E+03    0.40064E-01   -0.14456E-02  4041   0.170E-01    0.106E+00
RMM:   6    -0.228965664514E+03   -0.40936E-03   -0.13833E-02  4038   0.177E-01    0.106E+00
RMM:   7    -0.228961713573E+03    0.39509E-02   -0.12441E-02  4038   0.169E-01    0.708E-01
RMM:   8    -0.228958853054E+03    0.28605E-02   -0.52059E-03  4038   0.109E-01    0.329E-01
RMM:   9    -0.228958458719E+03    0.39434E-03   -0.94367E-04  4038   0.486E-02    0.188E-01
RMM:  10    -0.228958177605E+03    0.28111E-03   -0.28330E-04  4038   0.256E-02    0.106E-01
RMM:  11    -0.228958112787E+03    0.64817E-04   -0.21177E-04  4037   0.216E-02    0.633E-02
RMM:  12    -0.228958103566E+03    0.92213E-05   -0.95160E-05  4037   0.147E-02    0.418E-02
RMM:  13    -0.228958107169E+03   -0.36025E-05   -0.31474E-05  4032   0.859E-03    0.269E-02
RMM:  14    -0.228958106511E+03    0.65732E-06   -0.78873E-06  3863   0.442E-03
  39 F= -.22895811E+03 E0= -.22882342E+03  d E =-.750059E-01
       N       E                     dE             d eps       ncg     rms          rms(c)
DAV:   1    -0.227633443601E+03    0.13247E+01   -0.55176E+02  4032   0.417E+01    0.469E+00
RMM:   2    -0.229330083102E+03   -0.16966E+01   -0.15688E+01  4039   0.606E+00    0.626E+00
RMM:   3    -0.229217306555E+03    0.11278E+00   -0.84740E-01  4038   0.141E+00    0.596E+00
RMM:   4    -0.229306981225E+03   -0.89675E-01   -0.29541E-01  4040   0.789E-01    0.633E+00
RMM:   5    -0.228949677206E+03    0.35730E+00   -0.94066E-02  4038   0.451E-01    0.201E+00
RMM:   6    -0.228954575217E+03   -0.48980E-02   -0.50822E-02  4038   0.347E-01    0.211E+00
RMM:   7    -0.228940115839E+03    0.14459E-01   -0.43039E-02  4038   0.310E-01    0.161E+00
RMM:   8    -0.228934222090E+03    0.58937E-02   -0.22900E-02  4038   0.227E-01    0.115E+00
RMM:   9    -0.228926339726E+03    0.78824E-02   -0.83771E-03  4039   0.144E-01    0.454E-01
RMM:  10    -0.228925012415E+03    0.13273E-02   -0.22271E-03  4038   0.730E-02    0.249E-01
RMM:  11    -0.228924660471E+03    0.35194E-03   -0.93530E-04  4038   0.465E-02    0.164E-01
RMM:  12    -0.228924592723E+03    0.67748E-04   -0.53163E-04  4038   0.348E-02    0.118E-01
RMM:  13    -0.228924563706E+03    0.29017E-04   -0.20807E-04  4038   0.221E-02    0.805E-02
RMM:  14    -0.228924545686E+03    0.18020E-04   -0.84967E-05  4035   0.146E-02    0.331E-02
RMM:  15    -0.228924551256E+03   -0.55695E-05   -0.18353E-05  4032   0.655E-03    0.190E-02
RMM:  16    -0.228924565163E+03   -0.13907E-04   -0.51069E-06  3240   0.350E-03    0.110E-02
RMM:  17    -0.228924575158E+03   -0.99949E-05   -0.22541E-06  2487   0.245E-03    0.681E-03
RMM:  18    -0.228924590430E+03   -0.15272E-04   -0.11813E-06  2349   0.169E-03    0.511E-03
RMM:  19    -0.228924601072E+03   -0.10642E-04   -0.56448E-07  2310   0.107E-03    0.225E-03
RMM:  20    -0.228924609361E+03   -0.82898E-05   -0.34016E-07  2259   0.759E-04    0.155E-03
RMM:  21    -0.228924617835E+03   -0.84739E-05   -0.26786E-07  1934   0.623E-04    0.128E-03
RMM:  22    -0.228924625257E+03   -0.74217E-05   -0.27395E-07  2010   0.615E-04    0.117E-03
RMM:  23    -0.228924632713E+03   -0.74563E-05   -0.30368E-07  1914   0.607E-04    0.679E-04
RMM:  24    -0.228924637499E+03   -0.47861E-05   -0.21736E-07  1629   0.536E-04    0.610E-04
RMM:  25    -0.228924640186E+03   -0.26863E-05   -0.15848E-07  1552   0.457E-04    0.553E-04
RMM:  26    -0.228924641981E+03   -0.17956E-05   -0.78299E-08  1054   0.374E-04    0.408E-04
RMM:  27    -0.228924643149E+03   -0.11676E-05   -0.47855E-08   927   0.388E-04    0.216E-04
RMM:  28    -0.228924643672E+03   -0.52345E-06   -0.38430E-08   899   0.378E-04
  40 F= -.22892464E+03 E0= -.22878754E+03  d E =-.415430E-01
       N       E                     dE             d eps       ncg     rms          rms(c)
DAV:   1    -0.228348510261E+03    0.57613E+00   -0.30062E+02  4032   0.310E+01    0.325E+00
RMM:   2    -0.229282534606E+03   -0.93402E+00   -0.73388E+00  4038   0.434E+00    0.664E+00
RMM:   3    -0.229158984161E+03    0.12355E+00   -0.37552E-01  4038   0.937E-01    0.412E+00
RMM:   4    -0.229140491303E+03    0.18493E-01   -0.18283E-01  4039   0.621E-01    0.469E+00
RMM:   5    -0.228988408691E+03    0.15208E+00   -0.56068E-02  4038   0.373E-01    0.191E+00
RMM:   6    -0.228976879538E+03    0.11529E-01   -0.30199E-02  4038   0.263E-01    0.139E+00
RMM:   7    -0.228970066930E+03    0.68126E-02   -0.26611E-02  4038   0.250E-01    0.768E-01
RMM:   8    -0.228967299616E+03    0.27673E-02   -0.95702E-03  4038   0.147E-01    0.465E-01
RMM:   9    -0.228966045344E+03    0.12543E-02   -0.25830E-03  4038   0.794E-02    0.265E-01
RMM:  10    -0.228965585783E+03    0.45956E-03   -0.78501E-04  4038   0.441E-02    0.154E-01
RMM:  11    -0.228965461333E+03    0.12445E-03   -0.31493E-04  4038   0.275E-02    0.100E-01
RMM:  12    -0.228965430228E+03    0.31105E-04   -0.24552E-04  4036   0.238E-02    0.720E-02
RMM:  13    -0.228965422332E+03    0.78959E-05   -0.10391E-04  4036   0.155E-02    0.484E-02
RMM:  14    -0.228965414152E+03    0.81799E-05   -0.22533E-05  4020   0.727E-03    0.193E-02
RMM:  15    -0.228965416830E+03   -0.26777E-05   -0.39894E-06  2904   0.318E-03    0.104E-02
RMM:  16    -0.228965423645E+03   -0.68146E-05   -0.18546E-06  2350   0.222E-03    0.741E-03
RMM:  17    -0.228965430709E+03   -0.70647E-05   -0.12615E-06  2295   0.185E-03    0.429E-03
RMM:  18    -0.228965437536E+03   -0.68270E-05   -0.63930E-07  2281   0.128E-03    0.274E-03
RMM:  19    -0.228965441447E+03   -0.39104E-05   -0.24451E-07  2219   0.760E-04    0.153E-03
RMM:  20    -0.228965446540E+03   -0.50927E-05   -0.16430E-07  1699   0.543E-04    0.119E-03
RMM:  21    -0.228965451227E+03   -0.46870E-05   -0.18766E-07  1895   0.554E-04    0.970E-04
RMM:  22    -0.228965455130E+03   -0.39032E-05   -0.15024E-07  1505   0.492E-04    0.815E-04
RMM:  23    -0.228965459013E+03   -0.38836E-05   -0.21633E-07  1932   0.561E-04    0.464E-04
RMM:  24    -0.228965460971E+03   -0.19575E-05   -0.86627E-08  1153   0.401E-04    0.402E-04
RMM:  25    -0.228965462384E+03   -0.14134E-05   -0.84853E-08  1187   0.406E-04    0.360E-04
RMM:  26    -0.228965463512E+03   -0.11279E-05   -0.61396E-08  1155   0.415E-04    0.269E-04
RMM:  27    -0.228965464065E+03   -0.55265E-06   -0.44169E-08  1031   0.366E-04
  41 F= -.22896546E+03 E0= -.22883015E+03  d E =-.823634E-01
       N       E                     dE             d eps       ncg     rms          rms(c)
DAV:   1    -0.228958765436E+03    0.66981E-02   -0.19162E+01  4032   0.780E+00    0.814E-01
RMM:   2    -0.229003875135E+03   -0.45110E-01   -0.42746E-01  4040   0.108E+00    0.104E+00
RMM:   3    -0.228999854385E+03    0.40207E-02   -0.23816E-02  4038   0.243E-01    0.902E-01
RMM:   4    -0.229006161456E+03   -0.63071E-02   -0.84783E-03  4043   0.135E-01    0.123E+00
RMM:   5    -0.228994445298E+03    0.11716E-01   -0.42310E-03  4038   0.928E-02    0.490E-01
RMM:   6    -0.228993674331E+03    0.77097E-03   -0.18084E-03  4038   0.674E-02    0.279E-01
RMM:   7    -0.228993878862E+03   -0.20453E-03   -0.19862E-03  4038   0.683E-02    0.269E-01
RMM:   8    -0.228993335098E+03    0.54376E-03   -0.69528E-04  4038   0.403E-02    0.989E-02
RMM:   9    -0.228993306129E+03    0.28969E-04   -0.97642E-05  4038   0.158E-02    0.527E-02
RMM:  10    -0.228993281977E+03    0.24152E-04   -0.31248E-05  4026   0.865E-03    0.325E-02
RMM:  11    -0.228993276423E+03    0.55540E-05   -0.30331E-05  4032   0.821E-03    0.239E-02
RMM:  12    -0.228993275116E+03    0.13067E-05   -0.15967E-05  4026   0.596E-03    0.150E-02
RMM:  13    -0.228993275606E+03   -0.49017E-06   -0.39765E-06  2945   0.315E-03
  42 F= -.22899328E+03 E0= -.22885748E+03  d E =-.278115E-01
       N       E                     dE             d eps       ncg     rms          rms(c)
DAV:   1    -0.228731611577E+03    0.26166E+00   -0.17218E+02  4032   0.233E+01    0.246E+00
RMM:   2    -0.229168644079E+03   -0.43703E+00   -0.41093E+00  4040   0.328E+00    0.311E+00
RMM:   3    -0.229169814096E+03   -0.11700E-02   -0.23512E-01  4038   0.757E-01    0.354E+00
RMM:   4    -0.229169386543E+03    0.42755E-03   -0.83789E-02  4042   0.418E-01    0.344E+00
RMM:   5    -0.229076844523E+03    0.92542E-01   -0.37632E-02  4038   0.289E-01    0.130E+00
RMM:   6    -0.229070868779E+03    0.59757E-02   -0.15657E-02  4038   0.198E-01    0.802E-01
RMM:   7    -0.229070677231E+03    0.19155E-03   -0.15274E-02  4038   0.189E-01    0.690E-01
RMM:   8    -0.229068403895E+03    0.22733E-02   -0.65199E-03  4038   0.123E-01    0.447E-01
RMM:   9    -0.229067485736E+03    0.91816E-03   -0.14498E-03  4038   0.603E-02    0.213E-01
RMM:  10    -0.229067149859E+03    0.33588E-03   -0.44348E-04  4038   0.325E-02    0.132E-01
RMM:  11    -0.229067057347E+03    0.92512E-04   -0.28140E-04  4037   0.255E-02    0.806E-02
RMM:  12    -0.229067019018E+03    0.38329E-04   -0.15020E-04  4036   0.185E-02    0.400E-02
RMM:  13    -0.229067027956E+03   -0.89376E-05   -0.39452E-05  4033   0.959E-03    0.326E-02
RMM:  14    -0.229067025473E+03    0.24829E-05   -0.91361E-06  3976   0.473E-03    0.127E-02
RMM:  15    -0.229067029400E+03   -0.39274E-05   -0.24033E-06  2528   0.252E-03    0.808E-03
RMM:  16    -0.229067037155E+03   -0.77544E-05   -0.14873E-06  2312   0.194E-03    0.638E-03
RMM:  17    -0.229067042804E+03   -0.56494E-05   -0.81046E-07  2260   0.152E-03    0.293E-03
RMM:  18    -0.229067048651E+03   -0.58463E-05   -0.31378E-07  2258   0.862E-04    0.200E-03
RMM:  19    -0.229067053566E+03   -0.49151E-05   -0.14625E-07  1792   0.550E-04    0.110E-03
RMM:  20    -0.229067057847E+03   -0.42812E-05   -0.11597E-07  1598   0.491E-04    0.977E-04
RMM:  21    -0.229067063106E+03   -0.52592E-05   -0.19206E-07  1830   0.544E-04    0.804E-04
RMM:  22    -0.229067067104E+03   -0.39977E-05   -0.12692E-07  1479   0.474E-04    0.624E-04
RMM:  23    -0.229067069812E+03   -0.27084E-05   -0.14898E-07  1560   0.455E-04    0.481E-04
RMM:  24    -0.229067071373E+03   -0.15604E-05   -0.58289E-08   925   0.368E-04    0.424E-04
RMM:  25    -0.229067072445E+03   -0.10723E-05   -0.50544E-08   931   0.388E-04    0.392E-04
RMM:  26    -0.229067073178E+03   -0.73350E-06   -0.62217E-08  1064   0.395E-04
  43 F= -.22906707E+03 E0= -.22893006E+03  d E =-.101609E+00
       N       E                     dE             d eps       ncg     rms          rms(c)
DAV:   1    -0.227515808314E+03    0.15513E+01   -0.68537E+02  4032   0.464E+01    0.501E+00
RMM:   2    -0.229590708593E+03   -0.20749E+01   -0.19210E+01  4038   0.680E+00    0.669E+00
RMM:   3    -0.229846762013E+03   -0.25605E+00   -0.11351E+00  4038   0.162E+00    0.926E+00
RMM:   4    -0.229421586419E+03    0.42518E+00   -0.38788E-01  4040   0.902E-01    0.581E+00
RMM:   5    -0.229161261969E+03    0.26032E+00   -0.11924E-01  4038   0.534E-01    0.230E+00
RMM:   6    -0.229146249260E+03    0.15013E-01   -0.63511E-02  4038   0.390E-01    0.190E+00
RMM:   7    -0.229135420134E+03    0.10829E-01   -0.46731E-02  4038   0.331E-01    0.139E+00
[...]
RMM:   4    -0.230360463514E+03   -0.69648E-04   -0.25846E-04  4044   0.245E-02    0.186E-01
RMM:   5    -0.230360204114E+03    0.25940E-03   -0.12497E-04  4041   0.161E-02    0.779E-02
RMM:   6    -0.230360215463E+03   -0.11349E-04   -0.85962E-05  4038   0.143E-02    0.734E-02
RMM:   7    -0.230360193406E+03    0.22057E-04   -0.66546E-05  4038   0.124E-02    0.437E-02
RMM:   8    -0.230360182539E+03    0.10867E-04   -0.25858E-05  4032   0.783E-03    0.187E-02
RMM:   9    -0.230360180442E+03    0.20972E-05   -0.40184E-06  2966   0.323E-03    0.857E-03
RMM:  10    -0.230360179974E+03    0.46757E-06   -0.91128E-07  2160   0.165E-03
 171 F= -.23036018E+03 E0= -.23023682E+03  d E =-.146637E-02
       N       E                     dE             d eps       ncg     rms          rms(c)
DAV:   1    -0.230358962445E+03    0.12180E-02   -0.95640E-01  4032   0.171E+00    0.189E-01
RMM:   2    -0.230361193414E+03   -0.22310E-02   -0.22442E-02  4038   0.248E-01    0.196E-01
RMM:   3    -0.230361072146E+03    0.12127E-03   -0.12431E-03  4038   0.560E-02    0.194E-01
RMM:   4    -0.230361178676E+03   -0.10653E-03   -0.35598E-04  4044   0.287E-02    0.220E-01
RMM:   5    -0.230360808992E+03    0.36968E-03   -0.17201E-04  4041   0.190E-02    0.886E-02
RMM:   6    -0.230360827357E+03   -0.18365E-04   -0.12130E-04  4038   0.170E-02    0.847E-02
RMM:   7    -0.230360793449E+03    0.33908E-04   -0.92009E-05  4038   0.146E-02    0.483E-02
RMM:   8    -0.230360780586E+03    0.12863E-04   -0.34569E-05  4032   0.906E-03    0.219E-02
RMM:   9    -0.230360777762E+03    0.28237E-05   -0.54280E-06  3262   0.374E-03    0.106E-02
RMM:  10    -0.230360777104E+03    0.65796E-06   -0.11753E-06  2168   0.184E-03
 172 F= -.23036078E+03 E0= -.23023737E+03  d E =-.206350E-02
       N       E                     dE             d eps       ncg     rms          rms(c)
DAV:   1    -0.230360958146E+03   -0.18038E-03   -0.49604E-01  4032   0.123E+00    0.140E-01
RMM:   2    -0.230362310654E+03   -0.13525E-02   -0.11834E-02  4038   0.179E-01    0.220E-01
RMM:   3    -0.230362199301E+03    0.11135E-03   -0.68982E-04  4038   0.409E-02    0.184E-01
RMM:   4    -0.230362254079E+03   -0.54778E-04   -0.34963E-04  4039   0.270E-02    0.202E-01
RMM:   5    -0.230361926671E+03    0.32741E-03   -0.14629E-04  4038   0.185E-02    0.868E-02
RMM:   6    -0.230361935506E+03   -0.88360E-05   -0.80402E-05  4036   0.140E-02    0.738E-02
RMM:   7    -0.230361912846E+03    0.22661E-04   -0.59865E-05  4035   0.120E-02    0.424E-02
RMM:   8    -0.230361901853E+03    0.10992E-04   -0.20357E-05  4026   0.693E-03    0.170E-02
RMM:   9    -0.230361900455E+03    0.13984E-05   -0.27515E-06  2565   0.271E-03    0.879E-03
RMM:  10    -0.230361900137E+03    0.31752E-06   -0.84389E-07  2186   0.162E-03
 173 F= -.23036190E+03 E0= -.23023850E+03  d E =-.112303E-02
       N       E                     dE             d eps       ncg     rms          rms(c)
DAV:   1    -0.230359567110E+03    0.23333E-02   -0.16726E+00  4032   0.227E+00    0.257E-01
RMM:   2    -0.230364119687E+03   -0.45526E-02   -0.39816E-02  4038   0.329E-01    0.403E-01
RMM:   3    -0.230363783906E+03    0.33578E-03   -0.23134E-03  4038   0.749E-02    0.339E-01
RMM:   4    -0.230363919655E+03   -0.13575E-03   -0.11797E-03  4039   0.496E-02    0.369E-01
RMM:   5    -0.230362829803E+03    0.10899E-02   -0.47789E-04  4038   0.336E-02    0.159E-01
RMM:   6    -0.230362861719E+03   -0.31917E-04   -0.26508E-04  4036   0.255E-02    0.138E-01
RMM:   7    -0.230362776241E+03    0.85478E-04   -0.20553E-04  4038   0.222E-02    0.792E-02
RMM:   8    -0.230362737375E+03    0.38866E-04   -0.68468E-05  4037   0.127E-02    0.308E-02
RMM:   9    -0.230362732672E+03    0.47029E-05   -0.10268E-05  4007   0.502E-03    0.162E-02
RMM:  10    -0.230362731225E+03    0.14475E-05   -0.25534E-06  2490   0.261E-03    0.106E-02
RMM:  11    -0.230362730795E+03    0.42982E-06   -0.23796E-06  2326   0.254E-03
 174 F= -.23036273E+03 E0= -.23023936E+03  d E =-.195369E-02
       N       E                     dE             d eps       ncg     rms          rms(c)
DAV:   1    -0.230362667572E+03    0.63652E-04   -0.52065E-01  4032   0.127E+00    0.137E-01
RMM:   2    -0.230364126320E+03   -0.14587E-02   -0.12389E-02  4038   0.184E-01    0.217E-01
RMM:   3    -0.230364017761E+03    0.10856E-03   -0.76354E-04  4038   0.429E-02    0.194E-01
RMM:   4    -0.230363940929E+03    0.76832E-04   -0.31965E-04  4038   0.260E-02    0.193E-01
RMM:   5    -0.230363691956E+03    0.24897E-03   -0.11048E-04  4038   0.167E-02    0.781E-02
RMM:   6    -0.230363691205E+03    0.75089E-06   -0.66996E-05  4035   0.126E-02    0.690E-02
RMM:   7    -0.230363678247E+03    0.12959E-04   -0.67435E-05  4035   0.127E-02    0.400E-02
RMM:   8    -0.230363664894E+03    0.13353E-04   -0.19454E-05  4026   0.681E-03    0.122E-02
RMM:   9    -0.230363664530E+03    0.36359E-06   -0.22383E-06  2406   0.242E-03
 175 F= -.23036366E+03 E0= -.23024028E+03  d E =-.933735E-03
       N       E                     dE             d eps       ncg     rms          rms(c)
DAV:   1    -0.230360924780E+03    0.27401E-02   -0.19446E+00  4032   0.246E+00    0.264E-01
RMM:   2    -0.230366263610E+03   -0.53388E-02   -0.46102E-02  4038   0.355E-01    0.402E-01
RMM:   3    -0.230366091804E+03    0.17181E-03   -0.28489E-03  4038   0.828E-02    0.388E-01
RMM:   4    -0.230365661073E+03    0.43073E-03   -0.11916E-03  4038   0.502E-02    0.366E-01
RMM:   5    -0.230364767022E+03    0.89405E-03   -0.40205E-04  4038   0.319E-02    0.150E-01
RMM:   6    -0.230364750064E+03    0.16958E-04   -0.23995E-04  4036   0.238E-02    0.131E-01
RMM:   7    -0.230364700651E+03    0.49413E-04   -0.23937E-04  4037   0.239E-02    0.753E-02
RMM:   8    -0.230364653800E+03    0.46851E-04   -0.69345E-05  4035   0.129E-02    0.238E-02
RMM:   9    -0.230364651747E+03    0.20535E-05   -0.88826E-06  3995   0.460E-03    0.147E-02
RMM:  10    -0.230364650241E+03    0.15057E-05   -0.24397E-06  2401   0.254E-03    0.997E-03
RMM:  11    -0.230364649938E+03    0.30304E-06   -0.28903E-06  2356   0.283E-03
 176 F= -.23036465E+03 E0= -.23024125E+03  d E =-.191914E-02
       N       E                     dE             d eps       ncg     rms          rms(c)
DAV:   1    -0.230364182987E+03    0.46725E-03   -0.29603E-01  4032   0.960E-01    0.103E-01
RMM:   2    -0.230364999556E+03   -0.81657E-03   -0.70339E-03  4038   0.139E-01    0.158E-01
RMM:   3    -0.230364972287E+03    0.27269E-04   -0.43601E-04  4038   0.324E-02    0.153E-01
RMM:   4    -0.230364890385E+03    0.81902E-04   -0.17977E-04  4038   0.196E-02    0.140E-01
RMM:   5    -0.230364766491E+03    0.12389E-03   -0.59971E-05  4038   0.123E-02    0.586E-02
RMM:   6    -0.230364764828E+03    0.16626E-05   -0.38115E-05  4032   0.950E-03    0.511E-02
RMM:   7    -0.230364758638E+03    0.61906E-05   -0.37151E-05  4037   0.940E-03    0.303E-02
RMM:   8    -0.230364751128E+03    0.75095E-05   -0.10779E-05  4010   0.508E-03    0.864E-03
RMM:   9    -0.230364750970E+03    0.15778E-06   -0.11884E-06  2198   0.179E-03
 177 F= -.23036475E+03 E0= -.23024138E+03  d E =-.202018E-02
       N       E                     dE             d eps       ncg     rms          rms(c)
DAV:   1    -0.230364256173E+03    0.49495E-03   -0.64539E-01  4032   0.142E+00    0.151E-01
RMM:   2    -0.230365725502E+03   -0.14693E-02   -0.15370E-02  4038   0.205E-01    0.106E-01
RMM:   3    -0.230365688786E+03    0.36716E-04   -0.71033E-04  4038   0.433E-02    0.129E-01
RMM:   4    -0.230365765835E+03   -0.77049E-04   -0.21856E-04  4044   0.221E-02    0.166E-01
RMM:   5    -0.230365563583E+03    0.20225E-03   -0.10418E-04  4041   0.149E-02    0.808E-02
RMM:   6    -0.230365545509E+03    0.18074E-04   -0.66490E-05  4038   0.125E-02    0.481E-02
RMM:   7    -0.230365542644E+03    0.28656E-05   -0.55631E-05  4035   0.115E-02    0.332E-02
RMM:   8    -0.230365534012E+03    0.86320E-05   -0.15632E-05  4026   0.607E-03    0.164E-02
RMM:   9    -0.230365532527E+03    0.14845E-05   -0.21810E-06  2390   0.244E-03    0.810E-03
RMM:  10    -0.230365531954E+03    0.57296E-06   -0.81803E-07  2145   0.158E-03
 178 F= -.23036553E+03 E0= -.23024216E+03  d E =-.780984E-03
       N       E                     dE             d eps       ncg     rms          rms(c)
DAV:   1    -0.230364676863E+03    0.85566E-03   -0.59198E-01  4032   0.136E+00    0.145E-01
RMM:   2    -0.230366026768E+03   -0.13499E-02   -0.14105E-02  4038   0.196E-01    0.103E-01
RMM:   3    -0.230365974155E+03    0.52612E-04   -0.66230E-04  4038   0.420E-02    0.116E-01
RMM:   4    -0.230366010347E+03   -0.36192E-04   -0.19684E-04  4042   0.216E-02    0.141E-01
RMM:   5    -0.230365894659E+03    0.11569E-03   -0.85525E-05  4041   0.133E-02    0.880E-02
RMM:   6    -0.230365862530E+03    0.32129E-04   -0.69198E-05  4038   0.127E-02    0.497E-02
RMM:   7    -0.230365858611E+03    0.39188E-05   -0.56821E-05  4035   0.115E-02    0.343E-02
RMM:   8    -0.230365848449E+03    0.10162E-04   -0.16876E-05  4026   0.629E-03    0.145E-02
RMM:   9    -0.230365847325E+03    0.11233E-05   -0.20674E-06  2367   0.238E-03    0.700E-03
RMM:  10    -0.230365846824E+03    0.50119E-06   -0.77173E-07  2139   0.156E-03
 179 F= -.23036585E+03 E0= -.23024248E+03  d E =-.109585E-02
       N       E                     dE             d eps       ncg     rms          rms(c)
DAV:   1    -0.230365326596E+03    0.52073E-03   -0.58673E-01  4032   0.134E+00    0.153E-01
RMM:   2    -0.230366854923E+03   -0.15283E-02   -0.13905E-02  4038   0.196E-01    0.201E-01
RMM:   3    -0.230367068231E+03   -0.21331E-03   -0.85958E-04  4038   0.452E-02    0.257E-01
RMM:   4    -0.230366624522E+03    0.44371E-03   -0.33482E-04  4038   0.270E-02    0.143E-01
RMM:   5    -0.230366521420E+03    0.10310E-03   -0.16901E-04  4038   0.202E-02    0.974E-02
RMM:   6    -0.230366489386E+03    0.32033E-04   -0.10188E-04  4038   0.155E-02    0.611E-02
RMM:   7    -0.230366474879E+03    0.14507E-04   -0.55009E-05  4032   0.113E-02    0.365E-02
RMM:   8    -0.230366465949E+03    0.89307E-05   -0.16969E-05  4032   0.645E-03    0.160E-02
RMM:   9    -0.230366464843E+03    0.11058E-05   -0.20982E-06  2387   0.242E-03    0.884E-03
RMM:  10    -0.230366464453E+03    0.39011E-06   -0.82834E-07  2157   0.161E-03
 180 F= -.23036646E+03 E0= -.23024309E+03  d E =-.617628E-03
       N       E                     dE             d eps       ncg     rms          rms(c)
DAV:   1    -0.230366357354E+03    0.10749E-03   -0.77916E-02  4056   0.489E-01    0.566E-02
RMM:   2    -0.230366552291E+03   -0.19494E-03   -0.18585E-03  4038   0.718E-02    0.655E-02
RMM:   3    -0.230366601341E+03   -0.49050E-04   -0.11786E-04  4038   0.168E-02    0.101E-01
RMM:   4    -0.230366537500E+03    0.63841E-04   -0.49806E-05  4038   0.103E-02    0.570E-02
RMM:   5    -0.230366516925E+03    0.20574E-04   -0.24403E-05  4026   0.762E-03    0.317E-02
RMM:   6    -0.230366514678E+03    0.22475E-05   -0.14394E-05  4023   0.587E-03    0.225E-02
RMM:   7    -0.230366512246E+03    0.24319E-05   -0.77133E-06  3914   0.427E-03    0.103E-02
RMM:   8    -0.230366511692E+03    0.55424E-06   -0.17908E-06  2265   0.222E-03
 181 F= -.23036651E+03 E0= -.23024316E+03  d E =-.664867E-03
       N       E                     dE             d eps       ncg     rms          rms(c)
DAV:   1    -0.230366137584E+03    0.37466E-03   -0.50050E-01  4032   0.120E+00    0.120E-01
RMM:   2    -0.230367210450E+03   -0.10729E-02   -0.10303E-02  4038   0.176E-01    0.149E-01
RMM:   3    -0.230367322161E+03   -0.11171E-03   -0.64556E-04  4038   0.400E-02    0.206E-01
RMM:   4    -0.230367113552E+03    0.20861E-03   -0.20256E-04  4042   0.211E-02    0.120E-01
RMM:   5    -0.230367001425E+03    0.11213E-03   -0.85393E-05  4038   0.142E-02    0.559E-02
RMM:   6    -0.230367012070E+03   -0.10644E-04   -0.62428E-05  4038   0.120E-02    0.576E-02
RMM:   7    -0.230367002812E+03    0.92577E-05   -0.54568E-05  4032   0.113E-02    0.348E-02
RMM:   8    -0.230366995090E+03    0.77223E-05   -0.17238E-05  4026   0.628E-03    0.149E-02
RMM:   9    -0.230366993939E+03    0.11501E-05   -0.22905E-06  2457   0.252E-03    0.735E-03
RMM:  10    -0.230366993623E+03    0.31643E-06   -0.69312E-07  2142   0.149E-03
 182 F= -.23036699E+03 E0= -.23024363E+03  d E =-.481931E-03
       N       E                     dE             d eps       ncg     rms          rms(c)
DAV:   1    -0.230365230511E+03    0.17634E-02   -0.11934E+00  4032   0.185E+00    0.186E-01
RMM:   2    -0.230367790263E+03   -0.25598E-02   -0.24571E-02  4038   0.272E-01    0.228E-01
RMM:   3    -0.230368110166E+03   -0.31990E-03   -0.15440E-03  4038   0.618E-02    0.324E-01
RMM:   4    -0.230367546389E+03    0.56378E-03   -0.48619E-04  4042   0.327E-02    0.179E-01
RMM:   5    -0.230367298617E+03    0.24777E-03   -0.20815E-04  4038   0.222E-02    0.867E-02
RMM:   6    -0.230367320798E+03   -0.22181E-04   -0.15714E-04  4037   0.191E-02    0.879E-02
RMM:   7    -0.230367293826E+03    0.26973E-04   -0.13248E-04  4037   0.177E-02    0.516E-02
RMM:   8    -0.230367277332E+03    0.16494E-04   -0.38654E-05  4030   0.941E-03    0.236E-02
RMM:   9    -0.230367274277E+03    0.30547E-05   -0.56962E-06  3346   0.384E-03    0.116E-02
RMM:  10    -0.230367273433E+03    0.84419E-06   -0.14576E-06  2207   0.206E-03
 183 F= -.23036727E+03 E0= -.23024390E+03  d E =-.761741E-03
       N       E                     dE             d eps       ncg     rms          rms(c)
DAV:   1    -0.230366693007E+03    0.58127E-03   -0.61578E-01  4032   0.133E+00    0.144E-01
RMM:   2    -0.230368171828E+03   -0.14788E-02   -0.13343E-02  4038   0.200E-01    0.206E-01
RMM:   3    -0.230368033899E+03    0.13793E-03   -0.84795E-04  4038   0.463E-02    0.164E-01
RMM:   4    -0.230368242502E+03   -0.20860E-03   -0.35120E-04  4038   0.269E-02    0.243E-01
RMM:   5    -0.230367801951E+03    0.44055E-03   -0.12106E-04  4038   0.171E-02    0.833E-02
RMM:   6    -0.230367812798E+03   -0.10848E-04   -0.82123E-05  4038   0.138E-02    0.713E-02
RMM:   7    -0.230367794942E+03    0.17857E-04   -0.79364E-05  4032   0.137E-02    0.341E-02
RMM:   8    -0.230367787470E+03    0.74722E-05   -0.18295E-05  4025   0.660E-03    0.158E-02
RMM:   9    -0.230367785706E+03    0.17637E-05   -0.20881E-06  2359   0.238E-03    0.798E-03
RMM:  10    -0.230367785213E+03    0.49329E-06   -0.10135E-06  2184   0.178E-03
 184 F= -.23036779E+03 E0= -.23024439E+03  d E =-.511780E-03
       N       E                     dE             d eps       ncg     rms          rms(c)
DAV:   1    -0.230367206399E+03    0.57931E-03   -0.40585E-01  4032   0.108E+00    0.117E-01
RMM:   2    -0.230368188804E+03   -0.98241E-03   -0.87880E-03  4038   0.162E-01    0.172E-01
RMM:   3    -0.230368078048E+03    0.11076E-03   -0.55668E-04  4038   0.375E-02    0.130E-01
RMM:   4    -0.230368230871E+03   -0.15282E-03   -0.22999E-04  4038   0.218E-02    0.199E-01
RMM:   5    -0.230367932679E+03    0.29819E-03   -0.80669E-05  4038   0.139E-02    0.670E-02
RMM:   6    -0.230367942649E+03   -0.99700E-05   -0.55552E-05  4038   0.114E-02    0.589E-02
RMM:   7    -0.230367931380E+03    0.11269E-04   -0.53103E-05  4032   0.112E-02    0.308E-02
RMM:   8    -0.230367924724E+03    0.66564E-05   -0.12847E-05  4018   0.552E-03    0.123E-02
RMM:   9    -0.230367923764E+03    0.95950E-06   -0.13721E-06  2229   0.194E-03
 185 F= -.23036792E+03 E0= -.23024451E+03  d E =-.650331E-03
       N       E                     dE             d eps       ncg     rms          rms(c)
DAV:   1    -0.230367385943E+03    0.53878E-03   -0.52495E-01  4032   0.122E+00    0.138E-01
RMM:   2    -0.230368614233E+03   -0.12283E-02   -0.10953E-02  4038   0.183E-01    0.196E-01
RMM:   3    -0.230368662866E+03   -0.48633E-04   -0.71569E-04  4038   0.418E-02    0.206E-01
RMM:   4    -0.230368557268E+03    0.10560E-03   -0.33258E-04  4038   0.266E-02    0.179E-01
RMM:   5    -0.230368304209E+03    0.25306E-03   -0.10578E-04  4038   0.162E-02    0.726E-02
RMM:   6    -0.230368332533E+03   -0.28325E-04   -0.87183E-05  4036   0.145E-02    0.750E-02
RMM:   7    -0.230368302130E+03    0.30403E-04   -0.62973E-05  4034   0.122E-02    0.378E-02
RMM:   8    -0.230368294088E+03    0.80424E-05   -0.17174E-05  4032   0.639E-03    0.132E-02
RMM:   9    -0.230368293189E+03    0.89881E-06   -0.21628E-06  2444   0.244E-03
 186 F= -.23036829E+03 E0= -.23024487E+03  d E =-.369425E-03
       N       E                     dE             d eps       ncg     rms          rms(c)
DAV:   1    -0.230368030613E+03    0.26347E-03   -0.17514E-01  4032   0.706E-01    0.810E-02
RMM:   2    -0.230368432063E+03   -0.40145E-03   -0.36713E-03  4038   0.106E-01    0.107E-01
RMM:   3    -0.230368475389E+03   -0.43326E-04   -0.24543E-04  4038   0.244E-02    0.128E-01
RMM:   4    -0.230368426136E+03    0.49252E-04   -0.11424E-04  4038   0.155E-02    0.106E-01
RMM:   5    -0.230368339416E+03    0.86721E-04   -0.31844E-05  4027   0.889E-03    0.405E-02
RMM:   6    -0.230368350970E+03   -0.11554E-04   -0.27657E-05  4032   0.812E-03    0.446E-02
RMM:   7    -0.230368340690E+03    0.10281E-04   -0.20375E-05  4032   0.692E-03    0.221E-02
RMM:   8    -0.230368337852E+03    0.28374E-05   -0.57715E-06  3515   0.375E-03    0.686E-03
RMM:   9    -0.230368337655E+03    0.19742E-06   -0.72869E-07  2169   0.149E-03
 187 F= -.23036834E+03 E0= -.23024491E+03  d E =-.413891E-03
       N       E                     dE             d eps       ncg     rms          rms(c)
DAV:   1    -0.230367653146E+03    0.68471E-03   -0.54747E-01  4032   0.124E+00    0.112E-01
RMM:   2    -0.230368737923E+03   -0.10848E-02   -0.11011E-02  4038   0.183E-01    0.105E-01
RMM:   3    -0.230368884860E+03   -0.14694E-03   -0.59394E-04  4038   0.387E-02    0.192E-01
RMM:   4    -0.230368676954E+03    0.20791E-03   -0.16756E-04  4045   0.195E-02    0.105E-01
RMM:   5    -0.230368594214E+03    0.82740E-04   -0.62414E-05  4041   0.122E-02    0.500E-02
RMM:   6    -0.230368602414E+03   -0.81997E-05   -0.51750E-05  4038   0.111E-02    0.543E-02
RMM:   7    -0.230368592905E+03    0.95094E-05   -0.57744E-05  4032   0.116E-02    0.294E-02
RMM:   8    -0.230368587690E+03    0.52143E-05   -0.13885E-05  4022   0.579E-03    0.140E-02
RMM:   9    -0.230368586284E+03    0.14066E-05   -0.18227E-06  2298   0.224E-03    0.749E-03
RMM:  10    -0.230368585841E+03    0.44313E-06   -0.66800E-07  2134   0.146E-03
 188 F= -.23036859E+03 E0= -.23024514E+03  d E =-.248186E-03
       N       E                     dE             d eps       ncg     rms          rms(c)
DAV:   1    -0.230368567457E+03    0.18827E-04   -0.11857E-02  4176   0.183E-01    0.178E-02
RMM:   2    -0.230368593459E+03   -0.26002E-04   -0.24772E-04  4038   0.274E-02    0.211E-02
RMM:   3    -0.230368590828E+03    0.26309E-05   -0.16035E-05  4038   0.649E-03    0.183E-02
RMM:   4    -0.230368590780E+03    0.48014E-07   -0.30848E-06  2629   0.293E-03
 189 F= -.23036859E+03 E0= -.23024509E+03  d E =-.253125E-03
       N       E                     dE             d eps       ncg     rms          rms(c)
DAV:   1    -0.230368027822E+03    0.56301E-03   -0.43177E-01  4032   0.114E+00    0.114E-01
RMM:   2    -0.230368941753E+03   -0.91393E-03   -0.94504E-03  4038   0.165E-01    0.852E-02
RMM:   3    -0.230368900607E+03    0.41147E-04   -0.45985E-04  4038   0.354E-02    0.992E-02
RMM:   4    -0.230368863167E+03    0.37440E-04   -0.11148E-04  4038   0.172E-02    0.781E-02
RMM:   5    -0.230368893950E+03   -0.30783E-04   -0.68571E-05  4038   0.119E-02    0.104E-01
RMM:   6    -0.230368830528E+03    0.63422E-04   -0.49268E-05  4038   0.104E-02    0.540E-02
RMM:   7    -0.230368816340E+03    0.14188E-04   -0.47026E-05  4032   0.105E-02    0.250E-02
RMM:   8    -0.230368812244E+03    0.40956E-05   -0.79621E-06  3899   0.438E-03    0.106E-02
RMM:   9    -0.230368811680E+03    0.56428E-06   -0.11146E-06  2173   0.176E-03
 190 F= -.23036881E+03 E0= -.23024535E+03  d E =-.220900E-03
