<?xml version="1.0" encoding="ISO-8859-1"?>
<modeling>
 <generator>
  <i name="program" type="string">vasp </i>
  <i name="version" type="string">5.4.1  </i>
  <i name="subversion" type="string">24Jun15 (build Mar 14 2019 10:18:33) complex                          parallel </i>
  <i name="platform" type="string">INTEL-19.0.2+OPENMPI-3.1.3 </i>
  <i name="date" type="string">2023 01 23 </i>
  <i name="time" type="string">15:59:34 </i>
 </generator>
 <incar>
  <i type="int" name="ISTART">     0</i>
  <i type="string" name="PREC">normal</i>
  <i type="string" name="ALGO"> Fast</i>
  <i type="int" name="NELM">   500</i>
  <i type="int" name="IBRION">     2</i>
  <i type="int" name="NFREE">     2</i>
  <i name="EDIFF">      0.00000100</i>
  <i name="EDIFFG">     -0.02000000</i>
  <i type="int" name="NSW">   500</i>
  <i type="int" name="ISIF">     0</i>
  <i type="int" name="ISYM">     2</i>
  <i name="ENCUT">    400.00000000</i>
  <i name="POTIM">      0.35000000</i>
  <i type="string" name="LREAL"> Auto</i>
  <i type="logical" name="LPLANE"> T  </i>
  <i type="int" name="ISMEAR">     0</i>
  <i name="SIGMA">      0.10000000</i>
  <i type="int" name="NWRITE">     1</i>
  <i type="logical" name="LWAVE"> F  </i>
  <i type="logical" name="LCHARG"> F  </i>
  <i type="logical" name="LVTOT"> F  </i>
  <i type="logical" name="LORBIT"> F  </i>
  <i type="logical" name="LAECHG"> F  </i>
  <v type="int" name="KPOINT_BSE">    -1     0     0     0</v>
  <i type="int" name="NELM">   500</i>
  <i type="string" name="GGA"> PE          ! optPBE-vdW XC-functional</i>
  <i type="int" name="VOSKOWN">     1</i>
  <i type="logical" name="LDIPOL"> T  </i>
  <i type="logical" name="LMONO"> F  </i>
  <i type="int" name="IDIPOL">     3</i>
  <v name="DIPOL">      0.00000000      0.00000000      0.50000000</v>
 </incar>
 <kpoints>
  <generation param="Monkhorst-Pack">
   <v type="int" name="divisions">       2        2        1 </v>
   <v name="usershift">      0.00000000       0.00000000       0.00000000 </v>
   <v name="genvec1">      0.50000000       0.00000000       0.00000000 </v>
   <v name="genvec2">      0.00000000       0.50000000       0.00000000 </v>
   <v name="genvec3">      0.00000000       0.00000000       1.00000000 </v>
   <v name="shift">      0.50000000       0.50000000       0.00000000 </v>
  </generation>
  <varray name="kpointlist" >
   <v>       0.25000000       0.25000000       0.00000000 </v>
   <v>       0.00000000       0.25000000       0.00000000 </v>
   <v>      -0.25000000       0.00000000       0.00000000 </v>
   <v>      -0.25000000       0.25000000       0.00000000 </v>
   <v>       0.50000000      -0.25000000       0.00000000 </v>
   <v>      -0.25000000       0.50000000       0.00000000 </v>
  </varray>
  <varray name="weights" >
   <v>       0.16666667 </v>
   <v>       0.16666667 </v>
   <v>       0.16666667 </v>
   <v>       0.16666667 </v>
   <v>       0.16666667 </v>
   <v>       0.16666667 </v>
  </varray>
 </kpoints>
 <parameters>
  <separator name="general" >
   <i type="string" name="SYSTEM">unknown system</i>
   <i type="logical" name="LCOMPAT"> F  </i>
  </separator>
  <separator name="electronic" >
   <i type="string" name="PREC">normal</i>
   <i name="ENMAX">    400.00000000</i>
   <i name="ENAUG">    605.39200000</i>
   <i name="EDIFF">      0.00000100</i>
   <i type="int" name="IALGO">    68</i>
   <i type="int" name="IWAVPR">    11</i>
   <i type="int" name="NBANDS">   336</i>
   <i name="NELECT">    552.00000000</i>
   <i type="int" name="TURBO">     0</i>
   <i type="int" name="IRESTART">     0</i>
   <i type="int" name="NREBOOT">     0</i>
   <i type="int" name="NMIN">     0</i>
   <i name="EREF">      0.00000000</i>
   <separator name="electronic smearing" >
    <i type="int" name="ISMEAR">     0</i>
    <i name="SIGMA">      0.10000000</i>
    <i name="KSPACING">      0.50000000</i>
    <i type="logical" name="KGAMMA"> T  </i>
   </separator>
   <separator name="electronic projectors" >
    <i type="logical" name="LREAL"> T  </i>
    <v name="ROPT">     -0.00050000     -0.00050000     -0.00050000</v>
    <i type="int" name="LMAXPAW">  -100</i>
    <i type="int" name="LMAXMIX">     2</i>
    <i type="logical" name="NLSPLINE"> F  </i>
   </separator>
   <separator name="electronic startup" >
    <i type="int" name="ISTART">     0</i>
    <i type="int" name="ICHARG">     2</i>
    <i type="int" name="INIWAV">     1</i>
   </separator>
   <separator name="electronic spin" >
    <i type="int" name="ISPIN">     1</i>
    <i type="logical" name="LNONCOLLINEAR"> F  </i>
    <v name="MAGMOM">      1.00000000      1.00000000      1.00000000      1.00000000      1.00000000      1.00000000      1.00000000      1.00000000      1.00000000      1.00000000      1.00000000      1.00000000      1.00000000      1.00000000      1.00000000      1.00000000      1.00000000      1.00000000      1.00000000      1.00000000
      1.00000000      1.00000000      1.00000000      1.00000000      1.00000000      1.00000000      1.00000000      1.00000000      1.00000000      1.00000000      1.00000000      1.00000000      1.00000000      1.00000000      1.00000000      1.00000000      1.00000000      1.00000000      1.00000000      1.00000000
      1.00000000      1.00000000      1.00000000      1.00000000      1.00000000      1.00000000      1.00000000      1.00000000      1.00000000      1.00000000      1.00000000      1.00000000      1.00000000      1.00000000      1.00000000      1.00000000</v>
    <i name="NUPDOWN">     -1.00000000</i>
    <i type="logical" name="LSORBIT"> F  </i>
    <v name="SAXIS">      0.00000000      0.00000000      1.00000000</v>
    <i type="logical" name="LSPIRAL"> F  </i>
    <v name="QSPIRAL">      0.00000000      0.00000000      0.00000000</v>
    <i type="logical" name="LZEROZ"> F  </i>
   </separator>
   <separator name="electronic exchange-correlation" >
    <i type="logical" name="LASPH"> F  </i>
    <i type="logical" name="LMETAGGA"> F  </i>
   </separator>
   <separator name="electronic convergence" >
    <i type="int" name="NELM">   500</i>
    <i type="int" name="NELMDL">    -5</i>
    <i type="int" name="NELMIN">     2</i>
    <i name="ENINI">    400.00000000</i>
    <separator name="electronic convergence detail" >
     <i type="logical" name="LDIAG"> T  </i>
     <i type="logical" name="LSUBROT"> F  </i>
     <i name="WEIMIN">      0.00100000</i>
     <i name="EBREAK">      0.00000000</i>
     <i name="DEPER">      0.30000000</i>
     <i type="int" name="NRMM">     4</i>
     <i name="TIME">      0.40000000</i>
    </separator>
   </separator>
   <separator name="electronic mixer" >
    <i name="AMIX">      0.40000000</i>
    <i name="BMIX">      1.00000000</i>
    <i name="AMIN">      0.10000000</i>
    <i name="AMIX_MAG">      1.60000000</i>
    <i name="BMIX_MAG">      1.00000000</i>
    <separator name="electronic mixer details" >
     <i type="int" name="IMIX">     4</i>
     <i type="logical" name="MIXFIRST"> F  </i>
     <i type="int" name="MAXMIX">   -45</i>
     <i name="WC">    100.00000000</i>
     <i type="int" name="INIMIX">     1</i>
     <i type="int" name="MIXPRE">     1</i>
     <i type="int" name="MREMOVE">     5</i>
    </separator>
   </separator>
   <separator name="electronic dipolcorrection" >
    <i type="logical" name="LDIPOL"> T  </i>
    <i type="logical" name="LMONO"> F  </i>
    <i type="int" name="IDIPOL">     3</i>
    <i name="EPSILON">      1.00000000</i>
    <v name="DIPOL">      0.00000000      0.00000000      0.50000000</v>
    <i name="EFIELD">      0.00000000</i>
   </separator>
  </separator>
  <separator name="grids" >
   <i type="int" name="NGX">    54</i>
   <i type="int" name="NGY">    54</i>
   <i type="int" name="NGZ">   128</i>
   <i type="int" name="NGXF">   108</i>
   <i type="int" name="NGYF">   108</i>
   <i type="int" name="NGZF">   256</i>
   <i type="logical" name="ADDGRID"> F  </i>
  </separator>
  <separator name="ionic" >
   <i type="int" name="NSW">   500</i>
   <i type="int" name="IBRION">     2</i>
   <i type="int" name="ISIF">     0</i>
   <i name="PSTRESS">      0.00000000</i>
   <i name="EDIFFG">     -0.02000000</i>
   <i type="int" name="NFREE">     2</i>
   <i name="POTIM">      0.35000000</i>
   <i name="SMASS">     -3.00000000</i>
   <i name="SCALEE">      1.00000000</i>
  </separator>
  <separator name="ionic md" >
   <i name="TEBEG">      0.00010000</i>
   <i name="TEEND">      0.00010000</i>
   <i type="int" name="NBLOCK">     1</i>
   <i type="int" name="KBLOCK">   500</i>
   <i type="int" name="NPACO">   256</i>
   <i name="APACO">     16.00000000</i>
  </separator>
  <separator name="symmetry" >
   <i type="int" name="ISYM">     2</i>
   <i name="SYMPREC">      0.00001000</i>
  </separator>
  <separator name="dos" >
   <i type="logical" name="LORBIT"> F  </i>
   <v name="RWIGS">     -1.00000000     -1.00000000     -1.00000000</v>
   <i type="int" name="NEDOS">   301</i>
   <i name="EMIN">     10.00000000</i>
   <i name="EMAX">    -10.00000000</i>
   <i name="EFERMI">      0.00000000</i>
  </separator>
  <separator name="writing" >
   <i type="int" name="NWRITE">     1</i>
   <i type="logical" name="LWAVE"> F  </i>
   <i type="logical" name="LCHARG"> F  </i>
   <i type="logical" name="LPARD"> F  </i>
   <i type="logical" name="LVTOT"> F  </i>
   <i type="logical" name="LVHAR"> F  </i>
   <i type="logical" name="LELF"> F  </i>
   <i type="logical" name="LOPTICS"> F  </i>
   <v name="STM">      0.00000000      0.00000000      0.00000000      0.00000000      0.00000000      0.00000000      0.00000000</v>
  </separator>
  <separator name="performance" >
   <i type="int" name="NPAR">     6</i>
   <i type="int" name="NSIM">     4</i>
   <i type="int" name="NBLK">    -1</i>
   <i type="logical" name="LPLANE"> T  </i>
   <i type="logical" name="LSCALAPACK"> T  </i>
   <i type="logical" name="LSCAAWARE"> F  </i>
   <i type="logical" name="LSCALU"> F  </i>
   <i type="logical" name="LASYNC"> F  </i>
   <i type="logical" name="LORBITALREAL"> F  </i>
  </separator>
  <separator name="miscellaneous" >
   <i type="int" name="IDIOT">     3</i>
   <i type="logical" name="LMUSIC"> F  </i>
   <v name="POMASS">    196.96600000     16.00000000    106.42000000</v>
   <v name="DARWINR">      0.00000000      0.00000000      0.00000000</v>
   <v name="DARWINV">      1.00000000      1.00000000      1.00000000</v>
   <i type="logical" name="LCORR"> T  </i>
  </separator>
  <i type="logical" name="GGA_COMPAT"> T  </i>
  <i type="logical" name="LBERRY"> F  </i>
  <i type="int" name="ICORELEVEL">     0</i>
  <i type="logical" name="LDAU"> F  </i>
  <i type="int" name="I_CONSTRAINED_M">     0</i>
  <separator name="electronic exchange-correlation" >
   <i type="string" name="GGA">PE</i>
   <i type="int" name="VOSKOWN">     1</i>
   <i type="logical" name="LHFCALC"> F  </i>
   <i type="string" name="PRECFOCK"></i>
   <i type="logical" name="LSYMGRAD"> F  </i>
   <i type="logical" name="LHFONE"> F  </i>
   <i type="logical" name="LRHFCALC"> F  </i>
   <i type="logical" name="LTHOMAS"> F  </i>
   <i type="logical" name="LMODELHF"> F  </i>
   <i name="ENCUT4O">     -1.00000000</i>
   <i type="int" name="EXXOEP">     0</i>
   <i type="int" name="FOURORBIT">     0</i>
   <i name="AEXX">      0.00000000</i>
   <i name="HFALPHA">      0.00000000</i>
   <i name="MCALPHA">      0.00000000</i>
   <i name="ALDAX">      1.00000000</i>
   <i name="AGGAX">      1.00000000</i>
   <i name="ALDAC">      1.00000000</i>
   <i name="AGGAC">      1.00000000</i>
   <i type="int" name="NKREDX">     1</i>
   <i type="int" name="NKREDY">     1</i>
   <i type="int" name="NKREDZ">     1</i>
   <i type="logical" name="SHIFTRED"> F  </i>
   <i type="logical" name="ODDONLY"> F  </i>
   <i type="logical" name="EVENONLY"> F  </i>
   <i type="int" name="LMAXFOCK">     0</i>
   <i type="int" name="NMAXFOCKAE">     0</i>
   <i type="logical" name="LFOCKAEDFT"> F  </i>
   <i name="HFSCREEN">      0.00000000</i>
   <i name="HFSCREENC">      0.00000000</i>
   <i type="int" name="NBANDSGWLOW">     0</i>
  </separator>
  <separator name="vdW DFT" >
   <i type="logical" name="LUSE_VDW"> F  </i>
   <i name="Zab_VDW">     -0.84910000</i>
   <i name="PARAM1">      0.12340000</i>
   <i name="PARAM2">      1.00000000</i>
   <i name="PARAM3">      0.00000000</i>
  </separator>
  <separator name="model GW" >
   <i type="int" name="MODEL_GW">     0</i>
   <i name="MODEL_EPS0">     29.42037089</i>
   <i name="MODEL_ALPHA">      1.00000000</i>
  </separator>
  <separator name="linear response parameters" >
   <i type="logical" name="LEPSILON"> F  </i>
   <i type="logical" name="LRPA"> F  </i>
   <i type="logical" name="LNABLA"> F  </i>
   <i type="logical" name="LVEL"> F  </i>
   <i type="int" name="KINTER">     0</i>
   <i name="CSHIFT">      0.10000000</i>
   <i name="OMEGAMAX">     -1.00000000</i>
   <i name="DEG_THRESHOLD">      0.00200000</i>
  </separator>
  <separator name="orbital magnetization" >
   <i type="logical" name="NUCIND"> F  </i>
   <v name="MAGPOS">      0.00000000      0.00000000      0.00000000</v>
   <i type="logical" name="LNICSALL"> T  </i>
   <i type="logical" name="ORBITALMAG"> F  </i>
   <i type="logical" name="LMAGBLOCH"> F  </i>
   <i type="logical" name="LCHIMAG"> F  </i>
   <i type="logical" name="LGAUGE"> T  </i>
   <i type="int" name="MAGATOM">     0</i>
   <v name="MAGDIPOL">      0.00000000      0.00000000      0.00000000</v>
   <v name="AVECCONST">      0.00000000      0.00000000      0.00000000</v>
  </separator>
  <separator name="response functions" >
   <i type="logical" name="LADDER"> F  </i>
   <i type="logical" name="LFXC"> F  </i>
   <i type="logical" name="LHARTREE"> T  </i>
   <i type="int" name="IBSE">     0</i>
   <v type="int" name="KPOINT">    -1     0     0     0</v>
   <i type="logical" name="LTCTE"> F  </i>
   <i type="logical" name="LTETE"> F  </i>
   <i type="logical" name="LTRIPLET"> F  </i>
   <i type="logical" name="LFXCEPS"> F  </i>
   <i type="logical" name="LFXHEG"> F  </i>
   <i type="int" name="NATURALO">     0</i>
   <i type="logical" name="L2ORDER"> F  </i>
   <i type="logical" name="LUSEW"> F  </i>
   <i name="ENCUTGW">     -2.00000000</i>
   <i name="ENCUTGWSOFT">     -2.00000000</i>
   <i name="ENCUTLF">     -1.00000000</i>
   <i type="int" name="LMAXMP2">    -1</i>
   <i name="SCISSOR">      0.00000000</i>
   <i type="int" name="NOMEGA">     0</i>
   <i type="int" name="NOMEGAR">     0</i>
   <i type="int" name="NBANDSGW">    -1</i>
   <i type="int" name="NBANDSO">    -1</i>
   <i type="int" name="NBANDSV">    -1</i>
   <i type="int" name="NELM">   500</i>
   <i type="int" name="NELMHF">     1</i>
   <i type="int" name="DIM">     3</i>
   <i type="int" name="ANTIRES">     0</i>
   <i name="OMEGAMAX">    -30.00000000</i>
   <i name="OMEGAMIN">    -30.00000000</i>
   <i name="OMEGATL">   -200.00000000</i>
   <i type="int" name="OMEGAGRID">     0</i>
   <i name="CSHIFT">     -0.10000000</i>
   <i type="logical" name="SELFENERGY"> F  </i>
   <i type="logical" name="LSPECTRAL"> F  </i>
   <i type="logical" name="LSPECTRALGW"> F  </i>
   <i type="logical" name="LSINGLES"> F  </i>
   <i type="logical" name="LFERMIGW"> F  </i>
   <i type="logical" name="ODDONLYGW"> F  </i>
   <i type="logical" name="EVENONLYGW"> F  </i>
   <i type="int" name="NKREDLFX">     1</i>
   <i type="int" name="NKREDLFY">     1</i>
   <i type="int" name="NKREDLFZ">     1</i>
   <i type="int" name="MAXMEM">  1800</i>
   <i type="int" name="TELESCOPE">     0</i>
   <i type="int" name="TAUPAR">     1</i>
   <i type="int" name="OMEGAPAR">    -1</i>
   <i name="LAMBDA">      1.00000000</i>
  </separator>
  <separator name="External order field" >
   <i name="OFIELD_KAPPA">      0.00000000</i>
   <v name="OFIELD_K">      0.00000000      0.00000000      0.00000000</v>
   <i name="OFIELD_Q6_NEAR">      0.00000000</i>
   <i name="OFIELD_Q6_FAR">      0.00000000</i>
   <i name="OFIELD_A">      0.00000000</i>
  </separator>
 </parameters>
 <atominfo>
  <atoms>      56 </atoms>
  <types>       3 </types>
  <array name="atoms" >
   <dimension dim="1">ion</dimension>
   <field type="string">element</field>
   <field type="int">atomtype</field>
   <set>
    <rc><c>Au</c><c>   1</c></rc>
    <rc><c>Au</c><c>   1</c></rc>
    <rc><c>Au</c><c>   1</c></rc>
    <rc><c>Au</c><c>   1</c></rc>
    <rc><c>Au</c><c>   1</c></rc>
    <rc><c>Au</c><c>   1</c></rc>
    <rc><c>Au</c><c>   1</c></rc>
    <rc><c>Au</c><c>   1</c></rc>
    <rc><c>Au</c><c>   1</c></rc>
    <rc><c>Au</c><c>   1</c></rc>
    <rc><c>Au</c><c>   1</c></rc>
    <rc><c>Au</c><c>   1</c></rc>
    <rc><c>Au</c><c>   1</c></rc>
    <rc><c>Au</c><c>   1</c></rc>
    <rc><c>Au</c><c>   1</c></rc>
    <rc><c>Au</c><c>   1</c></rc>
    <rc><c>Au</c><c>   1</c></rc>
    <rc><c>Au</c><c>   1</c></rc>
    <rc><c>Au</c><c>   1</c></rc>
    <rc><c>Au</c><c>   1</c></rc>
    <rc><c>Au</c><c>   1</c></rc>
    <rc><c>Au</c><c>   1</c></rc>
    <rc><c>Au</c><c>   1</c></rc>
    <rc><c>Au</c><c>   1</c></rc>
    <rc><c>O </c><c>   2</c></rc>
    <rc><c>O </c><c>   2</c></rc>
    <rc><c>O </c><c>   2</c></rc>
    <rc><c>O </c><c>   2</c></rc>
    <rc><c>O </c><c>   2</c></rc>
    <rc><c>O </c><c>   2</c></rc>
    <rc><c>O </c><c>   2</c></rc>
    <rc><c>O </c><c>   2</c></rc>
    <rc><c>Pd</c><c>   3</c></rc>
    <rc><c>Pd</c><c>   3</c></rc>
    <rc><c>Pd</c><c>   3</c></rc>
    <rc><c>Pd</c><c>   3</c></rc>
    <rc><c>Pd</c><c>   3</c></rc>
    <rc><c>Pd</c><c>   3</c></rc>
    <rc><c>Pd</c><c>   3</c></rc>
    <rc><c>Pd</c><c>   3</c></rc>
    <rc><c>Pd</c><c>   3</c></rc>
    <rc><c>Pd</c><c>   3</c></rc>
    <rc><c>Pd</c><c>   3</c></rc>
    <rc><c>Pd</c><c>   3</c></rc>
    <rc><c>Pd</c><c>   3</c></rc>
    <rc><c>Pd</c><c>   3</c></rc>
    <rc><c>Pd</c><c>   3</c></rc>
    <rc><c>Pd</c><c>   3</c></rc>
    <rc><c>Pd</c><c>   3</c></rc>
    <rc><c>Pd</c><c>   3</c></rc>
    <rc><c>Pd</c><c>   3</c></rc>
    <rc><c>Pd</c><c>   3</c></rc>
    <rc><c>Pd</c><c>   3</c></rc>
    <rc><c>Pd</c><c>   3</c></rc>
    <rc><c>Pd</c><c>   3</c></rc>
    <rc><c>Pd</c><c>   3</c></rc>
   </set>
  </array>
  <array name="atomtypes" >
   <dimension dim="1">type</dimension>
   <field type="int">atomspertype</field>
   <field type="string">element</field>
   <field>mass</field>
   <field>valence</field>
   <field type="string">pseudopotential</field>
   <set>
    <rc><c>  24</c><c>Au</c><c>    196.96600000</c><c>     11.00000000</c><c>  PAW_PBE Au 04Oct2007                  </c></rc>
    <rc><c>   8</c><c>O </c><c>     16.00000000</c><c>      6.00000000</c><c>  PAW_PBE O 08Apr2002                   </c></rc>
    <rc><c>  24</c><c>Pd</c><c>    106.42000000</c><c>     10.00000000</c><c>  PAW_PBE Pd 04Jan2005                  </c></rc>
   </set>
  </array>
 </atominfo>
 <structure name="initialpos" >
  <crystal>
   <varray name="basis" >
    <v>      11.00258152       0.00000000       0.00000000 </v>
    <v>       5.50129076       9.52851510       0.00000000 </v>
    <v>       0.00000000       0.00000000      26.19178509 </v>
   </varray>
   <i name="volume">   2745.90128299 </i>
   <varray name="rec_basis" >
    <v>       0.09088776      -0.05247407       0.00000000 </v>
    <v>       0.00000000       0.10494815       0.00000000 </v>
    <v>       0.00000000       0.00000000       0.03817991 </v>
   </varray>
  </crystal>
  <varray name="positions" >
   <v>       0.08333333       0.08333333       0.38179910 </v>
   <v>       0.66634628       0.92187074       0.47438221 </v>
   <v>       0.00256208       0.24808178       0.55797113 </v>
   <v>       0.92077062       0.91816751       0.47931274 </v>
   <v>       0.99615256       0.73055686       0.58390314 </v>
   <v>       0.98965251       0.01012714       0.58416046 </v>
   <v>       0.92268860       0.66258425       0.47634111 </v>
   <v>       0.33333333       0.83333333       0.38179910 </v>
   <v>       0.83333333       0.83333333       0.38179910 </v>
   <v>       0.49906561       0.76041336       0.57033892 </v>
   <v>       0.74946108       0.25158286       0.56280985 </v>
   <v>       0.83333333       0.33333333       0.38179910 </v>
   <v>       0.66285060       0.41969161       0.47739745 </v>
   <v>       0.75987038       0.99253882       0.57058287 </v>
   <v>       0.76608165       0.52335571       0.59863366 </v>
   <v>       0.58333333       0.83333333       0.38179910 </v>
   <v>       0.33333333       0.33333333       0.38179910 </v>
   <v>       0.58333333       0.58333333       0.38179910 </v>
   <v>       0.48441463       0.24853896       0.58254149 </v>
   <v>       0.41366633       0.16968578       0.47618375 </v>
   <v>       0.24967536       0.75675332       0.56927719 </v>
   <v>       0.33333333       0.58333333       0.38179910 </v>
   <v>       0.25001703       0.24158782       0.57498553 </v>
   <v>       0.66835487       0.66414608       0.47789995 </v>
   <v>       0.58364549       0.33725084       0.62070077 </v>
   <v>       0.10142439       0.39379935       0.62278489 </v>
   <v>       0.57901929       0.04864896       0.62023353 </v>
   <v>       0.84678294       0.32041726       0.62116557 </v>
   <v>       0.30554502       0.56233822       0.61460469 </v>
   <v>       0.56477194       0.60328184       0.62528653 </v>
   <v>       0.13895916       0.05108111       0.61737701 </v>
   <v>       0.07755113       0.82770574       0.62762925 </v>
   <v>       0.33333333       0.08333333       0.38179910 </v>
   <v>       0.16700980       0.41448850       0.47215482 </v>
   <v>       0.16884917       0.66472233       0.47112543 </v>
   <v>       0.24665970       0.49472092       0.55627104 </v>
   <v>       0.16686239       0.91489519       0.47330823 </v>
   <v>       0.08333333       0.83333333       0.38179910 </v>
   <v>       0.74682366       0.75186558       0.56315688 </v>
   <v>       0.58333333       0.08333333       0.38179910 </v>
   <v>       0.49585403       0.99972439       0.56303123 </v>
   <v>       0.58333333       0.33333333       0.38179910 </v>
   <v>       0.16619021       0.16645066       0.47142663 </v>
   <v>       0.99785857       0.49790244       0.56426452 </v>
   <v>       0.41890135       0.41624918       0.47433130 </v>
   <v>       0.66574799       0.16976874       0.47583196 </v>
   <v>       0.41692227       0.91559254       0.47596114 </v>
   <v>       0.91580794       0.16560985       0.47275157 </v>
   <v>       0.08333333       0.33333333       0.38179910 </v>
   <v>       0.91798575       0.41571075       0.47239131 </v>
   <v>       0.83333333       0.08333333       0.38179910 </v>
   <v>       0.25510708       0.99559628       0.55825221 </v>
   <v>       0.08333333       0.58333333       0.38179910 </v>
   <v>       0.49232997       0.50272927       0.57618224 </v>
   <v>       0.41223035       0.66887670       0.48096675 </v>
   <v>       0.83333333       0.58333333       0.38179910 </v>
  </varray>
  <varray name="selective"  type="logical" >
   <v type="logical" >  F  F  F </v>
   <v type="logical" >  T  T  T </v>
   <v type="logical" >  T  T  T </v>
   <v type="logical" >  T  T  T </v>
   <v type="logical" >  T  T  T </v>
   <v type="logical" >  T  T  T </v>
   <v type="logical" >  T  T  T </v>
   <v type="logical" >  F  F  F </v>
   <v type="logical" >  F  F  F </v>
   <v type="logical" >  T  T  T </v>
   <v type="logical" >  T  T  T </v>
   <v type="logical" >  F  F  F </v>
   <v type="logical" >  T  T  T </v>
   <v type="logical" >  T  T  T </v>
   <v type="logical" >  T  T  T </v>
   <v type="logical" >  F  F  F </v>
   <v type="logical" >  F  F  F </v>
   <v type="logical" >  F  F  F </v>
   <v type="logical" >  T  T  T </v>
   <v type="logical" >  T  T  T </v>
   <v type="logical" >  T  T  T </v>
   <v type="logical" >  F  F  F </v>
   <v type="logical" >  T  T  T </v>
   <v type="logical" >  T  T  T </v>
   <v type="logical" >  T  T  T </v>
   <v type="logical" >  T  T  T </v>
   <v type="logical" >  T  T  T </v>
   <v type="logical" >  T  T  T </v>
   <v type="logical" >  T  T  T </v>
   <v type="logical" >  T  T  T </v>
   <v type="logical" >  T  T  T </v>
   <v type="logical" >  T  T  T </v>
   <v type="logical" >  F  F  F </v>
   <v type="logical" >  T  T  T </v>
   <v type="logical" >  T  T  T </v>
   <v type="logical" >  T  T  T </v>
   <v type="logical" >  T  T  T </v>
   <v type="logical" >  F  F  F </v>
   <v type="logical" >  T  T  T </v>
   <v type="logical" >  F  F  F </v>
   <v type="logical" >  T  T  T </v>
   <v type="logical" >  F  F  F </v>
   <v type="logical" >  T  T  T </v>
   <v type="logical" >  T  T  T </v>
   <v type="logical" >  T  T  T </v>
   <v type="logical" >  T  T  T </v>
   <v type="logical" >  T  T  T </v>
   <v type="logical" >  T  T  T </v>
   <v type="logical" >  F  F  F </v>
   <v type="logical" >  T  T  T </v>
   <v type="logical" >  F  F  F </v>
   <v type="logical" >  T  T  T </v>
   <v type="logical" >  F  F  F </v>
   <v type="logical" >  T  T  T </v>
   <v type="logical" >  T  T  T </v>
   <v type="logical" >  F  F  F </v>
  </varray>
  <nose>
   <v>      -3.00000000       0.00000000       0.00010000       0.00010000 </v>
  </nose>
 </structure>
 <calculation>
  <scstep>
   <time name="dav">    8.53    8.64</time>
   <time name="total">    8.60    8.74</time>
   <dipole>
    <v name="dipole">      0.00000000       0.00000000       0.00009426 </v>
    <i name="Tr[quadrupol]"> -11202.51857289 </i>
    <i name="Echarged">      0.00000000 </i>
    <i name="Edipol_quadrupol">      0.00000000 </i>
    <i name="Eion">      0.00000000 </i>
   </dipole>
   <energy>
    <i name="alphaZ">    862.57746423 </i>
    <i name="ewald"> 240105.10860004 </i>
    <i name="hartreedc">-285719.81013448 </i>
    <i name="XCdc">   -114.93927424 </i>
    <i name="pawpsdc">  43112.45544455 </i>
    <i name="pawaedc"> -41079.41300390 </i>
    <i name="eentropy">     -0.13906990 </i>
    <i name="bandstr">   1347.49022104 </i>
    <i name="atom">  45117.89144060 </i>
    <i name="e_fr_energy">   3631.22168795 </i>
    <i name="e_wo_entrp">   3631.36075785 </i>
    <i name="e_0_energy">   3631.29122290 </i>
   </energy>
  </scstep>
  <scstep>
   <time name="dav">    9.94    9.98</time>
   <time name="total">    9.94    9.98</time>
   <dipole>
    <v name="dipole">      0.00000000       0.00000000       0.00009426 </v>
    <i name="Tr[quadrupol]"> -11202.51857289 </i>
    <i name="Echarged">      0.00000000 </i>
    <i name="Edipol_quadrupol">      0.00000000 </i>
    <i name="Eion">      0.00000000 </i>
   </dipole>
   <energy>
    <i name="e_fr_energy">     52.65445144 </i>
    <i name="e_wo_entrp">     52.80765657 </i>
    <i name="e_0_energy">     52.73105400 </i>
   </energy>
  </scstep>
  <scstep>
   <time name="dav">    9.58    9.66</time>
   <time name="total">    9.58    9.67</time>
   <dipole>
    <v name="dipole">      0.00000000       0.00000000       0.00009426 </v>
    <i name="Tr[quadrupol]"> -11202.51857289 </i>
    <i name="Echarged">      0.00000000 </i>
    <i name="Edipol_quadrupol">      0.00000000 </i>
    <i name="Eion">      0.00000000 </i>
   </dipole>
   <energy>
    <i name="e_fr_energy">   -251.44821218 </i>
    <i name="e_wo_entrp">   -251.18122418 </i>
    <i name="e_0_energy">   -251.31471818 </i>
   </energy>
  </scstep>
  <scstep>
   <time name="dav">    9.45    9.48</time>
   <time name="total">    9.45    9.49</time>
   <dipole>
    <v name="dipole">      0.00000000       0.00000000       0.00009426 </v>
    <i name="Tr[quadrupol]"> -11202.51857289 </i>
    <i name="Echarged">      0.00000000 </i>
    <i name="Edipol_quadrupol">      0.00000000 </i>
    <i name="Eion">      0.00000000 </i>
   </dipole>
   <energy>
    <i name="e_fr_energy">   -262.62144662 </i>
    <i name="e_wo_entrp">   -262.33956619 </i>
    <i name="e_0_energy">   -262.48050641 </i>
   </energy>
  </scstep>
  <scstep>
   <time name="dav">    9.76    9.87</time>
   <time name="total">   10.05   10.17</time>
   <dipole>
    <v name="dipole">      0.00000000       0.00000000       0.00009426 </v>
    <i name="Tr[quadrupol]"> -11202.51857289 </i>
    <i name="Echarged">      0.00000000 </i>
    <i name="Edipol_quadrupol">      0.00000000 </i>
    <i name="Eion">      0.00000000 </i>
   </dipole>
   <energy>
    <i name="e_fr_energy">   -262.92907501 </i>
    <i name="e_wo_entrp">   -262.64668639 </i>
    <i name="e_0_energy">   -262.78788070 </i>
   </energy>
  </scstep>
  <scstep>
   <time name="diag">    1.56    1.57</time>
   <time name="diis">    4.11    4.14</time>
   <time name="orth">    0.39    0.39</time>
   <time name="total">    6.41    6.45</time>
   <dipole>
    <v name="dipole">      0.00000000       0.00000000       0.40196089 </v>
    <i name="Tr[quadrupol]"> -11199.69982999 </i>
    <i name="Echarged">      0.00000000 </i>
    <i name="Edipol_quadrupol">      0.00000000 </i>
    <i name="Eion">      0.00000000 </i>
   </dipole>
   <energy>
    <i name="e_fr_energy">   -248.88811646 </i>
    <i name="e_wo_entrp">   -248.63667378 </i>
    <i name="e_0_energy">   -248.76239512 </i>
   </energy>
  </scstep>
  <scstep>
   <time name="diag">    1.56    1.56</time>
   <time name="diis">    4.27    4.28</time>
   <time name="orth">    0.39    0.39</time>
   <time name="total">    6.56    6.58</time>
   <dipole>
    <v name="dipole">      0.00000000       0.00000000      -0.61874867 </v>
    <i name="Tr[quadrupol]"> -11201.22366771 </i>
    <i name="Echarged">      0.00000000 </i>
    <i name="Edipol_quadrupol">      0.00000000 </i>
    <i name="Eion">      0.00000000 </i>
   </dipole>
   <energy>
    <i name="e_fr_energy">   -243.37315762 </i>
    <i name="e_wo_entrp">   -243.05491548 </i>
    <i name="e_0_energy">   -243.21403655 </i>
   </energy>
  </scstep>
  <scstep>
   <time name="diag">    1.56    1.57</time>
   <time name="diis">    4.27    4.28</time>
   <time name="orth">    0.39    0.39</time>
   <time name="total">    6.57    6.59</time>
   <dipole>
    <v name="dipole">      0.00000000       0.00000000       2.53136905 </v>
    <i name="Tr[quadrupol]"> -11203.86845679 </i>
    <i name="Echarged">      0.00000000 </i>
    <i name="Edipol_quadrupol">      0.00000000 </i>
    <i name="Eion">      0.00000000 </i>
   </dipole>
   <energy>
    <i name="e_fr_energy">   -273.95861899 </i>
    <i name="e_wo_entrp">   -273.78655586 </i>
    <i name="e_0_energy">   -273.87258742 </i>
   </energy>
  </scstep>
  <scstep>
   <time name="diag">    1.55    1.55</time>
   <time name="diis">    4.19    4.20</time>
   <time name="orth">    0.39    0.39</time>
   <time name="total">    6.47    6.50</time>
   <dipole>
    <v name="dipole">      0.00000000       0.00000000      -0.48303955 </v>
    <i name="Tr[quadrupol]"> -11202.19752874 </i>
    <i name="Echarged">      0.00000000 </i>
    <i name="Edipol_quadrupol">      0.00000000 </i>
    <i name="Eion">      0.00000000 </i>
   </dipole>
   <energy>
    <i name="e_fr_energy">   -267.28721441 </i>
    <i name="e_wo_entrp">   -267.02843537 </i>
    <i name="e_0_energy">   -267.15782489 </i>
   </energy>
  </scstep>
  <scstep>
   <time name="diag">    1.55    1.56</time>
   <time name="diis">    4.10    4.20</time>
   <time name="orth">    0.38    0.40</time>
   <time name="total">    6.37    6.52</time>
   <dipole>
    <v name="dipole">      0.00000000       0.00000000       0.40268916 </v>
    <i name="Tr[quadrupol]"> -11199.02384257 </i>
    <i name="Echarged">      0.00000000 </i>
    <i name="Edipol_quadrupol">      0.00000000 </i>
    <i name="Eion">      0.00000000 </i>
   </dipole>
   <energy>
    <i name="e_fr_energy">   -246.05721979 </i>
    <i name="e_wo_entrp">   -245.93709679 </i>
    <i name="e_0_energy">   -245.99715829 </i>
   </energy>
  </scstep>
  <scstep>
   <time name="diag">    1.56    1.64</time>
   <time name="diis">    4.14    4.17</time>
   <time name="orth">    0.39    0.39</time>
   <time name="total">    6.44    6.55</time>
   <dipole>
    <v name="dipole">      0.00000000       0.00000000       0.64302754 </v>
    <i name="Tr[quadrupol]"> -11201.41513712 </i>
    <i name="Echarged">      0.00000000 </i>
    <i name="Edipol_quadrupol">      0.00000000 </i>
    <i name="Eion">      0.00000000 </i>
   </dipole>
   <energy>
    <i name="e_fr_energy">   -232.57354046 </i>
    <i name="e_wo_entrp">   -232.38725356 </i>
    <i name="e_0_energy">   -232.48039701 </i>
   </energy>
  </scstep>
  <scstep>
   <time name="diag">    1.56    1.56</time>
   <time name="diis">    4.17    4.18</time>
   <time name="orth">    0.39    0.39</time>
   <time name="total">    6.46    6.48</time>
   <dipole>
    <v name="dipole">      0.00000000       0.00000000       0.64544226 </v>
    <i name="Tr[quadrupol]"> -11201.65144798 </i>
    <i name="Echarged">      0.00000000 </i>
    <i name="Edipol_quadrupol">      0.00000000 </i>
    <i name="Eion">      0.00000000 </i>
   </dipole>
   <energy>
    <i name="e_fr_energy">   -229.92865857 </i>
    <i name="e_wo_entrp">   -229.72258940 </i>
    <i name="e_0_energy">   -229.82562399 </i>
   </energy>
  </scstep>
  <scstep>
   <time name="diag">    1.55    1.55</time>
   <time name="diis">    4.24    4.25</time>
   <time name="orth">    0.39    0.39</time>
   <time name="total">    6.51    6.53</time>
   <dipole>
    <v name="dipole">      0.00000000       0.00000000       0.67557078 </v>
    <i name="Tr[quadrupol]"> -11201.65910914 </i>
    <i name="Echarged">      0.00000000 </i>
    <i name="Edipol_quadrupol">      0.00000000 </i>
    <i name="Eion">      0.00000000 </i>
   </dipole>
   <energy>
    <i name="e_fr_energy">   -229.20515344 </i>
    <i name="e_wo_entrp">   -229.01978454 </i>
    <i name="e_0_energy">   -229.11246899 </i>
   </energy>
  </scstep>
  <scstep>
   <time name="diag">    1.56    1.56</time>
   <time name="diis">    4.21    4.22</time>
   <time name="orth">    0.39    0.39</time>
   <time name="total">    6.49    6.51</time>
   <dipole>
    <v name="dipole">      0.00000000       0.00000000       0.63913067 </v>
    <i name="Tr[quadrupol]"> -11201.71136255 </i>
    <i name="Echarged">      0.00000000 </i>
    <i name="Edipol_quadrupol">      0.00000000 </i>
    <i name="Eion">      0.00000000 </i>
   </dipole>
   <energy>
    <i name="e_fr_energy">   -228.71116096 </i>
    <i name="e_wo_entrp">   -228.48921857 </i>
    <i name="e_0_energy">   -228.60018976 </i>
   </energy>
  </scstep>
  <scstep>
   <time name="diag">    1.55    1.56</time>
   <time name="diis">    4.15    4.18</time>
   <time name="orth">    0.39    0.39</time>
   <time name="total">    6.44    6.47</time>
   <dipole>
    <v name="dipole">      0.00000000       0.00000000       0.53606009 </v>
    <i name="Tr[quadrupol]"> -11201.56350898 </i>
    <i name="Echarged">      0.00000000 </i>
    <i name="Edipol_quadrupol">      0.00000000 </i>
    <i name="Eion">      0.00000000 </i>
   </dipole>
   <energy>
    <i name="e_fr_energy">   -228.42280500 </i>
    <i name="e_wo_entrp">   -228.20711221 </i>
    <i name="e_0_energy">   -228.31495861 </i>
   </energy>
  </scstep>
  <scstep>
   <time name="diag">    1.56    1.57</time>
   <time name="diis">    4.20    4.21</time>
   <time name="orth">    0.39    0.39</time>
   <time name="total">    6.50    6.51</time>
   <dipole>
    <v name="dipole">      0.00000000       0.00000000       0.58285799 </v>
    <i name="Tr[quadrupol]"> -11201.78170433 </i>
    <i name="Echarged">      0.00000000 </i>
    <i name="Edipol_quadrupol">      0.00000000 </i>
    <i name="Eion">      0.00000000 </i>
   </dipole>
   <energy>
    <i name="e_fr_energy">   -228.39836894 </i>
    <i name="e_wo_entrp">   -228.15539964 </i>
    <i name="e_0_energy">   -228.27688429 </i>
   </energy>
  </scstep>
  <scstep>
   <time name="diag">    1.54    1.62</time>
   <time name="diis">    4.15    4.18</time>
   <time name="orth">    0.39    0.39</time>
   <time name="total">    6.42    6.54</time>
   <dipole>
    <v name="dipole">      0.00000000       0.00000000       0.59661461 </v>
    <i name="Tr[quadrupol]"> -11201.97149873 </i>
    <i name="Echarged">      0.00000000 </i>
    <i name="Edipol_quadrupol">      0.00000000 </i>
    <i name="Eion">      0.00000000 </i>
   </dipole>
   <energy>
    <i name="e_fr_energy">   -228.26234410 </i>
    <i name="e_wo_entrp">   -228.01560409 </i>
    <i name="e_0_energy">   -228.13897410 </i>
   </energy>
  </scstep>
  <scstep>
   <time name="diag">    1.56    1.56</time>
   <time name="diis">    4.20    4.21</time>
   <time name="orth">    0.39    0.39</time>
   <time name="total">    6.49    6.51</time>
   <dipole>
    <v name="dipole">      0.00000000       0.00000000       0.61986767 </v>
    <i name="Tr[quadrupol]"> -11202.09283758 </i>
    <i name="Echarged">      0.00000000 </i>
    <i name="Edipol_quadrupol">      0.00000000 </i>
    <i name="Eion">      0.00000000 </i>
   </dipole>
   <energy>
    <i name="e_fr_energy">   -228.17574175 </i>
    <i name="e_wo_entrp">   -227.91655657 </i>
    <i name="e_0_energy">   -228.04614916 </i>
   </energy>
  </scstep>
  <scstep>
   <time name="diag">    1.55    1.56</time>
   <time name="diis">    4.16    4.17</time>
   <time name="orth">    0.39    0.39</time>
   <time name="total">    6.45    6.47</time>
   <dipole>
    <v name="dipole">      0.00000000       0.00000000       0.63448435 </v>
    <i name="Tr[quadrupol]"> -11202.29485947 </i>
    <i name="Echarged">      0.00000000 </i>
    <i name="Edipol_quadrupol">      0.00000000 </i>
    <i name="Eion">      0.00000000 </i>
   </dipole>
   <energy>
    <i name="e_fr_energy">   -228.15034094 </i>
    <i name="e_wo_entrp">   -227.89257891 </i>
    <i name="e_0_energy">   -228.02145992 </i>
   </energy>
  </scstep>
  <scstep>
   <time name="diag">    1.55    1.57</time>
   <time name="diis">    4.15    4.19</time>
   <time name="orth">    0.38    0.39</time>
   <time name="total">    6.42    6.49</time>
   <dipole>
    <v name="dipole">      0.00000000       0.00000000       0.63331869 </v>
    <i name="Tr[quadrupol]"> -11202.32858422 </i>
    <i name="Echarged">      0.00000000 </i>
    <i name="Edipol_quadrupol">      0.00000000 </i>
    <i name="Eion">      0.00000000 </i>
   </dipole>
   <energy>
    <i name="e_fr_energy">   -228.13631367 </i>
    <i name="e_wo_entrp">   -227.87764808 </i>
    <i name="e_0_energy">   -228.00698087 </i>
   </energy>
  </scstep>
  <scstep>
   <time name="diag">    1.54    1.56</time>
   <time name="diis">    4.24    4.25</time>
   <time name="orth">    0.39    0.39</time>
   <time name="total">    6.52    6.56</time>
   <dipole>
    <v name="dipole">      0.00000000       0.00000000       0.64361559 </v>
    <i name="Tr[quadrupol]"> -11202.41678126 </i>
    <i name="Echarged">      0.00000000 </i>
    <i name="Edipol_quadrupol">      0.00000000 </i>
    <i name="Eion">      0.00000000 </i>
   </dipole>
   <energy>
    <i name="e_fr_energy">   -228.13514564 </i>
    <i name="e_wo_entrp">   -227.87769033 </i>
    <i name="e_0_energy">   -228.00641799 </i>
   </energy>
  </scstep>
  <scstep>
   <time name="diag">    1.56    1.57</time>
   <time name="diis">    4.21    4.22</time>
   <time name="orth">    0.39    0.39</time>
   <time name="total">    6.50    6.52</time>
   <dipole>
    <v name="dipole">      0.00000000       0.00000000       0.65537284 </v>
    <i name="Tr[quadrupol]"> -11202.49501025 </i>
    <i name="Echarged">      0.00000000 </i>
    <i name="Edipol_quadrupol">      0.00000000 </i>
    <i name="Eion">      0.00000000 </i>
   </dipole>
   <energy>
    <i name="e_fr_energy">   -228.13330527 </i>
    <i name="e_wo_entrp">   -227.87564832 </i>
    <i name="e_0_energy">   -228.00447680 </i>
   </energy>
  </scstep>
  <scstep>
   <time name="diag">    1.56    1.56</time>
   <time name="diis">    4.10    4.21</time>
   <time name="orth">    0.39    0.39</time>
   <time name="total">    6.39    6.50</time>
   <dipole>
    <v name="dipole">      0.00000000       0.00000000       0.66549763 </v>
    <i name="Tr[quadrupol]"> -11202.56653075 </i>
    <i name="Echarged">      0.00000000 </i>
    <i name="Edipol_quadrupol">      0.00000000 </i>
    <i name="Eion">      0.00000000 </i>
   </dipole>
   <energy>
    <i name="e_fr_energy">   -228.13240101 </i>
    <i name="e_wo_entrp">   -227.87543370 </i>
    <i name="e_0_energy">   -228.00391736 </i>
   </energy>
  </scstep>
  <scstep>
   <time name="diag">    1.56    1.56</time>
   <time name="diis">    4.20    4.22</time>
   <time name="orth">    0.39    0.39</time>
   <time name="total">    6.49    6.53</time>
   <dipole>
    <v name="dipole">      0.00000000       0.00000000       0.67616785 </v>
    <i name="Tr[quadrupol]"> -11202.62882025 </i>
    <i name="Echarged">      0.00000000 </i>
    <i name="Edipol_quadrupol">      0.00000000 </i>
    <i name="Eion">      0.00000000 </i>
   </dipole>
   <energy>
    <i name="e_fr_energy">   -228.13205409 </i>
    <i name="e_wo_entrp">   -227.87404612 </i>
    <i name="e_0_energy">   -228.00305011 </i>
   </energy>
  </scstep>
  <scstep>
   <time name="diag">    1.55    1.55</time>
   <time name="diis">    4.16    4.17</time>
   <time name="orth">    0.39    0.39</time>
   <time name="total">    6.44    6.46</time>
   <dipole>
    <v name="dipole">      0.00000000       0.00000000       0.68380872 </v>
    <i name="Tr[quadrupol]"> -11202.68400036 </i>
    <i name="Echarged">      0.00000000 </i>
    <i name="Edipol_quadrupol">      0.00000000 </i>
    <i name="Eion">      0.00000000 </i>
   </dipole>
   <energy>
    <i name="e_fr_energy">   -228.13216411 </i>
    <i name="e_wo_entrp">   -227.87354901 </i>
    <i name="e_0_energy">   -228.00285656 </i>
   </energy>
  </scstep>
  <scstep>
   <time name="diag">    1.56    1.56</time>
   <time name="diis">    4.19    4.21</time>
   <time name="orth">    0.39    0.39</time>
   <time name="total">    6.48    6.50</time>
   <dipole>
    <v name="dipole">      0.00000000       0.00000000       0.69163269 </v>
    <i name="Tr[quadrupol]"> -11202.73259642 </i>
    <i name="Echarged">      0.00000000 </i>
    <i name="Edipol_quadrupol">      0.00000000 </i>
    <i name="Eion">      0.00000000 </i>
   </dipole>
   <energy>
    <i name="e_fr_energy">   -228.13240758 </i>
    <i name="e_wo_entrp">   -227.87356231 </i>
    <i name="e_0_energy">   -228.00298495 </i>
   </energy>
  </scstep>
  <scstep>
   <time name="diag">    1.56    1.56</time>
   <time name="diis">    4.22    4.23</time>
   <time name="orth">    0.39    0.39</time>
   <time name="total">    6.51    6.53</time>
   <dipole>
    <v name="dipole">      0.00000000       0.00000000       0.69794991 </v>
    <i name="Tr[quadrupol]"> -11202.76990800 </i>
    <i name="Echarged">      0.00000000 </i>
    <i name="Edipol_quadrupol">      0.00000000 </i>
    <i name="Eion">      0.00000000 </i>
   </dipole>
   <energy>
    <i name="e_fr_energy">   -228.13265465 </i>
    <i name="e_wo_entrp">   -227.87347116 </i>
    <i name="e_0_energy">   -228.00306291 </i>
   </energy>
  </scstep>
  <scstep>
   <time name="diag">    1.55    1.56</time>
   <time name="diis">    4.22    4.23</time>
   <time name="orth">    0.39    0.39</time>
   <time name="total">    6.51    6.53</time>
   <dipole>
    <v name="dipole">      0.00000000       0.00000000       0.70444122 </v>
    <i name="Tr[quadrupol]"> -11202.80444756 </i>
    <i name="Echarged">      0.00000000 </i>
    <i name="Edipol_quadrupol">      0.00000000 </i>
    <i name="Eion">      0.00000000 </i>
   </dipole>
   <energy>
    <i name="e_fr_energy">   -228.13292752 </i>
    <i name="e_wo_entrp">   -227.87376252 </i>
    <i name="e_0_energy">   -228.00334502 </i>
   </energy>
  </scstep>
  <scstep>
   <time name="diag">    1.55    1.55</time>
   <time name="diis">    4.18    4.30</time>
   <time name="orth">    0.39    0.39</time>
   <time name="total">    6.45    6.59</time>
   <dipole>
    <v name="dipole">      0.00000000       0.00000000       0.71021484 </v>
    <i name="Tr[quadrupol]"> -11202.83310062 </i>
    <i name="Echarged">      0.00000000 </i>
    <i name="Edipol_quadrupol">      0.00000000 </i>
    <i name="Eion">      0.00000000 </i>
   </dipole>
   <energy>
    <i name="e_fr_energy">   -228.13317963 </i>
    <i name="e_wo_entrp">   -227.87389968 </i>
    <i name="e_0_energy">   -228.00353966 </i>
   </energy>
  </scstep>
  <scstep>
   <time name="diag">    1.55    1.57</time>
   <time name="diis">    4.13    4.17</time>
   <time name="orth">    0.39    0.39</time>
   <time name="total">    6.41    6.47</time>
   <dipole>
    <v name="dipole">      0.00000000       0.00000000       0.71725645 </v>
    <i name="Tr[quadrupol]"> -11202.86705567 </i>
    <i name="Echarged">      0.00000000 </i>
    <i name="Edipol_quadrupol">      0.00000000 </i>
    <i name="Eion">      0.00000000 </i>
   </dipole>
   <energy>
    <i name="e_fr_energy">   -228.13349531 </i>
    <i name="e_wo_entrp">   -227.87424632 </i>
    <i name="e_0_energy">   -228.00387081 </i>
   </energy>
  </scstep>
  <scstep>
   <time name="diag">    1.56    1.56</time>
   <time name="diis">    4.18    4.19</time>
   <time name="orth">    0.39    0.39</time>
   <time name="total">    6.47    6.49</time>
   <dipole>
    <v name="dipole">      0.00000000       0.00000000       0.72457916 </v>
    <i name="Tr[quadrupol]"> -11202.90006367 </i>
    <i name="Echarged">      0.00000000 </i>
    <i name="Edipol_quadrupol">      0.00000000 </i>
    <i name="Eion">      0.00000000 </i>
   </dipole>
   <energy>
    <i name="e_fr_energy">   -228.13381673 </i>
    <i name="e_wo_entrp">   -227.87451262 </i>
    <i name="e_0_energy">   -228.00416468 </i>
   </energy>
  </scstep>
  <scstep>
   <time name="diag">    1.55    1.55</time>
   <time name="diis">    4.13    4.14</time>
   <time name="orth">    0.39    0.39</time>
   <time name="total">    6.41    6.44</time>
   <dipole>
    <v name="dipole">      0.00000000       0.00000000       0.73265638 </v>
    <i name="Tr[quadrupol]"> -11202.93337060 </i>
    <i name="Echarged">      0.00000000 </i>
    <i name="Edipol_quadrupol">      0.00000000 </i>
    <i name="Eion">      0.00000000 </i>
   </dipole>
   <energy>
    <i name="e_fr_energy">   -228.13411005 </i>
    <i name="e_wo_entrp">   -227.87486066 </i>
    <i name="e_0_energy">   -228.00448535 </i>
   </energy>
  </scstep>
  <scstep>
   <time name="diag">    1.54    1.55</time>
   <time name="diis">    4.05    4.06</time>
   <time name="orth">    0.39    0.39</time>
   <time name="total">    6.31    6.35</time>
   <dipole>
    <v name="dipole">      0.00000000       0.00000000       0.74000807 </v>
    <i name="Tr[quadrupol]"> -11202.96234468 </i>
    <i name="Echarged">      0.00000000 </i>
    <i name="Edipol_quadrupol">      0.00000000 </i>
    <i name="Eion">      0.00000000 </i>
   </dipole>
   <energy>
    <i name="e_fr_energy">   -228.13430956 </i>
    <i name="e_wo_entrp">   -227.87501593 </i>
    <i name="e_0_energy">   -228.00466274 </i>
   </energy>
  </scstep>
  <scstep>
   <time name="diag">    1.56    1.57</time>
   <time name="diis">    3.34    3.35</time>
   <time name="orth">    0.39    0.39</time>
   <time name="total">    5.64    5.65</time>
   <dipole>
    <v name="dipole">      0.00000000       0.00000000       0.74449927 </v>
    <i name="Tr[quadrupol]"> -11202.97857041 </i>
    <i name="Echarged">      0.00000000 </i>
    <i name="Edipol_quadrupol">      0.00000000 </i>
    <i name="Eion">      0.00000000 </i>
   </dipole>
   <energy>
    <i name="e_fr_energy">   -228.13438772 </i>
    <i name="e_wo_entrp">   -227.87509639 </i>
    <i name="e_0_energy">   -228.00474205 </i>
   </energy>
  </scstep>
  <scstep>
   <time name="diag">    1.56    1.56</time>
   <time name="diis">    2.94    2.95</time>
   <time name="orth">    0.38    0.41</time>
   <time name="total">    5.24    5.32</time>
   <dipole>
    <v name="dipole">      0.00000000       0.00000000       0.74777712 </v>
    <i name="Tr[quadrupol]"> -11202.98847380 </i>
    <i name="Echarged">      0.00000000 </i>
    <i name="Edipol_quadrupol">      0.00000000 </i>
    <i name="Eion">      0.00000000 </i>
   </dipole>
   <energy>
    <i name="e_fr_energy">   -228.13443624 </i>
    <i name="e_wo_entrp">   -227.87514172 </i>
    <i name="e_0_energy">   -228.00478898 </i>
   </energy>
  </scstep>
  <scstep>
   <time name="diag">    1.54    1.58</time>
   <time name="diis">    2.63    2.64</time>
   <time name="orth">    0.39    0.39</time>
   <time name="total">    4.91    4.96</time>
   <dipole>
    <v name="dipole">      0.00000000       0.00000000       0.75047547 </v>
    <i name="Tr[quadrupol]"> -11202.99496149 </i>
    <i name="Echarged">      0.00000000 </i>
    <i name="Edipol_quadrupol">      0.00000000 </i>
    <i name="Eion">      0.00000000 </i>
   </dipole>
   <energy>
    <i name="e_fr_energy">   -228.13447759 </i>
    <i name="e_wo_entrp">   -227.87518451 </i>
    <i name="e_0_energy">   -228.00483105 </i>
   </energy>
  </scstep>
  <scstep>
   <time name="diag">    1.54    1.54</time>
   <time name="diis">    2.60    2.60</time>
   <time name="orth">    0.39    0.39</time>
   <time name="total">    4.87    4.89</time>
   <dipole>
    <v name="dipole">      0.00000000       0.00000000       0.75355168 </v>
    <i name="Tr[quadrupol]"> -11203.00109211 </i>
    <i name="Echarged">      0.00000000 </i>
    <i name="Edipol_quadrupol">      0.00000000 </i>
    <i name="Eion">      0.00000000 </i>
   </dipole>
   <energy>
    <i name="e_fr_energy">   -228.13452506 </i>
    <i name="e_wo_entrp">   -227.87522841 </i>
    <i name="e_0_energy">   -228.00487673 </i>
   </energy>
  </scstep>
  <scstep>
   <time name="diag">    1.54    1.55</time>
   <time name="diis">    2.57    2.58</time>
   <time name="orth">    0.39    0.39</time>
   <time name="total">    4.85    4.86</time>
   <dipole>
    <v name="dipole">      0.00000000       0.00000000       0.75611825 </v>
    <i name="Tr[quadrupol]"> -11203.00540618 </i>
    <i name="Echarged">      0.00000000 </i>
    <i name="Edipol_quadrupol">      0.00000000 </i>
    <i name="Eion">      0.00000000 </i>
   </dipole>
   <energy>
    <i name="e_fr_energy">   -228.13456068 </i>
    <i name="e_wo_entrp">   -227.87525553 </i>
    <i name="e_0_energy">   -228.00490811 </i>
   </energy>
  </scstep>
  <scstep>
   <time name="diag">    1.54    1.55</time>
   <time name="diis">    2.55    2.57</time>
   <time name="orth">    0.38    0.39</time>
   <time name="total">    4.82    4.85</time>
   <dipole>
    <v name="dipole">      0.00000000       0.00000000       0.75849804 </v>
    <i name="Tr[quadrupol]"> -11203.00899864 </i>
    <i name="Echarged">      0.00000000 </i>
    <i name="Edipol_quadrupol">      0.00000000 </i>
    <i name="Eion">      0.00000000 </i>
   </dipole>
   <energy>
    <i name="e_fr_energy">   -228.13458842 </i>
    <i name="e_wo_entrp">   -227.87527396 </i>
    <i name="e_0_energy">   -228.00493119 </i>
   </energy>
  </scstep>
  <scstep>
   <time name="diag">    1.56    1.56</time>
   <time name="diis">    2.52    2.54</time>
   <time name="orth">    0.39    0.39</time>
   <time name="total">    4.81    4.84</time>
   <dipole>
    <v name="dipole">      0.00000000       0.00000000       0.76001013 </v>
    <i name="Tr[quadrupol]"> -11203.01094758 </i>
    <i name="Echarged">      0.00000000 </i>
    <i name="Edipol_quadrupol">      0.00000000 </i>
    <i name="Eion">      0.00000000 </i>
   </dipole>
   <energy>
    <i name="e_fr_energy">   -228.13460317 </i>
    <i name="e_wo_entrp">   -227.87528642 </i>
    <i name="e_0_energy">   -228.00494479 </i>
   </energy>
  </scstep>
  <scstep>
   <time name="diag">    1.54    1.55</time>
   <time name="diis">    2.48    2.49</time>
   <time name="orth">    0.39    0.39</time>
   <time name="total">    4.76    4.78</time>
   <dipole>
    <v name="dipole">      0.00000000       0.00000000       0.76144385 </v>
    <i name="Tr[quadrupol]"> -11203.01276705 </i>
    <i name="Echarged">      0.00000000 </i>
    <i name="Edipol_quadrupol">      0.00000000 </i>
    <i name="Eion">      0.00000000 </i>
   </dipole>
   <energy>
    <i name="e_fr_energy">   -228.13461315 </i>
    <i name="e_wo_entrp">   -227.87528942 </i>
    <i name="e_0_energy">   -228.00495128 </i>
   </energy>
  </scstep>
  <scstep>
   <time name="diag">    1.55    1.56</time>
   <time name="diis">    2.01    2.02</time>
   <time name="orth">    0.39    0.39</time>
   <time name="total">    4.30    4.31</time>
   <dipole>
    <v name="dipole">      0.00000000       0.00000000       0.76202205 </v>
    <i name="Tr[quadrupol]"> -11203.01338970 </i>
    <i name="Echarged">      0.00000000 </i>
    <i name="Edipol_quadrupol">      0.00000000 </i>
    <i name="Eion">      0.00000000 </i>
   </dipole>
   <energy>
    <i name="e_fr_energy">   -228.13461668 </i>
    <i name="e_wo_entrp">   -227.87529013 </i>
    <i name="e_0_energy">   -228.00495340 </i>
   </energy>
  </scstep>
  <scstep>
   <time name="diag">    1.55    1.55</time>
   <time name="diis">    2.08    2.08</time>
   <time name="orth">    0.39    0.39</time>
   <time name="total">    4.36    4.37</time>
   <dipole>
    <v name="dipole">      0.00000000       0.00000000       0.76232912 </v>
    <i name="Tr[quadrupol]"> -11203.01357888 </i>
    <i name="Echarged">      0.00000000 </i>
    <i name="Edipol_quadrupol">      0.00000000 </i>
    <i name="Eion">      0.00000000 </i>
   </dipole>
   <energy>
    <i name="e_fr_energy">   -228.13461929 </i>
    <i name="e_wo_entrp">   -227.87529135 </i>
    <i name="e_0_energy">   -228.00495532 </i>
   </energy>
  </scstep>
  <scstep>
   <time name="diag">    1.55    1.56</time>
   <time name="diis">    1.96    2.06</time>
   <time name="orth">    0.39    0.39</time>
   <time name="total">    4.25    4.36</time>
   <dipole>
    <v name="dipole">      0.00000000       0.00000000       0.76241205 </v>
    <i name="Tr[quadrupol]"> -11203.01354680 </i>
    <i name="Echarged">      0.00000000 </i>
    <i name="Edipol_quadrupol">      0.00000000 </i>
    <i name="Eion">      0.00000000 </i>
   </dipole>
   <energy>
    <i name="e_fr_energy">   -228.13462051 </i>
    <i name="e_wo_entrp">   -227.87529187 </i>
    <i name="e_0_energy">   -228.00495619 </i>
   </energy>
  </scstep>
  <scstep>
   <time name="diag">    1.54    1.54</time>
   <time name="diis">    1.85    1.85</time>
   <time name="orth">    0.39    0.39</time>
   <time name="total">    3.83    3.84</time>
   <dipole>
    <v name="dipole">      0.00000000       0.00000000       0.76245480 </v>
    <i name="Tr[quadrupol]"> -11203.01350355 </i>
    <i name="Echarged">      0.00000000 </i>
    <i name="Edipol_quadrupol">      0.00000000 </i>
    <i name="Eion">      0.00000000 </i>
   </dipole>
   <energy>
    <i name="alphaZ">    870.50744207 </i>
    <i name="ewald"> 240105.10860004 </i>
    <i name="hartreedc">-285286.89768739 </i>
    <i name="XCdc">   -127.72707106 </i>
    <i name="pawpsdc">  52091.39197673 </i>
    <i name="pawaedc"> -50184.85457244 </i>
    <i name="eentropy">     -0.25932766 </i>
    <i name="bandstr">  -2813.29542211 </i>
    <i name="atom">  45117.89144060 </i>
    <i name="e_fr_energy">   -228.13462122 </i>
    <i name="e_wo_entrp">   -227.87529356 </i>
    <i name="e_0_energy">   -228.00495739 </i>
   </energy>
  </scstep>
  <structure>
   <crystal>
    <varray name="basis" >
     <v>      11.00258152       0.00000000       0.00000000 </v>
     <v>       5.50129076       9.52851510       0.00000000 </v>
     <v>       0.00000000       0.00000000      26.19178509 </v>
    </varray>
    <i name="volume">   2745.90128299 </i>
    <varray name="rec_basis" >
     <v>       0.09088776      -0.05247407       0.00000000 </v>
     <v>       0.00000000       0.10494815       0.00000000 </v>
     <v>       0.00000000       0.00000000       0.03817991 </v>
    </varray>
   </crystal>
   <varray name="positions" >
    <v>       0.08333333       0.08333333       0.38179910 </v>
    <v>       0.66634628       0.92187074       0.47438221 </v>
    <v>       0.00256208       0.24808178       0.55797113 </v>
    <v>       0.92077062       0.91816751       0.47931274 </v>
    <v>       0.99615256       0.73055686       0.58390314 </v>
    <v>       0.98965251       0.01012714       0.58416046 </v>
    <v>       0.92268860       0.66258425       0.47634111 </v>
    <v>       0.33333333       0.83333333       0.38179910 </v>
    <v>       0.83333333       0.83333333       0.38179910 </v>
    <v>       0.49906561       0.76041336       0.57033892 </v>
    <v>       0.74946108       0.25158286       0.56280985 </v>
    <v>       0.83333333       0.33333333       0.38179910 </v>
    <v>       0.66285060       0.41969161       0.47739745 </v>
    <v>       0.75987038       0.99253882       0.57058287 </v>
    <v>       0.76608165       0.52335571       0.59863366 </v>
    <v>       0.58333333       0.83333333       0.38179910 </v>
    <v>       0.33333333       0.33333333       0.38179910 </v>
    <v>       0.58333333       0.58333333       0.38179910 </v>
    <v>       0.48441463       0.24853896       0.58254149 </v>
    <v>       0.41366633       0.16968578       0.47618375 </v>
    <v>       0.24967536       0.75675332       0.56927719 </v>
    <v>       0.33333333       0.58333333       0.38179910 </v>
    <v>       0.25001703       0.24158782       0.57498553 </v>
    <v>       0.66835487       0.66414608       0.47789995 </v>
    <v>       0.58364549       0.33725084       0.62070077 </v>
    <v>       0.10142439       0.39379935       0.62278489 </v>
    <v>       0.57901929       0.04864896       0.62023353 </v>
    <v>       0.84678294       0.32041726       0.62116557 </v>
    <v>       0.30554502       0.56233822       0.61460469 </v>
    <v>       0.56477194       0.60328184       0.62528653 </v>
    <v>       0.13895916       0.05108111       0.61737701 </v>
    <v>       0.07755113       0.82770574       0.62762925 </v>
    <v>       0.33333333       0.08333333       0.38179910 </v>
    <v>       0.16700980       0.41448850       0.47215482 </v>
    <v>       0.16884917       0.66472233       0.47112543 </v>
    <v>       0.24665970       0.49472092       0.55627104 </v>
    <v>       0.16686239       0.91489519       0.47330823 </v>
    <v>       0.08333333       0.83333333       0.38179910 </v>
    <v>       0.74682366       0.75186558       0.56315688 </v>
    <v>       0.58333333       0.08333333       0.38179910 </v>
    <v>       0.49585403       0.99972439       0.56303123 </v>
    <v>       0.58333333       0.33333333       0.38179910 </v>
    <v>       0.16619021       0.16645066       0.47142663 </v>
    <v>       0.99785857       0.49790244       0.56426452 </v>
    <v>       0.41890135       0.41624918       0.47433130 </v>
    <v>       0.66574799       0.16976874       0.47583196 </v>
    <v>       0.41692227       0.91559254       0.47596114 </v>
    <v>       0.91580794       0.16560985       0.47275157 </v>
    <v>       0.08333333       0.33333333       0.38179910 </v>
    <v>       0.91798575       0.41571075       0.47239131 </v>
    <v>       0.83333333       0.08333333       0.38179910 </v>
    <v>       0.25510708       0.99559628       0.55825221 </v>
    <v>       0.08333333       0.58333333       0.38179910 </v>
    <v>       0.49232997       0.50272927       0.57618224 </v>
    <v>       0.41223035       0.66887670       0.48096675 </v>
    <v>       0.83333333       0.58333333       0.38179910 </v>
   </varray>
  </structure>
  <varray name="forces" >
   <v>      -0.04952130      -0.05369628      -0.23631494 </v>
   <v>      -0.01051008      -0.11202969      -0.12322860 </v>
   <v>      -0.03778781       0.11642932       0.04303484 </v>
   <v>       0.00309826      -0.06075084       0.02172811 </v>
   <v>      -0.19246795       0.04543660      -0.06157393 </v>
   <v>      -0.26647843       0.06576605       0.17378584 </v>
   <v>       0.04549864       0.09428855      -0.14201945 </v>
   <v>      -0.02221836       0.08318846      -0.04883347 </v>
   <v>       0.31341941      -0.02549707      -0.23061240 </v>
   <v>      -0.11814460       0.07564557      -0.13314845 </v>
   <v>       0.12031131      -0.16951294      -0.01534081 </v>
   <v>      -0.01693937      -0.00177051      -0.22972508 </v>
   <v>       0.03942880       0.05687518      -0.13298424 </v>
   <v>       0.11978583      -0.00128294      -0.15041247 </v>
   <v>       0.19828464      -0.07330043       0.32950618 </v>
   <v>      -0.01612912       0.20170140      -0.34726687 </v>
   <v>       0.01263272      -0.19096878      -0.16106980 </v>
   <v>      -0.01087848      -0.07238210      -0.06467601 </v>
   <v>       0.06715804      -0.04941318       0.14556875 </v>
   <v>       0.03057435       0.06700240      -0.08047876 </v>
   <v>      -0.20994373      -0.14568014      -0.03805964 </v>
   <v>      -0.01702261      -0.02475525      -0.10955222 </v>
   <v>      -0.10325251      -0.05080786      -0.07701521 </v>
   <v>      -0.06168041      -0.00326146      -0.24561359 </v>
   <v>      -0.04053732      -0.07829736       0.02504082 </v>
   <v>       0.06610226       0.00456367       0.02845852 </v>
   <v>       0.11318330       0.06926367       0.03855179 </v>
   <v>       0.09376548       0.12191931      -0.06977036 </v>
   <v>       0.21800486       0.08712465      -0.30566067 </v>
   <v>      -0.09487366      -0.19226494      -0.10027181 </v>
   <v>      -0.05048765       0.04684912       0.21984778 </v>
   <v>       0.12480577      -0.00493388      -0.10555894 </v>
   <v>       0.06480233       0.09369477       0.30846982 </v>
   <v>      -0.06757853      -0.02869138       0.10429897 </v>
   <v>       0.04656912       0.10294177       0.08155838 </v>
   <v>       0.00703487       0.10947977       0.27251676 </v>
   <v>       0.03974234      -0.00368808       0.00687468 </v>
   <v>      -0.23399643       0.05682564       0.31796987 </v>
   <v>       0.24898520       0.02682109       0.08855303 </v>
   <v>       0.15757792       0.23976009       0.24839322 </v>
   <v>      -0.05228707      -0.14587629      -0.02848718 </v>
   <v>      -0.08194865      -0.32413238       0.29352242 </v>
   <v>       0.04303528       0.02137037      -0.07291564 </v>
   <v>      -0.14173519      -0.00785592      -0.05959424 </v>
   <v>       0.07498600       0.01687160      -0.03817560 </v>
   <v>      -0.06610951       0.04254776      -0.06206989 </v>
   <v>      -0.05588285      -0.07930065      -0.04628377 </v>
   <v>      -0.05998749      -0.00827832      -0.05365672 </v>
   <v>       0.07721300       0.17347490       0.07148182 </v>
   <v>      -0.04318583       0.03785251      -0.10114706 </v>
   <v>      -0.17724308       0.01454247       0.31674141 </v>
   <v>       0.08510491      -0.07184903      -0.04276771 </v>
   <v>      -0.19922938       0.06476587       0.14040704 </v>
   <v>      -0.07573572       0.14811722       0.22113416 </v>
   <v>      -0.06585689      -0.11817484      -0.08405176 </v>
   <v>       0.22854537      -0.18666722       0.30089307 </v>
  </varray>
  <energy>
   <i name="e_fr_energy">   -228.13462122 </i>
   <i name="e_wo_entrp">   -228.00495739 </i>
   <i name="e_0_energy">     -0.25932766 </i>
  </energy>
  <time name="totalsc">  288.18  290.26</time>
 </calculation>
 <calculation>
  <scstep>
   <time name="dav">    8.69    8.72</time>
   <time name="total">    9.04    9.07</time>
   <dipole>
    <v name="dipole">      0.00000000       0.00000000       0.76245965 </v>
    <i name="Tr[quadrupol]"> -11201.46612844 </i>
    <i name="Echarged">      0.00000000 </i>
    <i name="Edipol_quadrupol">      0.00000000 </i>
    <i name="Eion">      0.00000000 </i>
   </dipole>
   <energy>
    <i name="alphaZ">    870.51615799 </i>
    <i name="ewald"> 240064.93477450 </i>
    <i name="hartreedc">-285246.55428101 </i>
    <i name="XCdc">   -127.72225287 </i>
    <i name="pawpsdc">  52091.39106993 </i>
    <i name="pawaedc"> -50184.85361323 </i>
    <i name="eentropy">     -0.25512540 </i>
    <i name="bandstr">  -2813.50491878 </i>
    <i name="atom">  45117.89144060 </i>
    <i name="e_fr_energy">   -228.15674827 </i>
    <i name="e_wo_entrp">   -227.90162286 </i>
    <i name="e_0_energy">   -228.02918557 </i>
   </energy>
  </scstep>
  <scstep>
   <time name="diag">    1.56    1.56</time>
   <time name="diis">    4.15    4.17</time>
   <time name="orth">    0.38    0.39</time>
   <time name="total">    6.43    6.45</time>
   <dipole>
    <v name="dipole">      0.00000000       0.00000000       0.73526377 </v>
    <i name="Tr[quadrupol]"> -11201.48076144 </i>
    <i name="Echarged">      0.00000000 </i>
    <i name="Edipol_quadrupol">      0.00000000 </i>
    <i name="Eion">      0.00000000 </i>
   </dipole>
   <energy>
    <i name="e_fr_energy">   -228.22059546 </i>
    <i name="e_wo_entrp">   -227.94505326 </i>
    <i name="e_0_energy">   -228.08282436 </i>
   </energy>
  </scstep>
  <scstep>
   <time name="diag">    1.56    1.56</time>
   <time name="diis">    4.24    4.25</time>
   <time name="orth">    0.39    0.39</time>
   <time name="total">    6.52    6.53</time>
   <dipole>
    <v name="dipole">      0.00000000       0.00000000       0.76894735 </v>
    <i name="Tr[quadrupol]"> -11201.48644768 </i>
    <i name="Echarged">      0.00000000 </i>
    <i name="Edipol_quadrupol">      0.00000000 </i>
    <i name="Eion">      0.00000000 </i>
   </dipole>
   <energy>
    <i name="e_fr_energy">   -228.17690127 </i>
    <i name="e_wo_entrp">   -227.91731803 </i>
    <i name="e_0_energy">   -228.04710965 </i>
   </energy>
  </scstep>
  <scstep>
   <time name="diag">    1.55    1.55</time>
   <time name="diis">    4.22    4.24</time>
   <time name="orth">    0.38    0.39</time>
   <time name="total">    6.50    6.52</time>
   <dipole>
    <v name="dipole">      0.00000000       0.00000000       0.73289402 </v>
    <i name="Tr[quadrupol]"> -11201.47217403 </i>
    <i name="Echarged">      0.00000000 </i>
    <i name="Edipol_quadrupol">      0.00000000 </i>
    <i name="Eion">      0.00000000 </i>
   </dipole>
   <energy>
    <i name="e_fr_energy">   -228.18521736 </i>
    <i name="e_wo_entrp">   -227.91998098 </i>
    <i name="e_0_energy">   -228.05259917 </i>
   </energy>
  </scstep>
  <scstep>
   <time name="diag">    1.54    1.55</time>
   <time name="diis">    4.03    4.15</time>
   <time name="orth">    0.38    0.39</time>
   <time name="total">    6.29    6.43</time>
   <dipole>
    <v name="dipole">      0.00000000       0.00000000       0.76055122 </v>
    <i name="Tr[quadrupol]"> -11201.49570454 </i>
    <i name="Echarged">      0.00000000 </i>
    <i name="Edipol_quadrupol">      0.00000000 </i>
    <i name="Eion">      0.00000000 </i>
   </dipole>
   <energy>
    <i name="e_fr_energy">   -228.17553299 </i>
    <i name="e_wo_entrp">   -227.91277692 </i>
    <i name="e_0_energy">   -228.04415496 </i>
   </energy>
  </scstep>
  <scstep>
   <time name="diag">    1.55    1.56</time>
   <time name="diis">    4.21    4.23</time>
   <time name="orth">    0.39    0.39</time>
   <time name="total">    6.49    6.51</time>
   <dipole>
    <v name="dipole">      0.00000000       0.00000000       0.75669320 </v>
    <i name="Tr[quadrupol]"> -11201.48074710 </i>
    <i name="Echarged">      0.00000000 </i>
    <i name="Edipol_quadrupol">      0.00000000 </i>
    <i name="Eion">      0.00000000 </i>
   </dipole>
   <energy>
    <i name="e_fr_energy">   -228.17451774 </i>
    <i name="e_wo_entrp">   -227.91544108 </i>
    <i name="e_0_energy">   -228.04497941 </i>
   </energy>
  </scstep>
  <scstep>
   <time name="diag">    1.55    1.56</time>
   <time name="diis">    4.14    4.15</time>
   <time name="orth">    0.39    0.39</time>
   <time name="total">    6.42    6.44</time>
   <dipole>
    <v name="dipole">      0.00000000       0.00000000       0.75915954 </v>
    <i name="Tr[quadrupol]"> -11201.49550304 </i>
    <i name="Echarged">      0.00000000 </i>
    <i name="Edipol_quadrupol">      0.00000000 </i>
    <i name="Eion">      0.00000000 </i>
   </dipole>
   <energy>
    <i name="e_fr_energy">   -228.17266033 </i>
    <i name="e_wo_entrp">   -227.91301018 </i>
    <i name="e_0_energy">   -228.04283526 </i>
   </energy>
  </scstep>
  <scstep>
   <time name="diag">    1.55    1.56</time>
   <time name="diis">    4.21    4.23</time>
   <time name="orth">    0.39    0.39</time>
   <time name="total">    6.49    6.52</time>
   <dipole>
    <v name="dipole">      0.00000000       0.00000000       0.75900572 </v>
    <i name="Tr[quadrupol]"> -11201.48315846 </i>
    <i name="Echarged">      0.00000000 </i>
    <i name="Edipol_quadrupol">      0.00000000 </i>
    <i name="Eion">      0.00000000 </i>
   </dipole>
   <energy>
    <i name="e_fr_energy">   -228.17251294 </i>
    <i name="e_wo_entrp">   -227.91446765 </i>
    <i name="e_0_energy">   -228.04349030 </i>
   </energy>
  </scstep>
  <scstep>
   <time name="diag">    1.54    1.55</time>
   <time name="diis">    4.18    4.20</time>
   <time name="orth">    0.39    0.39</time>
   <time name="total">    6.45    6.48</time>
   <dipole>
    <v name="dipole">      0.00000000       0.00000000       0.75900638 </v>
    <i name="Tr[quadrupol]"> -11201.48904430 </i>
    <i name="Echarged">      0.00000000 </i>
    <i name="Edipol_quadrupol">      0.00000000 </i>
    <i name="Eion">      0.00000000 </i>
   </dipole>
   <energy>
    <i name="e_fr_energy">   -228.17245411 </i>
    <i name="e_wo_entrp">   -227.91373869 </i>
    <i name="e_0_energy">   -228.04309640 </i>
   </energy>
  </scstep>
  <scstep>
   <time name="diag">    1.55    1.55</time>
   <time name="diis">    4.16    4.17</time>
   <time name="orth">    0.39    0.39</time>
   <time name="total">    6.44    6.46</time>
   <dipole>
    <v name="dipole">      0.00000000       0.00000000       0.75858873 </v>
    <i name="Tr[quadrupol]"> -11201.48502251 </i>
    <i name="Echarged">      0.00000000 </i>
    <i name="Edipol_quadrupol">      0.00000000 </i>
    <i name="Eion">      0.00000000 </i>
   </dipole>
   <energy>
    <i name="e_fr_energy">   -228.17245731 </i>
    <i name="e_wo_entrp">   -227.91409853 </i>
    <i name="e_0_energy">   -228.04327792 </i>
   </energy>
  </scstep>
  <scstep>
   <time name="diag">    1.56    1.56</time>
   <time name="diis">    4.03    4.13</time>
   <time name="orth">    0.39    0.39</time>
   <time name="total">    6.32    6.43</time>
   <dipole>
    <v name="dipole">      0.00000000       0.00000000       0.75914702 </v>
    <i name="Tr[quadrupol]"> -11201.48784480 </i>
    <i name="Echarged">      0.00000000 </i>
    <i name="Edipol_quadrupol">      0.00000000 </i>
    <i name="Eion">      0.00000000 </i>
   </dipole>
   <energy>
    <i name="e_fr_energy">   -228.17243851 </i>
    <i name="e_wo_entrp">   -227.91397156 </i>
    <i name="e_0_energy">   -228.04320504 </i>
   </energy>
  </scstep>
  <scstep>
   <time name="diag">    1.55    1.56</time>
   <time name="diis">    4.20    4.21</time>
   <time name="orth">    0.39    0.39</time>
   <time name="total">    6.48    6.49</time>
   <dipole>
    <v name="dipole">      0.00000000       0.00000000       0.75901317 </v>
    <i name="Tr[quadrupol]"> -11201.48665767 </i>
    <i name="Echarged">      0.00000000 </i>
    <i name="Edipol_quadrupol">      0.00000000 </i>
    <i name="Eion">      0.00000000 </i>
   </dipole>
   <energy>
    <i name="e_fr_energy">   -228.17243365 </i>
    <i name="e_wo_entrp">   -227.91409257 </i>
    <i name="e_0_energy">   -228.04326311 </i>
   </energy>
  </scstep>
  <scstep>
   <time name="diag">    1.54    1.55</time>
   <time name="diis">    2.91    2.92</time>
   <time name="orth">    0.39    0.39</time>
   <time name="total">    5.18    5.20</time>
   <dipole>
    <v name="dipole">      0.00000000       0.00000000       0.75907821 </v>
    <i name="Tr[quadrupol]"> -11201.48700830 </i>
    <i name="Echarged">      0.00000000 </i>
    <i name="Edipol_quadrupol">      0.00000000 </i>
    <i name="Eion">      0.00000000 </i>
   </dipole>
   <energy>
    <i name="e_fr_energy">   -228.17243465 </i>
    <i name="e_wo_entrp">   -227.91412026 </i>
    <i name="e_0_energy">   -228.04327746 </i>
   </energy>
  </scstep>
  <scstep>
   <time name="diag">    1.54    1.55</time>
   <time name="diis">    2.54    2.55</time>
   <time name="orth">    0.38    0.39</time>
   <time name="total">    4.81    4.84</time>
   <dipole>
    <v name="dipole">      0.00000000       0.00000000       0.75902153 </v>
    <i name="Tr[quadrupol]"> -11201.48725451 </i>
    <i name="Echarged">      0.00000000 </i>
    <i name="Edipol_quadrupol">      0.00000000 </i>
    <i name="Eion">      0.00000000 </i>
   </dipole>
   <energy>
    <i name="e_fr_energy">   -228.17243590 </i>
    <i name="e_wo_entrp">   -227.91413770 </i>
    <i name="e_0_energy">   -228.04328680 </i>
   </energy>
  </scstep>
  <scstep>
   <time name="diag">    1.55    1.56</time>
   <time name="diis">    2.46    2.47</time>
   <time name="orth">    0.38    0.39</time>
   <time name="total">    4.44    4.47</time>
   <dipole>
    <v name="dipole">      0.00000000       0.00000000       0.75901145 </v>
    <i name="Tr[quadrupol]"> -11201.48743820 </i>
    <i name="Echarged">      0.00000000 </i>
    <i name="Edipol_quadrupol">      0.00000000 </i>
    <i name="Eion">      0.00000000 </i>
   </dipole>
   <energy>
    <i name="alphaZ">    870.48033732 </i>
    <i name="ewald"> 240064.93477450 </i>
    <i name="hartreedc">-285247.51707277 </i>
    <i name="XCdc">   -127.70864896 </i>
    <i name="pawpsdc">  52094.31342274 </i>
    <i name="pawaedc"> -50187.80502269 </i>
    <i name="eentropy">     -0.25827956 </i>
    <i name="bandstr">  -2812.50338797 </i>
    <i name="atom">  45117.89144060 </i>
    <i name="e_fr_energy">   -228.17243679 </i>
    <i name="e_wo_entrp">   -227.91415723 </i>
    <i name="e_0_energy">   -228.04329701 </i>
   </energy>
  </scstep>
  <structure>
   <crystal>
    <varray name="basis" >
     <v>      11.00258152       0.00000000       0.00000000 </v>
     <v>       5.50129076       9.52851510       0.00000000 </v>
     <v>       0.00000000       0.00000000      26.19178509 </v>
    </varray>
    <i name="volume">   2745.90128299 </i>
    <varray name="rec_basis" >
     <v>       0.09088776      -0.05247407       0.00000000 </v>
     <v>       0.00000000       0.10494815       0.00000000 </v>
     <v>       0.00000000       0.00000000       0.03817991 </v>
    </varray>
   </crystal>
   <varray name="positions" >
    <v>       0.08333333       0.08333333       0.38179910 </v>
    <v>       0.66651254       0.92147370       0.47422333 </v>
    <v>       0.00223978       0.24849442       0.55802661 </v>
    <v>       0.92088778       0.91795220       0.47934076 </v>
    <v>       0.99548131       0.73071789       0.58382375 </v>
    <v>       0.98871808       0.01036022       0.58438452 </v>
    <v>       0.92266116       0.66291841       0.47615800 </v>
    <v>       0.33333333       0.83333333       0.38179910 </v>
    <v>       0.83333333       0.83333333       0.38179910 </v>
    <v>       0.49856894       0.76068146       0.57016725 </v>
    <v>       0.75013073       0.25098209       0.56279007 </v>
    <v>       0.83333333       0.33333333       0.38179910 </v>
    <v>       0.66287083       0.41989318       0.47722599 </v>
    <v>       0.76024031       0.99253427       0.57038894 </v>
    <v>       0.76682013       0.52309593       0.59905850 </v>
    <v>       0.58333333       0.83333333       0.38179910 </v>
    <v>       0.33333333       0.33333333       0.38179910 </v>
    <v>       0.58333333       0.58333333       0.38179910 </v>
    <v>       0.48470832       0.24836384       0.58272918 </v>
    <v>       0.41364144       0.16992324       0.47607998 </v>
    <v>       0.24928913       0.75623701       0.56922812 </v>
    <v>       0.33333333       0.58333333       0.38179910 </v>
    <v>       0.24979016       0.24140775       0.57488624 </v>
    <v>       0.66817134       0.66413452       0.47758328 </v>
    <v>       0.58365982       0.33697335       0.62073306 </v>
    <v>       0.10161918       0.39381552       0.62282158 </v>
    <v>       0.57924394       0.04889443       0.62028323 </v>
    <v>       0.84685468       0.32084935       0.62107562 </v>
    <v>       0.30605974       0.56264699       0.61421059 </v>
    <v>       0.56482145       0.60260044       0.62515725 </v>
    <v>       0.13872118       0.05124714       0.61766046 </v>
    <v>       0.07794293       0.82768826       0.62749315 </v>
    <v>       0.33333333       0.08333333       0.38179910 </v>
    <v>       0.16685323       0.41438682       0.47228930 </v>
    <v>       0.16880969       0.66508717       0.47123059 </v>
    <v>       0.24648729       0.49510892       0.55662241 </v>
    <v>       0.16699091       0.91488212       0.47331709 </v>
    <v>       0.08333333       0.83333333       0.38179910 </v>
    <v>       0.74754033       0.75196063       0.56327106 </v>
    <v>       0.58333333       0.08333333       0.38179910 </v>
    <v>       0.49595205       0.99920739       0.56299451 </v>
    <v>       0.58333333       0.33333333       0.38179910 </v>
    <v>       0.16628443       0.16652640       0.47133262 </v>
    <v>       0.99743747       0.49787460       0.56418768 </v>
    <v>       0.41910160       0.41630897       0.47428208 </v>
    <v>       0.66546968       0.16991954       0.47575193 </v>
    <v>       0.41689128       0.91531149       0.47590147 </v>
    <v>       0.91563849       0.16558051       0.47268239 </v>
    <v>       0.08333333       0.33333333       0.38179910 </v>
    <v>       0.91778613       0.41584491       0.47226089 </v>
    <v>       0.83333333       0.08333333       0.38179910 </v>
    <v>       0.25549561       0.99534164       0.55819707 </v>
    <v>       0.08333333       0.58333333       0.38179910 </v>
    <v>       0.49183505       0.50325421       0.57646736 </v>
    <v>       0.41223763       0.66845788       0.48085838 </v>
    <v>       0.83333333       0.58333333       0.38179910 </v>
   </varray>
  </structure>
  <varray name="forces" >
   <v>      -0.05054899      -0.05534761      -0.23812999 </v>
   <v>      -0.02702447      -0.06792794      -0.08788942 </v>
   <v>      -0.00530938       0.02482604      -0.00126425 </v>
   <v>       0.01157780      -0.02397556       0.00392473 </v>
   <v>      -0.10504933       0.03543386      -0.01541425 </v>
   <v>      -0.07832349       0.05727371       0.20894863 </v>
   <v>       0.02005506       0.04607793      -0.12237023 </v>
   <v>      -0.02471317       0.08505056      -0.05387256 </v>
   <v>       0.31917609      -0.02058912      -0.24680076 </v>
   <v>      -0.03352649      -0.05343360      -0.09938187 </v>
   <v>       0.04529115      -0.05758411      -0.04599680 </v>
   <v>      -0.01597389      -0.00561672      -0.24318945 </v>
   <v>       0.02769172       0.00953505      -0.08536165 </v>
   <v>       0.01086871       0.01944410      -0.14852894 </v>
   <v>       0.13085619       0.11390600       0.28517025 </v>
   <v>      -0.02038975       0.20834158      -0.36404101 </v>
   <v>       0.00597130      -0.18299953      -0.15991360 </v>
   <v>      -0.01794909      -0.07113351      -0.08570673 </v>
   <v>      -0.02333675      -0.06408425       0.10564589 </v>
   <v>       0.02794100       0.02357168      -0.05321429 </v>
   <v>      -0.15083599      -0.00130448      -0.07971493 </v>
   <v>      -0.02471672      -0.02258778      -0.10889811 </v>
   <v>      -0.04480017      -0.03716201      -0.07706902 </v>
   <v>      -0.02320300       0.01864367      -0.16924418 </v>
   <v>       0.00022481      -0.05329206       0.02498250 </v>
   <v>       0.06651046       0.02766537      -0.02091912 </v>
   <v>       0.07501163       0.03615595      -0.02680871 </v>
   <v>       0.07605510       0.03653829      -0.00362914 </v>
   <v>       0.19058173       0.12970288      -0.07811897 </v>
[...]
       <r>   -19.2969     4.0146    15.9795 </r>
       <r>   -19.2032     0.2164    15.9998 </r>
       <r>   -19.1095     0.0025    16.0000 </r>
       <r>   -19.0158     0.0000    16.0000 </r>
       <r>   -18.9221     0.0000    16.0000 </r>
       <r>   -18.8284     0.0000    16.0000 </r>
       <r>   -18.7347     0.0000    16.0000 </r>
       <r>   -18.6410     0.0000    16.0000 </r>
       <r>   -18.5473     0.0000    16.0000 </r>
       <r>   -18.4536     0.0000    16.0000 </r>
       <r>   -18.3599     0.0000    16.0000 </r>
       <r>   -18.2662     0.0000    16.0000 </r>
       <r>   -18.1725     0.0000    16.0000 </r>
       <r>   -18.0788     0.0000    16.0000 </r>
       <r>   -17.9851     0.0000    16.0000 </r>
       <r>   -17.8914     0.0000    16.0000 </r>
       <r>   -17.7977     0.0000    16.0000 </r>
       <r>   -17.7040     0.0000    16.0000 </r>
       <r>   -17.6103     0.0000    16.0000 </r>
       <r>   -17.5166     0.0000    16.0000 </r>
       <r>   -17.4229     0.0000    16.0000 </r>
       <r>   -17.3291     0.0000    16.0000 </r>
       <r>   -17.2354     0.0000    16.0000 </r>
       <r>   -17.1417     0.0000    16.0000 </r>
       <r>   -17.0480     0.0000    16.0000 </r>
       <r>   -16.9543     0.0000    16.0000 </r>
       <r>   -16.8606     0.0000    16.0000 </r>
       <r>   -16.7669     0.0000    16.0000 </r>
       <r>   -16.6732     0.0000    16.0000 </r>
       <r>   -16.5795     0.0000    16.0000 </r>
       <r>   -16.4858     0.0000    16.0000 </r>
       <r>   -16.3921     0.0000    16.0000 </r>
       <r>   -16.2984     0.0000    16.0000 </r>
       <r>   -16.2047     0.0000    16.0000 </r>
       <r>   -16.1110     0.0000    16.0000 </r>
       <r>   -16.0173     0.0000    16.0000 </r>
       <r>   -15.9236     0.0000    16.0000 </r>
       <r>   -15.8299     0.0000    16.0000 </r>
       <r>   -15.7362     0.0000    16.0000 </r>
       <r>   -15.6425     0.0000    16.0000 </r>
       <r>   -15.5488     0.0000    16.0000 </r>
       <r>   -15.4551     0.0000    16.0000 </r>
       <r>   -15.3614     0.0000    16.0000 </r>
       <r>   -15.2677     0.0000    16.0000 </r>
       <r>   -15.1740     0.0000    16.0000 </r>
       <r>   -15.0803     0.0000    16.0000 </r>
       <r>   -14.9866     0.0000    16.0000 </r>
       <r>   -14.8929     0.0000    16.0000 </r>
       <r>   -14.7992     0.0000    16.0000 </r>
       <r>   -14.7055     0.0000    16.0000 </r>
       <r>   -14.6118     0.0000    16.0000 </r>
       <r>   -14.5181     0.0000    16.0000 </r>
       <r>   -14.4244     0.0000    16.0000 </r>
       <r>   -14.3307     0.0000    16.0000 </r>
       <r>   -14.2370     0.0000    16.0000 </r>
       <r>   -14.1433     0.0000    16.0000 </r>
       <r>   -14.0496     0.0000    16.0000 </r>
       <r>   -13.9559     0.0000    16.0000 </r>
       <r>   -13.8622     0.0000    16.0000 </r>
       <r>   -13.7684     0.0000    16.0000 </r>
       <r>   -13.6747     0.0000    16.0000 </r>
       <r>   -13.5810     0.0000    16.0000 </r>
       <r>   -13.4873     0.0000    16.0000 </r>
       <r>   -13.3936     0.0000    16.0000 </r>
       <r>   -13.2999     0.0000    16.0000 </r>
       <r>   -13.2062     0.0000    16.0000 </r>
       <r>   -13.1125     0.0000    16.0000 </r>
       <r>   -13.0188     0.0000    16.0000 </r>
       <r>   -12.9251     0.0000    16.0000 </r>
       <r>   -12.8314     0.0000    16.0000 </r>
       <r>   -12.7377     0.0000    16.0000 </r>
       <r>   -12.6440     0.0000    16.0000 </r>
       <r>   -12.5503     0.0000    16.0000 </r>
       <r>   -12.4566     0.0000    16.0000 </r>
       <r>   -12.3629     0.0000    16.0000 </r>
       <r>   -12.2692     0.0000    16.0000 </r>
       <r>   -12.1755     0.0000    16.0000 </r>
       <r>   -12.0818     0.0000    16.0000 </r>
       <r>   -11.9881     0.0000    16.0000 </r>
       <r>   -11.8944     0.0000    16.0000 </r>
       <r>   -11.8007     0.0000    16.0000 </r>
       <r>   -11.7070     0.0000    16.0000 </r>
       <r>   -11.6133     0.0000    16.0000 </r>
       <r>   -11.5196     0.0000    16.0000 </r>
       <r>   -11.4259     0.0000    16.0000 </r>
       <r>   -11.3322     0.0000    16.0000 </r>
       <r>   -11.2385     0.0000    16.0000 </r>
       <r>   -11.1448     0.0000    16.0000 </r>
       <r>   -11.0511     0.0000    16.0000 </r>
       <r>   -10.9574     0.0000    16.0000 </r>
       <r>   -10.8637     0.0000    16.0000 </r>
       <r>   -10.7700     0.0000    16.0000 </r>
       <r>   -10.6763     0.0000    16.0000 </r>
       <r>   -10.5826     0.0000    16.0000 </r>
       <r>   -10.4889     0.0000    16.0000 </r>
       <r>   -10.3952     0.0000    16.0000 </r>
       <r>   -10.3015     0.0000    16.0000 </r>
       <r>   -10.2078     0.0000    16.0000 </r>
       <r>   -10.1140     0.0000    16.0000 </r>
       <r>   -10.0203     0.0000    16.0000 </r>
       <r>    -9.9266     0.0000    16.0000 </r>
       <r>    -9.8329     0.0000    16.0000 </r>
       <r>    -9.7392     0.0000    16.0000 </r>
       <r>    -9.6455     0.0000    16.0000 </r>
       <r>    -9.5518     0.0000    16.0000 </r>
       <r>    -9.4581     0.0000    16.0000 </r>
       <r>    -9.3644     0.0000    16.0000 </r>
       <r>    -9.2707     0.0008    16.0001 </r>
       <r>    -9.1770     0.0697    16.0066 </r>
       <r>    -9.0833     1.2578    16.1245 </r>
       <r>    -8.9896     5.0830    16.6007 </r>
       <r>    -8.8959     6.8329    17.2410 </r>
       <r>    -8.8022     5.8341    17.7877 </r>
       <r>    -8.7085     2.1197    17.9863 </r>
       <r>    -8.6148     1.0370    18.0835 </r>
       <r>    -8.5211     5.0147    18.5534 </r>
       <r>    -8.4274    10.2595    19.5147 </r>
       <r>    -8.3337    14.2803    20.8528 </r>
       <r>    -8.2400    23.5575    23.0602 </r>
       <r>    -8.1463    27.8541    25.6702 </r>
       <r>    -8.0526    21.7167    27.7051 </r>
       <r>    -7.9589    14.8021    29.0921 </r>
       <r>    -7.8652    15.6727    30.5607 </r>
       <r>    -7.7715    24.6199    32.8676 </r>
       <r>    -7.6778    31.7670    35.8443 </r>
       <r>    -7.5841    34.6779    39.0937 </r>
       <r>    -7.4904    39.1385    42.7611 </r>
       <r>    -7.3967    42.8929    46.7802 </r>
       <r>    -7.3030    48.3935    51.3148 </r>
       <r>    -7.2093    51.1540    56.1081 </r>
       <r>    -7.1156    56.0299    61.3583 </r>
       <r>    -7.0219    60.6400    67.0404 </r>
       <r>    -6.9282    66.7107    73.2913 </r>
       <r>    -6.8345    70.0383    79.8541 </r>
       <r>    -6.7408    66.3599    86.0722 </r>
       <r>    -6.6471    70.1405    92.6446 </r>
       <r>    -6.5533    74.5631    99.6313 </r>
       <r>    -6.4596    79.3146   107.0633 </r>
       <r>    -6.3659    83.0109   114.8416 </r>
       <r>    -6.2722    85.9341   122.8939 </r>
       <r>    -6.1785    86.6464   131.0129 </r>
       <r>    -6.0848    84.4522   138.9263 </r>
       <r>    -5.9911    82.3751   146.6450 </r>
       <r>    -5.8974    81.1953   154.2533 </r>
       <r>    -5.8037    82.1105   161.9472 </r>
       <r>    -5.7100    80.1303   169.4556 </r>
       <r>    -5.6163    79.0714   176.8648 </r>
       <r>    -5.5226    81.2488   184.4781 </r>
       <r>    -5.4289    84.4376   192.3901 </r>
       <r>    -5.3352    84.0365   200.2645 </r>
       <r>    -5.2415    82.3591   207.9818 </r>
       <r>    -5.1478    83.7050   215.8252 </r>
       <r>    -5.0541    89.3823   224.2005 </r>
       <r>    -4.9604    97.2733   233.3153 </r>
       <r>    -4.8667    97.4398   242.4456 </r>
       <r>    -4.7730    89.3921   250.8219 </r>
       <r>    -4.6793    89.6770   259.2249 </r>
       <r>    -4.5856    95.3479   268.1592 </r>
       <r>    -4.4919    92.2674   276.8049 </r>
       <r>    -4.3982    90.9446   285.3267 </r>
       <r>    -4.3045    92.5065   293.9948 </r>
       <r>    -4.2108    93.2423   302.7318 </r>
       <r>    -4.1171    92.2857   311.3792 </r>
       <r>    -4.0234    91.9863   319.9986 </r>
       <r>    -3.9297    97.3863   329.1239 </r>
       <r>    -3.8360   101.0812   338.5955 </r>
       <r>    -3.7423   101.9966   348.1529 </r>
       <r>    -3.6486    95.9688   357.1454 </r>
       <r>    -3.5549    92.1289   365.7781 </r>
       <r>    -3.4612    91.8253   374.3824 </r>
       <r>    -3.3675    88.9290   382.7152 </r>
       <r>    -3.2738    89.5490   391.1062 </r>
       <r>    -3.1801    90.6147   399.5970 </r>
       <r>    -3.0864    93.1128   408.3220 </r>
       <r>    -2.9926    96.2371   417.3396 </r>
       <r>    -2.8989    95.6279   426.3002 </r>
       <r>    -2.8052    90.7561   434.8043 </r>
       <r>    -2.7115    87.2715   442.9819 </r>
       <r>    -2.6178    91.7903   451.5829 </r>
       <r>    -2.5241    95.9667   460.5752 </r>
       <r>    -2.4304    98.6938   469.8230 </r>
       <r>    -2.3367    99.6591   479.1614 </r>
       <r>    -2.2430   101.8504   488.7050 </r>
       <r>    -2.1493   102.1828   498.2798 </r>
       <r>    -2.0556    93.1979   507.0127 </r>
       <r>    -1.9619    81.8718   514.6843 </r>
       <r>    -1.8682    77.5397   521.9500 </r>
       <r>    -1.7745    76.4102   529.1098 </r>
       <r>    -1.6808    73.3647   535.9843 </r>
       <r>    -1.5871    64.6095   542.0383 </r>
       <r>    -1.4934    57.8176   547.4560 </r>
       <r>    -1.3997    52.7933   552.4029 </r>
       <r>    -1.3060    43.1706   556.4481 </r>
       <r>    -1.2123    34.1610   559.6490 </r>
       <r>    -1.1186    29.1650   562.3819 </r>
       <r>    -1.0249    26.1054   564.8280 </r>
       <r>    -0.9312    21.4404   566.8370 </r>
       <r>    -0.8375    22.6350   568.9580 </r>
       <r>    -0.7438    25.1551   571.3151 </r>
       <r>    -0.6501    24.5351   573.6141 </r>
       <r>    -0.5564    25.3915   575.9934 </r>
       <r>    -0.4627    23.6865   578.2129 </r>
       <r>    -0.3690    20.8802   580.1694 </r>
       <r>    -0.2753    19.7143   582.0167 </r>
       <r>    -0.1816    16.2308   583.5375 </r>
       <r>    -0.0879    11.2921   584.5956 </r>
       <r>     0.0058    10.1521   585.5469 </r>
       <r>     0.0995    10.3112   586.5131 </r>
       <r>     0.1932     8.4724   587.3070 </r>
       <r>     0.2869    10.7768   588.3168 </r>
       <r>     0.3806    14.4756   589.6732 </r>
       <r>     0.4743    18.3866   591.3961 </r>
       <r>     0.5680    18.1159   593.0936 </r>
       <r>     0.6618    17.8187   594.7632 </r>
       <r>     0.7555    19.3276   596.5743 </r>
       <r>     0.8492    16.5667   598.1266 </r>
       <r>     0.9429    13.8854   599.4277 </r>
       <r>     1.0366    11.7519   600.5289 </r>
       <r>     1.1303    12.2734   601.6790 </r>
       <r>     1.2240    11.7572   602.7806 </r>
       <r>     1.3177    11.9852   603.9037 </r>
       <r>     1.4114    12.6591   605.0899 </r>
       <r>     1.5051    12.1557   606.2289 </r>
       <r>     1.5988    11.1674   607.2753 </r>
       <r>     1.6925    12.8134   608.4760 </r>
       <r>     1.7862    14.1438   609.8013 </r>
       <r>     1.8799    17.9133   611.4798 </r>
       <r>     1.9736    18.7949   613.2409 </r>
       <r>     2.0673    18.4061   614.9656 </r>
       <r>     2.1610    13.8643   616.2647 </r>
       <r>     2.2547    15.5816   617.7248 </r>
       <r>     2.3484    16.1881   619.2417 </r>
       <r>     2.4421    13.1464   620.4735 </r>
       <r>     2.5358    14.5946   621.8411 </r>
       <r>     2.6295    13.8025   623.1344 </r>
       <r>     2.7232    10.9992   624.1650 </r>
       <r>     2.8169    11.1034   625.2055 </r>
       <r>     2.9106    12.9105   626.4152 </r>
       <r>     3.0043    14.5367   627.7773 </r>
       <r>     3.0980    12.4876   628.9475 </r>
       <r>     3.1917    11.5648   630.0311 </r>
       <r>     3.2854    13.8021   631.3244 </r>
       <r>     3.3791    14.0617   632.6420 </r>
       <r>     3.4728    17.5295   634.2846 </r>
       <r>     3.5665    20.5584   636.2109 </r>
       <r>     3.6602    20.1416   638.0983 </r>
       <r>     3.7539    20.1936   639.9904 </r>
       <r>     3.8476    19.1127   641.7814 </r>
       <r>     3.9413    16.7453   643.3504 </r>
       <r>     4.0350    17.5206   644.9922 </r>
       <r>     4.1287    20.5216   646.9151 </r>
       <r>     4.2225    19.7199   648.7629 </r>
       <r>     4.3162    20.7140   650.7038 </r>
       <r>     4.4099    19.5061   652.5316 </r>
       <r>     4.5036    19.6987   654.3774 </r>
       <r>     4.5973    23.8847   656.6155 </r>
       <r>     4.6910    27.8312   659.2234 </r>
       <r>     4.7847    25.5361   661.6162 </r>
       <r>     4.8784    24.5668   663.9181 </r>
       <r>     4.9721    25.6496   666.3216 </r>
       <r>     5.0658    26.9087   668.8430 </r>
       <r>     5.1595    21.6573   670.8723 </r>
       <r>     5.2532    10.1703   671.8253 </r>
       <r>     5.3469     1.7750   671.9916 </r>
       <r>     5.4406     0.0883   671.9999 </r>
       <r>     5.5343     0.0011   672.0000 </r>
       <r>     5.6280     0.0000   672.0000 </r>
       <r>     5.7217     0.0000   672.0000 </r>
       <r>     5.8154     0.0000   672.0000 </r>
       <r>     5.9091     0.0000   672.0000 </r>
       <r>     6.0028     0.0000   672.0000 </r>
       <r>     6.0965     0.0000   672.0000 </r>
       <r>     6.1902     0.0000   672.0000 </r>
       <r>     6.2839     0.0000   672.0000 </r>
       <r>     6.3776     0.0000   672.0000 </r>
       <r>     6.4713     0.0000   672.0000 </r>
      </set>
     </set>
    </array>
   </total>
  </dos>
 </calculation>
 <structure name="finalpos" >
  <crystal>
   <varray name="basis" >
    <v>      11.00258152       0.00000000       0.00000000 </v>
    <v>       5.50129076       9.52851510       0.00000000 </v>
    <v>       0.00000000       0.00000000      26.19178509 </v>
   </varray>
   <i name="volume">   2745.90128299 </i>
   <varray name="rec_basis" >
    <v>       0.09088776      -0.05247407       0.00000000 </v>
    <v>       0.00000000       0.10494815       0.00000000 </v>
    <v>       0.00000000       0.00000000       0.03817991 </v>
   </varray>
  </crystal>
  <varray name="positions" >
   <v>       0.08333333       0.08333333       0.38179910 </v>
   <v>       0.66922032       0.91375859       0.47493498 </v>
   <v>      -0.00275884       0.25004302       0.56036747 </v>
   <v>       0.92380363       0.91460546       0.47610532 </v>
   <v>      -0.03417684       0.76240781       0.60911546 </v>
   <v>       0.96619545       0.01711327       0.60762602 </v>
   <v>       0.92395883       0.66140419       0.47593645 </v>
   <v>       0.33333333       0.83333333       0.38179910 </v>
   <v>       0.83333333       0.83333333       0.38179910 </v>
   <v>       0.49988078       0.75430428       0.56637704 </v>
   <v>       0.75804854       0.24177110       0.56240548 </v>
   <v>       0.83333333       0.33333333       0.38179910 </v>
   <v>       0.66516904       0.41525720       0.47708225 </v>
   <v>       0.75997466       0.98832204       0.56367422 </v>
   <v>       0.75989709       0.51417207       0.62587926 </v>
   <v>       0.58333333       0.83333333       0.38179910 </v>
   <v>       0.33333333       0.33333333       0.38179910 </v>
   <v>       0.58333333       0.58333333       0.38179910 </v>
   <v>       0.47226751       0.24780721       0.59878465 </v>
   <v>       0.42034538       0.16384068       0.47193063 </v>
   <v>       0.23241573       0.76388152       0.56220565 </v>
   <v>       0.33333333       0.58333333       0.38179910 </v>
   <v>       0.25477364       0.23943923       0.56004328 </v>
   <v>       0.66940493       0.66094248       0.47681656 </v>
   <v>       0.60124269       0.32552474       0.61988181 </v>
   <v>       0.08864692       0.54955820       0.61506898 </v>
   <v>       0.58024503       0.04319942       0.62325114 </v>
   <v>       0.96214871       0.40351260       0.62617062 </v>
   <v>       0.32691198       0.57847359       0.60975942 </v>
   <v>       0.55635690       0.61047633       0.62694697 </v>
   <v>       0.11168409       0.08348375       0.61715459 </v>
   <v>       0.10290781       0.82323810       0.63663489 </v>
   <v>       0.33333333       0.08333333       0.38179910 </v>
   <v>       0.16961650       0.41502742       0.47282385 </v>
   <v>       0.17052363       0.66137060       0.47210243 </v>
   <v>       0.25177147       0.49037121       0.56549461 </v>
   <v>       0.16743973       0.91508932       0.47323935 </v>
   <v>       0.08333333       0.83333333       0.38179910 </v>
   <v>       0.75959975       0.73484905       0.56672524 </v>
   <v>       0.58333333       0.08333333       0.38179910 </v>
   <v>       0.50289145       0.99136041       0.56540637 </v>
   <v>       0.58333333       0.33333333       0.38179910 </v>
   <v>       0.16723773       0.16410008       0.47006817 </v>
   <v>       0.00042573       0.48973330       0.56261623 </v>
   <v>       0.41892167       0.41342962       0.48084346 </v>
   <v>       0.66751772       0.16630540       0.47107153 </v>
   <v>       0.41537425       0.91445584       0.47766126 </v>
   <v>       0.91755169       0.16416472       0.47475779 </v>
   <v>       0.08333333       0.33333333       0.38179910 </v>
   <v>       0.91958980       0.41338059       0.47445844 </v>
   <v>       0.83333333       0.08333333       0.38179910 </v>
   <v>       0.25019137      -0.00291687       0.56105726 </v>
   <v>       0.08333333       0.58333333       0.38179910 </v>
   <v>       0.50890585       0.49490618       0.57246589 </v>
   <v>       0.41359657       0.66401257       0.47883202 </v>
   <v>       0.83333333       0.58333333       0.38179910 </v>
  </varray>
  <varray name="selective"  type="logical" >
   <v type="logical" >  F  F  F </v>
   <v type="logical" >  T  T  T </v>
   <v type="logical" >  T  T  T </v>
   <v type="logical" >  T  T  T </v>
   <v type="logical" >  T  T  T </v>
   <v type="logical" >  T  T  T </v>
   <v type="logical" >  T  T  T </v>
   <v type="logical" >  F  F  F </v>
   <v type="logical" >  F  F  F </v>
   <v type="logical" >  T  T  T </v>
   <v type="logical" >  T  T  T </v>
   <v type="logical" >  F  F  F </v>
   <v type="logical" >  T  T  T </v>
   <v type="logical" >  T  T  T </v>
   <v type="logical" >  T  T  T </v>
   <v type="logical" >  F  F  F </v>
   <v type="logical" >  F  F  F </v>
   <v type="logical" >  F  F  F </v>
   <v type="logical" >  T  T  T </v>
   <v type="logical" >  T  T  T </v>
   <v type="logical" >  T  T  T </v>
   <v type="logical" >  F  F  F </v>
   <v type="logical" >  T  T  T </v>
   <v type="logical" >  T  T  T </v>
   <v type="logical" >  T  T  T </v>
   <v type="logical" >  T  T  T </v>
   <v type="logical" >  T  T  T </v>
   <v type="logical" >  T  T  T </v>
   <v type="logical" >  T  T  T </v>
   <v type="logical" >  T  T  T </v>
   <v type="logical" >  T  T  T </v>
   <v type="logical" >  T  T  T </v>
   <v type="logical" >  F  F  F </v>
   <v type="logical" >  T  T  T </v>
   <v type="logical" >  T  T  T </v>
   <v type="logical" >  T  T  T </v>
   <v type="logical" >  T  T  T </v>
   <v type="logical" >  F  F  F </v>
   <v type="logical" >  T  T  T </v>
   <v type="logical" >  F  F  F </v>
   <v type="logical" >  T  T  T </v>
   <v type="logical" >  F  F  F </v>
   <v type="logical" >  T  T  T </v>
   <v type="logical" >  T  T  T </v>
   <v type="logical" >  T  T  T </v>
   <v type="logical" >  T  T  T </v>
   <v type="logical" >  T  T  T </v>
   <v type="logical" >  T  T  T </v>
   <v type="logical" >  F  F  F </v>
   <v type="logical" >  T  T  T </v>
   <v type="logical" >  F  F  F </v>
   <v type="logical" >  T  T  T </v>
   <v type="logical" >  F  F  F </v>
   <v type="logical" >  T  T  T </v>
   <v type="logical" >  T  T  T </v>
   <v type="logical" >  F  F  F </v>
  </varray>
  <nose>
   <v>      -3.00000000       0.00000000       0.00010000       0.00010000 </v>
  </nose>
 </structure>
</modeling>
