  56  56   0   0
  0.4903395E+02  0.1100258E-08  0.1100258E-08  0.2619179E-08  0.3500000E-15
  1.000000000000000E-004
  CAR 
 unknown system                          
      6.44939454    -21.84474867  301     -1.23734307      1.00000000
    -21.845  0.0000E+00  0.0000E+00
    -21.750  0.0000E+00  0.0000E+00
    -21.656  0.0000E+00  0.0000E+00
    -21.562  0.0000E+00  0.0000E+00
    -21.467  0.0000E+00  0.0000E+00
    -21.373  0.0000E+00  0.0000E+00
    -21.279  0.0000E+00  0.0000E+00
    -21.185  0.0000E+00  0.0000E+00
    -21.090  0.5976E-15  0.5636E-16
    -20.996  0.7312E-11  0.6897E-12
    -20.902  0.1588E-07  0.1498E-08
    -20.807  0.6247E-05  0.5907E-06
    -20.713  0.4611E-03  0.4408E-04
    -20.619  0.6824E-02  0.6877E-03
    -20.524  0.2425E-01  0.2975E-02
    -20.430  0.3760E-01  0.6522E-02
    -20.336  0.4644E-01  0.1090E-01
    -20.241  0.5239E-01  0.1584E-01
    -20.147  0.7714E-01  0.2312E-01
    -20.053  0.7040E-01  0.2976E-01
    -19.958  0.2202E-01  0.3183E-01
    -19.864  0.1734E-02  0.3200E-01
    -19.770  0.2922E-04  0.3200E-01
    -19.676  0.9632E-07  0.3200E-01
    -19.581  0.5892E-10  0.3200E-01
    -19.487  0.6488E-14  0.3200E-01
    -19.393  0.0000E+00  0.3200E-01
    -19.298  0.0000E+00  0.3200E-01
    -19.204  0.0000E+00  0.3200E-01
    -19.110  0.0000E+00  0.3200E-01
    -19.015  0.0000E+00  0.3200E-01
    -18.921  0.0000E+00  0.3200E-01
    -18.827  0.0000E+00  0.3200E-01
    -18.732  0.0000E+00  0.3200E-01
    -18.638  0.0000E+00  0.3200E-01
    -18.544  0.0000E+00  0.3200E-01
    -18.449  0.0000E+00  0.3200E-01
    -18.355  0.0000E+00  0.3200E-01
    -18.261  0.0000E+00  0.3200E-01
    -18.167  0.0000E+00  0.3200E-01
    -18.072  0.0000E+00  0.3200E-01
    -17.978  0.0000E+00  0.3200E-01
    -17.884  0.0000E+00  0.3200E-01
    -17.789  0.0000E+00  0.3200E-01
    -17.695  0.0000E+00  0.3200E-01
    -17.601  0.0000E+00  0.3200E-01
    -17.506  0.0000E+00  0.3200E-01
    -17.412  0.0000E+00  0.3200E-01
    -17.318  0.0000E+00  0.3200E-01
    -17.223  0.0000E+00  0.3200E-01
    -17.129  0.0000E+00  0.3200E-01
    -17.035  0.0000E+00  0.3200E-01
    -16.940  0.0000E+00  0.3200E-01
    -16.846  0.0000E+00  0.3200E-01
    -16.752  0.0000E+00  0.3200E-01
    -16.657  0.0000E+00  0.3200E-01
    -16.563  0.0000E+00  0.3200E-01
    -16.469  0.0000E+00  0.3200E-01
    -16.375  0.0000E+00  0.3200E-01
    -16.280  0.0000E+00  0.3200E-01
    -16.186  0.0000E+00  0.3200E-01
    -16.092  0.0000E+00  0.3200E-01
    -15.997  0.0000E+00  0.3200E-01
    -15.903  0.0000E+00  0.3200E-01
    -15.809  0.0000E+00  0.3200E-01
    -15.714  0.0000E+00  0.3200E-01
    -15.620  0.0000E+00  0.3200E-01
    -15.526  0.0000E+00  0.3200E-01
    -15.431  0.0000E+00  0.3200E-01
    -15.337  0.0000E+00  0.3200E-01
    -15.243  0.0000E+00  0.3200E-01
    -15.148  0.0000E+00  0.3200E-01
    -15.054  0.0000E+00  0.3200E-01
    -14.960  0.0000E+00  0.3200E-01
    -14.866  0.0000E+00  0.3200E-01
    -14.771  0.0000E+00  0.3200E-01
    -14.677  0.0000E+00  0.3200E-01
    -14.583  0.0000E+00  0.3200E-01
    -14.488  0.0000E+00  0.3200E-01
    -14.394  0.0000E+00  0.3200E-01
    -14.300  0.0000E+00  0.3200E-01
    -14.205  0.0000E+00  0.3200E-01
    -14.111  0.0000E+00  0.3200E-01
    -14.017  0.0000E+00  0.3200E-01
    -13.922  0.0000E+00  0.3200E-01
    -13.828  0.0000E+00  0.3200E-01
    -13.734  0.0000E+00  0.3200E-01
    -13.639  0.0000E+00  0.3200E-01
    -13.545  0.0000E+00  0.3200E-01
    -13.451  0.0000E+00  0.3200E-01
    -13.357  0.0000E+00  0.3200E-01
    -13.262  0.0000E+00  0.3200E-01
    -13.168  0.0000E+00  0.3200E-01
    -13.074  0.0000E+00  0.3200E-01
    -12.979  0.0000E+00  0.3200E-01
    -12.885  0.0000E+00  0.3200E-01
    -12.791  0.0000E+00  0.3200E-01
    -12.696  0.0000E+00  0.3200E-01
    -12.602  0.0000E+00  0.3200E-01
    -12.508  0.0000E+00  0.3200E-01
    -12.413  0.0000E+00  0.3200E-01
    -12.319  0.0000E+00  0.3200E-01
    -12.225  0.0000E+00  0.3200E-01
    -12.130  0.0000E+00  0.3200E-01
    -12.036  0.0000E+00  0.3200E-01
    -11.942  0.0000E+00  0.3200E-01
    -11.847  0.0000E+00  0.3200E-01
    -11.753  0.0000E+00  0.3200E-01
    -11.659  0.0000E+00  0.3200E-01
    -11.565  0.0000E+00  0.3200E-01
    -11.470  0.0000E+00  0.3200E-01
    -11.376  0.0000E+00  0.3200E-01
    -11.282  0.0000E+00  0.3200E-01
    -11.187  0.0000E+00  0.3200E-01
    -11.093  0.0000E+00  0.3200E-01
    -10.999  0.0000E+00  0.3200E-01
    -10.904  0.0000E+00  0.3200E-01
    -10.810  0.0000E+00  0.3200E-01
    -10.716  0.0000E+00  0.3200E-01
    -10.621  0.0000E+00  0.3200E-01
    -10.527  0.0000E+00  0.3200E-01
    -10.433  0.0000E+00  0.3200E-01
    -10.338  0.0000E+00  0.3200E-01
    -10.244  0.0000E+00  0.3200E-01
    -10.150  0.1216E-16  0.3200E-01
    -10.056  0.2598E-12  0.3200E-01
     -9.961  0.9683E-09  0.3200E-01
     -9.867  0.6429E-06  0.3200E-01
     -9.773  0.7816E-04  0.3201E-01
     -9.678  0.1820E-02  0.3218E-01
     -9.584  0.8620E-02  0.3299E-01
     -9.490  0.9042E-02  0.3384E-01
     -9.395  0.5856E-02  0.3440E-01
     -9.301  0.1041E-01  0.3538E-01
     -9.207  0.5861E-02  0.3593E-01
     -9.112  0.7179E-03  0.3600E-01
     -9.018  0.4052E-03  0.3604E-01
     -8.924  0.4095E-02  0.3642E-01
     -8.829  0.1129E-01  0.3749E-01
     -8.735  0.1618E-01  0.3901E-01
     -8.641  0.2027E-01  0.4093E-01
     -8.547  0.1242E-01  0.4210E-01
     -8.452  0.9748E-02  0.4302E-01
     -8.358  0.1009E-01  0.4397E-01
     -8.264  0.1950E-01  0.4581E-01
     -8.169  0.4372E-01  0.4993E-01
     -8.075  0.3958E-01  0.5366E-01
     -7.981  0.5102E-01  0.5848E-01
     -7.886  0.9471E-01  0.6741E-01
     -7.792  0.1174E+00  0.7848E-01
     -7.698  0.1202E+00  0.8982E-01
     -7.603  0.1238E+00  0.1015E+00
     -7.509  0.1132E+00  0.1122E+00
     -7.415  0.9190E-01  0.1208E+00
     -7.320  0.7221E-01  0.1277E+00
     -7.226  0.8013E-01  0.1352E+00
     -7.132  0.1251E+00  0.1470E+00
     -7.037  0.1615E+00  0.1622E+00
     -6.943  0.1625E+00  0.1776E+00
     -6.849  0.1511E+00  0.1918E+00
     -6.755  0.1424E+00  0.2052E+00
     -6.660  0.1467E+00  0.2191E+00
     -6.566  0.1682E+00  0.2350E+00
     -6.472  0.1875E+00  0.2526E+00
     -6.377  0.1611E+00  0.2678E+00
     -6.283  0.1262E+00  0.2797E+00
     -6.189  0.1292E+00  0.2919E+00
     -6.094  0.1495E+00  0.3060E+00
     -6.000  0.1614E+00  0.3212E+00
     -5.906  0.1652E+00  0.3368E+00
     -5.811  0.1594E+00  0.3518E+00
     -5.717  0.1604E+00  0.3670E+00
     -5.623  0.1727E+00  0.3833E+00
     -5.528  0.1829E+00  0.4005E+00
     -5.434  0.1707E+00  0.4166E+00
     -5.340  0.1646E+00  0.4321E+00
     -5.246  0.1697E+00  0.4481E+00
     -5.151  0.1662E+00  0.4638E+00
     -5.057  0.1666E+00  0.4795E+00
     -4.963  0.1698E+00  0.4955E+00
     -4.868  0.1883E+00  0.5133E+00
     -4.774  0.1942E+00  0.5316E+00
     -4.680  0.1926E+00  0.5498E+00
     -4.585  0.1934E+00  0.5680E+00
     -4.491  0.1871E+00  0.5857E+00
     -4.397  0.1952E+00  0.6041E+00
     -4.302  0.2218E+00  0.6250E+00
     -4.208  0.2297E+00  0.6466E+00
     -4.114  0.2188E+00  0.6673E+00
     -4.019  0.2099E+00  0.6871E+00
     -3.925  0.1948E+00  0.7054E+00
     -3.831  0.1929E+00  0.7236E+00
     -3.736  0.1976E+00  0.7423E+00
     -3.642  0.2042E+00  0.7615E+00
     -3.548  0.2161E+00  0.7819E+00
     -3.454  0.2036E+00  0.8011E+00
     -3.359  0.1776E+00  0.8179E+00
     -3.265  0.1607E+00  0.8330E+00
     -3.171  0.1517E+00  0.8473E+00
     -3.076  0.1601E+00  0.8624E+00
     -2.982  0.1627E+00  0.8778E+00
     -2.888  0.1549E+00  0.8924E+00
     -2.793  0.1596E+00  0.9074E+00
     -2.699  0.1500E+00  0.9216E+00
     -2.605  0.1477E+00  0.9355E+00
     -2.510  0.1640E+00  0.9510E+00
     -2.416  0.1696E+00  0.9670E+00
     -2.322  0.1607E+00  0.9821E+00
     -2.227  0.1583E+00  0.9970E+00
     -2.133  0.1660E+00  0.1013E+01
     -2.039  0.1576E+00  0.1028E+01
     -1.945  0.1403E+00  0.1041E+01
     -1.850  0.1210E+00  0.1052E+01
     -1.756  0.1012E+00  0.1062E+01
     -1.662  0.9580E-01  0.1071E+01
     -1.567  0.9521E-01  0.1080E+01
     -1.473  0.7819E-01  0.1087E+01
     -1.379  0.7166E-01  0.1094E+01
     -1.284  0.7058E-01  0.1101E+01
     -1.190  0.7540E-01  0.1108E+01
     -1.096  0.8495E-01  0.1116E+01
     -1.001  0.8806E-01  0.1124E+01
     -0.907  0.6927E-01  0.1131E+01
     -0.813  0.5428E-01  0.1136E+01
     -0.718  0.6430E-01  0.1142E+01
     -0.624  0.7111E-01  0.1148E+01
     -0.530  0.6603E-01  0.1155E+01
     -0.436  0.5420E-01  0.1160E+01
     -0.341  0.3652E-01  0.1163E+01
     -0.247  0.2599E-01  0.1166E+01
     -0.153  0.2696E-01  0.1168E+01
     -0.058  0.2944E-01  0.1171E+01
      0.036  0.3380E-01  0.1174E+01
      0.130  0.3039E-01  0.1177E+01
      0.225  0.3505E-01  0.1180E+01
      0.319  0.3919E-01  0.1184E+01
      0.413  0.2939E-01  0.1187E+01
      0.508  0.2601E-01  0.1189E+01
      0.602  0.3160E-01  0.1192E+01
      0.696  0.3239E-01  0.1195E+01
      0.791  0.2556E-01  0.1198E+01
      0.885  0.1981E-01  0.1200E+01
      0.979  0.1987E-01  0.1201E+01
      1.074  0.2088E-01  0.1203E+01
      1.168  0.2353E-01  0.1206E+01
      1.262  0.2452E-01  0.1208E+01
      1.356  0.1915E-01  0.1210E+01
      1.451  0.1582E-01  0.1211E+01
      1.545  0.3636E-01  0.1215E+01
      1.639  0.5552E-01  0.1220E+01
      1.734  0.4679E-01  0.1224E+01
      1.828  0.3069E-01  0.1227E+01
      1.922  0.2381E-01  0.1229E+01
      2.017  0.2757E-01  0.1232E+01
      2.111  0.2368E-01  0.1234E+01
      2.205  0.1887E-01  0.1236E+01
      2.300  0.2173E-01  0.1238E+01
      2.394  0.1545E-01  0.1240E+01
      2.488  0.7992E-02  0.1240E+01
      2.583  0.1553E-01  0.1242E+01
      2.677  0.2647E-01  0.1244E+01
      2.771  0.2425E-01  0.1247E+01
      2.865  0.2656E-01  0.1249E+01
      2.960  0.2886E-01  0.1252E+01
      3.054  0.3152E-01  0.1255E+01
      3.148  0.3192E-01  0.1258E+01
      3.243  0.1904E-01  0.1260E+01
      3.337  0.1375E-01  0.1261E+01
      3.431  0.2280E-01  0.1263E+01
      3.526  0.2853E-01  0.1266E+01
      3.620  0.3435E-01  0.1269E+01
      3.714  0.4071E-01  0.1273E+01
      3.809  0.4854E-01  0.1277E+01
      3.903  0.4762E-01  0.1282E+01
      3.997  0.4433E-01  0.1286E+01
      4.092  0.4504E-01  0.1290E+01
      4.186  0.4050E-01  0.1294E+01
      4.280  0.3454E-01  0.1297E+01
      4.374  0.3697E-01  0.1301E+01
      4.469  0.4640E-01  0.1305E+01
      4.563  0.5290E-01  0.1310E+01
      4.657  0.5574E-01  0.1315E+01
      4.752  0.5773E-01  0.1321E+01
      4.846  0.5525E-01  0.1326E+01
      4.940  0.5176E-01  0.1331E+01
      5.035  0.5962E-01  0.1337E+01
      5.129  0.5215E-01  0.1342E+01
      5.223  0.2205E-01  0.1344E+01
      5.318  0.3724E-02  0.1344E+01
      5.412  0.1851E-03  0.1344E+01
      5.506  0.2161E-05  0.1344E+01
      5.601  0.5231E-08  0.1344E+01
      5.695  0.2434E-11  0.1344E+01
      5.789  0.2080E-15  0.1344E+01
      5.884  0.0000E+00  0.1344E+01
      5.978  0.0000E+00  0.1344E+01
      6.072  0.0000E+00  0.1344E+01
      6.166  0.0000E+00  0.1344E+01
      6.261  0.0000E+00  0.1344E+01
      6.355  0.0000E+00  0.1344E+01
      6.449  0.0000E+00  0.1344E+01
