<?xml version="1.0" encoding="ISO-8859-1"?>
<modeling>
 <generator>
  <i name="program" type="string">vasp </i>
  <i name="version" type="string">5.4.1  </i>
  <i name="subversion" type="string">24Jun15 (build Mar 14 2019 10:18:33) complex                          parallel </i>
  <i name="platform" type="string">INTEL-19.0.2+OPENMPI-3.1.3 </i>
  <i name="date" type="string">2023 03 12 </i>
  <i name="time" type="string">18:14:58 </i>
 </generator>
 <incar>
  <i type="int" name="ISTART">     0</i>
  <i type="string" name="PREC">normal</i>
  <i type="string" name="ALGO"> Fast</i>
  <i type="int" name="NELM">   500</i>
  <i type="int" name="IBRION">     2</i>
  <i type="int" name="NFREE">     2</i>
  <i name="EDIFF">      0.00000100</i>
  <i name="EDIFFG">     -0.02000000</i>
  <i type="int" name="NSW">   500</i>
  <i type="int" name="ISIF">     0</i>
  <i type="int" name="ISYM">     2</i>
  <i name="ENCUT">    400.00000000</i>
  <i name="POTIM">      0.35000000</i>
  <i type="string" name="LREAL"> Auto</i>
  <i type="logical" name="LPLANE"> T  </i>
  <i type="int" name="ISMEAR">     0</i>
  <i name="SIGMA">      0.10000000</i>
  <i type="int" name="NWRITE">     1</i>
  <i type="logical" name="LWAVE"> F  </i>
  <i type="logical" name="LCHARG"> F  </i>
  <i type="logical" name="LVTOT"> F  </i>
  <i type="logical" name="LORBIT"> F  </i>
  <i type="logical" name="LAECHG"> F  </i>
  <v type="int" name="KPOINT_BSE">    -1     0     0     0</v>
  <i type="int" name="NELM">   500</i>
  <i type="string" name="GGA"> PE          ! optPBE-vdW XC-functional</i>
  <i type="int" name="VOSKOWN">     1</i>
  <i type="logical" name="LDIPOL"> T  </i>
  <i type="logical" name="LMONO"> F  </i>
  <i type="int" name="IDIPOL">     3</i>
  <v name="DIPOL">      0.00000000      0.00000000      0.50000000</v>
 </incar>
 <kpoints>
  <generation param="Monkhorst-Pack">
   <v type="int" name="divisions">       2        2        1 </v>
   <v name="usershift">      0.00000000       0.00000000       0.00000000 </v>
   <v name="genvec1">      0.50000000       0.00000000       0.00000000 </v>
   <v name="genvec2">      0.00000000       0.50000000       0.00000000 </v>
   <v name="genvec3">      0.00000000       0.00000000       1.00000000 </v>
   <v name="shift">      0.50000000       0.50000000       0.00000000 </v>
  </generation>
  <varray name="kpointlist" >
   <v>       0.25000000       0.25000000       0.00000000 </v>
   <v>       0.00000000       0.25000000       0.00000000 </v>
   <v>      -0.25000000       0.00000000       0.00000000 </v>
   <v>      -0.25000000       0.25000000       0.00000000 </v>
   <v>       0.50000000      -0.25000000       0.00000000 </v>
   <v>      -0.25000000       0.50000000       0.00000000 </v>
  </varray>
  <varray name="weights" >
   <v>       0.16666667 </v>
   <v>       0.16666667 </v>
   <v>       0.16666667 </v>
   <v>       0.16666667 </v>
   <v>       0.16666667 </v>
   <v>       0.16666667 </v>
  </varray>
 </kpoints>
 <parameters>
  <separator name="general" >
   <i type="string" name="SYSTEM">unknown system</i>
   <i type="logical" name="LCOMPAT"> F  </i>
  </separator>
  <separator name="electronic" >
   <i type="string" name="PREC">normal</i>
   <i name="ENMAX">    400.00000000</i>
   <i name="ENAUG">    605.39200000</i>
   <i name="EDIFF">      0.00000100</i>
   <i type="int" name="IALGO">    68</i>
   <i type="int" name="IWAVPR">    11</i>
   <i type="int" name="NBANDS">   336</i>
   <i name="NELECT">    552.00000000</i>
   <i type="int" name="TURBO">     0</i>
   <i type="int" name="IRESTART">     0</i>
   <i type="int" name="NREBOOT">     0</i>
   <i type="int" name="NMIN">     0</i>
   <i name="EREF">      0.00000000</i>
   <separator name="electronic smearing" >
    <i type="int" name="ISMEAR">     0</i>
    <i name="SIGMA">      0.10000000</i>
    <i name="KSPACING">      0.50000000</i>
    <i type="logical" name="KGAMMA"> T  </i>
   </separator>
   <separator name="electronic projectors" >
    <i type="logical" name="LREAL"> T  </i>
    <v name="ROPT">     -0.00050000     -0.00050000     -0.00050000</v>
    <i type="int" name="LMAXPAW">  -100</i>
    <i type="int" name="LMAXMIX">     2</i>
    <i type="logical" name="NLSPLINE"> F  </i>
   </separator>
   <separator name="electronic startup" >
    <i type="int" name="ISTART">     0</i>
    <i type="int" name="ICHARG">     2</i>
    <i type="int" name="INIWAV">     1</i>
   </separator>
   <separator name="electronic spin" >
    <i type="int" name="ISPIN">     1</i>
    <i type="logical" name="LNONCOLLINEAR"> F  </i>
    <v name="MAGMOM">      1.00000000      1.00000000      1.00000000      1.00000000      1.00000000      1.00000000      1.00000000      1.00000000      1.00000000      1.00000000      1.00000000      1.00000000      1.00000000      1.00000000      1.00000000      1.00000000      1.00000000      1.00000000      1.00000000      1.00000000
      1.00000000      1.00000000      1.00000000      1.00000000      1.00000000      1.00000000      1.00000000      1.00000000      1.00000000      1.00000000      1.00000000      1.00000000      1.00000000      1.00000000      1.00000000      1.00000000      1.00000000      1.00000000      1.00000000      1.00000000
      1.00000000      1.00000000      1.00000000      1.00000000      1.00000000      1.00000000      1.00000000      1.00000000      1.00000000      1.00000000      1.00000000      1.00000000      1.00000000      1.00000000      1.00000000      1.00000000</v>
    <i name="NUPDOWN">     -1.00000000</i>
    <i type="logical" name="LSORBIT"> F  </i>
    <v name="SAXIS">      0.00000000      0.00000000      1.00000000</v>
    <i type="logical" name="LSPIRAL"> F  </i>
    <v name="QSPIRAL">      0.00000000      0.00000000      0.00000000</v>
    <i type="logical" name="LZEROZ"> F  </i>
   </separator>
   <separator name="electronic exchange-correlation" >
    <i type="logical" name="LASPH"> F  </i>
    <i type="logical" name="LMETAGGA"> F  </i>
   </separator>
   <separator name="electronic convergence" >
    <i type="int" name="NELM">   500</i>
    <i type="int" name="NELMDL">    -5</i>
    <i type="int" name="NELMIN">     2</i>
    <i name="ENINI">    400.00000000</i>
    <separator name="electronic convergence detail" >
     <i type="logical" name="LDIAG"> T  </i>
     <i type="logical" name="LSUBROT"> F  </i>
     <i name="WEIMIN">      0.00100000</i>
     <i name="EBREAK">      0.00000000</i>
     <i name="DEPER">      0.30000000</i>
     <i type="int" name="NRMM">     4</i>
     <i name="TIME">      0.40000000</i>
    </separator>
   </separator>
   <separator name="electronic mixer" >
    <i name="AMIX">      0.40000000</i>
    <i name="BMIX">      1.00000000</i>
    <i name="AMIN">      0.10000000</i>
    <i name="AMIX_MAG">      1.60000000</i>
    <i name="BMIX_MAG">      1.00000000</i>
    <separator name="electronic mixer details" >
     <i type="int" name="IMIX">     4</i>
     <i type="logical" name="MIXFIRST"> F  </i>
     <i type="int" name="MAXMIX">   -45</i>
     <i name="WC">    100.00000000</i>
     <i type="int" name="INIMIX">     1</i>
     <i type="int" name="MIXPRE">     1</i>
     <i type="int" name="MREMOVE">     5</i>
    </separator>
   </separator>
   <separator name="electronic dipolcorrection" >
    <i type="logical" name="LDIPOL"> T  </i>
    <i type="logical" name="LMONO"> F  </i>
    <i type="int" name="IDIPOL">     3</i>
    <i name="EPSILON">      1.00000000</i>
    <v name="DIPOL">      0.00000000      0.00000000      0.50000000</v>
    <i name="EFIELD">      0.00000000</i>
   </separator>
  </separator>
  <separator name="grids" >
   <i type="int" name="NGX">    54</i>
   <i type="int" name="NGY">    54</i>
   <i type="int" name="NGZ">   128</i>
   <i type="int" name="NGXF">   108</i>
   <i type="int" name="NGYF">   108</i>
   <i type="int" name="NGZF">   256</i>
   <i type="logical" name="ADDGRID"> F  </i>
  </separator>
  <separator name="ionic" >
   <i type="int" name="NSW">   500</i>
   <i type="int" name="IBRION">     2</i>
   <i type="int" name="ISIF">     0</i>
   <i name="PSTRESS">      0.00000000</i>
   <i name="EDIFFG">     -0.02000000</i>
   <i type="int" name="NFREE">     2</i>
   <i name="POTIM">      0.35000000</i>
   <i name="SMASS">     -3.00000000</i>
   <i name="SCALEE">      1.00000000</i>
  </separator>
  <separator name="ionic md" >
   <i name="TEBEG">      0.00010000</i>
   <i name="TEEND">      0.00010000</i>
   <i type="int" name="NBLOCK">     1</i>
   <i type="int" name="KBLOCK">   500</i>
   <i type="int" name="NPACO">   256</i>
   <i name="APACO">     16.00000000</i>
  </separator>
  <separator name="symmetry" >
   <i type="int" name="ISYM">     2</i>
   <i name="SYMPREC">      0.00001000</i>
  </separator>
  <separator name="dos" >
   <i type="logical" name="LORBIT"> F  </i>
   <v name="RWIGS">     -1.00000000     -1.00000000     -1.00000000</v>
   <i type="int" name="NEDOS">   301</i>
   <i name="EMIN">     10.00000000</i>
   <i name="EMAX">    -10.00000000</i>
   <i name="EFERMI">      0.00000000</i>
  </separator>
  <separator name="writing" >
   <i type="int" name="NWRITE">     1</i>
   <i type="logical" name="LWAVE"> F  </i>
   <i type="logical" name="LCHARG"> F  </i>
   <i type="logical" name="LPARD"> F  </i>
   <i type="logical" name="LVTOT"> F  </i>
   <i type="logical" name="LVHAR"> F  </i>
   <i type="logical" name="LELF"> F  </i>
   <i type="logical" name="LOPTICS"> F  </i>
   <v name="STM">      0.00000000      0.00000000      0.00000000      0.00000000      0.00000000      0.00000000      0.00000000</v>
  </separator>
  <separator name="performance" >
   <i type="int" name="NPAR">     6</i>
   <i type="int" name="NSIM">     4</i>
   <i type="int" name="NBLK">    -1</i>
   <i type="logical" name="LPLANE"> T  </i>
   <i type="logical" name="LSCALAPACK"> T  </i>
   <i type="logical" name="LSCAAWARE"> F  </i>
   <i type="logical" name="LSCALU"> F  </i>
   <i type="logical" name="LASYNC"> F  </i>
   <i type="logical" name="LORBITALREAL"> F  </i>
  </separator>
  <separator name="miscellaneous" >
   <i type="int" name="IDIOT">     3</i>
   <i type="logical" name="LMUSIC"> F  </i>
   <v name="POMASS">    196.96600000     16.00000000    106.42000000</v>
   <v name="DARWINR">      0.00000000      0.00000000      0.00000000</v>
   <v name="DARWINV">      1.00000000      1.00000000      1.00000000</v>
   <i type="logical" name="LCORR"> T  </i>
  </separator>
  <i type="logical" name="GGA_COMPAT"> T  </i>
  <i type="logical" name="LBERRY"> F  </i>
  <i type="int" name="ICORELEVEL">     0</i>
  <i type="logical" name="LDAU"> F  </i>
  <i type="int" name="I_CONSTRAINED_M">     0</i>
  <separator name="electronic exchange-correlation" >
   <i type="string" name="GGA">PE</i>
   <i type="int" name="VOSKOWN">     1</i>
   <i type="logical" name="LHFCALC"> F  </i>
   <i type="string" name="PRECFOCK"></i>
   <i type="logical" name="LSYMGRAD"> F  </i>
   <i type="logical" name="LHFONE"> F  </i>
   <i type="logical" name="LRHFCALC"> F  </i>
   <i type="logical" name="LTHOMAS"> F  </i>
   <i type="logical" name="LMODELHF"> F  </i>
   <i name="ENCUT4O">     -1.00000000</i>
   <i type="int" name="EXXOEP">     0</i>
   <i type="int" name="FOURORBIT">     0</i>
   <i name="AEXX">      0.00000000</i>
   <i name="HFALPHA">      0.00000000</i>
   <i name="MCALPHA">      0.00000000</i>
   <i name="ALDAX">      1.00000000</i>
   <i name="AGGAX">      1.00000000</i>
   <i name="ALDAC">      1.00000000</i>
   <i name="AGGAC">      1.00000000</i>
   <i type="int" name="NKREDX">     1</i>
   <i type="int" name="NKREDY">     1</i>
   <i type="int" name="NKREDZ">     1</i>
   <i type="logical" name="SHIFTRED"> F  </i>
   <i type="logical" name="ODDONLY"> F  </i>
   <i type="logical" name="EVENONLY"> F  </i>
   <i type="int" name="LMAXFOCK">     0</i>
   <i type="int" name="NMAXFOCKAE">     0</i>
   <i type="logical" name="LFOCKAEDFT"> F  </i>
   <i name="HFSCREEN">      0.00000000</i>
   <i name="HFSCREENC">      0.00000000</i>
   <i type="int" name="NBANDSGWLOW">     0</i>
  </separator>
  <separator name="vdW DFT" >
   <i type="logical" name="LUSE_VDW"> F  </i>
   <i name="Zab_VDW">     -0.84910000</i>
   <i name="PARAM1">      0.12340000</i>
   <i name="PARAM2">      1.00000000</i>
   <i name="PARAM3">      0.00000000</i>
  </separator>
  <separator name="model GW" >
   <i type="int" name="MODEL_GW">     0</i>
   <i name="MODEL_EPS0">     29.42037089</i>
   <i name="MODEL_ALPHA">      1.00000000</i>
  </separator>
  <separator name="linear response parameters" >
   <i type="logical" name="LEPSILON"> F  </i>
   <i type="logical" name="LRPA"> F  </i>
   <i type="logical" name="LNABLA"> F  </i>
   <i type="logical" name="LVEL"> F  </i>
   <i type="int" name="KINTER">     0</i>
   <i name="CSHIFT">      0.10000000</i>
   <i name="OMEGAMAX">     -1.00000000</i>
   <i name="DEG_THRESHOLD">      0.00200000</i>
  </separator>
  <separator name="orbital magnetization" >
   <i type="logical" name="NUCIND"> F  </i>
   <v name="MAGPOS">      0.00000000      0.00000000      0.00000000</v>
   <i type="logical" name="LNICSALL"> T  </i>
   <i type="logical" name="ORBITALMAG"> F  </i>
   <i type="logical" name="LMAGBLOCH"> F  </i>
   <i type="logical" name="LCHIMAG"> F  </i>
   <i type="logical" name="LGAUGE"> T  </i>
   <i type="int" name="MAGATOM">     0</i>
   <v name="MAGDIPOL">      0.00000000      0.00000000      0.00000000</v>
   <v name="AVECCONST">      0.00000000      0.00000000      0.00000000</v>
  </separator>
  <separator name="response functions" >
   <i type="logical" name="LADDER"> F  </i>
   <i type="logical" name="LFXC"> F  </i>
   <i type="logical" name="LHARTREE"> T  </i>
   <i type="int" name="IBSE">     0</i>
   <v type="int" name="KPOINT">    -1     0     0     0</v>
   <i type="logical" name="LTCTE"> F  </i>
   <i type="logical" name="LTETE"> F  </i>
   <i type="logical" name="LTRIPLET"> F  </i>
   <i type="logical" name="LFXCEPS"> F  </i>
   <i type="logical" name="LFXHEG"> F  </i>
   <i type="int" name="NATURALO">     0</i>
   <i type="logical" name="L2ORDER"> F  </i>
   <i type="logical" name="LUSEW"> F  </i>
   <i name="ENCUTGW">     -2.00000000</i>
   <i name="ENCUTGWSOFT">     -2.00000000</i>
   <i name="ENCUTLF">     -1.00000000</i>
   <i type="int" name="LMAXMP2">    -1</i>
   <i name="SCISSOR">      0.00000000</i>
   <i type="int" name="NOMEGA">     0</i>
   <i type="int" name="NOMEGAR">     0</i>
   <i type="int" name="NBANDSGW">    -1</i>
   <i type="int" name="NBANDSO">    -1</i>
   <i type="int" name="NBANDSV">    -1</i>
   <i type="int" name="NELM">   500</i>
   <i type="int" name="NELMHF">     1</i>
   <i type="int" name="DIM">     3</i>
   <i type="int" name="ANTIRES">     0</i>
   <i name="OMEGAMAX">    -30.00000000</i>
   <i name="OMEGAMIN">    -30.00000000</i>
   <i name="OMEGATL">   -200.00000000</i>
   <i type="int" name="OMEGAGRID">     0</i>
   <i name="CSHIFT">     -0.10000000</i>
   <i type="logical" name="SELFENERGY"> F  </i>
   <i type="logical" name="LSPECTRAL"> F  </i>
   <i type="logical" name="LSPECTRALGW"> F  </i>
   <i type="logical" name="LSINGLES"> F  </i>
   <i type="logical" name="LFERMIGW"> F  </i>
   <i type="logical" name="ODDONLYGW"> F  </i>
   <i type="logical" name="EVENONLYGW"> F  </i>
   <i type="int" name="NKREDLFX">     1</i>
   <i type="int" name="NKREDLFY">     1</i>
   <i type="int" name="NKREDLFZ">     1</i>
   <i type="int" name="MAXMEM">  1800</i>
   <i type="int" name="TELESCOPE">     0</i>
   <i type="int" name="TAUPAR">     1</i>
   <i type="int" name="OMEGAPAR">    -1</i>
   <i name="LAMBDA">      1.00000000</i>
  </separator>
  <separator name="External order field" >
   <i name="OFIELD_KAPPA">      0.00000000</i>
   <v name="OFIELD_K">      0.00000000      0.00000000      0.00000000</v>
   <i name="OFIELD_Q6_NEAR">      0.00000000</i>
   <i name="OFIELD_Q6_FAR">      0.00000000</i>
   <i name="OFIELD_A">      0.00000000</i>
  </separator>
 </parameters>
 <atominfo>
  <atoms>      56 </atoms>
  <types>       3 </types>
  <array name="atoms" >
   <dimension dim="1">ion</dimension>
   <field type="string">element</field>
   <field type="int">atomtype</field>
   <set>
    <rc><c>Au</c><c>   1</c></rc>
    <rc><c>Au</c><c>   1</c></rc>
    <rc><c>Au</c><c>   1</c></rc>
    <rc><c>Au</c><c>   1</c></rc>
    <rc><c>Au</c><c>   1</c></rc>
    <rc><c>Au</c><c>   1</c></rc>
    <rc><c>Au</c><c>   1</c></rc>
    <rc><c>Au</c><c>   1</c></rc>
    <rc><c>Au</c><c>   1</c></rc>
    <rc><c>Au</c><c>   1</c></rc>
    <rc><c>Au</c><c>   1</c></rc>
    <rc><c>Au</c><c>   1</c></rc>
    <rc><c>Au</c><c>   1</c></rc>
    <rc><c>Au</c><c>   1</c></rc>
    <rc><c>Au</c><c>   1</c></rc>
    <rc><c>Au</c><c>   1</c></rc>
    <rc><c>Au</c><c>   1</c></rc>
    <rc><c>Au</c><c>   1</c></rc>
    <rc><c>Au</c><c>   1</c></rc>
    <rc><c>Au</c><c>   1</c></rc>
    <rc><c>Au</c><c>   1</c></rc>
    <rc><c>Au</c><c>   1</c></rc>
    <rc><c>Au</c><c>   1</c></rc>
    <rc><c>Au</c><c>   1</c></rc>
    <rc><c>O </c><c>   2</c></rc>
    <rc><c>O </c><c>   2</c></rc>
    <rc><c>O </c><c>   2</c></rc>
    <rc><c>O </c><c>   2</c></rc>
    <rc><c>O </c><c>   2</c></rc>
    <rc><c>O </c><c>   2</c></rc>
    <rc><c>O </c><c>   2</c></rc>
    <rc><c>O </c><c>   2</c></rc>
    <rc><c>Pd</c><c>   3</c></rc>
    <rc><c>Pd</c><c>   3</c></rc>
    <rc><c>Pd</c><c>   3</c></rc>
    <rc><c>Pd</c><c>   3</c></rc>
    <rc><c>Pd</c><c>   3</c></rc>
    <rc><c>Pd</c><c>   3</c></rc>
    <rc><c>Pd</c><c>   3</c></rc>
    <rc><c>Pd</c><c>   3</c></rc>
    <rc><c>Pd</c><c>   3</c></rc>
    <rc><c>Pd</c><c>   3</c></rc>
    <rc><c>Pd</c><c>   3</c></rc>
    <rc><c>Pd</c><c>   3</c></rc>
    <rc><c>Pd</c><c>   3</c></rc>
    <rc><c>Pd</c><c>   3</c></rc>
    <rc><c>Pd</c><c>   3</c></rc>
    <rc><c>Pd</c><c>   3</c></rc>
    <rc><c>Pd</c><c>   3</c></rc>
    <rc><c>Pd</c><c>   3</c></rc>
    <rc><c>Pd</c><c>   3</c></rc>
    <rc><c>Pd</c><c>   3</c></rc>
    <rc><c>Pd</c><c>   3</c></rc>
    <rc><c>Pd</c><c>   3</c></rc>
    <rc><c>Pd</c><c>   3</c></rc>
    <rc><c>Pd</c><c>   3</c></rc>
   </set>
  </array>
  <array name="atomtypes" >
   <dimension dim="1">type</dimension>
   <field type="int">atomspertype</field>
   <field type="string">element</field>
   <field>mass</field>
   <field>valence</field>
   <field type="string">pseudopotential</field>
   <set>
    <rc><c>  24</c><c>Au</c><c>    196.96600000</c><c>     11.00000000</c><c>  PAW_PBE Au 04Oct2007                  </c></rc>
    <rc><c>   8</c><c>O </c><c>     16.00000000</c><c>      6.00000000</c><c>  PAW_PBE O 08Apr2002                   </c></rc>
    <rc><c>  24</c><c>Pd</c><c>    106.42000000</c><c>     10.00000000</c><c>  PAW_PBE Pd 04Jan2005                  </c></rc>
   </set>
  </array>
 </atominfo>
 <structure name="initialpos" >
  <crystal>
   <varray name="basis" >
    <v>      11.00258152       0.00000000       0.00000000 </v>
    <v>       5.50129076       9.52851510       0.00000000 </v>
    <v>       0.00000000       0.00000000      26.19178509 </v>
   </varray>
   <i name="volume">   2745.90128299 </i>
   <varray name="rec_basis" >
    <v>       0.09088776      -0.05247407       0.00000000 </v>
    <v>       0.00000000       0.10494815       0.00000000 </v>
    <v>       0.00000000       0.00000000       0.03817991 </v>
   </varray>
  </crystal>
  <varray name="positions" >
   <v>       0.08333333       0.08333333       0.38179910 </v>
   <v>       0.16666667       0.66666667       0.46754708 </v>
   <v>       0.33333333       0.58333333       0.38179910 </v>
   <v>       0.83333333       0.83333333       0.38179910 </v>
   <v>       0.83333333       0.58333333       0.38179910 </v>
   <v>       0.08333333       0.33333333       0.38179910 </v>
   <v>       0.91666667       0.41666667       0.46754708 </v>
   <v>       0.66666667       0.41666667       0.46754708 </v>
   <v>       0.83333333       0.33333333       0.38179910 </v>
   <v>       0.08333333       0.58333333       0.38179910 </v>
   <v>       0.66666667       0.16666667       0.46754708 </v>
   <v>       0.08333333       0.83333333       0.38179910 </v>
   <v>       0.83333333       0.08333333       0.38179910 </v>
   <v>       0.41666667       0.91666667       0.46754708 </v>
   <v>       0.58333333       0.83333333       0.38179910 </v>
   <v>       0.33333333       0.08333333       0.38179910 </v>
   <v>       0.58333333       0.58333333       0.38179910 </v>
   <v>       0.41666667       0.41666667       0.46754708 </v>
   <v>       0.58333333       0.33333333       0.38179910 </v>
   <v>       0.33333333       0.33333333       0.38179910 </v>
   <v>       0.16666667       0.41666667       0.46754708 </v>
   <v>       0.58333333       0.08333333       0.38179910 </v>
   <v>       0.33333333       0.83333333       0.38179910 </v>
   <v>       0.91666667       0.91666667       0.46754708 </v>
   <v>       0.08333333       0.58333333       0.61820090 </v>
   <v>       0.08333333       0.83333333       0.61820090 </v>
   <v>       0.33333333       0.08333333       0.61820090 </v>
   <v>       0.08333333       0.33333333       0.61820090 </v>
   <v>       0.08333333       0.08333333       0.61820090 </v>
   <v>       0.83333333       0.83333333       0.61820090 </v>
   <v>       0.83333333       0.58333333       0.61820090 </v>
   <v>       0.58333333       0.83333333       0.61820090 </v>
   <v>       0.66666667       0.91666667       0.46754708 </v>
   <v>       0.16666667       0.91666667       0.46754708 </v>
   <v>       0.25000000       0.75000000       0.55329505 </v>
   <v>       0.75000000       0.75000000       0.55329505 </v>
   <v>       0.25000000       0.25000000       0.55329505 </v>
   <v>       0.41666667       0.16666667       0.46754708 </v>
   <v>       0.50000000       0.00000000       0.55329505 </v>
   <v>       0.91666667       0.16666667       0.46754708 </v>
   <v>       0.25000000       0.00000000       0.55329505 </v>
   <v>       0.50000000       0.25000000       0.55329505 </v>
   <v>       0.00000000       0.00000000       0.55329505 </v>
   <v>       0.16666667       0.16666667       0.46754708 </v>
   <v>       0.00000000       0.75000000       0.55329505 </v>
   <v>       0.50000000       0.50000000       0.55329505 </v>
   <v>       0.75000000       0.50000000       0.55329505 </v>
   <v>       0.25000000       0.50000000       0.55329505 </v>
   <v>       0.50000000       0.75000000       0.55329505 </v>
   <v>       0.00000000       0.50000000       0.55329505 </v>
   <v>       0.91666667       0.66666667       0.46754708 </v>
   <v>       0.75000000       0.00000000       0.55329505 </v>
   <v>       0.66666667       0.66666667       0.46754708 </v>
   <v>       0.00000000       0.25000000       0.55329505 </v>
   <v>       0.75000000       0.25000000       0.55329505 </v>
   <v>       0.41666667       0.66666667       0.46754708 </v>
  </varray>
  <varray name="selective"  type="logical" >
   <v type="logical" >  F  F  F </v>
   <v type="logical" >  T  T  T </v>
   <v type="logical" >  F  F  F </v>
   <v type="logical" >  F  F  F </v>
   <v type="logical" >  F  F  F </v>
   <v type="logical" >  F  F  F </v>
   <v type="logical" >  T  T  T </v>
   <v type="logical" >  T  T  T </v>
   <v type="logical" >  F  F  F </v>
   <v type="logical" >  F  F  F </v>
   <v type="logical" >  T  T  T </v>
   <v type="logical" >  F  F  F </v>
   <v type="logical" >  F  F  F </v>
   <v type="logical" >  T  T  T </v>
   <v type="logical" >  F  F  F </v>
   <v type="logical" >  F  F  F </v>
   <v type="logical" >  F  F  F </v>
   <v type="logical" >  T  T  T </v>
   <v type="logical" >  F  F  F </v>
   <v type="logical" >  F  F  F </v>
   <v type="logical" >  T  T  T </v>
   <v type="logical" >  F  F  F </v>
   <v type="logical" >  F  F  F </v>
   <v type="logical" >  T  T  T </v>
   <v type="logical" >  T  T  T </v>
   <v type="logical" >  T  T  T </v>
   <v type="logical" >  T  T  T </v>
   <v type="logical" >  T  T  T </v>
   <v type="logical" >  T  T  T </v>
   <v type="logical" >  T  T  T </v>
   <v type="logical" >  T  T  T </v>
   <v type="logical" >  T  T  T </v>
   <v type="logical" >  T  T  T </v>
   <v type="logical" >  T  T  T </v>
   <v type="logical" >  T  T  T </v>
   <v type="logical" >  T  T  T </v>
   <v type="logical" >  T  T  T </v>
   <v type="logical" >  T  T  T </v>
   <v type="logical" >  T  T  T </v>
   <v type="logical" >  T  T  T </v>
   <v type="logical" >  T  T  T </v>
   <v type="logical" >  T  T  T </v>
   <v type="logical" >  T  T  T </v>
   <v type="logical" >  T  T  T </v>
   <v type="logical" >  T  T  T </v>
   <v type="logical" >  T  T  T </v>
   <v type="logical" >  T  T  T </v>
   <v type="logical" >  T  T  T </v>
   <v type="logical" >  T  T  T </v>
   <v type="logical" >  T  T  T </v>
   <v type="logical" >  T  T  T </v>
   <v type="logical" >  T  T  T </v>
   <v type="logical" >  T  T  T </v>
   <v type="logical" >  T  T  T </v>
   <v type="logical" >  T  T  T </v>
   <v type="logical" >  T  T  T </v>
  </varray>
  <nose>
   <v>      -3.00000000       0.00000000       0.00010000       0.00010000 </v>
  </nose>
 </structure>
 <calculation>
  <scstep>
   <time name="dav">    8.57    8.59</time>
   <time name="total">    8.63    8.66</time>
   <dipole>
    <v name="dipole">      0.00000000       0.00000000       0.00007541 </v>
    <i name="Tr[quadrupol]"> -10938.01805476 </i>
    <i name="Echarged">      0.00000000 </i>
    <i name="Edipol_quadrupol">      0.00000000 </i>
    <i name="Eion">      0.00000000 </i>
   </dipole>
   <energy>
    <i name="alphaZ">    862.57805030 </i>
    <i name="ewald"> 254726.92103664 </i>
    <i name="hartreedc">-300298.51569612 </i>
    <i name="XCdc">   -109.93029440 </i>
    <i name="pawpsdc">  43112.45544455 </i>
    <i name="pawaedc"> -41079.41300390 </i>
    <i name="eentropy">     -0.14530697 </i>
    <i name="bandstr">   1326.60586049 </i>
    <i name="atom">  45117.89144060 </i>
    <i name="e_fr_energy">   3658.44753119 </i>
    <i name="e_wo_entrp">   3658.59283816 </i>
    <i name="e_0_energy">   3658.52018467 </i>
   </energy>
  </scstep>
  <scstep>
   <time name="dav">   10.12   10.22</time>
   <time name="total">   10.12   10.74</time>
   <dipole>
    <v name="dipole">      0.00000000       0.00000000       0.00007541 </v>
    <i name="Tr[quadrupol]"> -10938.01805476 </i>
    <i name="Echarged">      0.00000000 </i>
    <i name="Edipol_quadrupol">      0.00000000 </i>
    <i name="Eion">      0.00000000 </i>
   </dipole>
   <energy>
    <i name="e_fr_energy">     50.19059485 </i>
    <i name="e_wo_entrp">     50.35418978 </i>
    <i name="e_0_energy">     50.27239232 </i>
   </energy>
  </scstep>
  <scstep>
   <time name="dav">    9.76    9.79</time>
   <time name="total">    9.77    9.80</time>
   <dipole>
    <v name="dipole">      0.00000000       0.00000000       0.00007541 </v>
    <i name="Tr[quadrupol]"> -10938.01805476 </i>
    <i name="Echarged">      0.00000000 </i>
    <i name="Edipol_quadrupol">      0.00000000 </i>
    <i name="Eion">      0.00000000 </i>
   </dipole>
   <energy>
    <i name="e_fr_energy">   -257.01000882 </i>
    <i name="e_wo_entrp">   -256.54525905 </i>
    <i name="e_0_energy">   -256.77763393 </i>
   </energy>
  </scstep>
  <scstep>
   <time name="dav">    9.51    9.57</time>
   <time name="total">    9.52    9.58</time>
   <dipole>
    <v name="dipole">      0.00000000       0.00000000       0.00007541 </v>
    <i name="Tr[quadrupol]"> -10938.01805476 </i>
    <i name="Echarged">      0.00000000 </i>
    <i name="Edipol_quadrupol">      0.00000000 </i>
    <i name="Eion">      0.00000000 </i>
   </dipole>
   <energy>
    <i name="e_fr_energy">   -268.17579730 </i>
    <i name="e_wo_entrp">   -267.69368246 </i>
    <i name="e_0_energy">   -267.93473988 </i>
   </energy>
  </scstep>
  <scstep>
   <time name="dav">   10.05   10.09</time>
   <time name="total">   10.32   10.36</time>
   <dipole>
    <v name="dipole">      0.00000000       0.00000000       0.00007541 </v>
    <i name="Tr[quadrupol]"> -10938.01805476 </i>
    <i name="Echarged">      0.00000000 </i>
    <i name="Edipol_quadrupol">      0.00000000 </i>
    <i name="Eion">      0.00000000 </i>
   </dipole>
   <energy>
    <i name="e_fr_energy">   -268.52090255 </i>
    <i name="e_wo_entrp">   -268.03900473 </i>
    <i name="e_0_energy">   -268.27995364 </i>
   </energy>
  </scstep>
  <scstep>
   <time name="diag">    1.53    1.61</time>
   <time name="diis">    4.55    4.56</time>
   <time name="orth">    0.43    0.43</time>
   <time name="total">    6.82    6.92</time>
   <dipole>
    <v name="dipole">      0.00000000       0.00000000       9.71081941 </v>
    <i name="Tr[quadrupol]"> -10940.85485654 </i>
    <i name="Echarged">      0.00000000 </i>
    <i name="Edipol_quadrupol">      0.00000000 </i>
    <i name="Eion">      0.00000000 </i>
   </dipole>
   <energy>
    <i name="e_fr_energy">   -715.17915783 </i>
    <i name="e_wo_entrp">   -714.87391498 </i>
    <i name="e_0_energy">   -715.02653641 </i>
   </energy>
  </scstep>
  <scstep>
   <time name="diag">    1.55    1.55</time>
   <time name="diis">    4.08    4.09</time>
   <time name="orth">    0.43    0.43</time>
   <time name="total">    6.37    6.39</time>
   <dipole>
    <v name="dipole">      0.00000000       0.00000000       3.19875441 </v>
    <i name="Tr[quadrupol]"> -10931.73981773 </i>
    <i name="Echarged">      0.00000000 </i>
    <i name="Edipol_quadrupol">      0.00000000 </i>
    <i name="Eion">      0.00000000 </i>
   </dipole>
   <energy>
    <i name="e_fr_energy">   -273.55061483 </i>
    <i name="e_wo_entrp">   -273.34251277 </i>
    <i name="e_0_energy">   -273.44656380 </i>
   </energy>
  </scstep>
  <scstep>
   <time name="diag">    1.55    1.55</time>
   <time name="diis">    4.01    4.02</time>
   <time name="orth">    0.43    0.43</time>
   <time name="total">    6.29    6.31</time>
   <dipole>
    <v name="dipole">      0.00000000       0.00000000       3.17926769 </v>
    <i name="Tr[quadrupol]"> -10952.61457752 </i>
    <i name="Echarged">      0.00000000 </i>
    <i name="Edipol_quadrupol">      0.00000000 </i>
    <i name="Eion">      0.00000000 </i>
   </dipole>
   <energy>
    <i name="e_fr_energy">   -307.40806378 </i>
    <i name="e_wo_entrp">   -307.28968265 </i>
    <i name="e_0_energy">   -307.34887322 </i>
   </energy>
  </scstep>
  <scstep>
   <time name="diag">    1.55    1.56</time>
   <time name="diis">    4.03    4.04</time>
   <time name="orth">    0.43    0.44</time>
   <time name="total">    6.32    6.35</time>
   <dipole>
    <v name="dipole">      0.00000000       0.00000000       2.96876836 </v>
    <i name="Tr[quadrupol]"> -10956.43665303 </i>
    <i name="Echarged">      0.00000000 </i>
    <i name="Edipol_quadrupol">      0.00000000 </i>
    <i name="Eion">      0.00000000 </i>
   </dipole>
   <energy>
    <i name="e_fr_energy">   -244.20411567 </i>
    <i name="e_wo_entrp">   -244.02505098 </i>
    <i name="e_0_energy">   -244.11458332 </i>
   </energy>
  </scstep>
  <scstep>
   <time name="diag">    1.55    1.56</time>
   <time name="diis">    4.01    4.02</time>
   <time name="orth">    0.43    0.43</time>
   <time name="total">    6.30    6.32</time>
   <dipole>
    <v name="dipole">      0.00000000       0.00000000       3.02931025 </v>
    <i name="Tr[quadrupol]"> -10959.89717529 </i>
    <i name="Echarged">      0.00000000 </i>
    <i name="Edipol_quadrupol">      0.00000000 </i>
    <i name="Eion">      0.00000000 </i>
   </dipole>
   <energy>
    <i name="e_fr_energy">   -233.34204512 </i>
    <i name="e_wo_entrp">   -233.11490595 </i>
    <i name="e_0_energy">   -233.22847553 </i>
   </energy>
  </scstep>
  <scstep>
   <time name="diag">    1.56    1.56</time>
   <time name="diis">    4.06    4.07</time>
   <time name="orth">    0.42    0.43</time>
   <time name="total">    6.34    6.37</time>
   <dipole>
    <v name="dipole">      0.00000000       0.00000000       2.92095248 </v>
    <i name="Tr[quadrupol]"> -10960.34748738 </i>
    <i name="Echarged">      0.00000000 </i>
    <i name="Edipol_quadrupol">      0.00000000 </i>
    <i name="Eion">      0.00000000 </i>
   </dipole>
   <energy>
    <i name="e_fr_energy">   -230.41377098 </i>
    <i name="e_wo_entrp">   -230.13419197 </i>
    <i name="e_0_energy">   -230.27398147 </i>
   </energy>
  </scstep>
  <scstep>
   <time name="diag">    1.55    1.55</time>
   <time name="diis">    3.92    4.02</time>
   <time name="orth">    0.42    0.42</time>
   <time name="total">    6.20    6.31</time>
   <dipole>
    <v name="dipole">      0.00000000       0.00000000       2.69866436 </v>
    <i name="Tr[quadrupol]"> -10958.81291323 </i>
    <i name="Echarged">      0.00000000 </i>
    <i name="Edipol_quadrupol">      0.00000000 </i>
    <i name="Eion">      0.00000000 </i>
   </dipole>
   <energy>
    <i name="e_fr_energy">   -227.62084817 </i>
    <i name="e_wo_entrp">   -227.32915791 </i>
    <i name="e_0_energy">   -227.47500304 </i>
   </energy>
  </scstep>
  <scstep>
   <time name="diag">    1.55    1.55</time>
   <time name="diis">    4.02    4.04</time>
   <time name="orth">    0.42    0.42</time>
   <time name="total">    6.30    6.33</time>
   <dipole>
    <v name="dipole">      0.00000000       0.00000000       2.63668591 </v>
    <i name="Tr[quadrupol]"> -10957.07850969 </i>
    <i name="Echarged">      0.00000000 </i>
    <i name="Edipol_quadrupol">      0.00000000 </i>
    <i name="Eion">      0.00000000 </i>
   </dipole>
   <energy>
    <i name="e_fr_energy">   -224.41653884 </i>
    <i name="e_wo_entrp">   -224.13979233 </i>
    <i name="e_0_energy">   -224.27816559 </i>
   </energy>
  </scstep>
  <scstep>
   <time name="diag">    1.54    1.55</time>
   <time name="diis">    4.05    4.08</time>
   <time name="orth">    0.42    0.43</time>
   <time name="total">    6.33    6.36</time>
   <dipole>
    <v name="dipole">      0.00000000       0.00000000       2.71105413 </v>
    <i name="Tr[quadrupol]"> -10955.84460843 </i>
    <i name="Echarged">      0.00000000 </i>
    <i name="Edipol_quadrupol">      0.00000000 </i>
    <i name="Eion">      0.00000000 </i>
   </dipole>
   <energy>
    <i name="e_fr_energy">   -222.84550308 </i>
    <i name="e_wo_entrp">   -222.56984702 </i>
    <i name="e_0_energy">   -222.70767505 </i>
   </energy>
  </scstep>
  <scstep>
   <time name="diag">    1.55    1.55</time>
   <time name="diis">    4.09    4.10</time>
   <time name="orth">    0.42    0.43</time>
   <time name="total">    6.37    6.39</time>
   <dipole>
    <v name="dipole">      0.00000000       0.00000000       2.70165423 </v>
    <i name="Tr[quadrupol]"> -10954.73888049 </i>
    <i name="Echarged">      0.00000000 </i>
    <i name="Edipol_quadrupol">      0.00000000 </i>
    <i name="Eion">      0.00000000 </i>
   </dipole>
   <energy>
    <i name="e_fr_energy">   -222.09524443 </i>
    <i name="e_wo_entrp">   -221.84587946 </i>
    <i name="e_0_energy">   -221.97056194 </i>
   </energy>
  </scstep>
  <scstep>
   <time name="diag">    1.54    1.55</time>
   <time name="diis">    4.10    4.11</time>
   <time name="orth">    0.42    0.43</time>
   <time name="total">    6.37    6.40</time>
   <dipole>
    <v name="dipole">      0.00000000       0.00000000       2.64197010 </v>
    <i name="Tr[quadrupol]"> -10953.62284251 </i>
    <i name="Echarged">      0.00000000 </i>
    <i name="Edipol_quadrupol">      0.00000000 </i>
    <i name="Eion">      0.00000000 </i>
   </dipole>
   <energy>
    <i name="e_fr_energy">   -221.82983650 </i>
    <i name="e_wo_entrp">   -221.56139097 </i>
    <i name="e_0_energy">   -221.69561373 </i>
   </energy>
  </scstep>
  <scstep>
   <time name="diag">    1.55    1.55</time>
   <time name="diis">    4.11    4.12</time>
   <time name="orth">    0.42    0.42</time>
   <time name="total">    6.39    6.41</time>
   <dipole>
    <v name="dipole">      0.00000000       0.00000000       2.57831785 </v>
    <i name="Tr[quadrupol]"> -10952.63628536 </i>
    <i name="Echarged">      0.00000000 </i>
    <i name="Edipol_quadrupol">      0.00000000 </i>
    <i name="Eion">      0.00000000 </i>
   </dipole>
   <energy>
    <i name="e_fr_energy">   -221.73409458 </i>
    <i name="e_wo_entrp">   -221.45716195 </i>
    <i name="e_0_energy">   -221.59562826 </i>
   </energy>
  </scstep>
  <scstep>
   <time name="diag">    1.55    1.55</time>
   <time name="diis">    4.00    4.10</time>
   <time name="orth">    0.42    0.42</time>
   <time name="total">    6.28    6.38</time>
   <dipole>
    <v name="dipole">      0.00000000       0.00000000       2.47334710 </v>
    <i name="Tr[quadrupol]"> -10951.32184912 </i>
    <i name="Echarged">      0.00000000 </i>
    <i name="Edipol_quadrupol">      0.00000000 </i>
    <i name="Eion">      0.00000000 </i>
   </dipole>
   <energy>
    <i name="e_fr_energy">   -221.58403627 </i>
    <i name="e_wo_entrp">   -221.29214055 </i>
    <i name="e_0_energy">   -221.43808841 </i>
   </energy>
  </scstep>
  <scstep>
   <time name="diag">    1.55    1.55</time>
   <time name="diis">    4.05    4.08</time>
   <time name="orth">    0.42    0.42</time>
   <time name="total">    6.33    6.36</time>
   <dipole>
    <v name="dipole">      0.00000000       0.00000000       2.35980399 </v>
    <i name="Tr[quadrupol]"> -10949.74680134 </i>
    <i name="Echarged">      0.00000000 </i>
    <i name="Edipol_quadrupol">      0.00000000 </i>
    <i name="Eion">      0.00000000 </i>
   </dipole>
   <energy>
    <i name="e_fr_energy">   -221.53215236 </i>
    <i name="e_wo_entrp">   -221.25586990 </i>
    <i name="e_0_energy">   -221.39401113 </i>
   </energy>
  </scstep>
  <scstep>
   <time name="diag">    1.54    1.55</time>
   <time name="diis">    4.10    4.11</time>
   <time name="orth">    0.42    0.43</time>
   <time name="total">    6.37    6.39</time>
   <dipole>
    <v name="dipole">      0.00000000       0.00000000       2.28468816 </v>
    <i name="Tr[quadrupol]"> -10948.31701156 </i>
    <i name="Echarged">      0.00000000 </i>
    <i name="Edipol_quadrupol">      0.00000000 </i>
    <i name="Eion">      0.00000000 </i>
   </dipole>
   <energy>
    <i name="e_fr_energy">   -221.40331882 </i>
    <i name="e_wo_entrp">   -221.11774326 </i>
    <i name="e_0_energy">   -221.26053104 </i>
   </energy>
  </scstep>
  <scstep>
   <time name="diag">    1.55    1.55</time>
   <time name="diis">    4.08    4.09</time>
   <time name="orth">    0.43    0.43</time>
   <time name="total">    6.37    6.39</time>
   <dipole>
    <v name="dipole">      0.00000000       0.00000000       2.23612866 </v>
    <i name="Tr[quadrupol]"> -10947.55800174 </i>
    <i name="Echarged">      0.00000000 </i>
    <i name="Edipol_quadrupol">      0.00000000 </i>
    <i name="Eion">      0.00000000 </i>
   </dipole>
   <energy>
    <i name="e_fr_energy">   -221.35926360 </i>
    <i name="e_wo_entrp">   -221.07065455 </i>
    <i name="e_0_energy">   -221.21495907 </i>
   </energy>
  </scstep>
  <scstep>
   <time name="diag">    1.54    1.55</time>
   <time name="diis">    4.08    4.09</time>
   <time name="orth">    0.42    0.43</time>
   <time name="total">    6.36    6.38</time>
   <dipole>
    <v name="dipole">      0.00000000       0.00000000       2.17327389 </v>
    <i name="Tr[quadrupol]"> -10946.88506893 </i>
    <i name="Echarged">      0.00000000 </i>
    <i name="Edipol_quadrupol">      0.00000000 </i>
    <i name="Eion">      0.00000000 </i>
   </dipole>
   <energy>
    <i name="e_fr_energy">   -221.33992814 </i>
    <i name="e_wo_entrp">   -221.05312926 </i>
    <i name="e_0_energy">   -221.19652870 </i>
   </energy>
  </scstep>
  <scstep>
   <time name="diag">    1.56    1.57</time>
   <time name="diis">    4.12    4.13</time>
   <time name="orth">    0.43    0.43</time>
   <time name="total">    6.42    6.44</time>
   <dipole>
    <v name="dipole">      0.00000000       0.00000000       2.11817115 </v>
    <i name="Tr[quadrupol]"> -10946.20769128 </i>
    <i name="Echarged">      0.00000000 </i>
    <i name="Edipol_quadrupol">      0.00000000 </i>
    <i name="Eion">      0.00000000 </i>
   </dipole>
   <energy>
    <i name="e_fr_energy">   -221.32891448 </i>
    <i name="e_wo_entrp">   -221.04401004 </i>
    <i name="e_0_energy">   -221.18646226 </i>
   </energy>
  </scstep>
  <scstep>
   <time name="diag">    1.54    1.55</time>
   <time name="diis">    4.06    4.08</time>
   <time name="orth">    0.42    0.45</time>
   <time name="total">    6.33    6.42</time>
   <dipole>
    <v name="dipole">      0.00000000       0.00000000       2.05083673 </v>
    <i name="Tr[quadrupol]"> -10945.22845558 </i>
    <i name="Echarged">      0.00000000 </i>
    <i name="Edipol_quadrupol">      0.00000000 </i>
    <i name="Eion">      0.00000000 </i>
   </dipole>
   <energy>
    <i name="e_fr_energy">   -221.31088387 </i>
    <i name="e_wo_entrp">   -221.02319771 </i>
    <i name="e_0_energy">   -221.16704079 </i>
   </energy>
  </scstep>
  <scstep>
   <time name="diag">    1.54    1.55</time>
   <time name="diis">    4.12    4.13</time>
   <time name="orth">    0.42    0.42</time>
   <time name="total">    6.40    6.43</time>
   <dipole>
    <v name="dipole">      0.00000000       0.00000000       1.98408564 </v>
    <i name="Tr[quadrupol]"> -10944.23515079 </i>
    <i name="Echarged">      0.00000000 </i>
    <i name="Edipol_quadrupol">      0.00000000 </i>
    <i name="Eion">      0.00000000 </i>
   </dipole>
   <energy>
    <i name="e_fr_energy">   -221.29585008 </i>
    <i name="e_wo_entrp">   -221.00846077 </i>
    <i name="e_0_energy">   -221.15215543 </i>
   </energy>
  </scstep>
  <scstep>
   <time name="diag">    1.54    1.55</time>
   <time name="diis">    4.12    4.14</time>
   <time name="orth">    0.42    0.43</time>
   <time name="total">    6.40    6.42</time>
   <dipole>
    <v name="dipole">      0.00000000       0.00000000       1.91752965 </v>
    <i name="Tr[quadrupol]"> -10943.27743447 </i>
    <i name="Echarged">      0.00000000 </i>
    <i name="Edipol_quadrupol">      0.00000000 </i>
    <i name="Eion">      0.00000000 </i>
   </dipole>
   <energy>
    <i name="e_fr_energy">   -221.28407840 </i>
    <i name="e_wo_entrp">   -220.99807775 </i>
    <i name="e_0_energy">   -221.14107807 </i>
   </energy>
  </scstep>
  <scstep>
   <time name="diag">    1.54    1.55</time>
   <time name="diis">    4.12    4.13</time>
   <time name="orth">    0.42    0.42</time>
   <time name="total">    6.40    6.42</time>
   <dipole>
    <v name="dipole">      0.00000000       0.00000000       1.83116847 </v>
    <i name="Tr[quadrupol]"> -10942.01809511 </i>
    <i name="Echarged">      0.00000000 </i>
    <i name="Edipol_quadrupol">      0.00000000 </i>
    <i name="Eion">      0.00000000 </i>
   </dipole>
   <energy>
    <i name="e_fr_energy">   -221.27143487 </i>
    <i name="e_wo_entrp">   -220.98357836 </i>
    <i name="e_0_energy">   -221.12750662 </i>
   </energy>
  </scstep>
  <scstep>
   <time name="diag">    1.53    1.54</time>
   <time name="diis">    4.09    4.12</time>
   <time name="orth">    0.42    0.42</time>
   <time name="total">    6.36    6.39</time>
   <dipole>
    <v name="dipole">      0.00000000       0.00000000       1.71635956 </v>
    <i name="Tr[quadrupol]"> -10940.48027981 </i>
    <i name="Echarged">      0.00000000 </i>
    <i name="Edipol_quadrupol">      0.00000000 </i>
    <i name="Eion">      0.00000000 </i>
   </dipole>
   <energy>
    <i name="e_fr_energy">   -221.26076167 </i>
    <i name="e_wo_entrp">   -220.97487755 </i>
    <i name="e_0_energy">   -221.11781961 </i>
   </energy>
  </scstep>
  <scstep>
   <time name="diag">    1.54    1.55</time>
   <time name="diis">    4.12    4.13</time>
   <time name="orth">    0.42    0.42</time>
   <time name="total">    6.40    6.42</time>
   <dipole>
    <v name="dipole">      0.00000000       0.00000000       1.63590420 </v>
    <i name="Tr[quadrupol]"> -10939.37692925 </i>
    <i name="Echarged">      0.00000000 </i>
    <i name="Edipol_quadrupol">      0.00000000 </i>
    <i name="Eion">      0.00000000 </i>
   </dipole>
   <energy>
    <i name="e_fr_energy">   -221.25490659 </i>
    <i name="e_wo_entrp">   -220.96842350 </i>
    <i name="e_0_energy">   -221.11166505 </i>
   </energy>
  </scstep>
  <scstep>
   <time name="diag">    1.54    1.54</time>
   <time name="diis">    4.12    4.13</time>
   <time name="orth">    0.42    0.42</time>
   <time name="total">    6.39    6.41</time>
   <dipole>
    <v name="dipole">      0.00000000       0.00000000       1.56136035 </v>
    <i name="Tr[quadrupol]"> -10938.33786712 </i>
    <i name="Echarged">      0.00000000 </i>
    <i name="Edipol_quadrupol">      0.00000000 </i>
    <i name="Eion">      0.00000000 </i>
   </dipole>
   <energy>
    <i name="e_fr_energy">   -221.25048831 </i>
    <i name="e_wo_entrp">   -220.96377613 </i>
    <i name="e_0_energy">   -221.10713222 </i>
   </energy>
  </scstep>
  <scstep>
   <time name="diag">    1.52    1.60</time>
   <time name="diis">    4.11    4.12</time>
   <time name="orth">    0.42    0.42</time>
   <time name="total">    6.36    6.46</time>
   <dipole>
    <v name="dipole">      0.00000000       0.00000000       1.52204753 </v>
    <i name="Tr[quadrupol]"> -10937.82205482 </i>
    <i name="Echarged">      0.00000000 </i>
    <i name="Edipol_quadrupol">      0.00000000 </i>
    <i name="Eion">      0.00000000 </i>
   </dipole>
   <energy>
    <i name="e_fr_energy">   -221.24899918 </i>
    <i name="e_wo_entrp">   -220.96236621 </i>
    <i name="e_0_energy">   -221.10568269 </i>
   </energy>
  </scstep>
  <scstep>
   <time name="diag">    1.53    1.55</time>
   <time name="diis">    4.07    4.10</time>
   <time name="orth">    0.42    0.42</time>
   <time name="total">    6.33    6.39</time>
   <dipole>
    <v name="dipole">      0.00000000       0.00000000       1.48061778 </v>
    <i name="Tr[quadrupol]"> -10937.29221275 </i>
    <i name="Echarged">      0.00000000 </i>
    <i name="Edipol_quadrupol">      0.00000000 </i>
    <i name="Eion">      0.00000000 </i>
   </dipole>
   <energy>
    <i name="e_fr_energy">   -221.24773462 </i>
    <i name="e_wo_entrp">   -220.96093051 </i>
    <i name="e_0_energy">   -221.10433257 </i>
   </energy>
  </scstep>
  <scstep>
   <time name="diag">    1.54    1.55</time>
   <time name="diis">    4.12    4.14</time>
   <time name="orth">    0.42    0.42</time>
   <time name="total">    6.40    6.43</time>
   <dipole>
    <v name="dipole">      0.00000000       0.00000000       1.45407767 </v>
    <i name="Tr[quadrupol]"> -10936.96528547 </i>
    <i name="Echarged">      0.00000000 </i>
    <i name="Edipol_quadrupol">      0.00000000 </i>
    <i name="Eion">      0.00000000 </i>
   </dipole>
   <energy>
    <i name="e_fr_energy">   -221.24709437 </i>
    <i name="e_wo_entrp">   -220.96025797 </i>
    <i name="e_0_energy">   -221.10367617 </i>
   </energy>
  </scstep>
  <scstep>
   <time name="diag">    1.54    1.54</time>
   <time name="diis">    4.11    4.12</time>
   <time name="orth">    0.42    0.42</time>
   <time name="total">    6.38    6.40</time>
   <dipole>
    <v name="dipole">      0.00000000       0.00000000       1.42624031 </v>
    <i name="Tr[quadrupol]"> -10936.64063755 </i>
    <i name="Echarged">      0.00000000 </i>
    <i name="Edipol_quadrupol">      0.00000000 </i>
    <i name="Eion">      0.00000000 </i>
   </dipole>
   <energy>
    <i name="e_fr_energy">   -221.24660020 </i>
    <i name="e_wo_entrp">   -220.95930222 </i>
    <i name="e_0_energy">   -221.10295121 </i>
   </energy>
  </scstep>
  <scstep>
   <time name="diag">    1.55    1.55</time>
   <time name="diis">    4.05    4.06</time>
   <time name="orth">    0.42    0.43</time>
   <time name="total">    6.33    6.35</time>
   <dipole>
    <v name="dipole">      0.00000000       0.00000000       1.41137924 </v>
    <i name="Tr[quadrupol]"> -10936.49341891 </i>
    <i name="Echarged">      0.00000000 </i>
    <i name="Edipol_quadrupol">      0.00000000 </i>
    <i name="Eion">      0.00000000 </i>
   </dipole>
   <energy>
    <i name="e_fr_energy">   -221.24652894 </i>
    <i name="e_wo_entrp">   -220.95936848 </i>
    <i name="e_0_energy">   -221.10294871 </i>
   </energy>
  </scstep>
  <scstep>
   <time name="diag">    1.54    1.54</time>
   <time name="diis">    4.13    4.14</time>
   <time name="orth">    0.42    0.42</time>
   <time name="total">    6.40    6.42</time>
   <dipole>
    <v name="dipole">      0.00000000       0.00000000       1.39689541 </v>
    <i name="Tr[quadrupol]"> -10936.37355724 </i>
    <i name="Echarged">      0.00000000 </i>
    <i name="Edipol_quadrupol">      0.00000000 </i>
    <i name="Eion">      0.00000000 </i>
   </dipole>
   <energy>
    <i name="e_fr_energy">   -221.24658112 </i>
    <i name="e_wo_entrp">   -220.95940966 </i>
    <i name="e_0_energy">   -221.10299539 </i>
   </energy>
  </scstep>
  <scstep>
   <time name="diag">    1.55    1.55</time>
   <time name="diis">    3.96    4.05</time>
   <time name="orth">    0.42    0.42</time>
   <time name="total">    6.25    6.34</time>
   <dipole>
    <v name="dipole">      0.00000000       0.00000000       1.38563300 </v>
    <i name="Tr[quadrupol]"> -10936.29854291 </i>
    <i name="Echarged">      0.00000000 </i>
    <i name="Edipol_quadrupol">      0.00000000 </i>
    <i name="Eion">      0.00000000 </i>
   </dipole>
   <energy>
    <i name="e_fr_energy">   -221.24673150 </i>
    <i name="e_wo_entrp">   -220.95967784 </i>
    <i name="e_0_energy">   -221.10320467 </i>
   </energy>
  </scstep>
  <scstep>
   <time name="diag">    1.54    1.55</time>
   <time name="diis">    3.74    3.75</time>
   <time name="orth">    0.42    0.42</time>
   <time name="total">    6.02    6.05</time>
   <dipole>
    <v name="dipole">      0.00000000       0.00000000       1.37691795 </v>
    <i name="Tr[quadrupol]"> -10936.23025209 </i>
    <i name="Echarged">      0.00000000 </i>
    <i name="Edipol_quadrupol">      0.00000000 </i>
    <i name="Eion">      0.00000000 </i>
   </dipole>
   <energy>
    <i name="e_fr_energy">   -221.24681051 </i>
    <i name="e_wo_entrp">   -220.95970045 </i>
    <i name="e_0_energy">   -221.10325548 </i>
   </energy>
  </scstep>
  <scstep>
   <time name="diag">    1.55    1.55</time>
   <time name="diis">    3.25    3.26</time>
   <time name="orth">    0.43    0.43</time>
   <time name="total">    5.54    5.56</time>
   <dipole>
    <v name="dipole">      0.00000000       0.00000000       1.36996783 </v>
    <i name="Tr[quadrupol]"> -10936.17715648 </i>
    <i name="Echarged">      0.00000000 </i>
    <i name="Edipol_quadrupol">      0.00000000 </i>
    <i name="Eion">      0.00000000 </i>
   </dipole>
   <energy>
    <i name="e_fr_energy">   -221.24690379 </i>
    <i name="e_wo_entrp">   -220.95975641 </i>
    <i name="e_0_energy">   -221.10333010 </i>
   </energy>
  </scstep>
  <scstep>
   <time name="diag">    1.54    1.55</time>
   <time name="diis">    3.05    3.06</time>
   <time name="orth">    0.44    0.44</time>
   <time name="total">    5.35    5.37</time>
   <dipole>
    <v name="dipole">      0.00000000       0.00000000       1.36408531 </v>
    <i name="Tr[quadrupol]"> -10936.13467153 </i>
    <i name="Echarged">      0.00000000 </i>
    <i name="Edipol_quadrupol">      0.00000000 </i>
    <i name="Eion">      0.00000000 </i>
   </dipole>
   <energy>
    <i name="e_fr_energy">   -221.24702602 </i>
    <i name="e_wo_entrp">   -220.95986481 </i>
    <i name="e_0_energy">   -221.10344542 </i>
   </energy>
  </scstep>
  <scstep>
   <time name="diag">    1.54    1.55</time>
   <time name="diis">    2.89    2.90</time>
   <time name="orth">    0.43    0.43</time>
   <time name="total">    5.19    5.21</time>
   <dipole>
    <v name="dipole">      0.00000000       0.00000000       1.36028271 </v>
    <i name="Tr[quadrupol]"> -10936.11214121 </i>
    <i name="Echarged">      0.00000000 </i>
    <i name="Edipol_quadrupol">      0.00000000 </i>
    <i name="Eion">      0.00000000 </i>
   </dipole>
   <energy>
    <i name="e_fr_energy">   -221.24716364 </i>
    <i name="e_wo_entrp">   -220.95999747 </i>
    <i name="e_0_energy">   -221.10358055 </i>
   </energy>
  </scstep>
  <scstep>
   <time name="diag">    1.55    1.55</time>
   <time name="diis">    2.71    2.72</time>
   <time name="orth">    0.43    0.43</time>
   <time name="total">    5.01    5.02</time>
   <dipole>
    <v name="dipole">      0.00000000       0.00000000       1.35808920 </v>
    <i name="Tr[quadrupol]"> -10936.09770782 </i>
    <i name="Echarged">      0.00000000 </i>
    <i name="Edipol_quadrupol">      0.00000000 </i>
    <i name="Eion">      0.00000000 </i>
   </dipole>
   <energy>
    <i name="e_fr_energy">   -221.24724937 </i>
    <i name="e_wo_entrp">   -220.96007736 </i>
    <i name="e_0_energy">   -221.10366337 </i>
   </energy>
  </scstep>
  <scstep>
   <time name="diag">    1.55    1.55</time>
   <time name="diis">    2.62    2.64</time>
   <time name="orth">    0.43    0.43</time>
   <time name="total">    4.91    4.94</time>
   <dipole>
    <v name="dipole">      0.00000000       0.00000000       1.35567569 </v>
    <i name="Tr[quadrupol]"> -10936.07526913 </i>
    <i name="Echarged">      0.00000000 </i>
    <i name="Edipol_quadrupol">      0.00000000 </i>
    <i name="Eion">      0.00000000 </i>
   </dipole>
   <energy>
    <i name="e_fr_energy">   -221.24731966 </i>
    <i name="e_wo_entrp">   -220.96012801 </i>
    <i name="e_0_energy">   -221.10372383 </i>
   </energy>
  </scstep>
  <scstep>
   <time name="diag">    1.54    1.54</time>
   <time name="diis">    2.53    2.57</time>
   <time name="orth">    0.42    0.46</time>
   <time name="total">    4.80    4.89</time>
   <dipole>
    <v name="dipole">      0.00000000       0.00000000       1.35483776 </v>
    <i name="Tr[quadrupol]"> -10936.06796087 </i>
    <i name="Echarged">      0.00000000 </i>
    <i name="Edipol_quadrupol">      0.00000000 </i>
    <i name="Eion">      0.00000000 </i>
   </dipole>
   <energy>
    <i name="e_fr_energy">   -221.24736758 </i>
    <i name="e_wo_entrp">   -220.96016962 </i>
    <i name="e_0_energy">   -221.10376860 </i>
   </energy>
  </scstep>
  <scstep>
   <time name="diag">    1.55    1.55</time>
   <time name="diis">    2.50    2.52</time>
   <time name="orth">    0.43    0.43</time>
   <time name="total">    4.80    4.83</time>
   <dipole>
    <v name="dipole">      0.00000000       0.00000000       1.35440626 </v>
    <i name="Tr[quadrupol]"> -10936.06138214 </i>
    <i name="Echarged">      0.00000000 </i>
    <i name="Edipol_quadrupol">      0.00000000 </i>
    <i name="Eion">      0.00000000 </i>
   </dipole>
   <energy>
    <i name="e_fr_energy">   -221.24740350 </i>
    <i name="e_wo_entrp">   -220.96019715 </i>
    <i name="e_0_energy">   -221.10380032 </i>
   </energy>
  </scstep>
  <scstep>
   <time name="diag">    1.54    1.55</time>
   <time name="diis">    2.39    2.40</time>
   <time name="orth">    0.43    0.43</time>
   <time name="total">    4.68    4.70</time>
   <dipole>
    <v name="dipole">      0.00000000       0.00000000       1.35441918 </v>
    <i name="Tr[quadrupol]"> -10936.05895483 </i>
    <i name="Echarged">      0.00000000 </i>
    <i name="Edipol_quadrupol">      0.00000000 </i>
    <i name="Eion">      0.00000000 </i>
   </dipole>
   <energy>
    <i name="e_fr_energy">   -221.24742158 </i>
    <i name="e_wo_entrp">   -220.96021915 </i>
    <i name="e_0_energy">   -221.10382036 </i>
   </energy>
  </scstep>
  <scstep>
   <time name="diag">    1.55    1.55</time>
   <time name="diis">    2.29    2.29</time>
   <time name="orth">    0.43    0.43</time>
   <time name="total">    4.58    4.59</time>
   <dipole>
    <v name="dipole">      0.00000000       0.00000000       1.35428861 </v>
    <i name="Tr[quadrupol]"> -10936.05175844 </i>
    <i name="Echarged">      0.00000000 </i>
    <i name="Edipol_quadrupol">      0.00000000 </i>
    <i name="Eion">      0.00000000 </i>
   </dipole>
   <energy>
    <i name="e_fr_energy">   -221.24743394 </i>
    <i name="e_wo_entrp">   -220.96022856 </i>
    <i name="e_0_energy">   -221.10383125 </i>
   </energy>
  </scstep>
  <scstep>
   <time name="diag">    1.54    1.55</time>
   <time name="diis">    2.02    2.03</time>
   <time name="orth">    0.43    0.43</time>
   <time name="total">    4.31    4.32</time>
   <dipole>
    <v name="dipole">      0.00000000       0.00000000       1.35434946 </v>
    <i name="Tr[quadrupol]"> -10936.04800175 </i>
    <i name="Echarged">      0.00000000 </i>
    <i name="Edipol_quadrupol">      0.00000000 </i>
    <i name="Eion">      0.00000000 </i>
   </dipole>
   <energy>
    <i name="e_fr_energy">   -221.24743945 </i>
    <i name="e_wo_entrp">   -220.96023723 </i>
    <i name="e_0_energy">   -221.10383834 </i>
   </energy>
  </scstep>
  <scstep>
   <time name="diag">    1.54    1.55</time>
   <time name="diis">    2.15    2.15</time>
   <time name="orth">    0.43    0.43</time>
   <time name="total">    4.44    4.46</time>
   <dipole>
    <v name="dipole">      0.00000000       0.00000000       1.35469421 </v>
    <i name="Tr[quadrupol]"> -10936.04635423 </i>
    <i name="Echarged">      0.00000000 </i>
    <i name="Edipol_quadrupol">      0.00000000 </i>
    <i name="Eion">      0.00000000 </i>
   </dipole>
   <energy>
    <i name="e_fr_energy">   -221.24744448 </i>
    <i name="e_wo_entrp">   -220.96024256 </i>
    <i name="e_0_energy">   -221.10384352 </i>
   </energy>
  </scstep>
  <scstep>
   <time name="diag">    1.54    1.55</time>
   <time name="diis">    1.75    1.75</time>
   <time name="orth">    0.43    0.43</time>
   <time name="total">    4.03    4.05</time>
   <dipole>
    <v name="dipole">      0.00000000       0.00000000       1.35484314 </v>
    <i name="Tr[quadrupol]"> -10936.04422903 </i>
    <i name="Echarged">      0.00000000 </i>
    <i name="Edipol_quadrupol">      0.00000000 </i>
    <i name="Eion">      0.00000000 </i>
   </dipole>
   <energy>
    <i name="e_fr_energy">   -221.24744636 </i>
    <i name="e_wo_entrp">   -220.96024518 </i>
    <i name="e_0_energy">   -221.10384577 </i>
   </energy>
  </scstep>
  <scstep>
   <time name="diag">    1.54    1.55</time>
   <time name="diis">    1.75    1.76</time>
   <time name="orth">    0.43    0.43</time>
   <time name="total">    4.04    4.05</time>
   <dipole>
    <v name="dipole">      0.00000000       0.00000000       1.35515114 </v>
    <i name="Tr[quadrupol]"> -10936.04249010 </i>
    <i name="Echarged">      0.00000000 </i>
    <i name="Edipol_quadrupol">      0.00000000 </i>
    <i name="Eion">      0.00000000 </i>
   </dipole>
   <energy>
    <i name="e_fr_energy">   -221.24744794 </i>
    <i name="e_wo_entrp">   -220.96024796 </i>
    <i name="e_0_energy">   -221.10384795 </i>
   </energy>
  </scstep>
  <scstep>
   <time name="diag">    1.54    1.55</time>
   <time name="diis">    1.67    1.67</time>
   <time name="orth">    0.43    0.43</time>
   <time name="total">    3.69    3.70</time>
   <dipole>
    <v name="dipole">      0.00000000       0.00000000       1.35519549 </v>
    <i name="Tr[quadrupol]"> -10936.04025466 </i>
    <i name="Echarged">      0.00000000 </i>
    <i name="Edipol_quadrupol">      0.00000000 </i>
    <i name="Eion">      0.00000000 </i>
   </dipole>
   <energy>
    <i name="alphaZ">    890.71288786 </i>
    <i name="ewald"> 254726.92103664 </i>
    <i name="hartreedc">-299716.76951415 </i>
    <i name="XCdc">   -125.07482722 </i>
    <i name="pawpsdc">  52791.92628623 </i>
    <i name="pawaedc"> -50894.28310405 </i>
    <i name="eentropy">     -0.28719906 </i>
    <i name="bandstr">  -3012.28445525 </i>
    <i name="atom">  45117.89144060 </i>
    <i name="e_fr_energy">   -221.24744840 </i>
    <i name="e_wo_entrp">   -220.96024934 </i>
    <i name="e_0_energy">   -221.10384887 </i>
   </energy>
  </scstep>
  <structure>
   <crystal>
    <varray name="basis" >
     <v>      11.00258152       0.00000000       0.00000000 </v>
     <v>       5.50129076       9.52851510       0.00000000 </v>
     <v>       0.00000000       0.00000000      26.19178509 </v>
    </varray>
    <i name="volume">   2745.90128299 </i>
    <varray name="rec_basis" >
     <v>       0.09088776      -0.05247407       0.00000000 </v>
     <v>       0.00000000       0.10494815       0.00000000 </v>
     <v>       0.00000000       0.00000000       0.03817991 </v>
    </varray>
   </crystal>
   <varray name="positions" >
    <v>       0.08333333       0.08333333       0.38179910 </v>
    <v>       0.16666667       0.66666667       0.46754708 </v>
    <v>       0.33333333       0.58333333       0.38179910 </v>
    <v>       0.83333333       0.83333333       0.38179910 </v>
    <v>       0.83333333       0.58333333       0.38179910 </v>
    <v>       0.08333333       0.33333333       0.38179910 </v>
    <v>       0.91666667       0.41666667       0.46754708 </v>
    <v>       0.66666667       0.41666667       0.46754708 </v>
    <v>       0.83333333       0.33333333       0.38179910 </v>
    <v>       0.08333333       0.58333333       0.38179910 </v>
    <v>       0.66666667       0.16666667       0.46754708 </v>
    <v>       0.08333333       0.83333333       0.38179910 </v>
    <v>       0.83333333       0.08333333       0.38179910 </v>
    <v>       0.41666667       0.91666667       0.46754708 </v>
    <v>       0.58333333       0.83333333       0.38179910 </v>
    <v>       0.33333333       0.08333333       0.38179910 </v>
    <v>       0.58333333       0.58333333       0.38179910 </v>
    <v>       0.41666667       0.41666667       0.46754708 </v>
    <v>       0.58333333       0.33333333       0.38179910 </v>
    <v>       0.33333333       0.33333333       0.38179910 </v>
    <v>       0.16666667       0.41666667       0.46754708 </v>
    <v>       0.58333333       0.08333333       0.38179910 </v>
    <v>       0.33333333       0.83333333       0.38179910 </v>
    <v>       0.91666667       0.91666667       0.46754708 </v>
    <v>       0.08333333       0.58333333       0.61820090 </v>
    <v>       0.08333333       0.83333333       0.61820090 </v>
    <v>       0.33333333       0.08333333       0.61820090 </v>
    <v>       0.08333333       0.33333333       0.61820090 </v>
    <v>       0.08333333       0.08333333       0.61820090 </v>
    <v>       0.83333333       0.83333333       0.61820090 </v>
    <v>       0.83333333       0.58333333       0.61820090 </v>
    <v>       0.58333333       0.83333333       0.61820090 </v>
    <v>       0.66666667       0.91666667       0.46754708 </v>
    <v>       0.16666667       0.91666667       0.46754708 </v>
    <v>       0.25000000       0.75000000       0.55329505 </v>
    <v>       0.75000000       0.75000000       0.55329505 </v>
    <v>       0.25000000       0.25000000       0.55329505 </v>
    <v>       0.41666667       0.16666667       0.46754708 </v>
    <v>       0.50000000       0.00000000       0.55329505 </v>
    <v>       0.91666667       0.16666667       0.46754708 </v>
    <v>       0.25000000       0.00000000       0.55329505 </v>
    <v>       0.50000000       0.25000000       0.55329505 </v>
    <v>       0.00000000       0.00000000       0.55329505 </v>
    <v>       0.16666667       0.16666667       0.46754708 </v>
    <v>       0.00000000       0.75000000       0.55329505 </v>
    <v>       0.50000000       0.50000000       0.55329505 </v>
    <v>       0.75000000       0.50000000       0.55329505 </v>
    <v>       0.25000000       0.50000000       0.55329505 </v>
    <v>       0.50000000       0.75000000       0.55329505 </v>
    <v>       0.00000000       0.50000000       0.55329505 </v>
    <v>       0.91666667       0.66666667       0.46754708 </v>
    <v>       0.75000000       0.00000000       0.55329505 </v>
    <v>       0.66666667       0.66666667       0.46754708 </v>
    <v>       0.00000000       0.25000000       0.55329505 </v>
    <v>       0.75000000       0.25000000       0.55329505 </v>
    <v>       0.41666667       0.66666667       0.46754708 </v>
   </varray>
  </structure>
  <varray name="forces" >
   <v>      -0.03706326       0.00748968      -1.04855150 </v>
   <v>       0.12896720       0.32097796       0.92138919 </v>
   <v>       0.16419161       0.12280978      -1.67231880 </v>
   <v>      -0.15117603      -0.08959572      -1.36567461 </v>
   <v>       0.04265306       0.15172748      -1.35053711 </v>
   <v>      -0.01496025      -0.14698369      -1.59610245 </v>
   <v>       0.08655631      -0.09671330       1.08353417 </v>
   <v>       0.26165340       0.32578373       1.21313204 </v>
   <v>       0.04366604      -0.19734559      -1.65146751 </v>
   <v>      -0.20940384       0.05992998      -1.65971662 </v>
   <v>      -0.14452039      -0.38497753       1.21238282 </v>
   <v>       0.17552612       0.11610056      -1.62009355 </v>
   <v>       0.20208159       0.05060279      -1.63554456 </v>
   <v>      -0.12296636       0.06803349       0.90612935 </v>
   <v>       0.11507698      -0.06639846      -1.30948884 </v>
   <v>       0.04080044       0.16421769      -1.28761553 </v>
   <v>      -0.00162407       0.21588781      -1.41370239 </v>
   <v>      -0.08574980       0.04983677       1.21032689 </v>
   <v>      -0.00753766       0.01300134      -1.89992247 </v>
   <v>      -0.02821674      -0.20088046      -1.67585435 </v>
   <v>      -0.24217294      -0.36857812       1.10293313 </v>
   <v>      -0.20019832      -0.11648552      -1.40067164 </v>
   <v>      -0.13749323      -0.10643697      -1.30562003 </v>
   <v>       0.11923130      -0.02179901       1.08117095 </v>
   <v>       0.59996643      -0.35435317      -3.06649687 </v>
   <v>       0.33859518      -0.03282244      -3.21491549 </v>
   <v>       0.26255732      -0.03128183      -3.16796368 </v>
   <v>       0.01656367      -0.00489642      -3.05979395 </v>
   <v>      -0.33996661      -0.01740354      -3.19293740 </v>
   <v>      -0.03544232       0.72486163      -3.02819102 </v>
   <v>      -0.66008864      -0.37458449      -3.04278302 </v>
   <v>      -0.33742300      -0.05831345      -3.20234019 </v>
   <v>      -0.22010673      -0.22363888       0.80673390 </v>
   <v>       0.25355820       0.25046164       0.64538781 </v>
   <v>      -0.05146423       0.07343588       1.62966939 </v>
   <v>      -0.15913076       0.10387902       3.06835518 </v>
   <v>      -0.03596544      -0.19095005       2.62137108 </v>
   <v>      -0.24319493      -0.24218534       0.96459015 </v>
   <v>      -0.05710680       0.01571763       2.39972040 </v>
   <v>       0.44557976      -0.23401290       0.93904156 </v>
   <v>      -0.07153741       0.26035424       2.68052334 </v>
   <v>       0.12349058       0.01620367       0.68009340 </v>
   <v>       0.27191309      -0.02117521       2.53798550 </v>
   <v>      -0.08995750      -0.23997101       0.34113158 </v>
   <v>       0.14138716       0.08551652       3.50073113 </v>
   <v>       0.02237338       0.03164667       0.64524648 </v>
   <v>       0.16872015       0.32037465       1.87051760 </v>
   <v>      -0.13674879       0.17021986       1.99794605 </v>
   <v>       0.15401784      -0.10536625       1.59228785 </v>
   <v>      -0.03128269      -0.13801222       3.36532978 </v>
   <v>      -0.32378279       0.19097019       0.98077926 </v>
   <v>      -0.14523927      -0.29635585       1.84926233 </v>
   <v>       0.11842550       0.24349403       0.60098783 </v>
   <v>       0.03011475      -0.21001700       2.60769891 </v>
   <v>      -0.12744830       0.05261577       0.66972178 </v>
   <v>       0.12130206       0.36538391       1.14219272 </v>
  </varray>
  <energy>
   <i name="e_fr_energy">   -221.24744840 </i>
   <i name="e_wo_entrp">   -221.10384887 </i>
   <i name="e_0_energy">     -0.28719906 </i>
  </energy>
  <time name="totalsc">  326.30  328.70</time>
 </calculation>
 <calculation>
  <scstep>
   <time name="dav">    8.86    8.96</time>
   <time name="total">    9.17    9.28</time>
   <dipole>
    <v name="dipole">      0.00000000       0.00000000       1.35529742 </v>
    <i name="Tr[quadrupol]"> -10926.26972903 </i>
    <i name="Echarged">      0.00000000 </i>
    <i name="Edipol_quadrupol">      0.00000000 </i>
    <i name="Eion">      0.00000000 </i>
   </dipole>
   <energy>
    <i name="alphaZ">    889.66671930 </i>
    <i name="ewald"> 254287.85800018 </i>
    <i name="hartreedc">-299265.23106246 </i>
    <i name="XCdc">   -124.42976257 </i>
    <i name="pawpsdc">  52791.92422150 </i>
    <i name="pawaedc"> -50894.28101015 </i>
    <i name="eentropy">     -0.26332111 </i>
    <i name="bandstr">  -3027.60355422 </i>
    <i name="atom">  45117.89144060 </i>
    <i name="e_fr_energy">   -224.46832893 </i>
    <i name="e_wo_entrp">   -224.20500782 </i>
    <i name="e_0_energy">   -224.33666837 </i>
   </energy>
  </scstep>
  <scstep>
   <time name="diag">    1.55    1.55</time>
   <time name="diis">    4.08    4.09</time>
   <time name="orth">    0.43    0.43</time>
   <time name="total">    6.37    6.39</time>
   <dipole>
    <v name="dipole">      0.00000000       0.00000000       0.85636650 </v>
    <i name="Tr[quadrupol]"> -10925.80896617 </i>
    <i name="Echarged">      0.00000000 </i>
    <i name="Edipol_quadrupol">      0.00000000 </i>
    <i name="Eion">      0.00000000 </i>
   </dipole>
   <energy>
    <i name="e_fr_energy">   -231.12997528 </i>
    <i name="e_wo_entrp">   -230.74696645 </i>
    <i name="e_0_energy">   -230.93847086 </i>
   </energy>
  </scstep>
  <scstep>
   <time name="diag">    1.54    1.56</time>
   <time name="diis">    4.07    4.08</time>
   <time name="orth">    0.43    0.43</time>
   <time name="total">    6.34    6.38</time>
   <dipole>
    <v name="dipole">      0.00000000       0.00000000       1.21245705 </v>
    <i name="Tr[quadrupol]"> -10925.70692777 </i>
    <i name="Echarged">      0.00000000 </i>
    <i name="Edipol_quadrupol">      0.00000000 </i>
    <i name="Eion">      0.00000000 </i>
   </dipole>
   <energy>
    <i name="e_fr_energy">   -227.46516426 </i>
    <i name="e_wo_entrp">   -227.20961080 </i>
    <i name="e_0_energy">   -227.33738753 </i>
   </energy>
  </scstep>
  <scstep>
   <time name="diag">    1.55    1.55</time>
   <time name="diis">    4.05    4.06</time>
   <time name="orth">    0.43    0.43</time>
   <time name="total">    6.33    6.35</time>
   <dipole>
    <v name="dipole">      0.00000000       0.00000000       1.03515139 </v>
    <i name="Tr[quadrupol]"> -10926.80753377 </i>
    <i name="Echarged">      0.00000000 </i>
    <i name="Edipol_quadrupol">      0.00000000 </i>
    <i name="Eion">      0.00000000 </i>
   </dipole>
   <energy>
    <i name="e_fr_energy">   -228.35868956 </i>
    <i name="e_wo_entrp">   -228.01479731 </i>
    <i name="e_0_energy">   -228.18674344 </i>
   </energy>
  </scstep>
  <scstep>
   <time name="diag">    1.55    1.56</time>
   <time name="diis">    4.08    4.09</time>
   <time name="orth">    0.43    0.43</time>
   <time name="total">    6.38    6.39</time>
   <dipole>
    <v name="dipole">      0.00000000       0.00000000       1.01843182 </v>
    <i name="Tr[quadrupol]"> -10926.77955159 </i>
    <i name="Echarged">      0.00000000 </i>
    <i name="Edipol_quadrupol">      0.00000000 </i>
    <i name="Eion">      0.00000000 </i>
   </dipole>
   <energy>
    <i name="e_fr_energy">   -227.99060350 </i>
    <i name="e_wo_entrp">   -227.69937745 </i>
    <i name="e_0_energy">   -227.84499047 </i>
   </energy>
  </scstep>
  <scstep>
   <time name="diag">    1.54    1.55</time>
   <time name="diis">    4.11    4.12</time>
   <time name="orth">    0.43    0.43</time>
   <time name="total">    6.39    6.41</time>
   <dipole>
    <v name="dipole">      0.00000000       0.00000000       1.06744789 </v>
    <i name="Tr[quadrupol]"> -10926.77634986 </i>
    <i name="Echarged">      0.00000000 </i>
    <i name="Edipol_quadrupol">      0.00000000 </i>
    <i name="Eion">      0.00000000 </i>
   </dipole>
   <energy>
    <i name="e_fr_energy">   -227.22169477 </i>
    <i name="e_wo_entrp">   -226.92283375 </i>
    <i name="e_0_energy">   -227.07226426 </i>
   </energy>
  </scstep>
  <scstep>
   <time name="diag">    1.52    1.60</time>
   <time name="diis">    4.05    4.08</time>
   <time name="orth">    0.43    0.43</time>
   <time name="total">    6.31    6.41</time>
   <dipole>
    <v name="dipole">      0.00000000       0.00000000       1.13002731 </v>
    <i name="Tr[quadrupol]"> -10926.92839312 </i>
    <i name="Echarged">      0.00000000 </i>
    <i name="Edipol_quadrupol">      0.00000000 </i>
    <i name="Eion">      0.00000000 </i>
   </dipole>
   <energy>
    <i name="e_fr_energy">   -227.22202445 </i>
    <i name="e_wo_entrp">   -226.93711548 </i>
    <i name="e_0_energy">   -227.07956997 </i>
   </energy>
  </scstep>
  <scstep>
   <time name="diag">    1.54    1.55</time>
   <time name="diis">    4.02    4.03</time>
   <time name="orth">    0.43    0.43</time>
   <time name="total">    6.30    6.32</time>
   <dipole>
    <v name="dipole">      0.00000000       0.00000000       1.10450063 </v>
    <i name="Tr[quadrupol]"> -10927.02874194 </i>
    <i name="Echarged">      0.00000000 </i>
    <i name="Edipol_quadrupol">      0.00000000 </i>
    <i name="Eion">      0.00000000 </i>
   </dipole>
   <energy>
    <i name="e_fr_energy">   -227.06087117 </i>
    <i name="e_wo_entrp">   -226.78707051 </i>
    <i name="e_0_energy">   -226.92397084 </i>
   </energy>
  </scstep>
  <scstep>
   <time name="diag">    1.55    1.55</time>
   <time name="diis">    4.01    4.02</time>
   <time name="orth">    0.43    0.43</time>
   <time name="total">    6.30    6.32</time>
   <dipole>
    <v name="dipole">      0.00000000       0.00000000       1.10622554 </v>
    <i name="Tr[quadrupol]"> -10927.04676583 </i>
    <i name="Echarged">      0.00000000 </i>
    <i name="Edipol_quadrupol">      0.00000000 </i>
    <i name="Eion">      0.00000000 </i>
   </dipole>
   <energy>
    <i name="e_fr_energy">   -227.00214124 </i>
    <i name="e_wo_entrp">   -226.73532069 </i>
    <i name="e_0_energy">   -226.86873097 </i>
   </energy>
  </scstep>
  <scstep>
   <time name="diag">    1.55    1.56</time>
   <time name="diis">    4.10    4.11</time>
   <time name="orth">    0.43    0.43</time>
   <time name="total">    6.39    6.41</time>
   <dipole>
    <v name="dipole">      0.00000000       0.00000000       1.11657391 </v>
    <i name="Tr[quadrupol]"> -10927.06023890 </i>
    <i name="Echarged">      0.00000000 </i>
    <i name="Edipol_quadrupol">      0.00000000 </i>
    <i name="Eion">      0.00000000 </i>
   </dipole>
   <energy>
    <i name="e_fr_energy">   -226.99732829 </i>
    <i name="e_wo_entrp">   -226.72629768 </i>
    <i name="e_0_energy">   -226.86181299 </i>
   </energy>
  </scstep>
  <scstep>
   <time name="diag">    1.52    1.55</time>
   <time name="diis">    4.05    4.07</time>
   <time name="orth">    0.43    0.43</time>
   <time name="total">    6.31    6.36</time>
   <dipole>
    <v name="dipole">      0.00000000       0.00000000       1.10860424 </v>
    <i name="Tr[quadrupol]"> -10927.05974931 </i>
    <i name="Echarged">      0.00000000 </i>
    <i name="Edipol_quadrupol">      0.00000000 </i>
    <i name="Eion">      0.00000000 </i>
   </dipole>
   <energy>
    <i name="e_fr_energy">   -226.99007837 </i>
    <i name="e_wo_entrp">   -226.72192351 </i>
    <i name="e_0_energy">   -226.85600094 </i>
   </energy>
  </scstep>
  <scstep>
   <time name="diag">    1.55    1.55</time>
   <time name="diis">    4.02    4.04</time>
   <time name="orth">    0.43    0.43</time>
   <time name="total">    6.30    6.34</time>
   <dipole>
    <v name="dipole">      0.00000000       0.00000000       1.11232746 </v>
    <i name="Tr[quadrupol]"> -10927.07496970 </i>
    <i name="Echarged">      0.00000000 </i>
    <i name="Edipol_quadrupol">      0.00000000 </i>
    <i name="Eion">      0.00000000 </i>
   </dipole>
   <energy>
    <i name="e_fr_energy">   -226.98656290 </i>
    <i name="e_wo_entrp">   -226.71885374 </i>
    <i name="e_0_energy">   -226.85270832 </i>
   </energy>
  </scstep>
  <scstep>
   <time name="diag">    1.55    1.55</time>
   <time name="diis">    3.97    4.06</time>
   <time name="orth">    0.43    0.43</time>
   <time name="total">    6.26    6.37</time>
   <dipole>
    <v name="dipole">      0.00000000       0.00000000       1.11998102 </v>
    <i name="Tr[quadrupol]"> -10927.09535663 </i>
    <i name="Echarged">      0.00000000 </i>
    <i name="Edipol_quadrupol">      0.00000000 </i>
    <i name="Eion">      0.00000000 </i>
   </dipole>
   <energy>
    <i name="e_fr_energy">   -226.98720786 </i>
    <i name="e_wo_entrp">   -226.72031968 </i>
    <i name="e_0_energy">   -226.85376377 </i>
   </energy>
  </scstep>
  <scstep>
   <time name="diag">    1.55    1.55</time>
   <time name="diis">    4.08    4.09</time>
   <time name="orth">    0.43    0.43</time>
   <time name="total">    6.36    6.38</time>
   <dipole>
    <v name="dipole">      0.00000000       0.00000000       1.11603542 </v>
    <i name="Tr[quadrupol]"> -10927.09828070 </i>
    <i name="Echarged">      0.00000000 </i>
    <i name="Edipol_quadrupol">      0.00000000 </i>
    <i name="Eion">      0.00000000 </i>
   </dipole>
   <energy>
    <i name="e_fr_energy">   -226.98437663 </i>
    <i name="e_wo_entrp">   -226.71776172 </i>
    <i name="e_0_energy">   -226.85106917 </i>
   </energy>
  </scstep>
  <scstep>
   <time name="diag">    1.54    1.55</time>
   <time name="diis">    4.14    4.15</time>
   <time name="orth">    0.43    0.43</time>
   <time name="total">    6.42    6.44</time>
   <dipole>
    <v name="dipole">      0.00000000       0.00000000       1.11567471 </v>
    <i name="Tr[quadrupol]"> -10927.10071909 </i>
    <i name="Echarged">      0.00000000 </i>
    <i name="Edipol_quadrupol">      0.00000000 </i>
    <i name="Eion">      0.00000000 </i>
   </dipole>
   <energy>
    <i name="e_fr_energy">   -226.98370936 </i>
    <i name="e_wo_entrp">   -226.71810460 </i>
    <i name="e_0_energy">   -226.85090698 </i>
   </energy>
  </scstep>
  <scstep>
   <time name="diag">    1.55    1.56</time>
   <time name="diis">    4.12    4.13</time>
   <time name="orth">    0.43    0.43</time>
   <time name="total">    6.41    6.43</time>
   <dipole>
    <v name="dipole">      0.00000000       0.00000000       1.11878119 </v>
    <i name="Tr[quadrupol]"> -10927.11668977 </i>
    <i name="Echarged">      0.00000000 </i>
    <i name="Edipol_quadrupol">      0.00000000 </i>
    <i name="Eion">      0.00000000 </i>
   </dipole>
   <energy>
    <i name="e_fr_energy">   -226.98367301 </i>
    <i name="e_wo_entrp">   -226.71759966 </i>
    <i name="e_0_energy">   -226.85063633 </i>
   </energy>
  </scstep>
  <scstep>
   <time name="diag">    1.54    1.56</time>
   <time name="diis">    4.11    4.12</time>
   <time name="orth">    0.43    0.43</time>
   <time name="total">    6.39    6.42</time>
   <dipole>
    <v name="dipole">      0.00000000       0.00000000       1.11614669 </v>
    <i name="Tr[quadrupol]"> -10927.12482246 </i>
    <i name="Echarged">      0.00000000 </i>
    <i name="Edipol_quadrupol">      0.00000000 </i>
    <i name="Eion">      0.00000000 </i>
   </dipole>
   <energy>
    <i name="e_fr_energy">   -226.98368226 </i>
    <i name="e_wo_entrp">   -226.71825719 </i>
    <i name="e_0_energy">   -226.85096973 </i>
   </energy>
  </scstep>
  <scstep>
   <time name="diag">    1.54    1.54</time>
   <time name="diis">    4.08    4.09</time>
   <time name="orth">    0.43    0.43</time>
   <time name="total">    6.36    6.38</time>
   <dipole>
    <v name="dipole">      0.00000000       0.00000000       1.11648512 </v>
    <i name="Tr[quadrupol]"> -10927.13726730 </i>
    <i name="Echarged">      0.00000000 </i>
    <i name="Edipol_quadrupol">      0.00000000 </i>
    <i name="Eion">      0.00000000 </i>
   </dipole>
[...]
       <r>   -19.4869     0.0000    16.0000 </r>
       <r>   -19.3926     0.0000    16.0000 </r>
       <r>   -19.2983     0.0000    16.0000 </r>
       <r>   -19.2040     0.0000    16.0000 </r>
       <r>   -19.1096     0.0000    16.0000 </r>
       <r>   -19.0153     0.0000    16.0000 </r>
       <r>   -18.9210     0.0000    16.0000 </r>
       <r>   -18.8267     0.0000    16.0000 </r>
       <r>   -18.7324     0.0000    16.0000 </r>
       <r>   -18.6381     0.0000    16.0000 </r>
       <r>   -18.5438     0.0000    16.0000 </r>
       <r>   -18.4495     0.0000    16.0000 </r>
       <r>   -18.3551     0.0000    16.0000 </r>
       <r>   -18.2608     0.0000    16.0000 </r>
       <r>   -18.1665     0.0000    16.0000 </r>
       <r>   -18.0722     0.0000    16.0000 </r>
       <r>   -17.9779     0.0000    16.0000 </r>
       <r>   -17.8836     0.0000    16.0000 </r>
       <r>   -17.7893     0.0000    16.0000 </r>
       <r>   -17.6949     0.0000    16.0000 </r>
       <r>   -17.6006     0.0000    16.0000 </r>
       <r>   -17.5063     0.0000    16.0000 </r>
       <r>   -17.4120     0.0000    16.0000 </r>
       <r>   -17.3177     0.0000    16.0000 </r>
       <r>   -17.2234     0.0000    16.0000 </r>
       <r>   -17.1291     0.0000    16.0000 </r>
       <r>   -17.0347     0.0000    16.0000 </r>
       <r>   -16.9404     0.0000    16.0000 </r>
       <r>   -16.8461     0.0000    16.0000 </r>
       <r>   -16.7518     0.0000    16.0000 </r>
       <r>   -16.6575     0.0000    16.0000 </r>
       <r>   -16.5632     0.0000    16.0000 </r>
       <r>   -16.4689     0.0000    16.0000 </r>
       <r>   -16.3745     0.0000    16.0000 </r>
       <r>   -16.2802     0.0000    16.0000 </r>
       <r>   -16.1859     0.0000    16.0000 </r>
       <r>   -16.0916     0.0000    16.0000 </r>
       <r>   -15.9973     0.0000    16.0000 </r>
       <r>   -15.9030     0.0000    16.0000 </r>
       <r>   -15.8087     0.0000    16.0000 </r>
       <r>   -15.7144     0.0000    16.0000 </r>
       <r>   -15.6200     0.0000    16.0000 </r>
       <r>   -15.5257     0.0000    16.0000 </r>
       <r>   -15.4314     0.0000    16.0000 </r>
       <r>   -15.3371     0.0000    16.0000 </r>
       <r>   -15.2428     0.0000    16.0000 </r>
       <r>   -15.1485     0.0000    16.0000 </r>
       <r>   -15.0542     0.0000    16.0000 </r>
       <r>   -14.9598     0.0000    16.0000 </r>
       <r>   -14.8655     0.0000    16.0000 </r>
       <r>   -14.7712     0.0000    16.0000 </r>
       <r>   -14.6769     0.0000    16.0000 </r>
       <r>   -14.5826     0.0000    16.0000 </r>
       <r>   -14.4883     0.0000    16.0000 </r>
       <r>   -14.3940     0.0000    16.0000 </r>
       <r>   -14.2996     0.0000    16.0000 </r>
       <r>   -14.2053     0.0000    16.0000 </r>
       <r>   -14.1110     0.0000    16.0000 </r>
       <r>   -14.0167     0.0000    16.0000 </r>
       <r>   -13.9224     0.0000    16.0000 </r>
       <r>   -13.8281     0.0000    16.0000 </r>
       <r>   -13.7338     0.0000    16.0000 </r>
       <r>   -13.6394     0.0000    16.0000 </r>
       <r>   -13.5451     0.0000    16.0000 </r>
       <r>   -13.4508     0.0000    16.0000 </r>
       <r>   -13.3565     0.0000    16.0000 </r>
       <r>   -13.2622     0.0000    16.0000 </r>
       <r>   -13.1679     0.0000    16.0000 </r>
       <r>   -13.0736     0.0000    16.0000 </r>
       <r>   -12.9793     0.0000    16.0000 </r>
       <r>   -12.8849     0.0000    16.0000 </r>
       <r>   -12.7906     0.0000    16.0000 </r>
       <r>   -12.6963     0.0000    16.0000 </r>
       <r>   -12.6020     0.0000    16.0000 </r>
       <r>   -12.5077     0.0000    16.0000 </r>
       <r>   -12.4134     0.0000    16.0000 </r>
       <r>   -12.3191     0.0000    16.0000 </r>
       <r>   -12.2247     0.0000    16.0000 </r>
       <r>   -12.1304     0.0000    16.0000 </r>
       <r>   -12.0361     0.0000    16.0000 </r>
       <r>   -11.9418     0.0000    16.0000 </r>
       <r>   -11.8475     0.0000    16.0000 </r>
       <r>   -11.7532     0.0000    16.0000 </r>
       <r>   -11.6589     0.0000    16.0000 </r>
       <r>   -11.5645     0.0000    16.0000 </r>
       <r>   -11.4702     0.0000    16.0000 </r>
       <r>   -11.3759     0.0000    16.0000 </r>
       <r>   -11.2816     0.0000    16.0000 </r>
       <r>   -11.1873     0.0000    16.0000 </r>
       <r>   -11.0930     0.0000    16.0000 </r>
       <r>   -10.9987     0.0000    16.0000 </r>
       <r>   -10.9043     0.0000    16.0000 </r>
       <r>   -10.8100     0.0000    16.0000 </r>
       <r>   -10.7157     0.0000    16.0000 </r>
       <r>   -10.6214     0.0000    16.0000 </r>
       <r>   -10.5271     0.0000    16.0000 </r>
       <r>   -10.4328     0.0000    16.0000 </r>
       <r>   -10.3385     0.0000    16.0000 </r>
       <r>   -10.2441     0.0000    16.0000 </r>
       <r>   -10.1498     0.0000    16.0000 </r>
       <r>   -10.0555     0.0000    16.0000 </r>
       <r>    -9.9612     0.0000    16.0000 </r>
       <r>    -9.8669     0.0003    16.0000 </r>
       <r>    -9.7726     0.0391    16.0037 </r>
       <r>    -9.6783     0.9098    16.0895 </r>
       <r>    -9.5840     4.3102    16.4960 </r>
       <r>    -9.4896     4.5212    16.9225 </r>
       <r>    -9.3953     2.9280    17.1986 </r>
       <r>    -9.3010     5.2029    17.6893 </r>
       <r>    -9.2067     2.9305    17.9657 </r>
       <r>    -9.1124     0.3589    17.9995 </r>
       <r>    -9.0181     0.2026    18.0187 </r>
       <r>    -8.9238     2.0476    18.2118 </r>
       <r>    -8.8294     5.6464    18.7443 </r>
       <r>    -8.7351     8.0894    19.5072 </r>
       <r>    -8.6408    10.1342    20.4630 </r>
       <r>    -8.5465     6.2078    21.0485 </r>
       <r>    -8.4522     4.8742    21.5082 </r>
       <r>    -8.3579     5.0451    21.9841 </r>
       <r>    -8.2636     9.7503    22.9036 </r>
       <r>    -8.1692    21.8586    24.9652 </r>
       <r>    -8.0749    19.7895    26.8316 </r>
       <r>    -7.9806    25.5117    29.2377 </r>
       <r>    -7.8863    47.3527    33.7037 </r>
       <r>    -7.7920    58.7108    39.2410 </r>
       <r>    -7.6977    60.1248    44.9116 </r>
       <r>    -7.6034    61.9152    50.7510 </r>
       <r>    -7.5090    56.5812    56.0874 </r>
       <r>    -7.4147    45.9496    60.4211 </r>
       <r>    -7.3204    36.1066    63.8265 </r>
       <r>    -7.2261    40.0666    67.6053 </r>
       <r>    -7.1318    62.5475    73.5044 </r>
       <r>    -7.0375    80.7537    81.1206 </r>
       <r>    -6.9432    81.2611    88.7846 </r>
       <r>    -6.8489    75.5552    95.9105 </r>
       <r>    -6.7545    71.1787   102.6236 </r>
       <r>    -6.6602    73.3688   109.5433 </r>
       <r>    -6.5659    84.1002   117.4751 </r>
       <r>    -6.4716    93.7275   126.3149 </r>
       <r>    -6.3773    80.5424   133.9112 </r>
       <r>    -6.2830    63.0902   139.8615 </r>
       <r>    -6.1887    64.6244   145.9565 </r>
       <r>    -6.0943    74.7633   153.0077 </r>
       <r>    -6.0000    80.6840   160.6173 </r>
       <r>    -5.9057    82.5820   168.4059 </r>
       <r>    -5.8114    79.7068   175.9234 </r>
       <r>    -5.7171    80.1834   183.4858 </r>
       <r>    -5.6228    86.3437   191.6292 </r>
       <r>    -5.5285    91.4542   200.2545 </r>
       <r>    -5.4341    85.3456   208.3038 </r>
       <r>    -5.3398    82.2775   216.0637 </r>
       <r>    -5.2455    84.8603   224.0672 </r>
       <r>    -5.1512    83.0993   231.9046 </r>
       <r>    -5.0569    83.2868   239.7597 </r>
       <r>    -4.9626    84.8877   247.7658 </r>
       <r>    -4.8683    94.1371   256.6442 </r>
       <r>    -4.7739    97.0961   265.8017 </r>
       <r>    -4.6796    96.2944   274.8836 </r>
       <r>    -4.5853    96.6890   284.0027 </r>
       <r>    -4.4910    93.5642   292.8271 </r>
       <r>    -4.3967    97.5809   302.0304 </r>
       <r>    -4.3024   110.9207   312.4917 </r>
       <r>    -4.2081   114.8382   323.3225 </r>
       <r>    -4.1138   109.3777   333.6384 </r>
       <r>    -4.0194   104.9441   343.5361 </r>
       <r>    -3.9251    97.4001   352.7222 </r>
       <r>    -3.8308    96.4446   361.8183 </r>
       <r>    -3.7365    98.8183   371.1382 </r>
       <r>    -3.6422   102.0851   380.7663 </r>
       <r>    -3.5479   108.0381   390.9557 </r>
       <r>    -3.4536   101.7873   400.5557 </r>
       <r>    -3.3592    88.8107   408.9318 </r>
       <r>    -3.2649    80.3402   416.5089 </r>
       <r>    -3.1706    75.8335   423.6611 </r>
       <r>    -3.0763    80.0297   431.2090 </r>
       <r>    -2.9820    81.3587   438.8822 </r>
       <r>    -2.8877    77.4480   446.1867 </r>
       <r>    -2.7934    79.7955   453.7125 </r>
       <r>    -2.6990    74.9863   460.7847 </r>
       <r>    -2.6047    73.8474   467.7496 </r>
       <r>    -2.5104    82.0010   475.4834 </r>
       <r>    -2.4161    84.7780   483.4791 </r>
       <r>    -2.3218    80.3307   491.0554 </r>
       <r>    -2.2275    79.1267   498.5182 </r>
       <r>    -2.1332    83.0143   506.3475 </r>
       <r>    -2.0388    78.7889   513.7784 </r>
       <r>    -1.9445    70.1397   520.3936 </r>
       <r>    -1.8502    60.5098   526.1005 </r>
       <r>    -1.7559    50.5954   530.8723 </r>
       <r>    -1.6616    47.9017   535.3901 </r>
       <r>    -1.5673    47.6075   539.8802 </r>
       <r>    -1.4730    39.0951   543.5674 </r>
       <r>    -1.3787    35.8306   546.9467 </r>
       <r>    -1.2843    35.2898   550.2750 </r>
       <r>    -1.1900    37.7006   553.8307 </r>
       <r>    -1.0957    42.4755   557.8367 </r>
       <r>    -1.0014    44.0279   561.9892 </r>
       <r>    -0.9071    34.6364   565.2558 </r>
       <r>    -0.8128    27.1409   567.8156 </r>
       <r>    -0.7185    32.1504   570.8478 </r>
       <r>    -0.6241    35.5532   574.2010 </r>
       <r>    -0.5298    33.0162   577.3149 </r>
       <r>    -0.4355    27.1006   579.8708 </r>
       <r>    -0.3412    18.2576   581.5928 </r>
       <r>    -0.2469    12.9953   582.8184 </r>
       <r>    -0.1526    13.4781   584.0896 </r>
       <r>    -0.0583    14.7193   585.4778 </r>
       <r>     0.0361    16.9002   587.0717 </r>
       <r>     0.1304    15.1958   588.5049 </r>
       <r>     0.2247    17.5249   590.1578 </r>
       <r>     0.3190    19.5945   592.0058 </r>
       <r>     0.4133    14.6961   593.3918 </r>
       <r>     0.5076    13.0050   594.6184 </r>
       <r>     0.6019    15.7999   596.1085 </r>
       <r>     0.6963    16.1939   597.6358 </r>
       <r>     0.7906    12.7786   598.8410 </r>
       <r>     0.8849     9.9072   599.7754 </r>
       <r>     0.9792     9.9375   600.7127 </r>
       <r>     1.0735    10.4389   601.6972 </r>
       <r>     1.1678    11.7650   602.8068 </r>
       <r>     1.2621    12.2611   603.9632 </r>
       <r>     1.3564     9.5759   604.8663 </r>
       <r>     1.4508     7.9086   605.6122 </r>
       <r>     1.5451    18.1782   607.3267 </r>
       <r>     1.6394    27.7582   609.9447 </r>
       <r>     1.7337    23.3957   612.1512 </r>
       <r>     1.8280    15.3470   613.5986 </r>
       <r>     1.9223    11.9033   614.7213 </r>
       <r>     2.0166    13.7870   616.0216 </r>
       <r>     2.1110    11.8394   617.1382 </r>
       <r>     2.2053     9.4373   618.0283 </r>
       <r>     2.2996    10.8654   619.0530 </r>
       <r>     2.3939     7.7273   619.7818 </r>
       <r>     2.4882     3.9960   620.1587 </r>
       <r>     2.5825     7.7627   620.8908 </r>
       <r>     2.6768    13.2359   622.1391 </r>
       <r>     2.7712    12.1251   623.2827 </r>
       <r>     2.8655    13.2811   624.5353 </r>
       <r>     2.9598    14.4289   625.8962 </r>
       <r>     3.0541    15.7600   627.3825 </r>
       <r>     3.1484    15.9622   628.8880 </r>
       <r>     3.2427     9.5219   629.7860 </r>
       <r>     3.3370     6.8729   630.4343 </r>
       <r>     3.4314    11.4024   631.5097 </r>
       <r>     3.5257    14.2655   632.8551 </r>
       <r>     3.6200    17.1762   634.4750 </r>
       <r>     3.7143    20.3559   636.3949 </r>
       <r>     3.8086    24.2690   638.6838 </r>
       <r>     3.9029    23.8119   640.9296 </r>
       <r>     3.9972    22.1626   643.0198 </r>
       <r>     4.0915    22.5178   645.1436 </r>
       <r>     4.1859    20.2501   647.0534 </r>
       <r>     4.2802    17.2680   648.6820 </r>
       <r>     4.3745    18.4844   650.4254 </r>
       <r>     4.4688    23.2019   652.6136 </r>
       <r>     4.5631    26.4487   655.1081 </r>
       <r>     4.6574    27.8719   657.7368 </r>
       <r>     4.7517    28.8640   660.4591 </r>
       <r>     4.8461    27.6239   663.0644 </r>
       <r>     4.9404    25.8807   665.5053 </r>
       <r>     5.0347    29.8092   668.3167 </r>
       <r>     5.1290    26.0726   670.7757 </r>
       <r>     5.2233    11.0253   671.8156 </r>
       <r>     5.3176     1.8620   671.9912 </r>
       <r>     5.4119     0.0925   671.9999 </r>
       <r>     5.5063     0.0011   672.0000 </r>
       <r>     5.6006     0.0000   672.0000 </r>
       <r>     5.6949     0.0000   672.0000 </r>
       <r>     5.7892     0.0000   672.0000 </r>
       <r>     5.8835     0.0000   672.0000 </r>
       <r>     5.9778     0.0000   672.0000 </r>
       <r>     6.0721     0.0000   672.0000 </r>
       <r>     6.1665     0.0000   672.0000 </r>
       <r>     6.2608     0.0000   672.0000 </r>
       <r>     6.3551     0.0000   672.0000 </r>
       <r>     6.4494     0.0000   672.0000 </r>
      </set>
     </set>
    </array>
   </total>
  </dos>
 </calculation>
 <structure name="finalpos" >
  <crystal>
   <varray name="basis" >
    <v>      11.00258152       0.00000000       0.00000000 </v>
    <v>       5.50129076       9.52851510       0.00000000 </v>
    <v>       0.00000000       0.00000000      26.19178509 </v>
   </varray>
   <i name="volume">   2745.90128299 </i>
   <varray name="rec_basis" >
    <v>       0.09088776      -0.05247407       0.00000000 </v>
    <v>       0.00000000       0.10494815       0.00000000 </v>
    <v>       0.00000000       0.00000000       0.03817991 </v>
   </varray>
  </crystal>
  <varray name="positions" >
   <v>       0.08333333       0.08333333       0.38179910 </v>
   <v>       0.16311790       0.66897313       0.48122910 </v>
   <v>       0.33333333       0.58333333       0.38179910 </v>
   <v>       0.83333333       0.83333333       0.38179910 </v>
   <v>       0.83333333       0.58333333       0.38179910 </v>
   <v>       0.08333333       0.33333333       0.38179910 </v>
   <v>       0.91878419       0.41647186       0.48262559 </v>
   <v>       0.66836285       0.41890698       0.47702763 </v>
   <v>       0.83333333       0.33333333       0.38179910 </v>
   <v>       0.08333333       0.58333333       0.38179910 </v>
   <v>       0.66807102       0.16194760       0.47692761 </v>
   <v>       0.08333333       0.83333333       0.38179910 </v>
   <v>       0.83333333       0.08333333       0.38179910 </v>
   <v>       0.41546074       0.91793772       0.47900839 </v>
   <v>       0.58333333       0.83333333       0.38179910 </v>
   <v>       0.33333333       0.08333333       0.38179910 </v>
   <v>       0.58333333       0.58333333       0.38179910 </v>
   <v>       0.41287569       0.41780211       0.47755226 </v>
   <v>       0.58333333       0.33333333       0.38179910 </v>
   <v>       0.33333333       0.33333333       0.38179910 </v>
   <v>       0.16508584       0.41447874       0.48507416 </v>
   <v>       0.58333333       0.08333333       0.38179910 </v>
   <v>       0.33333333       0.83333333       0.38179910 </v>
   <v>       0.91808921       0.91491582       0.48351537 </v>
   <v>       0.11197256       0.57036871       0.62203840 </v>
   <v>       0.10643197       0.83170761       0.61627190 </v>
   <v>       0.33832161       0.08224344       0.61630461 </v>
   <v>       0.08482770       0.32617096       0.61846130 </v>
   <v>       0.07595322       0.08639673       0.61574497 </v>
   <v>       0.81567151       0.86647648       0.62072048 </v>
   <v>       0.81504218       0.57111275       0.61926939 </v>
   <v>       0.56456953       0.83058230       0.61391258 </v>
   <v>       0.66675125       0.91355160       0.48155285 </v>
   <v>       0.16715006       0.91863363       0.47883362 </v>
   <v>       0.26210115       0.74295839       0.56764833 </v>
   <v>       0.74805186       0.75201371       0.57961504 </v>
   <v>       0.25765192       0.25597959       0.57649492 </v>
   <v>       0.41560145       0.16401602       0.47924326 </v>
   <v>       0.50345786       0.00472193       0.57158481 </v>
   <v>       0.92176470       0.16398229       0.47885151 </v>
   <v>       0.25267256      -0.00659052       0.57208984 </v>
   <v>       0.50226626       0.25256674       0.56470042 </v>
   <v>      -0.00848140       0.00399858       0.57282252 </v>
   <v>       0.16701407       0.16509969       0.47805048 </v>
   <v>       0.00146036       0.75137865       0.58268156 </v>
   <v>       0.50198062       0.49644835       0.56461650 </v>
   <v>       0.74048310       0.49579183       0.56984142 </v>
   <v>       0.26514719       0.49513470       0.57334699 </v>
   <v>       0.49759729       0.74183053       0.56538665 </v>
   <v>      -0.00132450       0.50363902       0.58176179 </v>
   <v>       0.91345356       0.66813711       0.48599229 </v>
   <v>       0.74103723       0.01585213       0.57170515 </v>
   <v>       0.66793186       0.66864512       0.47736903 </v>
   <v>      -0.01146666       0.25554784       0.57313780 </v>
   <v>       0.74523143       0.25209651       0.56417643 </v>
   <v>       0.41555219       0.66908281       0.47745048 </v>
  </varray>
  <varray name="selective"  type="logical" >
   <v type="logical" >  F  F  F </v>
   <v type="logical" >  T  T  T </v>
   <v type="logical" >  F  F  F </v>
   <v type="logical" >  F  F  F </v>
   <v type="logical" >  F  F  F </v>
   <v type="logical" >  F  F  F </v>
   <v type="logical" >  T  T  T </v>
   <v type="logical" >  T  T  T </v>
   <v type="logical" >  F  F  F </v>
   <v type="logical" >  F  F  F </v>
   <v type="logical" >  T  T  T </v>
   <v type="logical" >  F  F  F </v>
   <v type="logical" >  F  F  F </v>
   <v type="logical" >  T  T  T </v>
   <v type="logical" >  F  F  F </v>
   <v type="logical" >  F  F  F </v>
   <v type="logical" >  F  F  F </v>
   <v type="logical" >  T  T  T </v>
   <v type="logical" >  F  F  F </v>
   <v type="logical" >  F  F  F </v>
   <v type="logical" >  T  T  T </v>
   <v type="logical" >  F  F  F </v>
   <v type="logical" >  F  F  F </v>
   <v type="logical" >  T  T  T </v>
   <v type="logical" >  T  T  T </v>
   <v type="logical" >  T  T  T </v>
   <v type="logical" >  T  T  T </v>
   <v type="logical" >  T  T  T </v>
   <v type="logical" >  T  T  T </v>
   <v type="logical" >  T  T  T </v>
   <v type="logical" >  T  T  T </v>
   <v type="logical" >  T  T  T </v>
   <v type="logical" >  T  T  T </v>
   <v type="logical" >  T  T  T </v>
   <v type="logical" >  T  T  T </v>
   <v type="logical" >  T  T  T </v>
   <v type="logical" >  T  T  T </v>
   <v type="logical" >  T  T  T </v>
   <v type="logical" >  T  T  T </v>
   <v type="logical" >  T  T  T </v>
   <v type="logical" >  T  T  T </v>
   <v type="logical" >  T  T  T </v>
   <v type="logical" >  T  T  T </v>
   <v type="logical" >  T  T  T </v>
   <v type="logical" >  T  T  T </v>
   <v type="logical" >  T  T  T </v>
   <v type="logical" >  T  T  T </v>
   <v type="logical" >  T  T  T </v>
   <v type="logical" >  T  T  T </v>
   <v type="logical" >  T  T  T </v>
   <v type="logical" >  T  T  T </v>
   <v type="logical" >  T  T  T </v>
   <v type="logical" >  T  T  T </v>
   <v type="logical" >  T  T  T </v>
   <v type="logical" >  T  T  T </v>
   <v type="logical" >  T  T  T </v>
  </varray>
  <nose>
   <v>      -3.00000000       0.00000000       0.00010000       0.00010000 </v>
  </nose>
 </structure>
</modeling>
