unknown system                          
           1
    11.002582    0.000000    0.000000
     5.501291    9.528515    0.000000
     0.000000    0.000000   26.191785
   Au   O    Pd
  24   8  24
Direct configuration=     1
   0.08333333  0.08333333  0.38179910
   0.16666667  0.66666667  0.46754708
   0.33333333  0.58333333  0.38179910
   0.83333333  0.83333333  0.38179910
   0.83333333  0.58333333  0.38179910
   0.08333333  0.33333333  0.38179910
   0.91666667  0.41666667  0.46754708
   0.66666667  0.41666667  0.46754708
   0.83333333  0.33333333  0.38179910
   0.08333333  0.58333333  0.38179910
   0.66666667  0.16666667  0.46754708
   0.08333333  0.83333333  0.38179910
   0.83333333  0.08333333  0.38179910
   0.41666667  0.91666667  0.46754708
   0.58333333  0.83333333  0.38179910
   0.33333333  0.08333333  0.38179910
   0.58333333  0.58333333  0.38179910
   0.41666667  0.41666667  0.46754708
   0.58333333  0.33333333  0.38179910
   0.33333333  0.33333333  0.38179910
   0.16666667  0.41666667  0.46754708
   0.58333333  0.08333333  0.38179910
   0.33333333  0.83333333  0.38179910
   0.91666667  0.91666667  0.46754708
   0.08333333  0.58333333  0.61820090
   0.08333333  0.83333333  0.61820090
   0.33333333  0.08333333  0.61820090
   0.08333333  0.33333333  0.61820090
   0.08333333  0.08333333  0.61820090
   0.83333333  0.83333333  0.61820090
   0.83333333  0.58333333  0.61820090
   0.58333333  0.83333333  0.61820090
   0.66666667  0.91666667  0.46754708
   0.16666667  0.91666667  0.46754708
   0.25000000  0.75000000  0.55329505
   0.75000000  0.75000000  0.55329505
   0.25000000  0.25000000  0.55329505
   0.41666667  0.16666667  0.46754708
   0.50000000  0.00000000  0.55329505
   0.91666667  0.16666667  0.46754708
   0.25000000  0.00000000  0.55329505
   0.50000000  0.25000000  0.55329505
   0.00000000  0.00000000  0.55329505
   0.16666667  0.16666667  0.46754708
   0.00000000  0.75000000  0.55329505
   0.50000000  0.50000000  0.55329505
   0.75000000  0.50000000  0.55329505
   0.25000000  0.50000000  0.55329505
   0.50000000  0.75000000  0.55329505
   0.00000000  0.50000000  0.55329505
   0.91666667  0.66666667  0.46754708
   0.75000000  0.00000000  0.55329505
   0.66666667  0.66666667  0.46754708
   0.00000000  0.25000000  0.55329505
   0.75000000  0.25000000  0.55329505
   0.41666667  0.66666667  0.46754708
Direct configuration=     2
   0.08333333  0.08333333  0.38179910
   0.16649371  0.66780424  0.46873505
   0.33333333  0.58333333  0.38179910
   0.83333333  0.83333333  0.38179910
   0.83333333  0.58333333  0.38179910
   0.08333333  0.33333333  0.38179910
   0.91710371  0.41632391  0.46894411
   0.66689245  0.41782127  0.46911120
   0.83333333  0.33333333  0.38179910
   0.08333333  0.58333333  0.38179910
   0.66690529  0.16530227  0.46911024
   0.08333333  0.83333333  0.38179910
   0.83333333  0.08333333  0.38179910
   0.41616869  0.91690778  0.46871538
   0.58333333  0.83333333  0.38179910
   0.33333333  0.08333333  0.38179910
   0.58333333  0.58333333  0.38179910
   0.41631516  0.41684329  0.46910759
   0.58333333  0.33333333  0.38179910
   0.33333333  0.33333333  0.38179910
   0.16657651  0.41536039  0.46896912
   0.58333333  0.08333333  0.38179910
   0.33333333  0.83333333  0.38179910
   0.91707125  0.91658941  0.46894106
   0.08580272  0.58207748  0.61424717
   0.08443074  0.83321701  0.61405581
   0.33419462  0.08322247  0.61411635
   0.08339285  0.33331598  0.61425581
   0.08232072  0.08327165  0.61408415
   0.83194007  0.83590230  0.61429656
   0.83197112  0.58200577  0.61427775
   0.58240103  0.83312667  0.61407203
   0.66638740  0.91587407  0.46858722
   0.16700108  0.91755432  0.46837919
   0.24971191  0.75026026  0.55539623
   0.74932751  0.75036816  0.55725117
   0.25022798  0.24932326  0.55667486
   0.41634940  0.16580834  0.46879075
   0.49979687  0.00005570  0.55638908
   0.91844895  0.16583731  0.46875781
   0.24931907  0.00092272  0.55675113
   0.50035031  0.25005743  0.55417192
   0.00087210 -0.00007505  0.55656735
   0.16681580  0.16581619  0.46798691
   0.00028242  0.75030308  0.55780865
   0.50001259  0.50011216  0.55412699
   0.74995013  0.50113543  0.55570677
   0.24927864  0.50060327  0.55587106
   0.50065944  0.74962657  0.55534804
   0.00014855  0.49951087  0.55763407
   0.91533448  0.66734348  0.46881162
   0.75007938 -0.00105031  0.55567936
   0.66659866  0.66752963  0.46832195
   0.00046459  0.24925568  0.55665724
   0.74951559  0.25018647  0.55415854
   0.41639150  0.66796162  0.46901974
Direct configuration=     3
   0.08333333  0.08333333  0.38179910
   0.16597486  0.67121696  0.47229898
   0.33333333  0.58333333  0.38179910
   0.83333333  0.83333333  0.38179910
   0.83333333  0.58333333  0.38179910
   0.08333333  0.33333333  0.38179910
   0.91841484  0.41529563  0.47313521
   0.66756979  0.42128509  0.47380359
   0.83333333  0.33333333  0.38179910
   0.08333333  0.58333333  0.38179910
   0.66762117  0.16120910  0.47379972
   0.08333333  0.83333333  0.38179910
   0.83333333  0.08333333  0.38179910
   0.41467477  0.91763113  0.47222028
   0.58333333  0.83333333  0.38179910
   0.33333333  0.08333333  0.38179910
   0.58333333  0.58333333  0.38179910
   0.41526066  0.41737317  0.47378912
   0.58333333  0.33333333  0.38179910
   0.33333333  0.33333333  0.38179910
   0.16630604  0.41144158  0.47323526
   0.58333333  0.08333333  0.38179910
   0.33333333  0.83333333  0.38179910
   0.91828499  0.91635764  0.47312302
   0.09321088  0.57830990  0.60238599
   0.08772294  0.83286803  0.60162055
   0.33677850  0.08288987  0.60186269
   0.08357139  0.33326392  0.60242056
   0.07928290  0.08308661  0.60173390
   0.82776026  0.84360922  0.60258355
   0.82788450  0.57802310  0.60250829
   0.57960410  0.83250666  0.60168540
   0.66554959  0.91349629  0.47170766
   0.16800430  0.92021730  0.47087555
   0.24884764  0.75104105  0.56169978
   0.74731003  0.75147262  0.56911954
   0.25091194  0.24729303  0.56681430
   0.41539760  0.16323337  0.47252178
   0.49918749  0.00022282  0.56567118
   0.92379580  0.16334922  0.47239001
   0.24727630  0.00369087  0.56711937
   0.50140125  0.25022971  0.55680251
   0.00348839 -0.00030019  0.56638426
   0.16726321  0.16326476  0.46930640
   0.00112966  0.75121231  0.57134944
   0.50005036  0.50044863  0.55662279
   0.74980052  0.50454174  0.56294191
   0.24711458  0.50241309  0.56359910
   0.50263774  0.74850629  0.56150699
   0.00059419  0.49804349  0.57065114
   0.91133793  0.66937392  0.47260527
   0.75031751 -0.00420124  0.56283229
   0.66639466  0.67011852  0.47064656
   0.00185836  0.24702273  0.56674379
   0.74806236  0.25074590  0.55674902
   0.41556600  0.67184647  0.47343773
Direct configuration=     4
   0.08333333  0.08333333  0.38179910
   0.16629651  0.66910135  0.47008963
   0.33333333  0.58333333  0.38179910
   0.83333333  0.83333333  0.38179910
   0.83333333  0.58333333  0.38179910
   0.08333333  0.33333333  0.38179910
   0.91760205  0.41593308  0.47053707
   0.66714989  0.41913780  0.47089469
   0.83333333  0.33333333  0.38179910
   0.08333333  0.58333333  0.38179910
   0.66717738  0.16374654  0.47089262
   0.08333333  0.83333333  0.38179910
   0.83333333  0.08333333  0.38179910
   0.41560088  0.91718271  0.47004752
   0.58333333  0.83333333  0.38179910
   0.33333333  0.08333333  0.38179910
   0.58333333  0.58333333  0.38179910
   0.41591437  0.41704469  0.47088695
   0.58333333  0.33333333  0.38179910
   0.33333333  0.33333333  0.38179910
   0.16647371  0.41387093  0.47059060
   0.58333333  0.08333333  0.38179910
   0.33333333  0.83333333  0.38179910
   0.91753257  0.91650132  0.47053054
   0.08861842  0.58064549  0.60973897
   0.08568204  0.83308437  0.60932941
   0.33517671  0.08309605  0.60945897
   0.08346071  0.33329619  0.60975746
   0.08116611  0.08320132  0.60939006
   0.83035140  0.83883155  0.60984467
   0.83041788  0.58049204  0.60980440
   0.58133797  0.83289101  0.60936411
   0.66606896  0.91497032  0.46977324
   0.16738238  0.91856647  0.46932801
   0.24938342  0.75055703  0.55779209
   0.74856070  0.75078794  0.56176211
   0.25048794  0.24855161  0.56052867
   0.41598764  0.16482964  0.47020884
   0.49956526  0.00011922  0.55991703
   0.92048119  0.16489163  0.47013834
   0.24854265  0.00197484  0.56069190
   0.50074975  0.25012291  0.55517176
   0.00186650 -0.00016062  0.56029857
   0.16698585  0.16484644  0.46848842
   0.00060444  0.75064866  0.56295525
   0.50002695  0.50024005  0.55507560
   0.74989327  0.50243011  0.55845671
   0.24845612  0.50129115  0.55880834
   0.50141135  0.74920078  0.55768894
   0.00031793  0.49895315  0.56258161
   0.91381547  0.66811521  0.47025352
   0.75016989 -0.00224792  0.55839805
   0.66652113  0.66851362  0.46920549
   0.00099433  0.24840698  0.56049094
   0.74896324  0.25039910  0.55514314
   0.41607774  0.66943818  0.47069893
Direct configuration=     5
   0.08333333  0.08333333  0.38179910
   0.16617018  0.66993229  0.47095738
   0.33333333  0.58333333  0.38179910
   0.83333333  0.83333333  0.38179910
   0.83333333  0.58333333  0.38179910
   0.08333333  0.33333333  0.38179910
   0.91792129  0.41568271  0.47155753
   0.66731482  0.41998118  0.47203720
   0.83333333  0.33333333  0.38179910
   0.08333333  0.58333333  0.38179910
   0.66735168  0.16274992  0.47203443
   0.08333333  0.83333333  0.38179910
   0.83333333  0.08333333  0.38179910
   0.41523714  0.91735884  0.47090090
   0.58333333  0.83333333  0.38179910
   0.33333333  0.08333333  0.38179910
   0.58333333  0.58333333  0.38179910
   0.41565761  0.41717370  0.47202682
   0.58333333  0.33333333  0.38179910
   0.33333333  0.33333333  0.38179910
   0.16640785  0.41291676  0.47162933
   0.58333333  0.08333333  0.38179910
   0.33333333  0.83333333  0.38179910
   0.91782809  0.91644488  0.47154878
   0.09042217  0.57972816  0.60685097
   0.08648363  0.83299940  0.60630164
   0.33580583  0.08301507  0.60647542
   0.08350418  0.33328352  0.60687578
   0.08042645  0.08315627  0.60638298
   0.82933369  0.84070805  0.60699275
   0.82942285  0.57952232  0.60693875
   0.58065697  0.83274005  0.60634818
   0.66586497  0.91439137  0.47053301
   0.16762665  0.91921486  0.46993583
   0.24917299  0.75074713  0.55932689
   0.74806948  0.75105686  0.56465186
   0.25065447  0.24805728  0.56299745
   0.41575589  0.16420268  0.47111728
   0.49941688  0.00015991  0.56217706
   0.92178305  0.16428583  0.47102272
   0.24804527  0.00264884  0.56321639
   0.50100564  0.25016486  0.55581226
   0.00250352 -0.00021544  0.56268882
   0.16709479  0.16422521  0.46880970
   0.00081073  0.75087004  0.56625219
   0.50003614  0.50032197  0.55568328
   0.74985684  0.50325948  0.56021834
   0.24792921  0.50173181  0.56068998
   0.50189303  0.74892801  0.55918854
   0.00042644  0.49859587  0.56575104
   0.91284238  0.66860959  0.47117720
   0.75022787 -0.00301511  0.56013967
   0.66647145  0.66914397  0.46977149
   0.00133369  0.24786329  0.56294684
   0.74860941  0.25053531  0.55577387
   0.41587675  0.67038407  0.47177464
Direct configuration=     6
   0.08333333  0.08333333  0.38179910
   0.16620890  0.66967760  0.47069141
   0.33333333  0.58333333  0.38179910
   0.83333333  0.83333333  0.38179910
   0.83333333  0.58333333  0.38179910
   0.08333333  0.33333333  0.38179910
   0.91782344  0.41575945  0.47124475
   0.66726427  0.41972268  0.47168701
   0.83333333  0.33333333  0.38179910
   0.08333333  0.58333333  0.38179910
   0.66729826  0.16305539  0.47168446
   0.08333333  0.83333333  0.38179910
   0.83333333  0.08333333  0.38179910
   0.41534863  0.91730485  0.47063934
   0.58333333  0.83333333  0.38179910
   0.33333333  0.08333333  0.38179910
   0.58333333  0.58333333  0.38179910
   0.41573631  0.41713416  0.47167744
   0.58333333  0.33333333  0.38179910
   0.33333333  0.33333333  0.38179910
   0.16642804  0.41320922  0.47131095
   0.58333333  0.08333333  0.38179910
   0.33333333  0.83333333  0.38179910
   0.91773751  0.91646218  0.47123668
   0.08986931  0.58000933  0.60773616
   0.08623794  0.83302544  0.60722967
   0.33561300  0.08303989  0.60738990
   0.08349086  0.33328740  0.60775904
   0.08065316  0.08317008  0.60730467
   0.82964563  0.84013289  0.60786688
   0.82972783  0.57981955  0.60781709
   0.58086570  0.83278632  0.60727258
   0.66592750  0.91456882  0.47030014
   0.16755178  0.91901612  0.46974953
   0.24923749  0.75068886  0.55885647
   0.74822004  0.75097444  0.56376613
   0.25060343  0.24820879  0.56224075
   0.41582692  0.16439485  0.47083884
   0.49946236  0.00014744  0.56148435
   0.92138402  0.16447151  0.47075165
   0.24819772  0.00244225  0.56244261
   0.50092721  0.25015200  0.55561594
   0.00230827 -0.00019863  0.56195619
   0.16706140  0.16441562  0.46871122
   0.00074750  0.75080219  0.56524166
   0.50003332  0.50029686  0.55549702
   0.74986800  0.50300527  0.55967839
   0.24809071  0.50159675  0.56011325
   0.50174540  0.74901161  0.55872890
   0.00039318  0.49870538  0.56477959
   0.91314064  0.66845806  0.47089409
   0.75021010 -0.00277996  0.55960585
   0.66648668  0.66895076  0.46959801
   0.00122968  0.24802994  0.56219409
   0.74871786  0.25049356  0.55558055
   0.41593835  0.67009415  0.47144493
Direct configuration=     7
   0.08333333  0.08333333  0.38179910
   0.16554407  0.66964331  0.47224912
   0.33333333  0.58333333  0.38179910
   0.83333333  0.83333333  0.38179910
   0.83333333  0.58333333  0.38179910
   0.08333333  0.33333333  0.38179910
   0.91817829  0.41564796  0.47316422
   0.66809268  0.41986156  0.47266383
   0.83333333  0.33333333  0.38179910
   0.08333333  0.58333333  0.38179910
   0.66802014  0.16196925  0.47262455
   0.08333333  0.83333333  0.38179910
   0.83333333  0.08333333  0.38179910
   0.41531919  0.91768169  0.47232305
   0.58333333  0.83333333  0.38179910
   0.33333333  0.08333333  0.38179910
   0.58333333  0.58333333  0.38179910
   0.41448581  0.41765655  0.47262562
   0.58333333  0.33333333  0.38179910
   0.33333333  0.33333333  0.38179910
   0.16611222  0.41351514  0.47329177
   0.58333333  0.08333333  0.38179910
   0.33333333  0.83333333  0.38179910
   0.91822317  0.91615460  0.47318521
   0.09445197  0.57750910  0.60766205
   0.08988101  0.83314504  0.60676700
   0.33675597  0.08325297  0.60677151
   0.08431152  0.33142311  0.60730909
   0.07929420  0.08381667  0.60705949
   0.82681833  0.84504398  0.60742232
   0.82713163  0.57781135  0.60743213
   0.57795728  0.83269098  0.60625741
   0.66555791  0.91436941  0.47177503
   0.16745744  0.91944989  0.47117276
   0.25520600  0.74782784  0.55956057
   0.74819899  0.75128550  0.56421318
   0.25386703  0.25147966  0.56299014
   0.41566623  0.16360344  0.47227199
   0.50153250  0.00250333  0.56225203
   0.92184782  0.16416744  0.47221292
   0.25224281 -0.00420643  0.56315811
   0.50116339  0.25027036  0.55702431
  -0.00359833  0.00241402  0.56230353
   0.16720639  0.16417440  0.47011127
   0.00021039  0.75109194  0.56548694
   0.49979407  0.50076628  0.55700322
   0.74696980  0.49983998  0.56043800
   0.25434998  0.49839619  0.56082374
   0.49874507  0.74651200  0.55949158
   0.00029296  0.49887273  0.56495716
   0.91353796  0.66832334  0.47283045
   0.74734195  0.00296052  0.56028645
   0.66652889  0.66928596  0.47078342
  -0.00550926  0.25183551  0.56285134
   0.74841632  0.25055619  0.55679506
   0.41565204  0.67101335  0.47290377
Direct configuration=     8
   0.08333333  0.08333333  0.38179910
   0.16469052  0.66959928  0.47424902
   0.33333333  0.58333333  0.38179910
   0.83333333  0.83333333  0.38179910
   0.83333333  0.58333333  0.38179910
   0.08333333  0.33333333  0.38179910
   0.91863389  0.41550482  0.47562859
   0.66915627  0.42003986  0.47391794
   0.83333333  0.33333333  0.38179910
   0.08333333  0.58333333  0.38179910
   0.66894695  0.16057478  0.47383152
   0.08333333  0.83333333  0.38179910
   0.83333333  0.08333333  0.38179910
   0.41528141  0.91816550  0.47448473
   0.58333333  0.83333333  0.38179910
   0.33333333  0.08333333  0.38179910
   0.58333333  0.58333333  0.38179910
   0.41288032  0.41832723  0.47384296
   0.58333333  0.33333333  0.38179910
   0.33333333  0.33333333  0.38179910
   0.16570676  0.41390791  0.47583491
   0.58333333  0.08333333  0.38179910
   0.33333333  0.83333333  0.38179910
   0.91884670  0.91575971  0.47568689
   0.10033555  0.57429911  0.60756690
   0.09455827  0.83329859  0.60617300
   0.33822340  0.08352654  0.60597757
   0.08536515  0.32902958  0.60673141
   0.07754946  0.08464681  0.60674472
   0.82318843  0.85134922  0.60685155
   0.82379840  0.57523308  0.60693789
   0.57422322  0.83256856  0.60495405
   0.66508341  0.91411339  0.47366860
   0.16733632  0.92000680  0.47300001
   0.26286886  0.74415462  0.56046456
   0.74817196  0.75168487  0.56478714
   0.25805710  0.25567906  0.56395227
   0.41545992  0.16258736  0.47411198
   0.50419032  0.00552802  0.56323765
   0.92244328  0.16377704  0.47408901
   0.25743623 -0.01274254  0.56407673
   0.50146661  0.25042233  0.55883249
  -0.01118170  0.00576834  0.56274948
   0.16739255  0.16386470  0.47190875
  -0.00047919  0.75146396  0.56580186
   0.49948690  0.50136895  0.55893699
   0.74324885  0.49577612  0.56141325
   0.26238612  0.49428707  0.56173593
   0.49489301  0.74330279  0.56047078
   0.00016429  0.49908760  0.56518515
   0.91404807  0.66815038  0.47531650
   0.74365959  0.01033061  0.56116025
   0.66658309  0.66971632  0.47230534
  -0.01416125  0.25672141  0.56369517
   0.74802917  0.25063660  0.55835435
   0.41528444  0.67219349  0.47477675
Direct configuration=     9
   0.08333333  0.08333333  0.38179910
   0.16454926  0.66975505  0.47549564
   0.33333333  0.58333333  0.38179910
   0.83333333  0.83333333  0.38179910
   0.83333333  0.58333333  0.38179910
   0.08333333  0.33333333  0.38179910
   0.91874891  0.41593731  0.47640165
   0.66799378  0.41926462  0.47409363
   0.83333333  0.33333333  0.38179910
   0.08333333  0.58333333  0.38179910
   0.66786742  0.16236790  0.47390797
   0.08333333  0.83333333  0.38179910
   0.83333333  0.08333333  0.38179910
   0.41573608  0.91799297  0.47542183
   0.58333333  0.83333333  0.38179910
   0.33333333  0.08333333  0.38179910
   0.58333333  0.58333333  0.38179910
   0.41471939  0.41739897  0.47405565
   0.58333333  0.33333333  0.38179910
   0.33333333  0.33333333  0.38179910
   0.16543642  0.41419522  0.47672448
   0.58333333  0.08333333  0.38179910
   0.33333333  0.83333333  0.38179910
   0.91878077  0.91519856  0.47645389
   0.10451027  0.57249938  0.60770383
   0.09808156  0.83256665  0.60554232
   0.33711740  0.08489231  0.60628448
   0.08587929  0.32747239  0.60653100
   0.07635644  0.08547815  0.60607370
   0.82032166  0.85678515  0.60758751
   0.82156575  0.57329666  0.60721370
   0.57140631  0.83154059  0.60492010
   0.66567109  0.91389184  0.47467704
   0.16728363  0.91947022  0.47410051
   0.26115087  0.74349003  0.56201519
   0.74688939  0.75109954  0.56481679
   0.25848035  0.25547238  0.56543632
   0.41572015  0.16318900  0.47476825
   0.50694007  0.00586152  0.56367552
   0.92175862  0.16411560  0.47464683
   0.25567543 -0.01240200  0.56535254
   0.50347277  0.25204802  0.56037697
  -0.01107952  0.00581618  0.56421407
   0.16733142  0.16417090  0.47341379
   0.00300376  0.75032086  0.56656591
   0.50135611  0.49785129  0.56068807
   0.73952391  0.49560185  0.56286057
   0.26533934  0.49447098  0.56347653
   0.49713923  0.74157938  0.56179953
   0.00019823  0.49984985  0.56591636
   0.91416874  0.66810975  0.47654746
   0.74109159  0.01463060  0.56264580
   0.66668348  0.66971153  0.47343774
  -0.01368952  0.25547235  0.56530850
   0.74431242  0.25239806  0.55985854
   0.41567308  0.67098776  0.47462291
Direct configuration=    10
   0.08333333  0.08333333  0.38179910
   0.16453452  0.66977130  0.47562572
   0.33333333  0.58333333  0.38179910
   0.83333333  0.83333333  0.38179910
   0.83333333  0.58333333  0.38179910
   0.08333333  0.33333333  0.38179910
   0.91876091  0.41598244  0.47648231
   0.66787248  0.41918373  0.47411196
   0.83333333  0.33333333  0.38179910
   0.08333333  0.58333333  0.38179910
   0.66775477  0.16255501  0.47391595
   0.08333333  0.83333333  0.38179910
   0.83333333  0.08333333  0.38179910
   0.41578353  0.91797496  0.47551961
   0.58333333  0.83333333  0.38179910
   0.33333333  0.08333333  0.38179910
   0.58333333  0.58333333  0.38179910
   0.41491129  0.41730211  0.47407784
   0.58333333  0.33333333  0.38179910
   0.33333333  0.33333333  0.38179910
   0.16540821  0.41422520  0.47681731
   0.58333333  0.08333333  0.38179910
   0.33333333  0.83333333  0.38179910
   0.91877389  0.91514000  0.47653392
   0.10494589  0.57231158  0.60771812
   0.09844921  0.83249027  0.60547651
   0.33700199  0.08503482  0.60631650
   0.08593294  0.32730990  0.60651009
   0.07623195  0.08556490  0.60600368
   0.82002252  0.85735238  0.60766431
   0.82133278  0.57309459  0.60724248
   0.57111237  0.83143333  0.60491656
   0.66573242  0.91386872  0.47478227
   0.16727813  0.91941423  0.47421534
   0.26097160  0.74342068  0.56217700
   0.74675556  0.75103846  0.56481989
   0.25852452  0.25545082  0.56559117
   0.41574731  0.16325179  0.47483673
   0.50722700  0.00589632  0.56372121
   0.92168718  0.16415093  0.47470504
   0.25549169 -0.01236646  0.56548567
   0.50368210  0.25221766  0.56053813
  -0.01106885  0.00582117  0.56436690
   0.16732504  0.16420286  0.47357083
   0.00336720  0.75020158  0.56664564
   0.50155115  0.49748422  0.56087079
   0.73913522  0.49558366  0.56301160
   0.26564750  0.49449017  0.56365816
   0.49737362  0.74139954  0.56193818
   0.00020177  0.49992939  0.56599266
   0.91418133  0.66810551  0.47667591
   0.74082363  0.01507930  0.56280081
   0.66669395  0.66971103  0.47355590
  -0.01364030  0.25534201  0.56547685
   0.74392459  0.25258186  0.56001550
   0.41571364  0.67086195  0.47460686
Direct configuration=    11
   0.08333333  0.08333333  0.38179910
   0.16549112  0.66900176  0.47606153
   0.33333333  0.58333333  0.38179910
   0.83333333  0.83333333  0.38179910
   0.83333333  0.58333333  0.38179910
   0.08333333  0.33333333  0.38179910
   0.91776383  0.41635709  0.47680435
   0.66709948  0.41876229  0.47405695
   0.83333333  0.33333333  0.38179910
   0.08333333  0.58333333  0.38179910
   0.66713211  0.16373342  0.47373107
   0.08333333  0.83333333  0.38179910
   0.83333333  0.08333333  0.38179910
   0.41593395  0.91751082  0.47599244
   0.58333333  0.83333333  0.38179910
   0.33333333  0.08333333  0.38179910
   0.58333333  0.58333333  0.38179910
   0.41596399  0.41687335  0.47418520
   0.58333333  0.33333333  0.38179910
   0.33333333  0.33333333  0.38179910
   0.16616279  0.41442004  0.47711230
   0.58333333  0.08333333  0.38179910
   0.33333333  0.83333333  0.38179910
   0.91767029  0.91567014  0.47677343
   0.10629140  0.57175667  0.60874306
   0.09879728  0.83226790  0.60680691
   0.33771467  0.08435084  0.60730878
   0.08565025  0.32801527  0.60743567
   0.07665715  0.08541420  0.60735550
   0.81921245  0.85927165  0.60832585
   0.82048225  0.57267134  0.60793383
   0.57096616  0.83147153  0.60594463
   0.66661393  0.91413033  0.47515733
   0.16746827  0.91877951  0.47480358
   0.26310537  0.74148120  0.56255503
   0.74686259  0.75076127  0.56548871
   0.25871670  0.25507850  0.56621475
   0.41613420  0.16436419  0.47510753
   0.50602521  0.00626653  0.56447871
   0.92057330  0.16471180  0.47493517
   0.25469169 -0.01090952  0.56600292
   0.50385928  0.25376225  0.56167295
  -0.01156958  0.00571338  0.56484054
   0.16726053  0.16439010  0.47458501
   0.00290863  0.75056531  0.56764601
   0.50204788  0.49597625  0.56202674
   0.73799160  0.49508873  0.56414288
   0.26772249  0.49412466  0.56491719
   0.49726635  0.73986034  0.56233459
  -0.00015324  0.50037364  0.56703646
   0.91409781  0.66819975  0.47715132
   0.74094092  0.01643375  0.56418798
   0.66684726  0.66892292  0.47416021
  -0.01400887  0.25555317  0.56574157
   0.74244186  0.25357874  0.56113166
   0.41621105  0.66921624  0.47451420
Direct configuration=    12
   0.08333333  0.08333333  0.38179910
   0.16625139  0.66839016  0.47640788
   0.33333333  0.58333333  0.38179910
   0.83333333  0.83333333  0.38179910
   0.83333333  0.58333333  0.38179910
   0.08333333  0.33333333  0.38179910
   0.91697140  0.41665484  0.47706029
   0.66648514  0.41842736  0.47401324
   0.83333333  0.33333333  0.38179910
   0.08333333  0.58333333  0.38179910
   0.66663725  0.16466997  0.47358414
   0.08333333  0.83333333  0.38179910
   0.83333333  0.08333333  0.38179910
   0.41605351  0.91714195  0.47636822
   0.58333333  0.83333333  0.38179910
   0.33333333  0.08333333  0.38179910
   0.58333333  0.58333333  0.38179910
   0.41680063  0.41653260  0.47427052
   0.58333333  0.33333333  0.38179910
   0.33333333  0.33333333  0.38179910
   0.16676249  0.41457489  0.47734674
   0.58333333  0.08333333  0.38179910
   0.33333333  0.83333333  0.38179910
   0.91679319  0.91609147  0.47696378
   0.10736076  0.57131565  0.60955764
   0.09907391  0.83209117  0.60786425
   0.33828107  0.08380724  0.60809739
   0.08542558  0.32857587  0.60817128
   0.07699507  0.08529442  0.60842986
   0.81856865  0.86079699  0.60885161
   0.81980630  0.57233496  0.60848328
   0.57084995  0.83150189  0.60676170
   0.66731452  0.91433825  0.47545541
   0.16761938  0.91827507  0.47527108
   0.26480120  0.73993979  0.56285548
   0.74694765  0.75054098  0.56602026
   0.25886944  0.25478260  0.56671034
   0.41644169  0.16524827  0.47532276
   0.50507007  0.00656075  0.56508073
   0.91968805  0.16515755  0.47511806
   0.25405588 -0.00975160  0.56641401
   0.50400010  0.25498982  0.56257485
  -0.01196754  0.00562772  0.56521698
   0.16720926  0.16453892  0.47539103
   0.00254419  0.75085439  0.56844106
   0.50244265  0.49477777  0.56294544
   0.73708271  0.49469538  0.56504198
   0.26937160  0.49383418  0.56591782
   0.49718110  0.73863705  0.56264964
  -0.00043538  0.50072671  0.56786603
   0.91403144  0.66827465  0.47752916
   0.74103414  0.01751021  0.56529045
   0.66696911  0.66829657  0.47464049
  -0.01430180  0.25572099  0.56595196
   0.74126346  0.25437101  0.56201873
   0.41660636  0.66790831  0.47444056
Direct configuration=    13
   0.08333333  0.08333333  0.38179910
   0.16626375  0.66810415  0.47685686
   0.33333333  0.58333333  0.38179910
   0.83333333  0.83333333  0.38179910
   0.83333333  0.58333333  0.38179910
   0.08333333  0.33333333  0.38179910
   0.91638820  0.41693885  0.47756995
   0.66675505  0.41839142  0.47449892
   0.83333333  0.33333333  0.38179910
   0.08333333  0.58333333  0.38179910
   0.66685592  0.16444613  0.47417610
   0.08333333  0.83333333  0.38179910
   0.83333333  0.08333333  0.38179910
   0.41645060  0.91683874  0.47680040
   0.58333333  0.83333333  0.38179910
   0.33333333  0.08333333  0.38179910
   0.58333333  0.58333333  0.38179910
   0.41640519  0.41668985  0.47480271
   0.58333333  0.33333333  0.38179910
   0.33333333  0.33333333  0.38179910
   0.16691140  0.41490079  0.47793666
   0.58333333  0.08333333  0.38179910
   0.33333333  0.83333333  0.38179910
   0.91640348  0.91646900  0.47737266
   0.10736263  0.57168087  0.61088418
   0.09977445  0.83130878  0.60893118
   0.33835438  0.08355467  0.60983184
   0.08470423  0.32935248  0.60933291
   0.07602878  0.08550975  0.60978177
   0.81904439  0.85951615  0.61022775
   0.81944333  0.57288274  0.60973615
   0.57162855  0.83065342  0.60761674
   0.66717176  0.91502313  0.47604781
   0.16745771  0.91799878  0.47583500
   0.26370015  0.74067219  0.56388098
   0.74638748  0.75184371  0.56756091
   0.25832587  0.25477529  0.56758764
   0.41701960  0.16539133  0.47581256
   0.50459352  0.00566849  0.56589675
   0.91892246  0.16536403  0.47554522
   0.25324064 -0.00851700  0.56697154
   0.50359856  0.25406552  0.56358157
  -0.00953464  0.00516781  0.56650197
   0.16706931  0.16478384  0.47610011
   0.00231838  0.75107166  0.57016024
   0.50279524  0.49494824  0.56385047
   0.73749193  0.49375745  0.56611066
   0.26872220  0.49354880  0.56738969
   0.49723014  0.73931518  0.56342006
  -0.00010803  0.50084089  0.56940121
   0.91436479  0.66804493  0.47790068
   0.73973467  0.01987764  0.56610312
   0.66690552  0.66773762  0.47517415
  -0.01317909  0.25499205  0.56675553
   0.74248649  0.25387966  0.56290503
   0.41726831  0.66680162  0.47463774
Direct configuration=    14
   0.08333333  0.08333333  0.38179910
   0.16627443  0.66785706  0.47724476
   0.33333333  0.58333333  0.38179910
   0.83333333  0.83333333  0.38179910
   0.83333333  0.58333333  0.38179910
   0.08333333  0.33333333  0.38179910
   0.91588436  0.41718422  0.47801027
   0.66698825  0.41836036  0.47491853
   0.83333333  0.33333333  0.38179910
   0.08333333  0.58333333  0.38179910
   0.66704484  0.16425274  0.47468752
   0.08333333  0.83333333  0.38179910
   0.83333333  0.08333333  0.38179910
   0.41679366  0.91657679  0.47717378
   0.58333333  0.83333333  0.38179910
   0.33333333  0.08333333  0.38179910
   0.58333333  0.58333333  0.38179910
   0.41606355  0.41682570  0.47526250
   0.58333333  0.33333333  0.38179910
   0.33333333  0.33333333  0.38179910
   0.16704005  0.41518235  0.47844632
   0.58333333  0.08333333  0.38179910
   0.33333333  0.83333333  0.38179910
   0.91606679  0.91679517  0.47772591
   0.10736424  0.57199641  0.61203024
   0.10037967  0.83063283  0.60985295
   0.33841772  0.08333646  0.61133032
   0.08408102  0.33002343  0.61033649
   0.07519395  0.08569579  0.61094975
   0.81945541  0.85840957  0.61141666
   0.81912974  0.57335600  0.61081857
   0.57230121  0.82992038  0.60835545
   0.66704843  0.91561483  0.47655962
   0.16731803  0.91776007  0.47632220
   0.26274891  0.74130494  0.56476695
   0.74590352  0.75296919  0.56889196
   0.25785625  0.25476897  0.56834559
   0.41751887  0.16551492  0.47623571
   0.50418181  0.00489762  0.56660174
   0.91826102  0.16554242  0.47591426
   0.25253631 -0.00745036  0.56745321
   0.50325166  0.25326698  0.56445133
  -0.00743275  0.00477048  0.56761213
   0.16694841  0.16499543  0.47671272
   0.00212329  0.75125938  0.57164552