unknown system                          
           1
    11.002582    0.000000    0.000000
     5.501291    9.528515    0.000000
     0.000000    0.000000   26.191785
   Au   O    Pd
  24   8  24
Direct configuration=     1
   0.08333333  0.08333333  0.38179910
   0.91971404  0.91127112  0.48094950
   0.99340475  0.76222285  0.57673008
   0.00475362  0.49718795  0.56037758
   0.83333333  0.83333333  0.38179910
   0.08333333  0.58333333  0.38179910
   0.92069710  0.16843348  0.48064514
   0.74500463  0.49908844  0.55540452
   0.16950783  0.41282977  0.47360653
   0.58333333  0.33333333  0.38179910
   0.83333333  0.33333333  0.38179910
   0.83333333  0.08333333  0.38179910
   0.66547700  0.17054017  0.47877353
   0.41633829  0.91446165  0.47252213
   0.49423889  0.49546870  0.56876263
   0.50207124  0.00392078  0.56113699
   0.33333333  0.58333333  0.38179910
   0.58333333  0.08333333  0.38179910
   0.75252194  0.75806552  0.56990443
   0.24169378  0.74964083  0.56369974
   0.33333333  0.83333333  0.38179910
   0.74576017  0.25170131  0.57002148
   0.25434815  0.49497101  0.57285160
   0.47196875  0.76040715  0.58267016
   0.85714351  0.27490058  0.62887493
   0.82954739  0.57950711  0.61210974
   0.32015063  0.07540331  0.61033900
   0.11662490  0.61298382  0.62873440
   0.61655073  0.12711125  0.62174292
   0.57204816  0.57016032  0.62277325
   0.58255221  0.84035361  0.61931119
   0.09303401  0.32999094  0.61586102
   0.16812944  0.66326254  0.47363832
   0.91185793  0.66767963  0.47622276
   0.41636334  0.16751670  0.47500331
   0.25406023  0.24815038  0.56796498
   0.16697863  0.16697282  0.47401398
   0.41403960  0.41764016  0.48129276
   0.49984230  0.25069575  0.56829279
   0.66557479  0.66928229  0.46971558
   0.58333333  0.58333333  0.38179910
   0.41973624  0.66539336  0.47513952
   0.00359462  0.23655275  0.58041880
   0.33333333  0.08333333  0.38179910
   0.58333333  0.83333333  0.38179910
   0.91581142  0.41787521  0.47165564
   0.08333333  0.33333333  0.38179910
   0.33333333  0.33333333  0.38179910
   0.66743309  0.91538239  0.47499249
   0.99809744  0.00306212  0.56930602
   0.75073984  0.00441904  0.57019608
   0.83333333  0.58333333  0.38179910
   0.66257007  0.42064588  0.47289182
   0.08333333  0.83333333  0.38179910
   0.16541077  0.91489962  0.47473563
   0.24046570  0.99708452  0.56259603
Direct configuration=     2
   0.08333333  0.08333333  0.38179910
   0.91965081  0.91128487  0.48079985
   0.99351586  0.76254713  0.57674201
   0.00491018  0.49740358  0.56053467
   0.83333333  0.83333333  0.38179910
   0.08333333  0.58333333  0.38179910
   0.92077414  0.16865925  0.48046218
   0.74502901  0.49940210  0.55556844
   0.16915135  0.41301951  0.47346028
   0.58333333  0.33333333  0.38179910
   0.83333333  0.33333333  0.38179910
   0.83333333  0.08333333  0.38179910
   0.66565561  0.16985545  0.47850266
   0.41604135  0.91508111  0.47257853
   0.49381924  0.49589661  0.56860537
   0.50190951  0.00372920  0.56118721
   0.33333333  0.58333333  0.38179910
   0.58333333  0.08333333  0.38179910
   0.75279287  0.75848692  0.56956774
   0.24167641  0.75039689  0.56351549
   0.33333333  0.83333333  0.38179910
   0.74644416  0.25126337  0.57016953
   0.25437679  0.49457886  0.57267433
   0.47141429  0.75919428  0.58306339
   0.85724622  0.27382555  0.62880971
   0.82960226  0.57919041  0.61218002
   0.31988308  0.07596052  0.61029930
   0.11638963  0.61344102  0.62892411
   0.61662993  0.12674979  0.62189469
   0.57257047  0.57054735  0.62275258
   0.58267168  0.84075318  0.61956935
   0.09336640  0.32967017  0.61564559
   0.16777061  0.66364664  0.47359790
   0.91221359  0.66735321  0.47626474
   0.41645667  0.16713661  0.47483490
   0.25331201  0.24862988  0.56804646
   0.16693133  0.16697335  0.47403577
   0.41401893  0.41793208  0.48119660
   0.49925156  0.25121076  0.56834640
   0.66573842  0.66894075  0.46972792
   0.58333333  0.58333333  0.38179910
   0.41932108  0.66544362  0.47512806
   0.00404088  0.23698484  0.58076119
   0.33333333  0.08333333  0.38179910
   0.58333333  0.83333333  0.38179910
   0.91603236  0.41752860  0.47136259
   0.08333333  0.33333333  0.38179910
   0.33333333  0.33333333  0.38179910
   0.66729895  0.91574754  0.47500571
   0.99842126  0.00246574  0.56925891
   0.75144472  0.00385751  0.57018044
   0.83333333  0.58333333  0.38179910
   0.66260094  0.42061876  0.47264792
   0.08333333  0.83333333  0.38179910
   0.16560546  0.91483402  0.47468074
   0.24049428  0.99699645  0.56253120
Direct configuration=     3
   0.08333333  0.08333333  0.38179910
   0.91959690  0.91129660  0.48067224
   0.99361060  0.76282365  0.57675219
   0.00504368  0.49758745  0.56066861
   0.83333333  0.83333333  0.38179910
   0.08333333  0.58333333  0.38179910
   0.92083983  0.16885176  0.48030616
   0.74504981  0.49966957  0.55570821
   0.16884738  0.41318129  0.47333557
   0.58333333  0.33333333  0.38179910
   0.83333333  0.33333333  0.38179910
   0.83333333  0.08333333  0.38179910
   0.66580790  0.16927158  0.47827168
   0.41578814  0.91560933  0.47262663
   0.49346140  0.49626150  0.56847127
   0.50177160  0.00356584  0.56123003
   0.33333333  0.58333333  0.38179910
   0.58333333  0.08333333  0.38179910
   0.75302389  0.75884625  0.56928065
   0.24166160  0.75104159  0.56335838
   0.33333333  0.83333333  0.38179910
   0.74702740  0.25088993  0.57029577
   0.25440120  0.49424446  0.57252317
   0.47094150  0.75816006  0.58339870
   0.85733380  0.27290885  0.62875410
   0.82964906  0.57892036  0.61223995
   0.31965493  0.07643567  0.61026544
   0.11618901  0.61383087  0.62908587
   0.61669747  0.12644156  0.62202411
   0.57301586  0.57087738  0.62273495
   0.58277355  0.84109391  0.61978948
   0.09364984  0.32939665  0.61546189
   0.16746462  0.66397417  0.47356343
   0.91251687  0.66707487  0.47630054
   0.41653625  0.16681249  0.47469129
   0.25267399  0.24903876  0.56811595
   0.16689100  0.16697380  0.47405435
   0.41400132  0.41818100  0.48111461
   0.49874783  0.25164991  0.56839211
   0.66587796  0.66864951  0.46973844
   0.58333333  0.58333333  0.38179910
   0.41896707  0.66548647  0.47511828
   0.00442141  0.23735329  0.58105315
   0.33333333  0.08333333  0.38179910
   0.58333333  0.83333333  0.38179910
   0.91622076  0.41723305  0.47111271
   0.08333333  0.33333333  0.38179910
   0.33333333  0.33333333  0.38179910
   0.66718456  0.91605890  0.47501698
   0.99869739  0.00195719  0.56921874
   0.75204578  0.00337869  0.57016710
   0.83333333  0.58333333  0.38179910
   0.66262727  0.42059564  0.47243994
   0.08333333  0.83333333  0.38179910
   0.16577148  0.91477807  0.47463393
   0.24051864  0.99692135  0.56247592
Direct configuration=     4
   0.08333333  0.08333333  0.38179910
   0.91959776  0.91134884  0.48041931
   0.99439685  0.76261404  0.57688674
   0.00493231  0.49833740  0.56078370
   0.83333333  0.83333333  0.38179910
   0.08333333  0.58333333  0.38179910
   0.92082887  0.16900102  0.48012747
   0.74512973  0.49981999  0.55576296
   0.16860054  0.41333743  0.47314761
   0.58333333  0.33333333  0.38179910
   0.83333333  0.33333333  0.38179910
   0.83333333  0.08333333  0.38179910
   0.66592197  0.16870679  0.47804147
   0.41563552  0.91599430  0.47267756
   0.49341902  0.49637354  0.56826652
   0.50145468  0.00333967  0.56142147
   0.33333333  0.58333333  0.38179910
   0.58333333  0.08333333  0.38179910
   0.75295604  0.75884110  0.56903936
   0.24113931  0.75154861  0.56308837
   0.33333333  0.83333333  0.38179910
   0.74735812  0.25029234  0.57025389
   0.25376577  0.49472735  0.57241313
   0.47062872  0.75841515  0.58423642
   0.85773055  0.27116457  0.62891490
   0.82948822  0.57906456  0.61221261
   0.31953557  0.07688590  0.61019150
   0.11615076  0.61438335  0.62911951
   0.61676257  0.12600632  0.62187452
   0.57415219  0.57058914  0.62278373
   0.58278166  0.84117329  0.61979030
   0.09380601  0.32975539  0.61568366
   0.16698568  0.66442556  0.47351836
   0.91278129  0.66677232  0.47634956
   0.41646215  0.16670288  0.47450748
   0.25271318  0.24909748  0.56790307
   0.16680918  0.16706483  0.47408544
   0.41398837  0.41832118  0.48092491
   0.49895706  0.25139478  0.56858206
   0.66593784  0.66838116  0.46976693
   0.58333333  0.58333333  0.38179910
   0.41856495  0.66566504  0.47502728
   0.00454616  0.23717372  0.58133251
   0.33333333  0.08333333  0.38179910
   0.58333333  0.83333333  0.38179910
   0.91638617  0.41698953  0.47082529
   0.08333333  0.33333333  0.38179910
   0.33333333  0.33333333  0.38179910
   0.66709184  0.91619991  0.47502727
   0.99912994  0.00179167  0.56909903
   0.75212964  0.00358955  0.57024524
   0.83333333  0.58333333  0.38179910
   0.66274241  0.42050803  0.47225152
   0.08333333  0.83333333  0.38179910
   0.16586553  0.91487438  0.47448050
   0.24084731  0.99683003  0.56243733
Direct configuration=     5
   0.08333333  0.08333333  0.38179910
   0.91959912  0.91143208  0.48001620
   0.99564993  0.76227998  0.57710118
   0.00475480  0.49953264  0.56096711
   0.83333333  0.83333333  0.38179910
   0.08333333  0.58333333  0.38179910
   0.92081140  0.16923890  0.47984267
   0.74525711  0.50005971  0.55585021
   0.16820714  0.41358626  0.47284804
   0.58333333  0.33333333  0.38179910
   0.83333333  0.33333333  0.38179910
   0.83333333  0.08333333  0.38179910
   0.66610376  0.16780666  0.47767457
   0.41539229  0.91660784  0.47275874
   0.49335148  0.49655209  0.56794020
   0.50094958  0.00297920  0.56172657
   0.33333333  0.58333333  0.38179910
   0.58333333  0.08333333  0.38179910
   0.75284790  0.75883289  0.56865482
   0.24030693  0.75235668  0.56265805
   0.33333333  0.83333333  0.38179910
   0.74788520  0.24933992  0.57018714
   0.25275305  0.49549695  0.57223776
   0.47013022  0.75882172  0.58557154
   0.85836286  0.26838464  0.62917119
   0.82923188  0.57929438  0.61216904
   0.31934533  0.07760347  0.61007366
   0.11608980  0.61526386  0.62917313
   0.61686634  0.12531266  0.62163613
   0.57596322  0.57012976  0.62286148
   0.58279459  0.84129979  0.61979160
   0.09405490  0.33032714  0.61603710
   0.16622237  0.66514495  0.47344653
   0.91320272  0.66629013  0.47642769
   0.41634406  0.16652819  0.47421454
   0.25277564  0.24919106  0.56756378
   0.16667879  0.16720990  0.47413499
   0.41396773  0.41854459  0.48062257
   0.49929051  0.25098817  0.56888478
   0.66603328  0.66795349  0.46981234
   0.58333333  0.58333333  0.38179910
   0.41792409  0.66594962  0.47488225
   0.00474500  0.23688753  0.58177773
   0.33333333  0.08333333  0.38179910
   0.58333333  0.83333333  0.38179910
   0.91664977  0.41660143  0.47036722
   0.08333333  0.33333333  0.38179910
   0.33333333  0.33333333  0.38179910
   0.66694407  0.91642463  0.47504368
   0.99981931  0.00152788  0.56890825
   0.75226329  0.00392560  0.57036979
   0.83333333  0.58333333  0.38179910
   0.66292593  0.42036839  0.47195121
   0.08333333  0.83333333  0.38179910
   0.16601542  0.91502786  0.47423596
   0.24137113  0.99668449  0.56237585
Direct configuration=     6
   0.08333333  0.08333333  0.38179910
   0.91960648  0.91150349  0.47985283
   0.99541691  0.76273207  0.57714646
   0.00474087  0.49971121  0.56103860
   0.83333333  0.83333333  0.38179910
   0.08333333  0.58333333  0.38179910
   0.92072365  0.16924394  0.47973827
   0.74540681  0.49973517  0.55577959
   0.16818617  0.41364677  0.47276033
   0.58333333  0.33333333  0.38179910
   0.83333333  0.33333333  0.38179910
   0.83333333  0.08333333  0.38179910
   0.66603911  0.16771198  0.47758583
   0.41547237  0.91654998  0.47275801
   0.49354752  0.49672726  0.56783554
   0.50090142  0.00294069  0.56178255
   0.33333333  0.58333333  0.38179910
   0.58333333  0.08333333  0.38179910
   0.75275898  0.75882932  0.56842647
   0.24070511  0.75233843  0.56242385
   0.33333333  0.83333333  0.38179910
   0.74792082  0.24922169  0.56998955
   0.25274144  0.49581774  0.57207459
   0.46926151  0.75941818  0.58643470
   0.85893545  0.26646817  0.62940481
   0.82900920  0.57961761  0.61214723
   0.31919474  0.07806041  0.61006025
   0.11637903  0.61552187  0.62934203
   0.61693908  0.12479992  0.62167138
   0.57715093  0.56930605  0.62282863
   0.58300061  0.84127305  0.61983654
   0.09417039  0.33076468  0.61617109
   0.16592657  0.66533020  0.47339171
   0.91313331  0.66628129  0.47642904
   0.41619118  0.16666058  0.47414554
   0.25255698  0.24946196  0.56734253
   0.16657409  0.16735090  0.47415058
   0.41394497  0.41845143  0.48048944
   0.49920213  0.25111953  0.56887056
   0.66592058  0.66794983  0.46982592
   0.58333333  0.58333333  0.38179910
   0.41777294  0.66611649  0.47477280
   0.00483151  0.23684128  0.58208255
   0.33333333  0.08333333  0.38179910
   0.58333333  0.83333333  0.38179910
   0.91667534  0.41661771  0.47027796
   0.08333333  0.33333333  0.38179910
   0.33333333  0.33333333  0.38179910
   0.66692844  0.91623563  0.47509598
   0.00001792  0.00177949  0.56873664
   0.75255189  0.00372190  0.57031973
   0.83333333  0.58333333  0.38179910
   0.66299449  0.42030029  0.47192963
   0.08333333  0.83333333  0.38179910
   0.16597970  0.91529780  0.47406262
   0.24176359  0.99652531  0.56235579
Direct configuration=     7
   0.08333333  0.08333333  0.38179910
   0.91962856  0.91171770  0.47936272
   0.99471785  0.76408833  0.57728228
   0.00469908  0.50024692  0.56125309
   0.83333333  0.83333333  0.38179910
   0.08333333  0.58333333  0.38179910
   0.92046038  0.16925906  0.47942507
   0.74585589  0.49876153  0.55556772
   0.16812327  0.41382828  0.47249721
   0.58333333  0.33333333  0.38179910
   0.83333333  0.33333333  0.38179910
   0.83333333  0.08333333  0.38179910
   0.66584515  0.16742796  0.47731963
   0.41571261  0.91637640  0.47275582
   0.49413565  0.49725277  0.56752156
   0.50075692  0.00282515  0.56195048
   0.33333333  0.58333333  0.38179910
   0.58333333  0.08333333  0.38179910
   0.75249223  0.75881859  0.56774144
   0.24189968  0.75228367  0.56172124
   0.33333333  0.83333333  0.38179910
   0.74802767  0.24886700  0.56939679
   0.25270659  0.49678009  0.57158506
   0.46665539  0.76120756  0.58902420
   0.86065323  0.26071876  0.63010566
   0.82834117  0.58058732  0.61208180
   0.31874297  0.07943124  0.61002004
   0.11724670  0.61629592  0.62984873
   0.61715728  0.12326169  0.62177712
   0.58071407  0.56683491  0.62273008
   0.58361866  0.84119281  0.61997135
   0.09451685  0.33207730  0.61657308
   0.16503918  0.66588593  0.47322725
   0.91292511  0.66625478  0.47643309
   0.41573253  0.16705777  0.47393855
   0.25190100  0.25027466  0.56667875
   0.16626000  0.16777388  0.47419734
   0.41387670  0.41817195  0.48009005
   0.49893700  0.25151361  0.56882790
   0.66558247  0.66793886  0.46986666
   0.58333333  0.58333333  0.38179910
   0.41731948  0.66661708  0.47444443
   0.00509105  0.23670254  0.58299701
   0.33333333  0.08333333  0.38179910
   0.58333333  0.83333333  0.38179910
   0.91675205  0.41666655  0.47001016
   0.08333333  0.33333333  0.38179910
   0.33333333  0.33333333  0.38179910
   0.66688155  0.91566863  0.47525290
   0.00061374  0.00253430  0.56822180
   0.75341769  0.00311079  0.57016958
   0.83333333  0.58333333  0.38179910
   0.66320018  0.42009599  0.47186489
   0.08333333  0.83333333  0.38179910
   0.16587256  0.91610762  0.47354259
   0.24294098  0.99604777  0.56229561
Direct configuration=     8
   0.08333333  0.08333333  0.38179910
   0.91967272  0.91214612  0.47838250
   0.99331973  0.76680084  0.57755393
   0.00461549  0.50131834  0.56168205
   0.83333333  0.83333333  0.38179910
   0.08333333  0.58333333  0.38179910
   0.91993385  0.16928929  0.47879868
   0.74675405  0.49681426  0.55514400
   0.16799747  0.41419131  0.47197096
   0.58333333  0.33333333  0.38179910
   0.83333333  0.33333333  0.38179910
   0.83333333  0.08333333  0.38179910
   0.66545723  0.16685991  0.47678722
   0.41619310  0.91602923  0.47275143
   0.49531192  0.49830379  0.56689361
   0.50046793  0.00259407  0.56228635
   0.33333333  0.58333333  0.38179910
   0.58333333  0.08333333  0.38179910
   0.75195872  0.75879712  0.56637137
   0.24428881  0.75217417  0.56031601
   0.33333333  0.83333333  0.38179910
   0.74824138  0.24815761  0.56821127
   0.25263688  0.49870480  0.57060601
   0.46144316  0.76478633  0.59420319
   0.86408879  0.24921996  0.63150736
   0.82700510  0.58252673  0.61195094
   0.31783944  0.08217291  0.60993960
   0.11898205  0.61784401  0.63086214
   0.61759369  0.12018523  0.62198861
   0.58784035  0.56189263  0.62253299
   0.58485477  0.84103234  0.62024098
   0.09520978  0.33470253  0.61737705
   0.16326439  0.66699741  0.47289834
   0.91250869  0.66620175  0.47644120
   0.41481523  0.16785215  0.47352457
   0.25058904  0.25190007  0.56535119
   0.16563180  0.16861983  0.47429088
   0.41374015  0.41761300  0.47929126
   0.49840674  0.25230178  0.56874258
   0.66490626  0.66791691  0.46994815
   0.58333333  0.58333333  0.38179910
   0.41641255  0.66761828  0.47378769
   0.00561013  0.23642507  0.58482594
   0.33333333  0.08333333  0.38179910
   0.58333333  0.83333333  0.38179910
   0.91690548  0.41676424  0.46947457
   0.08333333  0.33333333  0.38179910
   0.33333333  0.33333333  0.38179910
   0.66678777  0.91453462  0.47556672
   0.00180540  0.00404393  0.56719212
   0.75514929  0.00188857  0.56986926
   0.83333333  0.58333333  0.38179910
   0.66361156  0.41968738  0.47173539
   0.08333333  0.83333333  0.38179910
   0.16565828  0.91772725  0.47250255
   0.24529575  0.99509268  0.56217527
Direct configuration=     9
   0.08333333  0.08333333  0.38179910
   0.91965618  0.91198562  0.47874972
   0.99384351  0.76578464  0.57745216
   0.00464680  0.50091695  0.56152134
   0.83333333  0.83333333  0.38179910
   0.08333333  0.58333333  0.38179910
   0.92013111  0.16927797  0.47903334
   0.74641757  0.49754377  0.55530274
   0.16804460  0.41405531  0.47216811
   0.58333333  0.33333333  0.38179910
   0.83333333  0.33333333  0.38179910
   0.83333333  0.08333333  0.38179910
   0.66560255  0.16707272  0.47698667
   0.41601309  0.91615929  0.47275307
   0.49487125  0.49791005  0.56712886
   0.50057620  0.00268064  0.56216052
   0.33333333  0.58333333  0.38179910
   0.58333333  0.08333333  0.38179910
   0.75215859  0.75880516  0.56688464
   0.24339376  0.75221519  0.56084245
   0.33333333  0.83333333  0.38179910
   0.74816132  0.24842337  0.56865540
   0.25266300  0.49798374  0.57097280
   0.46339583  0.76344561  0.59226297
   0.86280172  0.25352778  0.63098224
   0.82750563  0.58180016  0.61199996
   0.31817793  0.08114579  0.60996974
   0.11833193  0.61726404  0.63048249
   0.61743020  0.12133777  0.62190938
   0.58517061  0.56374416  0.62260683
   0.58439168  0.84109246  0.62013997
   0.09495019  0.33371904  0.61707586
   0.16392928  0.66658101  0.47302156
   0.91266469  0.66622162  0.47643816
   0.41515888  0.16755455  0.47367966
   0.25108055  0.25129114  0.56584854
   0.16586714  0.16830291  0.47425584
   0.41379131  0.41782240  0.47959051
   0.49860540  0.25200651  0.56877454
   0.66515959  0.66792514  0.46991762
   0.58333333  0.58333333  0.38179910
   0.41675232  0.66724320  0.47403373
   0.00541566  0.23652902  0.58414077
   0.33333333  0.08333333  0.38179910
   0.58333333  0.83333333  0.38179910
   0.91684800  0.41672764  0.46967522
   0.08333333  0.33333333  0.38179910
   0.33333333  0.33333333  0.38179910
   0.66682291  0.91495946  0.47544915
   0.00135896  0.00347837  0.56757787
   0.75450058  0.00234645  0.56998177
   0.83333333  0.58333333  0.38179910
   0.66345745  0.41984046  0.47178390
   0.08333333  0.83333333  0.38179910
   0.16573856  0.91712048  0.47289219
   0.24441358  0.99545049  0.56222035
Direct configuration=    10
   0.08333333  0.08333333  0.38179910
   0.91962886  0.91204630  0.47865861
   0.99391035  0.76590392  0.57756924
   0.00469345  0.50092784  0.56158474
   0.83333333  0.83333333  0.38179910
   0.08333333  0.58333333  0.38179910
   0.92005552  0.16931435  0.47895392
   0.74667781  0.49730058  0.55528806
   0.16800158  0.41413474  0.47214932
   0.58333333  0.33333333  0.38179910
   0.83333333  0.33333333  0.38179910
   0.83333333  0.08333333  0.38179910
   0.66547407  0.16708672  0.47695920
   0.41607564  0.91610824  0.47273837
   0.49502108  0.49808739  0.56706968
   0.50062386  0.00278931  0.56215569
   0.33333333  0.58333333  0.38179910
   0.58333333  0.08333333  0.38179910
   0.75195330  0.75871081  0.56671184
   0.24375936  0.75210466  0.56066581
   0.33333333  0.83333333  0.38179910
   0.74823237  0.24844104  0.56853787
   0.25259316  0.49841614  0.57089372
   0.46276038  0.76356351  0.59306552
   0.86337406  0.25174346  0.63107979
   0.82730816  0.58206647  0.61192817
   0.31802721  0.08160081  0.60993757
   0.11866339  0.61749407  0.63046219
   0.61744565  0.12098600  0.62183349
   0.58605583  0.56313023  0.62250806
   0.58467290  0.84109238  0.62020862
   0.09504321  0.33400046  0.61707663
   0.16380559  0.66664122  0.47298231
   0.91255739  0.66625738  0.47643053
   0.41509367  0.16759030  0.47367214
   0.25073310  0.25153492  0.56574101
   0.16576832  0.16840583  0.47425284
   0.41376859  0.41780722  0.47951550
   0.49868493  0.25196747  0.56878739
   0.66506585  0.66792962  0.46991153
   0.58333333  0.58333333  0.38179910
   0.41672955  0.66726022  0.47392198
   0.00544696  0.23665857  0.58449113
   0.33333333  0.08333333  0.38179910
   0.58333333  0.83333333  0.38179910
   0.91682151  0.41681902  0.46969008
   0.08333333  0.33333333  0.38179910
   0.33333333  0.33333333  0.38179910
   0.66679958  0.91483855  0.47548358
   0.00151696  0.00369357  0.56742315
   0.75445309  0.00240618  0.56994487
   0.83333333  0.58333333  0.38179910
   0.66342267  0.41981374  0.47178867
   0.08333333  0.83333333  0.38179910
   0.16569811  0.91733114  0.47277856
   0.24471201  0.99543613  0.56223192
Direct configuration=    11
   0.08333333  0.08333333  0.38179910
   0.91954691  0.91222836  0.47838527
   0.99411088  0.76626176  0.57792046
   0.00483338  0.50096051  0.56177494
   0.83333333  0.83333333  0.38179910
   0.08333333  0.58333333  0.38179910
   0.91982876  0.16942350  0.47871565
   0.74745852  0.49657100  0.55524402
   0.16787252  0.41437305  0.47209296
   0.58333333  0.33333333  0.38179910
   0.83333333  0.33333333  0.38179910
   0.83333333  0.08333333  0.38179910
   0.66508861  0.16712870  0.47687676
   0.41626330  0.91595509  0.47269426
   0.49547058  0.49861944  0.56689213
   0.50076685  0.00311533  0.56214118
   0.33333333  0.58333333  0.38179910
   0.58333333  0.08333333  0.38179910
   0.75133745  0.75842773  0.56619342
   0.24485617  0.75177304  0.56013588
   0.33333333  0.83333333  0.38179910
   0.74844553  0.24849404  0.56818526
   0.25238366  0.49971332  0.57065649
   0.46085402  0.76391721  0.59547315
   0.86509110  0.24639050  0.63137246
   0.82671573  0.58286538  0.61171278
   0.31757504  0.08296586  0.60984106
   0.11965774  0.61818415  0.63040132
   0.61749200  0.11993067  0.62160582
   0.58871150  0.56128843  0.62221177
   0.58551654  0.84109213  0.62041456
   0.09532229  0.33484471  0.61707894
   0.16343451  0.66682184  0.47286455
   0.91223549  0.66636469  0.47640763
   0.41489802  0.16769753  0.47364959
   0.24969075  0.25226625  0.56541843
   0.16547185  0.16871460  0.47424384
   0.41370044  0.41776167  0.47929045
   0.49892355  0.25185035  0.56882594
   0.66478463  0.66794309  0.46989326
   0.58333333  0.58333333  0.38179910
   0.41666123  0.66731127  0.47358675
   0.00554085  0.23704724  0.58554221
   0.33333333  0.08333333  0.38179910
   0.58333333  0.83333333  0.38179910
   0.91674206  0.41709314  0.46973463
   0.08333333  0.33333333  0.38179910
   0.33333333  0.33333333  0.38179910
   0.66672962  0.91447582  0.47558687
   0.00199095  0.00433915  0.56695900
   0.75431063  0.00258537  0.56983418
   0.83333333  0.58333333  0.38179910
   0.66331833  0.41973359  0.47180296
   0.08333333  0.83333333  0.38179910
   0.16557675  0.91796313  0.47243767
   0.24560732  0.99539306  0.56226662
Direct configuration=    12
   0.08333333  0.08333333  0.38179910
   0.91938301  0.91259246  0.47783858
   0.99451192  0.76697743  0.57862292
   0.00511325  0.50102585  0.56215533
   0.83333333  0.83333333  0.38179910
   0.08333333  0.58333333  0.38179910
   0.91937525  0.16964181  0.47823912
   0.74901994  0.49511184  0.55515593
   0.16761441  0.41484967  0.47198024
   0.58333333  0.33333333  0.38179910
   0.83333333  0.33333333  0.38179910
   0.83333333  0.08333333  0.38179910
   0.66431771  0.16721267  0.47671189
   0.41663861  0.91564878  0.47260604
   0.49636956  0.49968352  0.56653703
   0.50105284  0.00376735  0.56211217
   0.33333333  0.58333333  0.38179910
   0.58333333  0.08333333  0.38179910
   0.75010576  0.75786159  0.56515657
   0.24704978  0.75110980  0.55907601
   0.33333333  0.83333333  0.38179910
   0.74887184  0.24860004  0.56748004
   0.25196465  0.50230768  0.57018202
   0.45704131  0.76462462  0.60028842
   0.86852519  0.23568459  0.63195778
   0.82553089  0.58446320  0.61128200
   0.31667070  0.08569596  0.60964805
   0.12164646  0.61956430  0.63027957
   0.61758470  0.11782003  0.62115047
   0.59402282  0.55760484  0.62161919
   0.58720383  0.84109164  0.62082644
   0.09588043  0.33653322  0.61708357
   0.16269236  0.66718308  0.47262904
   0.91159168  0.66657929  0.47636184
   0.41450672  0.16791200  0.47360448
   0.24760606  0.25372892  0.56477328
   0.16487892  0.16933214  0.47422584
   0.41356414  0.41767058  0.47884037
   0.49940078  0.25161611  0.56890302
   0.66422218  0.66797002  0.46985672
   0.58333333  0.58333333  0.38179910
   0.41652461  0.66741339  0.47291630
   0.00572863  0.23782456  0.58764437
   0.33333333  0.08333333  0.38179910
   0.58333333  0.83333333  0.38179910
   0.91658314  0.41764140  0.46982374
   0.08333333  0.33333333  0.38179910
   0.33333333  0.33333333  0.38179910
   0.66658968  0.91375037  0.47579346
   0.00293894  0.00563031  0.56603070
   0.75402571  0.00294374  0.56961280
   0.83333333  0.58333333  0.38179910
   0.66310965  0.41957329  0.47183155
   0.08333333  0.83333333  0.38179910
   0.16533405  0.91922711  0.47175589
   0.24739793  0.99530690  0.56233601
Direct configuration=    13
   0.08333333  0.08333333  0.38179910
   0.91924233  0.91258685  0.47801365
   0.99461093  0.76714000  0.57877418
   0.00509186  0.50132564  0.56203741
   0.83333333  0.83333333  0.38179910
   0.08333333  0.58333333  0.38179910
   0.91929844  0.16991435  0.47817908
   0.74953780  0.49516706  0.55525900
   0.16746832  0.41495932  0.47212933
   0.58333333  0.33333333  0.38179910
   0.83333333  0.33333333  0.38179910
   0.83333333  0.08333333  0.38179910
   0.66411861  0.16732635  0.47679334
   0.41644568  0.91584336  0.47261532
   0.49623147  0.49953016  0.56649964
   0.50104900  0.00386733  0.56206848
   0.33333333  0.58333333  0.38179910
   0.58333333  0.08333333  0.38179910
   0.74943453  0.75795119  0.56509641
   0.24705958  0.75145190  0.55901077
   0.33333333  0.83333333  0.38179910
   0.74907173  0.24879292  0.56757731
   0.25233531  0.50216473  0.57018397
   0.45718215  0.76420045  0.60096649
   0.86918007  0.23382024  0.63175249
   0.82558795  0.58442676  0.61117588
   0.31695940  0.08583513  0.60958985
   0.12225849  0.61954796  0.63001961
   0.61733465  0.11796620  0.62100489
   0.59418535  0.55755869  0.62153482
   0.58722776  0.84122315  0.62086260
   0.09577971  0.33672522  0.61710744
   0.16300437  0.66708314  0.47263881
   0.91157017  0.66661448  0.47638455
   0.41461939  0.16766060  0.47373646
   0.24764261  0.25379640  0.56478132
   0.16481650  0.16931380  0.47416117
   0.41344783  0.41799076  0.47897636
   0.49924544  0.25200079  0.56889803
   0.66427827  0.66780795  0.46978297
   0.58333333  0.58333333  0.38179910
   0.41676553  0.66701491  0.47278123
   0.00566861  0.23777435  0.58807094
   0.33333333  0.08333333  0.38179910
   0.58333333  0.83333333  0.38179910
   0.91642038  0.41782391  0.47005636
   0.08333333  0.33333333  0.38179910
   0.33333333  0.33333333  0.38179910
   0.66654458  0.91406008  0.47570375
   0.00307738  0.00553489  0.56595221
   0.75394899  0.00296147  0.56945473
   0.83333333  0.58333333  0.38179910
   0.66286649  0.41966553  0.47188373
   0.08333333  0.83333333  0.38179910
   0.16540353  0.91908614  0.47190438
   0.24771066  0.99521683  0.56245284
Direct configuration=    14
   0.08333333  0.08333333  0.38179910
   0.91882028  0.91257000  0.47853887
   0.99490796  0.76762770  0.57922797
   0.00502772  0.50222500  0.56168366
   0.83333333  0.83333333  0.38179910
   0.08333333  0.58333333  0.38179910
   0.91906801  0.17073198  0.47799895
   0.75109139  0.49533271  0.55556818
   0.16703005  0.41528828  0.47257661
   0.58333333  0.33333333  0.38179910
   0.83333333  0.33333333  0.38179910
   0.83333333  0.08333333  0.38179910
   0.66352133  0.16766737  0.47703769
   0.41586688  0.91642710  0.47264318
   0.49581718  0.49907005  0.56638746
   0.50103748  0.00416727  0.56193739
   0.33333333  0.58333333  0.38179910
   0.58333333  0.08333333  0.38179910
   0.74742087  0.75822002  0.56491593
   0.24708899  0.75247817  0.55881503
   0.33333333  0.83333333  0.38179910
   0.74967139  0.24937156  0.56786911
   0.25344728  0.50173587  0.57018980
   0.45760466  0.76292794  0.60300071
   0.87114472  0.22822722  0.63113663
   0.82575916  0.58431746  0.61085753
   0.31782552  0.08625264  0.60941524
   0.12409458  0.61949894  0.62923975
   0.61658450  0.11840473  0.62056813
   0.59467294  0.55742024  0.62128172
   0.58729956  0.84161770  0.62097108
   0.09547753  0.33730120  0.61717904
   0.16394039  0.66678334  0.47266811
   0.91150562  0.66672006  0.47645269
   0.41495737  0.16690641  0.47413241
   0.24775226  0.25399882  0.56480544
   0.16462924  0.16925881  0.47396717
   0.41309889  0.41895130  0.47938435
   0.49877941  0.25315482  0.56888306
   0.66444654  0.66732177  0.46956174
   0.58333333  0.58333333  0.38179910
   0.41748829  0.66581948  0.47237605
   0.00548857  0.23762371  0.58935065
   0.33333333  0.08333333  0.38179910
   0.58333333  0.83333333  0.38179910