 vasp.5.4.1 24Jun15 (build Mar 14 2019 10:18:33) complex                        
  
 executed on INTEL-19.0.2+OPENMPI date 2023.01.30  16:27:02
 running on   36 total cores
 distrk:  each k-point on   36 cores,    1 groups
 distr:  one band on NCORES_PER_BAND=   6 cores,    6 groups


--------------------------------------------------------------------------------------------------------


 INCAR:
 POTCAR:    PAW_PBE Au 04Oct2007                  
 POTCAR:    PAW_PBE Pd 04Jan2005                  
 POTCAR:    PAW_PBE Au 04Oct2007                  
  local pseudopotential read in
  partial core-charges read in
  partial kinetic energy density read in
  atomic valenz-charges read in
  non local Contribution for L=           2  read in
    real space projection operators read in
  non local Contribution for L=           2  read in
    real space projection operators read in
  non local Contribution for L=           0  read in
    real space projection operators read in
  non local Contribution for L=           0  read in
    real space projection operators read in
  non local Contribution for L=           1  read in
    real space projection operators read in
  non local Contribution for L=           1  read in
    real space projection operators read in
    PAW grid and wavefunctions read in
 
   number of l-projection  operators is LMAX  =           6
   number of lm-projection operators is LMMAX =          18
 
 POTCAR:    PAW_PBE Pd 04Jan2005                  
  local pseudopotential read in
  partial core-charges read in
  partial kinetic energy density read in
  atomic valenz-charges read in
  non local Contribution for L=           2  read in
    real space projection operators read in
  non local Contribution for L=           2  read in
    real space projection operators read in
  non local Contribution for L=           0  read in
    real space projection operators read in
  non local Contribution for L=           0  read in
    real space projection operators read in
  non local Contribution for L=           1  read in
    real space projection operators read in
  non local Contribution for L=           1  read in
    real space projection operators read in
    PAW grid and wavefunctions read in
 
   number of l-projection  operators is LMAX  =           6
   number of lm-projection operators is LMMAX =          18
 
 Optimization of the real space projectors (new method)

 maximal supplied QI-value         = 15.12
 optimisation between [QCUT,QGAM] = [ 10.13, 20.41] = [ 28.73,116.64] Ry 
 Optimized for a Real-space Cutoff    1.51 Angstroem

   l    n(q)    QCUT    max X(q) W(low)/X(q) W(high)/X(q)  e(spline) 
   2      8    10.129    60.898    0.46E-03    0.46E-03    0.14E-06
   2      8    10.129    58.894    0.47E-03    0.47E-03    0.14E-06
   0      9    10.129   109.617    0.16E-03    0.11E-03    0.54E-07
   0      9    10.129    75.026    0.15E-03    0.11E-03    0.52E-07
   1      9    10.129    16.344    0.96E-04    0.15E-03    0.14E-06
   1      9    10.129    10.160    0.81E-04    0.12E-03    0.11E-06
 Optimization of the real space projectors (new method)

 maximal supplied QI-value         = 14.36
 optimisation between [QCUT,QGAM] = [ 10.20, 20.39] = [ 29.12,116.47] Ry 
 Optimized for a Real-space Cutoff    1.51 Angstroem

   l    n(q)    QCUT    max X(q) W(low)/X(q) W(high)/X(q)  e(spline) 
   2      8    10.197    59.108    0.26E-03    0.14E-03    0.96E-07
   2      8    10.197    58.101    0.27E-03    0.14E-03    0.98E-07
   0      9    10.197   102.235    0.54E-04    0.60E-05    0.72E-07
   0      9    10.197    58.388    0.52E-04    0.60E-05    0.68E-07
   1      9    10.197    22.191    0.18E-03    0.25E-03    0.79E-07
   1      9    10.197    15.590    0.15E-03    0.21E-03    0.69E-07
  PAW_PBE Au 04Oct2007                  :
 energy of atom  1       EATOM= -926.0867
 kinetic energy error for atom=    0.0062 (will be added to EATOM!!)
  PAW_PBE Pd 04Jan2005                  :
 energy of atom  2       EATOM= -809.7530
 kinetic energy error for atom=    0.0091 (will be added to EATOM!!)
 
 
 POSCAR: Au Pd                                   
  positions in cartesian coordinates
  No initial velocities read in
 exchange correlation table for  LEXCH =        8
   RHO(1)=    0.500       N(1)  =     2000
   RHO(2)=  100.500       N(2)  =     4000

 VTST: version 3.2, (02/03/18)

 CHAIN: initializing optimizer
 
 OPT: Using VASP Conjugate-Gradient optimizer
 CHAIN: Read ICHAIN            0
 
 POSCAR: Au Pd                                   
  positions in cartesian coordinates
  No initial velocities read in
 


--------------------------------------------------------------------------------------------------------


 ion  position               nearest neighbor table
   1  0.750  0.750  0.592-  30 2.75   8 2.75  15 2.75  22 2.75   5 2.75  47 2.75  41 2.75  25 2.75
                             9 2.75
   2  0.917  0.167  0.500-  18 2.75  38 2.75  44 2.75  33 2.75  37 2.75  10 2.75  19 2.75  42 2.75
                            27 2.75  12 2.75   6 2.75  36 2.75
   3  0.833  0.833  0.408-  33 2.75  18 2.75  20 2.75   7 2.75  43 2.75  35 2.75  23 2.75   8 2.75
                            30 2.75
   4  0.083  0.333  0.408-  14 2.75  13 2.75   7 2.75  36 2.75  43 2.75  12 2.75  24 2.75  27 2.75
                            37 2.75
   5  0.750  0.500  0.592-   9 2.75  37 2.75   1 2.75   6 2.75  41 2.75  44 2.75  45 2.75  47 2.75
                            10 2.75
   6  0.000  0.250  0.592-  37 2.75  27 2.75   5 2.75  11 2.75  38 2.75  47 2.75  46 2.75  44 2.75
                             2 2.75
   7  0.083  0.583  0.408-  16 2.75   4 2.75   3 2.75  24 2.75  35 2.75  28 2.75  43 2.75  14 2.75
                             8 2.75
   8  0.917  0.667  0.500-  43 2.75  47 2.75   1 2.75  33 2.75  37 2.75  14 2.75  30 2.75  16 2.75
                             9 2.75   3 2.75  25 2.75   7 2.75
   9  0.667  0.667  0.500-  26 2.75   5 2.75  41 2.75  10 2.75  30 2.75  37 2.75  21 2.75  40 2.75
                             8 2.75  23 2.75   1 2.75  43 2.75
  10  0.667  0.417  0.500-  32 2.75  44 2.75  45 2.75  40 2.75  42 2.75   9 2.75   2 2.75  29 2.75
                            37 2.75  26 2.75   5 2.75  12 2.75
  11  0.250  0.000  0.592-  27 2.75  21 2.75   6 2.75  41 2.75  46 2.75  48 2.75  38 2.75  22 2.75
                            19 2.75
  12  0.833  0.333  0.408-  37 2.75  26 2.75  36 2.75  18 2.75  43 2.75  32 2.75   4 2.75   2 2.75
                            10 2.75
  13  0.333  0.083  0.408-  31 2.75  23 2.75  24 2.75   4 2.75  34 2.75  20 2.75  36 2.75  21 2.75
                            27 2.75
  14  0.167  0.417  0.500-   4 2.75  46 2.75  47 2.75  27 2.75  31 2.75   8 2.75  16 2.75  29 2.75
                            37 2.75   7 2.75  17 2.75  24 2.75
  15  0.750  0.000  0.592-  42 2.75  33 2.75   1 2.75  39 2.75  25 2.75  44 2.75  38 2.75  22 2.75
                            30 2.75
  16  0.167  0.667  0.500-   7 2.75  17 2.75  25 2.75  19 2.75  14 2.75  29 2.75  33 2.75   8 2.75
                            40 2.75  35 2.75  28 2.75  48 2.75
  17  0.250  0.500  0.592-  16 2.75  29 2.75  25 2.75  39 2.75  46 2.75  48 2.75  47 2.75  45 2.75
                            14 2.75
  18  0.833  0.083  0.408-   2 2.75   3 2.75  12 2.75  32 2.75  35 2.75  20 2.75  36 2.75  33 2.75
                            42 2.75
  19  0.167  0.917  0.500-  35 2.75  48 2.75  38 2.75   2 2.75  16 2.75  40 2.75  27 2.75  21 2.75
                            33 2.75  36 2.75  34 2.75  11 2.75
  20  0.583  0.083  0.408-  42 2.75  23 2.75  24 2.75  32 2.75   3 2.75  13 2.75  18 2.75  30 2.75
                            31 2.75
  21  0.417  0.917  0.500-  34 2.75  41 2.75  11 2.75  31 2.75   9 2.75  40 2.75  27 2.75  19 2.75
                            30 2.75  13 2.75  22 2.75  23 2.75
  22  0.500  0.000  0.592-  31 2.75  30 2.75   1 2.75  39 2.75  41 2.75  46 2.75  15 2.75  11 2.75
                            21 2.75
  23  0.583  0.833  0.408-  30 2.75  20 2.75  26 2.75  13 2.75  43 2.75  34 2.75   3 2.75   9 2.75
                            21 2.75
  24  0.333  0.333  0.408-  29 2.75  13 2.75  20 2.75  28 2.75   7 2.75   4 2.75  32 2.75  31 2.75
                            14 2.75
  25  0.000  0.750  0.592-  33 2.75  16 2.75  17 2.75  15 2.75  38 2.75  47 2.75   1 2.75  48 2.75
                             8 2.75
  26  0.583  0.583  0.408-   9 2.75  12 2.75  23 2.75  32 2.75  34 2.75  28 2.75  43 2.75  10 2.75
                            40 2.75
  27  0.167  0.167  0.500-  36 2.75  11 2.75   6 2.75  19 2.75  21 2.75  14 2.75  37 2.75   2 2.75
                            31 2.75   4 2.75  13 2.75  46 2.75
  28  0.333  0.583  0.408-  40 2.75  32 2.75  34 2.75  35 2.75  24 2.75   7 2.75  26 2.75  29 2.75
                            16 2.75
  29  0.417  0.417  0.500-  24 2.75  39 2.75  17 2.75  31 2.75  16 2.75  40 2.75  42 2.75  14 2.75
                            10 2.75  28 2.75  32 2.75  45 2.75
  30  0.667  0.917  0.500-  23 2.75   1 2.75  22 2.75   8 2.75   9 2.75  31 2.75  42 2.75  33 2.75
                            21 2.75  20 2.75  15 2.75   3 2.75
  31  0.417  0.167  0.500-  13 2.75  22 2.75  46 2.75  14 2.75  29 2.75  30 2.75  21 2.75  42 2.75
                            27 2.75  24 2.75  20 2.75  39 2.75
  32  0.583  0.333  0.408-  10 2.75  18 2.75  20 2.75  26 2.75  28 2.75  12 2.75  24 2.75  42 2.75
                            29 2.75
  33  0.917  0.917  0.500-   3 2.75  25 2.75  15 2.75   2 2.75  16 2.75   8 2.75  42 2.75  30 2.75
                            19 2.75  18 2.75  38 2.75  35 2.75
  34  0.333  0.833  0.408-  21 2.75  13 2.75  26 2.75  28 2.75  36 2.75  35 2.75  23 2.75  40 2.75
                            19 2.75
  35  0.083  0.833  0.408-  19 2.75  18 2.75   7 2.75  28 2.75  36 2.75  34 2.75   3 2.75  16 2.75
                            33 2.75
  36  0.083  0.083  0.408-  27 2.75  12 2.75   4 2.75  34 2.75  35 2.75  18 2.75  13 2.75  19 2.75
                             2 2.75
  37  0.917  0.417  0.500-  12 2.75   6 2.75   5 2.75   8 2.75   9 2.75   2 2.75  27 2.75  14 2.75
                            10 2.75  43 2.75   4 2.75  47 2.75
  38  0.000  0.000  0.592-   2 2.75  19 2.75   6 2.75  25 2.75  44 2.75  48 2.75  11 2.75  15 2.75
                            33 2.75
  39  0.500  0.250  0.592-  29 2.75  42 2.75  22 2.75  15 2.75  17 2.75  45 2.75  44 2.75  46 2.75
                            31 2.75
  40  0.417  0.667  0.500-  28 2.75  45 2.75  48 2.75  10 2.75  29 2.75  19 2.75  21 2.75   9 2.75
                            16 2.75  34 2.75  26 2.75  41 2.75
  41  0.500  0.750  0.592-  21 2.75   9 2.75  11 2.75   5 2.75  22 2.75  45 2.75   1 2.75  48 2.75
                            40 2.75
  42  0.667  0.167  0.500-  20 2.75  15 2.75  39 2.75  29 2.75  30 2.75  33 2.75  10 2.75   2 2.75
                            31 2.75  32 2.75  18 2.75  44 2.75
  43  0.833  0.583  0.408-   8 2.75   4 2.75   3 2.75  12 2.75  23 2.75   7 2.75  26 2.75  37 2.75
                             9 2.75
  44  0.750  0.250  0.592-  10 2.75   2 2.75   5 2.75  15 2.75  38 2.75  45 2.75  39 2.75   6 2.75
                            42 2.75
  45  0.500  0.500  0.592-  40 2.75  10 2.75  39 2.75  41 2.75  44 2.75  48 2.75  17 2.75   5 2.75
                            29 2.75
  46  0.250  0.250  0.592-  14 2.75  31 2.75  17 2.75  22 2.75  11 2.75  47 2.75  39 2.75   6 2.75
                            27 2.75
  47  0.000  0.500  0.592-   8 2.75  14 2.75   1 2.75   6 2.75  25 2.75  46 2.75   5 2.75  17 2.75
                            37 2.75
  48  0.250  0.750  0.592-  19 2.75  40 2.75  11 2.75  38 2.75  17 2.75  45 2.75  41 2.75  25 2.75
                            16 2.75
 
  LATTYP: Found a hexagonal cell.
 ALAT       =    11.0025815153
 C/A-ratio  =     2.2260035120
  
  Lattice vectors:
  
 A1 = (   5.5012907576,  -9.5285150994,   0.0000000000)
 A2 = ( -11.0025815153,   0.0000000000,   0.0000000000)
 A3 = (   0.0000000000,   0.0000000000, -24.4917850943)


Analysis of symmetry for initial positions (statically):
=====================================================================
 Subroutine PRICEL returns:
 Original cell was already a primitive cell.
 

 Routine SETGRP: Setting up the symmetry group for a 
 hexagonal supercell.


 Subroutine GETGRP returns: Found  1 space group operations
 (whereof  1 operations were pure point group operations)
 out of a pool of 24 trial point group operations.


The static configuration has the point symmetry C_1 .


Analysis of symmetry for dynamics (positions and initial velocities):
=====================================================================
 Subroutine PRICEL returns:
 Original cell was already a primitive cell.
 

 Routine SETGRP: Setting up the symmetry group for a 
 hexagonal supercell.


 Subroutine GETGRP returns: Found  1 space group operations
 (whereof  1 operations were pure point group operations)
 out of a pool of 24 trial point group operations.


The dynamic configuration has the point symmetry C_1 .


Analysis of constrained symmetry for selective dynamics:
=====================================================================
 Subroutine PRICEL returns:
 Original cell was already a primitive cell.
 

 Routine SETGRP: Setting up the symmetry group for a 
 hexagonal supercell.


 Subroutine GETGRP returns: Found  1 space group operations
 (whereof  1 operations were pure point group operations)
 out of a pool of 24 trial point group operations.


The constrained configuration has the point symmetry C_1 .
 
 
 KPOINTS: Automatic mesh                          

Automatic generation of k-mesh.
Space group operators:
 irot       det(A)        alpha          n_x          n_y          n_z        tau_x        tau_y        tau_z
    1     1.000000     0.000000     1.000000     0.000000     0.000000     0.000000     0.000000     0.000000
 
 Subroutine IBZKPT returns following result:
 ===========================================
 
 Found      6 irreducible k-points:
 
 Following reciprocal coordinates:
            Coordinates               Weight
  0.250000  0.250000  0.000000     16.000000
  0.000000  0.250000  0.000000     16.000000
 -0.250000  0.000000  0.000000     16.000000
 -0.250000  0.250000  0.000000     16.000000
  0.500000 -0.250000  0.000000     16.000000
 -0.250000  0.500000  0.000000     16.000000
 
 Following cartesian coordinates:
            Coordinates               Weight
  0.022722  0.013119  0.000000     16.000000
  0.000000  0.026237  0.000000     16.000000
 -0.022722  0.013119  0.000000     16.000000
 -0.022722  0.039356  0.000000     16.000000
  0.045444 -0.052474  0.000000     16.000000
 -0.022722  0.065593  0.000000     16.000000
 


--------------------------------------------------------------------------------------------------------




 Dimension of arrays:
   k-points           NKPTS =      6   k-points in BZ     NKDIM =      6   number of bands    NBANDS=    306
   number of dos      NEDOS =    301   number of ions     NIONS =     48
   non local maximal  LDIM  =      6   non local SUM 2l+1 LMDIM =     18
   total plane-waves  NPLWV = 349920
   max r-space proj   IRMAX =   2009   max aug-charges    IRDMAX=   8532
   dimension x,y,z NGX =    54 NGY =   54 NGZ =  120
   dimension x,y,z NGXF=   108 NGYF=  108 NGZF=  240
   support grid    NGXF=   108 NGYF=  108 NGZF=  240
   ions per type =              24  24
 NGX,Y,Z   is equivalent  to a cutoff of   8.16,  8.16,  8.15 a.u.
 NGXF,Y,Z  is equivalent  to a cutoff of  16.32, 16.32, 16.29 a.u.


 I would recommend the setting:
   dimension x,y,z NGX =    54 NGY =   54 NGZ =  120
 SYSTEM =  unknown system                          
 POSCAR =  Au Pd                                   

 Startparameter for this run:
   NWRITE =      1    write-flag & timer
   PREC   = normal    normal or accurate (medium, high low for compatibility)
   ISTART =      0    job   : 0-new  1-cont  2-samecut
   ICHARG =      2    charge: 1-file 2-atom 10-const
   ISPIN  =      1    spin polarized calculation?
   LNONCOLLINEAR =      F non collinear calculations
   LSORBIT =      F    spin-orbit coupling
   INIWAV =      1    electr: 0-lowe 1-rand  2-diag
   LASPH  =      F    aspherical Exc in radial PAW
   METAGGA=      F    non-selfconsistent MetaGGA calc.

 Electronic Relaxation 1
   ENCUT  =  400.0 eV  29.40 Ry    5.42 a.u.  17.94 17.94 39.94*2*pi/ulx,y,z
   ENINI  =  400.0     initial cutoff
   ENAUG  =  416.2 eV  augmentation charge cutoff
   NELM   =    500;   NELMIN=  2; NELMDL= -5     # of ELM steps 
   EDIFF  = 0.1E-05   stopping-criterion for ELM
   LREAL  =      T    real-space projection
   NLSPLINE    = F    spline interpolate recip. space projectors
   LCOMPAT=      F    compatible to vasp.4.4
   GGA_COMPAT  = T    GGA compatible to vasp.4.4-vasp.4.6
   LMAXPAW     = -100 max onsite density
   LMAXMIX     =    2 max onsite mixed and CHGCAR
   VOSKOWN=      1    Vosko Wilk Nusair interpolation
   ROPT   =   -0.00050  -0.00050
 Ionic relaxation
   EDIFFG = -.2E-01   stopping-criterion for IOM
   NSW    =    500    number of steps for IOM
   NBLOCK =      1;   KBLOCK =    500    inner block; outer block 
   IBRION =      2    ionic relax: 0-MD 1-quasi-New 2-CG
   NFREE  =      2    steps in history (QN), initial steepest desc. (CG)
   ISIF   =      0    stress and relaxation
   IWAVPR =     11    prediction:  0-non 1-charg 2-wave 3-comb
   ISYM   =      2    0-nonsym 1-usesym 2-fastsym
   LCORR  =      T    Harris-Foulkes like correction to forces

   POTIM  = 0.3500    time-step for ionic-motion
   TEIN   =    0.0    initial temperature
   TEBEG  =    0.0;   TEEND  =   0.0 temperature during run
   SMASS  =  -3.00    Nose mass-parameter (am)
   estimated Nose-frequenzy (Omega)   =  0.10E-29 period in steps =****** mass=  -0.277E-26a.u.
   SCALEE = 1.0000    scale energy and forces
   NPACO  =    256;   APACO  = 16.0  distance and # of slots for P.C.
   PSTRESS=    0.0 pullay stress

  Mass of Ions in am
   POMASS = 196.97106.42
  Ionic Valenz
   ZVAL   =  11.00 10.00
  Atomic Wigner-Seitz radii
   RWIGS  =  -1.00 -1.00
  virtual crystal weights 
   VCA    =   1.00  1.00
   NELECT =     504.0000    total number of electrons
   NUPDOWN=      -1.0000    fix difference up-down

 DOS related values:
   EMIN   =  10.00;   EMAX   =-10.00  energy-range for DOS
   EFERMI =   0.00
   ISMEAR =     0;   SIGMA  =   0.10  broadening in eV -4-tet -1-fermi 0-gaus

 Electronic relaxation 2 (details)
   IALGO  =     68    algorithm
   LDIAG  =      T    sub-space diagonalisation (order eigenvalues)
   LSUBROT=      F    optimize rotation matrix (better conditioning)
   TURBO    =      0    0=normal 1=particle mesh
   IRESTART =      0    0=no restart 2=restart with 2 vectors
   NREBOOT  =      0    no. of reboots
   NMIN     =      0    reboot dimension
   EREF     =   0.00    reference energy to select bands
   IMIX   =      4    mixing-type and parameters
     AMIX     =   0.40;   BMIX     =  1.00
     AMIX_MAG =   1.60;   BMIX_MAG =  1.00
     AMIN     =   0.10
     WC   =   100.;   INIMIX=   1;  MIXPRE=   1;  MAXMIX= -45

 Intra band minimization:
   WEIMIN = 0.0010     energy-eigenvalue tresh-hold
   EBREAK =  0.82E-09  absolut break condition
   DEPER  =   0.30     relativ break condition  

   TIME   =   0.40     timestep for ELM

  volume/ion in A,a.u.               =      53.49       360.99
  Fermi-wavevector in a.u.,A,eV,Ry     =   0.951418  1.797920 12.315955  0.905197
  Thomas-Fermi vector in A             =   2.079887
 
 Write flags
   LWAVE  =      F    write WAVECAR
   LCHARG =      F    write CHGCAR
   LVTOT  =      F    write LOCPOT, total local potential
   LVHAR  =      F    write LOCPOT, Hartree potential only
   LELF   =      F    write electronic localiz. function (ELF)
   LORBIT =      0    0 simple, 1 ext, 2 COOP (PROOUT)


 Dipole corrections
   LMONO  =      F    monopole corrections only (constant potential shift)
   LDIPOL =      T    correct potential (dipole corrections)
   IDIPOL =      3    1-x, 2-y, 3-z, 4-all directions 
   EPSILON=  1.0000000 bulk dielectric constant

 Exchange correlation treatment:
   GGA     =    PE    GGA type
   LEXCH   =     8    internal setting for exchange type
   VOSKOWN=      1    Vosko Wilk Nusair interpolation
   LHFCALC =     F    Hartree Fock is set to
   LHFONE  =     F    Hartree Fock one center treatment
   AEXX    =    0.0000 exact exchange contribution

 Linear response parameters
   LEPSILON=     F    determine dielectric tensor
   LRPA    =     F    only Hartree local field effects (RPA)
   LNABLA  =     F    use nabla operator in PAW spheres
   LVEL    =     F    velocity operator in full k-point grid
   LINTERFAST=   F  fast interpolation
   KINTER  =     0    interpolate to denser k-point grid
   CSHIFT  =0.1000    complex shift for real part using Kramers Kronig
   OMEGAMAX=  -1.0    maximum frequency
   DEG_THRESHOLD= 0.2000000E-02 threshold for treating states as degnerate
   RTIME   =    0.100 relaxation time in fs

 Orbital magnetization related:
   ORBITALMAG=     F  switch on orbital magnetization
   LCHIMAG   =     F  perturbation theory with respect to B field
   DQ        =  0.001000  dq finite difference perturbation B field



--------------------------------------------------------------------------------------------------------


 conjugate gradient relaxation of ions
   using selective dynamics as specified on POSCAR
   WARNING: If single coordinates had been selected the selection of coordinates
            is made according to the corresponding   d i r e c t   coordinates!
            Don't support selection of single cartesian coordinates -- sorry ...
  !
 charge density and potential will be updated during run
 non-spin polarized calculation
 RMM-DIIS sequential band-by-band and
  variant of blocked Davidson during initial phase
 perform sub-space diagonalisation
    before iterative eigenvector-optimisation
 modified Broyden-mixing scheme, WC =      100.0
 initial mixing is a Kerker type mixing with AMIX =  0.4000 and BMIX =      1.0000
 Hartree-type preconditioning will be used
 using additional bands           54
 real space projection scheme for non local part
 use partial core corrections
 calculate Harris-corrections to forces 
   (improved forces if not selfconsistent)
 use gradient corrections 
 use of overlap-Matrix (Vanderbilt PP)
 Gauss-broadening in eV      SIGMA  =   0.10


--------------------------------------------------------------------------------------------------------


  energy-cutoff  :      400.00
  volume of cell :     2567.68
      direct lattice vectors                 reciprocal lattice vectors
    11.002581515  0.000000000  0.000000000     0.090887761 -0.052474073  0.000000000
     5.501290758  9.528515099  0.000000000     0.000000000  0.104948147  0.000000000
     0.000000000  0.000000000 24.491785094     0.000000000  0.000000000  0.040830017

  length of vectors
    11.002581515 11.002581515 24.491785094     0.104948147  0.104948147  0.040830017


 
 k-points in units of 2pi/SCALE and weight: Automatic mesh                          
   0.02272194  0.01311852  0.00000000       0.167
   0.00000000  0.02623704  0.00000000       0.167
  -0.02272194  0.01311852  0.00000000       0.167
  -0.02272194  0.03935555  0.00000000       0.167
   0.04544388 -0.05247407  0.00000000       0.167
  -0.02272194  0.06559259  0.00000000       0.167
 
 k-points in reciprocal lattice and weights: Automatic mesh                          
   0.25000000  0.25000000  0.00000000       0.167
   0.00000000  0.25000000  0.00000000       0.167
  -0.25000000  0.00000000  0.00000000       0.167
  -0.25000000  0.25000000  0.00000000       0.167
   0.50000000 -0.25000000  0.00000000       0.167
  -0.25000000  0.50000000  0.00000000       0.167
 
 position of ions in fractional coordinates (direct lattice) 
   0.75000000  0.75000000  0.59169983
   0.91666667  0.16666667  0.50000000
   0.83333333  0.83333333  0.40830017
   0.08333333  0.33333333  0.40830017
   0.75000000  0.50000000  0.59169983
   0.00000000  0.25000000  0.59169983
   0.08333333  0.58333333  0.40830017
   0.91666667  0.66666667  0.50000000
   0.66666667  0.66666667  0.50000000
   0.66666667  0.41666667  0.50000000
   0.25000000  0.00000000  0.59169983
   0.83333333  0.33333333  0.40830017
   0.33333333  0.08333333  0.40830017
   0.16666667  0.41666667  0.50000000
   0.75000000  0.00000000  0.59169983
   0.16666667  0.66666667  0.50000000
   0.25000000  0.50000000  0.59169983
   0.83333333  0.08333333  0.40830017
   0.16666667  0.91666667  0.50000000
   0.58333333  0.08333333  0.40830017
   0.41666667  0.91666667  0.50000000
   0.50000000  0.00000000  0.59169983
   0.58333333  0.83333333  0.40830017
   0.33333333  0.33333333  0.40830017
   0.00000000  0.75000000  0.59169983
   0.58333333  0.58333333  0.40830017
   0.16666667  0.16666667  0.50000000
   0.33333333  0.58333333  0.40830017
   0.41666667  0.41666667  0.50000000
   0.66666667  0.91666667  0.50000000
   0.41666667  0.16666667  0.50000000
   0.58333333  0.33333333  0.40830017
   0.91666667  0.91666667  0.50000000
   0.33333333  0.83333333  0.40830017
   0.08333333  0.83333333  0.40830017
   0.08333333  0.08333333  0.40830017
   0.91666667  0.41666667  0.50000000
   0.00000000  0.00000000  0.59169983
   0.50000000  0.25000000  0.59169983
   0.41666667  0.66666667  0.50000000
   0.50000000  0.75000000  0.59169983
   0.66666667  0.16666667  0.50000000
   0.83333333  0.58333333  0.40830017
   0.75000000  0.25000000  0.59169983
   0.50000000  0.50000000  0.59169983
   0.25000000  0.25000000  0.59169983
   0.00000000  0.50000000  0.59169983
   0.25000000  0.75000000  0.59169983
 
 position of ions in cartesian coordinates  (Angst):
  12.37790420  7.14638632 14.49178509
  11.00258152  1.58808585 12.24589255
  13.75322689  7.94042925 10.00000000
   2.75064538  3.17617170 10.00000000
  11.00258152  4.76425755 14.49178509
   1.37532269  2.38212877 14.49178509
   4.12596807  5.55830047 10.00000000
  13.75322689  6.35234340 12.24589255
  11.00258152  6.35234340 12.24589255
   9.62725883  3.97021462 12.24589255
   2.75064538  0.00000000 14.49178509
  11.00258152  3.17617170 10.00000000
   4.12596807  0.79404292 10.00000000
   4.12596807  3.97021462 12.24589255
   8.25193614  0.00000000 14.49178509
   5.50129076  6.35234340 12.24589255
   5.50129076  4.76425755 14.49178509
   9.62725883  0.79404292 10.00000000
   6.87661345  8.73447217 12.24589255
   6.87661345  0.79404292 10.00000000
   9.62725883  8.73447217 12.24589255
   5.50129076  0.00000000 14.49178509
  11.00258152  7.94042925 10.00000000
   5.50129076  3.17617170 10.00000000
   4.12596807  7.14638632 14.49178509
   9.62725883  5.55830047 10.00000000
   2.75064538  1.58808585 12.24589255
   6.87661345  5.55830047 10.00000000
   6.87661345  3.97021462 12.24589255
  12.37790420  8.73447217 12.24589255
   5.50129076  1.58808585 12.24589255
   8.25193614  3.17617170 10.00000000
  15.12854958  8.73447217 12.24589255
   8.25193614  7.94042925 10.00000000
   5.50129076  7.94042925 10.00000000
   1.37532269  0.79404292 10.00000000
  12.37790420  3.97021462 12.24589255
   0.00000000  0.00000000 14.49178509
   6.87661345  2.38212877 14.49178509
   8.25193614  6.35234340 12.24589255
   9.62725883  7.14638632 14.49178509
   8.25193614  1.58808585 12.24589255
  12.37790420  5.55830047 10.00000000
   9.62725883  2.38212877 14.49178509
   8.25193614  4.76425755 14.49178509
   4.12596807  2.38212877 14.49178509
   2.75064538  4.76425755 14.49178509
   6.87661345  7.14638632 14.49178509
 


--------------------------------------------------------------------------------------------------------


 k-point  1 :   0.2500 0.2500 0.0000  plane waves:   46635
 k-point  2 :   0.0000 0.2500 0.0000  plane waves:   46635
 k-point  3 :  -0.2500 0.0000 0.0000  plane waves:   46635
 k-point  4 :  -0.2500 0.2500 0.0000  plane waves:   46644
 k-point  5 :   0.5000-0.2500 0.0000  plane waves:   46644
 k-point  6 :  -0.2500 0.5000 0.0000  plane waves:   46644

 maximum and minimum number of plane-waves per node :      7818     7732

 maximum number of plane-waves:     46644
 maximum index in each direction: 
   IXMAX=   18   IYMAX=   18   IZMAX=   39
   IXMIN=  -18   IYMIN=  -18   IZMIN=  -39

 WARNING: aliasing errors must be expected set NGX to  74 to avoid them
 WARNING: aliasing errors must be expected set NGY to  74 to avoid them
 WARNING: aliasing errors must be expected set NGZ to 158 to avoid them
 aliasing errors are usually negligible using standard VASP settings
 and one can safely disregard these warnings

 real space projection operators:
  total allocation   :      12803.06 KBytes
  max/ min on nodes  :       2145.66       2127.94


 parallel 3D FFT for wavefunctions:
    minimum data exchange during FFTs selected (reduces bandwidth)
 parallel 3D FFT for charge:
    minimum data exchange during FFTs selected (reduces bandwidth)


 total amount of memory used by VASP on root node    84353. kBytes
========================================================================

   base      :      30000. kBytes
   nonlr-proj:       4285. kBytes
   fftplans  :       4447. kBytes
   grid      :       6721. kBytes
   one-center:        124. kBytes
   wavefun   :      38776. kBytes
 
     INWAV:  cpu time    0.0000: real time    0.0000
 Broyden mixing: mesh for mixing (old mesh)
   NGX = 35   NGY = 35   NGZ = 79
  (NGX  =108   NGY  =108   NGZ  =240)
  gives a total of  96775 points

 initial charge density was supplied:
 charge density of overlapping atoms calculated
 number of electron     504.0000000 magnetization 
 keeping initial charge density in first step


--------------------------------------------------------------------------------------------------------


 Maximum index for non-local projection operator          355
 Maximum index for augmentation-charges          437 (set IRDMAX)


--------------------------------------------------------------------------------------------------------


 First call to EWALD:  gamma=   0.129
 Maximum number of real-space cells 4x 4x 2
 Maximum number of reciprocal cells 2x 2x 5

 FEWALD executed in parallel
    FEWALD:  cpu time    0.0023: real time    0.0027


----------------------------------------- Iteration    1(   1)  ---------------------------------------


    POTLOK:  cpu time    0.0466: real time    0.0469
    SETDIJ:  cpu time    0.0060: real time    0.0060
     EDDAV:  cpu time    6.8760: real time    6.8966
       DOS:  cpu time    0.0014: real time    0.0014
    --------------------------------------------
      LOOP:  cpu time    6.9327: real time    6.9574

 eigenvalue-minimisations  :  3672
 total energy-change (2. order) : 0.3200722E+04  (-0.1897774E+05)
 number of electron     504.0000000 magnetization 
 augmentation part      504.0000000 magnetization 

 DIPCOR: dipole corrections for dipol
 direction  3 min pos     1,
 dipolmoment           0.000000      0.000000      0.000001 electrons x Angstroem
 Tr[quadrupol]    -10222.678422

 energy correction for charged system         0.000000 eV
 dipol+quadrupol energy correction           -0.000000 eV
 added-field ion interaction          0.000000 eV  (added to PSCEN)


 Free energy of the ion-electron system (eV)
  ---------------------------------------------------
  alpha Z        PSCENC =       805.86936475
  Ewald energy   TEWEN  =    200160.77317982
  -Hartree energ DENC   =   -242574.80148031
  -exchange      EXHF   =         0.00000000
  -V(xc)+E(xc)   XCENC  =      -327.62854691
  PAW double counting   =     40340.05962942   -38292.62782345
  entropy T*S    EENTRO =        -0.12666096
  eigenvalues    EBANDS =      1429.41842059
  atomic energy  EATOM  =     41659.78587232
  Solvation  Ediel_sol  =         0.00000000
  ---------------------------------------------------
  free energy    TOTEN  =      3200.72195527 eV

  energy without entropy =     3200.84861623  energy(sigma->0) =     3200.78528575


--------------------------------------------------------------------------------------------------------




----------------------------------------- Iteration    1(   2)  ---------------------------------------


     EDDAV:  cpu time    8.2451: real time    8.2678
       DOS:  cpu time    0.0015: real time    0.0015
    --------------------------------------------
      LOOP:  cpu time    8.2471: real time    8.2715

 eigenvalue-minimisations  :  4380
 total energy-change (2. order) :-0.3185489E+04  (-0.2931528E+04)
 number of electron     504.0000000 magnetization 
 augmentation part      504.0000000 magnetization 

 DIPCOR: dipole corrections for dipol
 direction  3 min pos     1,
 dipolmoment           0.000000      0.000000      0.000001 electrons x Angstroem
 Tr[quadrupol]    -10222.678422

 energy correction for charged system         0.000000 eV
 dipol+quadrupol energy correction           -0.000000 eV
 added-field ion interaction          0.000000 eV  (added to PSCEN)


 Free energy of the ion-electron system (eV)
  ---------------------------------------------------
  alpha Z        PSCENC =       805.86936475
  Ewald energy   TEWEN  =    200160.77317982
  -Hartree energ DENC   =   -242574.80148031
  -exchange      EXHF   =         0.00000000
  -V(xc)+E(xc)   XCENC  =      -327.62854691
  PAW double counting   =     40340.05962942   -38292.62782345
  entropy T*S    EENTRO =        -0.12572827
  eigenvalues    EBANDS =     -1756.07137125
  atomic energy  EATOM  =     41659.78587232
  Solvation  Ediel_sol  =         0.00000000
  ---------------------------------------------------
  free energy    TOTEN  =        15.23309612 eV

  energy without entropy =       15.35882439  energy(sigma->0) =       15.29596026


--------------------------------------------------------------------------------------------------------




----------------------------------------- Iteration    1(   3)  ---------------------------------------


     EDDAV:  cpu time    7.9311: real time    7.9514
       DOS:  cpu time    0.0015: real time    0.0016
    --------------------------------------------
      LOOP:  cpu time    7.9333: real time    7.9571

 eigenvalue-minimisations  :  4128
 total energy-change (2. order) :-0.2156222E+03  (-0.2001357E+03)
 number of electron     504.0000000 magnetization 
 augmentation part      504.0000000 magnetization 

 DIPCOR: dipole corrections for dipol
 direction  3 min pos     1,
 dipolmoment           0.000000      0.000000      0.000001 electrons x Angstroem
 Tr[quadrupol]    -10222.678422

 energy correction for charged system         0.000000 eV
 dipol+quadrupol energy correction           -0.000000 eV
 added-field ion interaction          0.000000 eV  (added to PSCEN)


 Free energy of the ion-electron system (eV)
  ---------------------------------------------------
  alpha Z        PSCENC =       805.86936475
  Ewald energy   TEWEN  =    200160.77317982
  -Hartree energ DENC   =   -242574.80148031
  -exchange      EXHF   =         0.00000000
  -V(xc)+E(xc)   XCENC  =      -327.62854691
  PAW double counting   =     40340.05962942   -38292.62782345
  entropy T*S    EENTRO =        -0.19772056
  eigenvalues    EBANDS =     -1971.62159225
  atomic energy  EATOM  =     41659.78587232
  Solvation  Ediel_sol  =         0.00000000
  ---------------------------------------------------
  free energy    TOTEN  =      -200.38911717 eV

  energy without entropy =     -200.19139661  energy(sigma->0) =     -200.29025689


--------------------------------------------------------------------------------------------------------




----------------------------------------- Iteration    1(   4)  ---------------------------------------


     EDDAV:  cpu time    8.0306: real time    8.1309
       DOS:  cpu time    0.0016: real time    0.0016
    --------------------------------------------
      LOOP:  cpu time    8.0329: real time    8.1377

 eigenvalue-minimisations  :  4200
 total energy-change (2. order) :-0.5848150E+01  (-0.5780388E+01)
 number of electron     504.0000000 magnetization 
 augmentation part      504.0000000 magnetization 

 DIPCOR: dipole corrections for dipol
 direction  3 min pos     1,
 dipolmoment           0.000000      0.000000      0.000001 electrons x Angstroem
 Tr[quadrupol]    -10222.678422

 energy correction for charged system         0.000000 eV
 dipol+quadrupol energy correction           -0.000000 eV
 added-field ion interaction          0.000000 eV  (added to PSCEN)


 Free energy of the ion-electron system (eV)
  ---------------------------------------------------
  alpha Z        PSCENC =       805.86936475
  Ewald energy   TEWEN  =    200160.77317982
  -Hartree energ DENC   =   -242574.80148031
  -exchange      EXHF   =         0.00000000
  -V(xc)+E(xc)   XCENC  =      -327.62854691
  PAW double counting   =     40340.05962942   -38292.62782345
  entropy T*S    EENTRO =        -0.20548697
  eigenvalues    EBANDS =     -1977.46197599
  atomic energy  EATOM  =     41659.78587232
  Solvation  Ediel_sol  =         0.00000000
  ---------------------------------------------------
  free energy    TOTEN  =      -206.23726732 eV

  energy without entropy =     -206.03178035  energy(sigma->0) =     -206.13452384


--------------------------------------------------------------------------------------------------------




----------------------------------------- Iteration    1(   5)  ---------------------------------------


     EDDAV:  cpu time    8.3349: real time    8.3600
       DOS:  cpu time    0.0015: real time    0.0015
    CHARGE:  cpu time    0.2344: real time    0.2349
    MIXING:  cpu time    0.0023: real time    0.0023
    --------------------------------------------
      LOOP:  cpu time    8.5739: real time    8.6026

 eigenvalue-minimisations  :  4416
 total energy-change (2. order) :-0.1957615E+00  (-0.1951782E+00)
 number of electron     503.9998405 magnetization 
 augmentation part      191.2853984 magnetization 

 DIPCOR: dipole corrections for dipol
 direction  3 min pos     1,
 dipolmoment           0.000000      0.000000      0.000001 electrons x Angstroem
 Tr[quadrupol]    -10222.678422

 energy correction for charged system         0.000000 eV
 dipol+quadrupol energy correction           -0.000000 eV
 added-field ion interaction          0.000000 eV  (added to PSCEN)


 Broyden mixing:
  rms(total) = 0.62315E+01    rms(broyden)= 0.62314E+01
  rms(prec ) = 0.63487E+01
  weight for this iteration     100.00

 Free energy of the ion-electron system (eV)
  ---------------------------------------------------
  alpha Z        PSCENC =       805.86936475
  Ewald energy   TEWEN  =    200160.77317982
  -Hartree energ DENC   =   -242574.80148031
  -exchange      EXHF   =         0.00000000
  -V(xc)+E(xc)   XCENC  =      -327.62854691
  PAW double counting   =     40340.05962942   -38292.62782345
  entropy T*S    EENTRO =        -0.20550578
  eigenvalues    EBANDS =     -1977.65771864
  atomic energy  EATOM  =     41659.78587232
  Solvation  Ediel_sol  =         0.00000000
  ---------------------------------------------------
  free energy    TOTEN  =      -206.43302878 eV

  energy without entropy =     -206.22752300  energy(sigma->0) =     -206.33027589


--------------------------------------------------------------------------------------------------------




----------------------------------------- Iteration    1(   6)  ---------------------------------------


    POTLOK:  cpu time    0.0432: real time    0.0434
    SETDIJ:  cpu time    0.0063: real time    0.0063
    EDDIAG:  cpu time    1.2239: real time    1.2269
  RMM-DIIS:  cpu time    3.3835: real time    3.3917
    ORTHCH:  cpu time    0.2931: real time    0.2938
       DOS:  cpu time    0.0016: real time    0.0016
    CHARGE:  cpu time    0.2357: real time    0.2362
    MIXING:  cpu time    0.0020: real time    0.0021
    --------------------------------------------
      LOOP:  cpu time    5.1898: real time    5.2061

 eigenvalue-minimisations  :  3679
 total energy-change (2. order) : 0.6122985E+01  (-0.9179335E+01)
 number of electron     503.9998420 magnetization 
 augmentation part      191.9286550 magnetization 

 DIPCOR: dipole corrections for dipol
 direction  3 min pos     1,
 dipolmoment           0.000000      0.000000      0.678444 electrons x Angstroem
 Tr[quadrupol]    -10224.091521

 energy correction for charged system         0.000000 eV
 dipol+quadrupol energy correction           -0.016219 eV
 added-field ion interaction          0.214766 eV  (added to PSCEN)


 Broyden mixing:
  rms(total) = 0.53710E+01    rms(broyden)= 0.53709E+01
  rms(prec ) = 0.56169E+01
  weight for this iteration     100.00

 eigenvalues of (default mixing * dielectric matrix)
  average eigenvalue GAMMA=   0.7806
  0.7806

 Free energy of the ion-electron system (eV)
  ---------------------------------------------------
  alpha Z        PSCENC =       806.06791125
  Ewald energy   TEWEN  =    200160.77317982
  -Hartree energ DENC   =   -242326.13855299
  -exchange      EXHF   =         0.00000000
  -V(xc)+E(xc)   XCENC  =      -340.20362435
  PAW double counting   =     43918.63172475   -41930.49800416
  entropy T*S    EENTRO =        -0.26053695
  eigenvalues    EBANDS =     -2148.46801308
  atomic energy  EATOM  =     41659.78587232
  Solvation  Ediel_sol  =         0.00000000
  ---------------------------------------------------
  free energy    TOTEN  =      -200.31004341 eV

  energy without entropy =     -200.04950645  energy(sigma->0) =     -200.17977493


--------------------------------------------------------------------------------------------------------




----------------------------------------- Iteration    1(   7)  ---------------------------------------


    POTLOK:  cpu time    0.0426: real time    0.0427
    SETDIJ:  cpu time    0.0062: real time    0.0062
    EDDIAG:  cpu time    1.2306: real time    1.2336
  RMM-DIIS:  cpu time    3.4139: real time    3.4223
    ORTHCH:  cpu time    0.2984: real time    0.2999
       DOS:  cpu time    0.0016: real time    0.0016
    CHARGE:  cpu time    0.2341: real time    0.2346
    MIXING:  cpu time    0.0020: real time    0.0020
    --------------------------------------------
      LOOP:  cpu time    5.2299: real time    5.2460

 eigenvalue-minimisations  :  3684
 total energy-change (2. order) :-0.1229487E+02  (-0.6094979E+01)
 number of electron     503.9998375 magnetization 
 augmentation part      195.1991650 magnetization 

 DIPCOR: dipole corrections for dipol
 direction  3 min pos     1,
 dipolmoment           0.000000      0.000000     -1.203011 electrons x Angstroem
 Tr[quadrupol]    -10223.032290

 energy correction for charged system         0.000000 eV
 dipol+quadrupol energy correction           -0.050997 eV
 added-field ion interaction         -0.380822 eV  (added to PSCEN)


 Broyden mixing:
  rms(total) = 0.46287E+01    rms(broyden)= 0.46284E+01
  rms(prec ) = 0.53913E+01
  weight for this iteration     100.00

 eigenvalues of (default mixing * dielectric matrix)
  average eigenvalue GAMMA=   0.9127
  1.4730  0.3524

 Free energy of the ion-electron system (eV)
  ---------------------------------------------------
  alpha Z        PSCENC =       805.43754592
  Ewald energy   TEWEN  =    200160.77317982
  -Hartree energ DENC   =   -242187.06204231
  -exchange      EXHF   =         0.00000000
  -V(xc)+E(xc)   XCENC  =      -342.55415870
  PAW double counting   =     45402.95595092   -43440.97079545
  entropy T*S    EENTRO =        -0.23319463
  eigenvalues    EBANDS =     -2270.73727187
  atomic energy  EATOM  =     41659.78587232
  Solvation  Ediel_sol  =         0.00000000
  ---------------------------------------------------
  free energy    TOTEN  =      -212.60491399 eV

  energy without entropy =     -212.37171935  energy(sigma->0) =     -212.48831667


--------------------------------------------------------------------------------------------------------




----------------------------------------- Iteration    1(   8)  ---------------------------------------


    POTLOK:  cpu time    0.0421: real time    0.0424
    SETDIJ:  cpu time    0.0054: real time    0.0054
    EDDIAG:  cpu time    1.2278: real time    1.2328
  RMM-DIIS:  cpu time    3.4009: real time    3.4109
    ORTHCH:  cpu time    0.2904: real time    0.2912
       DOS:  cpu time    0.0016: real time    0.0016
    CHARGE:  cpu time    0.2377: real time    0.2383
    MIXING:  cpu time    0.0022: real time    0.0022
    --------------------------------------------
      LOOP:  cpu time    5.2088: real time    5.2288

 eigenvalue-minimisations  :  3674
 total energy-change (2. order) :-0.1212686E+02  (-0.8979820E+01)
 number of electron     503.9998356 magnetization 
 augmentation part      196.2188939 magnetization 

 DIPCOR: dipole corrections for dipol
 direction  3 min pos     1,
 dipolmoment           0.000000      0.000000      1.780030 electrons x Angstroem
 Tr[quadrupol]    -10224.006157

 energy correction for charged system         0.000000 eV
 dipol+quadrupol energy correction           -0.111650 eV
 added-field ion interaction          0.563481 eV  (added to PSCEN)


 Broyden mixing:
  rms(total) = 0.46307E+01    rms(broyden)= 0.46303E+01
  rms(prec ) = 0.55928E+01
  weight for this iteration     100.00

 eigenvalues of (default mixing * dielectric matrix)
  average eigenvalue GAMMA=   0.8948
  2.0166  0.4186  0.2492

 Free energy of the ion-electron system (eV)
  ---------------------------------------------------
  alpha Z        PSCENC =       806.32119544
  Ewald energy   TEWEN  =    200160.77317982
  -Hartree energ DENC   =   -242142.20670420
  -exchange      EXHF   =         0.00000000
  -V(xc)+E(xc)   XCENC  =      -344.77335514
  PAW double counting   =     47076.98148547   -45141.82948954
  entropy T*S    EENTRO =        -0.24637618
  eigenvalues    EBANDS =     -2299.53758583
  atomic energy  EATOM  =     41659.78587232
  Solvation  Ediel_sol  =         0.00000000
  ---------------------------------------------------
  free energy    TOTEN  =      -224.73177785 eV

  energy without entropy =     -224.48540167  energy(sigma->0) =     -224.60858976


--------------------------------------------------------------------------------------------------------




----------------------------------------- Iteration    1(   9)  ---------------------------------------


    POTLOK:  cpu time    0.0423: real time    0.0425
    SETDIJ:  cpu time    0.0056: real time    0.0056
    EDDIAG:  cpu time    1.2226: real time    1.2266
  RMM-DIIS:  cpu time    3.4276: real time    3.4365
    ORTHCH:  cpu time    0.2903: real time    0.2910
       DOS:  cpu time    0.0016: real time    0.0016
    CHARGE:  cpu time    0.2337: real time    0.2343
    MIXING:  cpu time    0.0021: real time    0.0021
    --------------------------------------------
      LOOP:  cpu time    5.2266: real time    5.2438

 eigenvalue-minimisations  :  3680
 total energy-change (2. order) : 0.1367786E+02  (-0.5195885E+01)
 number of electron     503.9998332 magnetization 
 augmentation part      198.9566466 magnetization 

 DIPCOR: dipole corrections for dipol
 direction  3 min pos     1,
 dipolmoment           0.000000      0.000000     -0.495877 electrons x Angstroem
 Tr[quadrupol]    -10225.110912

 energy correction for charged system         0.000000 eV
 dipol+quadrupol energy correction           -0.008665 eV
 added-field ion interaction         -0.156973 eV  (added to PSCEN)


 Broyden mixing:
  rms(total) = 0.34549E+01    rms(broyden)= 0.34545E+01
  rms(prec ) = 0.38099E+01
  weight for this iteration     100.00

 eigenvalues of (default mixing * dielectric matrix)
  average eigenvalue GAMMA=   0.8103
  2.2338  0.4060  0.3006  0.3006

 Free energy of the ion-electron system (eV)
  ---------------------------------------------------
  alpha Z        PSCENC =       805.70372630
  Ewald energy   TEWEN  =    200160.77317982
  -Hartree energ DENC   =   -242139.56877178
  -exchange      EXHF   =         0.00000000
  -V(xc)+E(xc)   XCENC  =      -346.41851137
  PAW double counting   =     48405.10329816   -46490.71576748
  entropy T*S    EENTRO =        -0.24504682
  eigenvalues    EBANDS =     -2265.47189935
  atomic energy  EATOM  =     41659.78587232
  Solvation  Ediel_sol  =         0.00000000
  ---------------------------------------------------
  free energy    TOTEN  =      -211.05392021 eV

  energy without entropy =     -210.80887339  energy(sigma->0) =     -210.93139680


--------------------------------------------------------------------------------------------------------




----------------------------------------- Iteration    1(  10)  ---------------------------------------


    POTLOK:  cpu time    0.0419: real time    0.0422
    SETDIJ:  cpu time    0.0055: real time    0.0055
    EDDIAG:  cpu time    1.2168: real time    1.2198
  RMM-DIIS:  cpu time    3.4156: real time    3.4238
    ORTHCH:  cpu time    0.2897: real time    0.2904
       DOS:  cpu time    0.0015: real time    0.0015
    CHARGE:  cpu time    0.2327: real time    0.2332
    MIXING:  cpu time    0.0022: real time    0.0023
    --------------------------------------------
      LOOP:  cpu time    5.2067: real time    5.2230

 eigenvalue-minimisations  :  3682
 total energy-change (2. order) : 0.1425022E+02  (-0.1822231E+01)
 number of electron     503.9998337 magnetization 
 augmentation part      199.3596334 magnetization 

 DIPCOR: dipole corrections for dipol
 direction  3 min pos     1,
 dipolmoment           0.000000      0.000000      0.395760 electrons x Angstroem
 Tr[quadrupol]    -10224.031216

 energy correction for charged system         0.000000 eV
 dipol+quadrupol energy correction           -0.005519 eV
 added-field ion interaction          0.125281 eV  (added to PSCEN)


 Broyden mixing:
  rms(total) = 0.19828E+01    rms(broyden)= 0.19826E+01
  rms(prec ) = 0.22938E+01
  weight for this iteration     100.00

 eigenvalues of (default mixing * dielectric matrix)
  average eigenvalue GAMMA=   0.7646
  2.2965  0.4583  0.4583  0.3784  0.2316

 Free energy of the ion-electron system (eV)
  ---------------------------------------------------
  alpha Z        PSCENC =       805.98912581
  Ewald energy   TEWEN  =    200160.77317982
  -Hartree energ DENC   =   -242117.12802318
  -exchange      EXHF   =         0.00000000
  -V(xc)+E(xc)   XCENC  =      -346.24168241
  PAW double counting   =     49050.76145963   -47142.69740167
  entropy T*S    EENTRO =        -0.15934146
  eigenvalues    EBANDS =     -2267.88689299
  atomic energy  EATOM  =     41659.78587232
  Solvation  Ediel_sol  =         0.00000000
  ---------------------------------------------------
  free energy    TOTEN  =      -196.80370414 eV

  energy without entropy =     -196.64436268  energy(sigma->0) =     -196.72403341


--------------------------------------------------------------------------------------------------------




----------------------------------------- Iteration    1(  11)  ---------------------------------------


    POTLOK:  cpu time    0.0409: real time    0.0410
    SETDIJ:  cpu time    0.0055: real time    0.0055
    EDDIAG:  cpu time    1.2230: real time    1.2260
  RMM-DIIS:  cpu time    3.3270: real time    3.4281
    ORTHCH:  cpu time    0.2903: real time    0.2910
       DOS:  cpu time    0.0016: real time    0.0016
    CHARGE:  cpu time    0.2291: real time    0.2296
    MIXING:  cpu time    0.0024: real time    0.0024
    --------------------------------------------
      LOOP:  cpu time    5.1206: real time    5.2278

 eigenvalue-minimisations  :  3680
 total energy-change (2. order) : 0.4586952E+01  (-0.1283782E+01)
 number of electron     503.9998342 magnetization 
 augmentation part      198.6993114 magnetization 

 DIPCOR: dipole corrections for dipol
 direction  3 min pos     1,
 dipolmoment           0.000000      0.000000      0.041674 electrons x Angstroem
 Tr[quadrupol]    -10225.173797

 energy correction for charged system         0.000000 eV
 dipol+quadrupol energy correction           -0.000061 eV
 added-field ion interaction          0.013192 eV  (added to PSCEN)


 Broyden mixing:
  rms(total) = 0.12943E+01    rms(broyden)= 0.12941E+01
  rms(prec ) = 0.14629E+01
  weight for this iteration     100.00

 eigenvalues of (default mixing * dielectric matrix)
  average eigenvalue GAMMA=   0.7176
  2.2303  0.5808  0.5808  0.3428  0.3428  0.2281

 Free energy of the ion-electron system (eV)
  ---------------------------------------------------
  alpha Z        PSCENC =       805.88249523
  Ewald energy   TEWEN  =    200160.77317982
  -Hartree energ DENC   =   -242182.85349553
  -exchange      EXHF   =         0.00000000
  -V(xc)+E(xc)   XCENC  =      -345.69318133
  PAW double counting   =     49232.16973127   -47322.40475058
  entropy T*S    EENTRO =        -0.24218080
  eigenvalues    EBANDS =     -2199.63442241
  atomic energy  EATOM  =     41659.78587232
  Solvation  Ediel_sol  =         0.00000000
  ---------------------------------------------------
  free energy    TOTEN  =      -192.21675201 eV

  energy without entropy =     -191.97457122  energy(sigma->0) =     -192.09566161


--------------------------------------------------------------------------------------------------------




----------------------------------------- Iteration    1(  12)  ---------------------------------------


    POTLOK:  cpu time    0.0413: real time    0.0419
    SETDIJ:  cpu time    0.0055: real time    0.0055
    EDDIAG:  cpu time    1.2225: real time    1.2255
  RMM-DIIS:  cpu time    3.4035: real time    3.4140
    ORTHCH:  cpu time    0.2900: real time    0.2907
       DOS:  cpu time    0.0016: real time    0.0016
    CHARGE:  cpu time    0.2357: real time    0.2362
    MIXING:  cpu time    0.0040: real time    0.0040
    --------------------------------------------
      LOOP:  cpu time    5.2047: real time    5.2228

 eigenvalue-minimisations  :  3681
 total energy-change (2. order) : 0.2762539E+01  (-0.4910800E+00)
 number of electron     503.9998357 magnetization 
 augmentation part      197.6646756 magnetization 

 DIPCOR: dipole corrections for dipol
 direction  3 min pos     1,
 dipolmoment           0.000000      0.000000      0.086236 electrons x Angstroem
 Tr[quadrupol]    -10225.283650

 energy correction for charged system         0.000000 eV
 dipol+quadrupol energy correction           -0.000262 eV
 added-field ion interaction          0.027299 eV  (added to PSCEN)


 Broyden mixing:
  rms(total) = 0.86865E+00    rms(broyden)= 0.86848E+00
  rms(prec ) = 0.93881E+00
  weight for this iteration     100.00

 eigenvalues of (default mixing * dielectric matrix)
  average eigenvalue GAMMA=   0.6912
  2.2657  0.5499  0.5499  0.5850  0.3327  0.3327  0.2222

 Free energy of the ion-electron system (eV)
  ---------------------------------------------------
  alpha Z        PSCENC =       805.89640091
  Ewald energy   TEWEN  =    200160.77317982
  -Hartree energ DENC   =   -242224.53111902
  -exchange      EXHF   =         0.00000000
  -V(xc)+E(xc)   XCENC  =      -344.63489424
  PAW double counting   =     49249.29435057   -47334.59905550
  entropy T*S    EENTRO =        -0.23314248
  eigenvalues    EBANDS =     -2161.20580521
  atomic energy  EATOM  =     41659.78587232
  Solvation  Ediel_sol  =         0.00000000
  ---------------------------------------------------
  free energy    TOTEN  =      -189.45421284 eV

  energy without entropy =     -189.22107036  energy(sigma->0) =     -189.33764160


--------------------------------------------------------------------------------------------------------




----------------------------------------- Iteration    1(  13)  ---------------------------------------


    POTLOK:  cpu time    0.0416: real time    0.0417
    SETDIJ:  cpu time    0.0055: real time    0.0055
    EDDIAG:  cpu time    1.2210: real time    1.2289
  RMM-DIIS:  cpu time    3.4103: real time    3.4186
    ORTHCH:  cpu time    0.2893: real time    0.2901
       DOS:  cpu time    0.0017: real time    0.0017
    CHARGE:  cpu time    0.2339: real time    0.2345
    MIXING:  cpu time    0.0028: real time    0.0028
    --------------------------------------------
      LOOP:  cpu time    5.2068: real time    5.2272

 eigenvalue-minimisations  :  3681
 total energy-change (2. order) : 0.2175596E+00  (-0.1722855E+00)
 number of electron     503.9998359 magnetization 
 augmentation part      197.5075713 magnetization 

 DIPCOR: dipole corrections for dipol
 direction  3 min pos     1,
 dipolmoment           0.000000      0.000000      0.108048 electrons x Angstroem
 Tr[quadrupol]    -10225.663007

 energy correction for charged system         0.000000 eV
 dipol+quadrupol energy correction           -0.000411 eV
 added-field ion interaction          0.034203 eV  (added to PSCEN)


 Broyden mixing:
  rms(total) = 0.64899E+00    rms(broyden)= 0.64888E+00
  rms(prec ) = 0.70996E+00
  weight for this iteration     100.00

 eigenvalues of (default mixing * dielectric matrix)
  average eigenvalue GAMMA=   0.6949
  2.2680  0.7273  0.7273  0.6907  0.3319  0.3319  0.2258  0.2561

 Free energy of the ion-electron system (eV)
  ---------------------------------------------------
  alpha Z        PSCENC =       805.90315632
  Ewald energy   TEWEN  =    200160.77317982
  -Hartree energ DENC   =   -242240.21575742
  -exchange      EXHF   =         0.00000000
  -V(xc)+E(xc)   XCENC  =      -344.51516779
  PAW double counting   =     49297.92346818   -47382.67324724
  entropy T*S    EENTRO =        -0.24318334
  eigenvalues    EBANDS =     -2145.97497405
  atomic energy  EATOM  =     41659.78587232
  Solvation  Ediel_sol  =         0.00000000
  ---------------------------------------------------
  free energy    TOTEN  =      -189.23665320 eV

  energy without entropy =     -188.99346986  energy(sigma->0) =     -189.11506153


--------------------------------------------------------------------------------------------------------




----------------------------------------- Iteration    1(  14)  ---------------------------------------


    POTLOK:  cpu time    0.0422: real time    0.0424
    SETDIJ:  cpu time    0.0060: real time    0.0060
    EDDIAG:  cpu time    1.2193: real time    1.2230
  RMM-DIIS:  cpu time    3.4281: real time    3.4365
    ORTHCH:  cpu time    0.2902: real time    0.2909
       DOS:  cpu time    0.0015: real time    0.0015
    CHARGE:  cpu time    0.2335: real time    0.2342
    MIXING:  cpu time    0.0030: real time    0.0030
    --------------------------------------------
      LOOP:  cpu time    5.2245: real time    5.2417

 eigenvalue-minimisations  :  3680
 total energy-change (2. order) :-0.1269877E+00  (-0.5730380E-01)
 number of electron     503.9998357 magnetization 
 augmentation part      197.4410588 magnetization 

 DIPCOR: dipole corrections for dipol
 direction  3 min pos     1,
 dipolmoment           0.000000      0.000000      0.045984 electrons x Angstroem
 Tr[quadrupol]    -10225.858039

 energy correction for charged system         0.000000 eV
 dipol+quadrupol energy correction           -0.000075 eV
 added-field ion interaction          0.014557 eV  (added to PSCEN)


 Broyden mixing:
  rms(total) = 0.70635E+00    rms(broyden)= 0.70622E+00
  rms(prec ) = 0.79450E+00
  weight for this iteration     100.00

 eigenvalues of (default mixing * dielectric matrix)
  average eigenvalue GAMMA=   0.6967
  2.2548  0.8877  0.8877  0.7572  0.3747  0.3747  0.2797  0.2382  0.2154

 Free energy of the ion-electron system (eV)
  ---------------------------------------------------
  alpha Z        PSCENC =       805.88384629
  Ewald energy   TEWEN  =    200160.77317982
  -Hartree energ DENC   =   -242251.56233772
  -exchange      EXHF   =         0.00000000
  -V(xc)+E(xc)   XCENC  =      -344.33186483
  PAW double counting   =     49317.12438282   -47400.76404925
  entropy T*S    EENTRO =        -0.23820682
  eigenvalues    EBANDS =     -2136.03446353
  atomic energy  EATOM  =     41659.78587232
  Solvation  Ediel_sol  =         0.00000000
  ---------------------------------------------------
  free energy    TOTEN  =      -189.36364091 eV

  energy without entropy =     -189.12543409  energy(sigma->0) =     -189.24453750


--------------------------------------------------------------------------------------------------------




----------------------------------------- Iteration    1(  15)  ---------------------------------------


    POTLOK:  cpu time    0.0426: real time    0.0428
    SETDIJ:  cpu time    0.0055: real time    0.0056
    EDDIAG:  cpu time    1.2258: real time    1.2305
  RMM-DIIS:  cpu time    3.4167: real time    3.4250
    ORTHCH:  cpu time    0.2900: real time    0.2907
       DOS:  cpu time    0.0016: real time    0.0016
    CHARGE:  cpu time    0.2316: real time    0.2322
    MIXING:  cpu time    0.0032: real time    0.0032
    --------------------------------------------
      LOOP:  cpu time    5.2178: real time    5.2361

 eigenvalue-minimisations  :  3680
 total energy-change (2. order) : 0.4983495E-01  (-0.3723704E-01)
 number of electron     503.9998358 magnetization 
 augmentation part      197.4399866 magnetization 

 DIPCOR: dipole corrections for dipol
 direction  3 min pos     1,
 dipolmoment           0.000000      0.000000      0.060344 electrons x Angstroem
 Tr[quadrupol]    -10226.109572

 energy correction for charged system         0.000000 eV
 dipol+quadrupol energy correction           -0.000128 eV
 added-field ion interaction          0.019102 eV  (added to PSCEN)


 Broyden mixing:
  rms(total) = 0.66178E+00    rms(broyden)= 0.66164E+00
  rms(prec ) = 0.76007E+00
  weight for this iteration     100.00

 eigenvalues of (default mixing * dielectric matrix)
  average eigenvalue GAMMA=   0.7089
  2.2365  1.1359  1.1359  0.6973  0.4429  0.4429  0.3015  0.3015  0.2217  0.1727

 Free energy of the ion-electron system (eV)
  ---------------------------------------------------
  alpha Z        PSCENC =       805.88833832
  Ewald energy   TEWEN  =    200160.77317982
  -Hartree energ DENC   =   -242263.87340739
  -exchange      EXHF   =         0.00000000
  -V(xc)+E(xc)   XCENC  =      -344.16342839
  PAW double counting   =     49320.77973303   -47403.30020370
  entropy T*S    EENTRO =        -0.23459342
  eigenvalues    EBANDS =     -2124.96929654
  atomic energy  EATOM  =     41659.78587232
  Solvation  Ediel_sol  =         0.00000000
  ---------------------------------------------------
  free energy    TOTEN  =      -189.31380596 eV

  energy without entropy =     -189.07921254  energy(sigma->0) =     -189.19650925


--------------------------------------------------------------------------------------------------------




----------------------------------------- Iteration    1(  16)  ---------------------------------------


    POTLOK:  cpu time    0.0416: real time    0.0417
    SETDIJ:  cpu time    0.0057: real time    0.0057
    EDDIAG:  cpu time    1.2250: real time    1.2279
  RMM-DIIS:  cpu time    3.4319: real time    3.4440
    ORTHCH:  cpu time    0.2898: real time    0.2905
       DOS:  cpu time    0.0016: real time    0.0016
    CHARGE:  cpu time    0.2339: real time    0.2344
    MIXING:  cpu time    0.0031: real time    0.0031
    --------------------------------------------
      LOOP:  cpu time    5.2332: real time    5.2514

 eigenvalue-minimisations  :  3681
 total energy-change (2. order) : 0.2559480E+00  (-0.3958904E-01)
 number of electron     503.9998359 magnetization 
 augmentation part      197.4614394 magnetization 

 DIPCOR: dipole corrections for dipol
 direction  3 min pos     1,
 dipolmoment           0.000000      0.000000      0.042332 electrons x Angstroem
 Tr[quadrupol]    -10226.381128

 energy correction for charged system         0.000000 eV
 dipol+quadrupol energy correction           -0.000063 eV
 added-field ion interaction          0.013401 eV  (added to PSCEN)


 Broyden mixing:
  rms(total) = 0.39062E+00    rms(broyden)= 0.39049E+00
  rms(prec ) = 0.44443E+00
  weight for this iteration     100.00

 eigenvalues of (default mixing * dielectric matrix)
  average eigenvalue GAMMA=   0.7044
  2.1823  1.3564  1.3564  0.5212  0.5212  0.4181  0.4181  0.3462  0.2316  0.2226
  0.1744

 Free energy of the ion-electron system (eV)
  ---------------------------------------------------
  alpha Z        PSCENC =       805.88270168
  Ewald energy   TEWEN  =    200160.77317982
  -Hartree energ DENC   =   -242278.26850374
  -exchange      EXHF   =         0.00000000
  -V(xc)+E(xc)   XCENC  =      -343.99489714
  PAW double counting   =     49324.23548419   -47405.49373072
  entropy T*S    EENTRO =        -0.24088734
  eigenvalues    EBANDS =     -2111.73707700
  atomic energy  EATOM  =     41659.78587232
  Solvation  Ediel_sol  =         0.00000000
  ---------------------------------------------------
  free energy    TOTEN  =      -189.05785794 eV

  energy without entropy =     -188.81697059  energy(sigma->0) =     -188.93741426


--------------------------------------------------------------------------------------------------------




----------------------------------------- Iteration    1(  17)  ---------------------------------------


    POTLOK:  cpu time    0.0409: real time    0.0420
    SETDIJ:  cpu time    0.0054: real time    0.0059
    EDDIAG:  cpu time    1.2201: real time    1.2236
  RMM-DIIS:  cpu time    3.4159: real time    3.4242
    ORTHCH:  cpu time    0.2888: real time    0.2895
       DOS:  cpu time    0.0016: real time    0.0016
    CHARGE:  cpu time    0.2331: real time    0.2337
    MIXING:  cpu time    0.0032: real time    0.0032
    --------------------------------------------
      LOOP:  cpu time    5.2098: real time    5.2266

 eigenvalue-minimisations  :  3679
 total energy-change (2. order) : 0.1471141E+00  (-0.1346313E-01)
 number of electron     503.9998360 magnetization 
 augmentation part      197.3689178 magnetization 

 DIPCOR: dipole corrections for dipol
 direction  3 min pos     1,
 dipolmoment           0.000000      0.000000      0.047132 electrons x Angstroem
 Tr[quadrupol]    -10226.540854

 energy correction for charged system         0.000000 eV
 dipol+quadrupol energy correction           -0.000078 eV
 added-field ion interaction          0.014920 eV  (added to PSCEN)


 Broyden mixing:
  rms(total) = 0.23381E+00    rms(broyden)= 0.23377E+00
  rms(prec ) = 0.26504E+00
  weight for this iteration     100.00

 eigenvalues of (default mixing * dielectric matrix)
  average eigenvalue GAMMA=   0.7340
  2.1163  1.6676  1.6676  0.6208  0.6208  0.4161  0.4161  0.3363  0.2760  0.2760
  0.2208  0.1733

 Free energy of the ion-electron system (eV)
  ---------------------------------------------------
  alpha Z        PSCENC =       805.88420602
  Ewald energy   TEWEN  =    200160.77317982
  -Hartree energ DENC   =   -242289.04120124
  -exchange      EXHF   =         0.00000000
  -V(xc)+E(xc)   XCENC  =      -343.80913974
  PAW double counting   =     49324.98942584   -47404.97371003
  entropy T*S    EENTRO =        -0.25120379
  eigenvalues    EBANDS =     -2102.26817301
  atomic energy  EATOM  =     41659.78587232
  Solvation  Ediel_sol  =         0.00000000
  ---------------------------------------------------
  free energy    TOTEN  =      -188.91074381 eV

  energy without entropy =     -188.65954003  energy(sigma->0) =     -188.78514192


--------------------------------------------------------------------------------------------------------




----------------------------------------- Iteration    1(  18)  ---------------------------------------


    POTLOK:  cpu time    0.0440: real time    0.0450
    SETDIJ:  cpu time    0.0055: real time    0.0055
    EDDIAG:  cpu time    1.2179: real time    1.2209
  RMM-DIIS:  cpu time    3.4339: real time    3.4422
    ORTHCH:  cpu time    0.2894: real time    0.2901
       DOS:  cpu time    0.0015: real time    0.0015
    CHARGE:  cpu time    0.2314: real time    0.2320
    MIXING:  cpu time    0.0033: real time    0.0033
    --------------------------------------------
      LOOP:  cpu time    5.2276: real time    5.2630

 eigenvalue-minimisations  :  3683
 total energy-change (2. order) : 0.5778255E-01  (-0.7959282E-02)
 number of electron     503.9998361 magnetization 
 augmentation part      197.2376738 magnetization 

 DIPCOR: dipole corrections for dipol
 direction  3 min pos     1,
 dipolmoment           0.000000      0.000000      0.058171 electrons x Angstroem
 Tr[quadrupol]    -10226.929793

 energy correction for charged system         0.000000 eV
 dipol+quadrupol energy correction           -0.000119 eV
 added-field ion interaction          0.018415 eV  (added to PSCEN)


 Broyden mixing:
  rms(total) = 0.14993E+00    rms(broyden)= 0.14991E+00
  rms(prec ) = 0.17302E+00
  weight for this iteration     100.00

 eigenvalues of (default mixing * dielectric matrix)
  average eigenvalue GAMMA=   0.7224
  2.0342  2.0342  1.4814  0.6398  0.6398  0.4961  0.4213  0.4213  0.3021  0.3021
  0.2232  0.2232  0.1728

 Free energy of the ion-electron system (eV)
  ---------------------------------------------------
  alpha Z        PSCENC =       805.88765962
  Ewald energy   TEWEN  =    200160.77317982
  -Hartree energ DENC   =   -242307.79405841
  -exchange      EXHF   =         0.00000000
  -V(xc)+E(xc)   XCENC  =      -343.62257403
  PAW double counting   =     49341.52910903   -47420.14652456
  entropy T*S    EENTRO =        -0.25473909
  eigenvalues    EBANDS =     -2085.01088596
  atomic energy  EATOM  =     41659.78587232
  Solvation  Ediel_sol  =         0.00000000
  ---------------------------------------------------
  free energy    TOTEN  =      -188.85296126 eV

  energy without entropy =     -188.59822217  energy(sigma->0) =     -188.72559171


--------------------------------------------------------------------------------------------------------




----------------------------------------- Iteration    1(  19)  ---------------------------------------


    POTLOK:  cpu time    0.0413: real time    0.0414
    SETDIJ:  cpu time    0.0055: real time    0.0055
    EDDIAG:  cpu time    1.2210: real time    1.2240
  RMM-DIIS:  cpu time    3.3161: real time    3.4160
    ORTHCH:  cpu time    0.2894: real time    0.2901
       DOS:  cpu time    0.0016: real time    0.0016
    CHARGE:  cpu time    0.2312: real time    0.2317
    MIXING:  cpu time    0.0036: real time    0.0036
    --------------------------------------------
      LOOP:  cpu time    5.1104: real time    5.2163

 eigenvalue-minimisations  :  3680
 total energy-change (2. order) : 0.2250923E-01  (-0.2343833E-02)
 number of electron     503.9998362 magnetization 
 augmentation part      197.1776608 magnetization 

 DIPCOR: dipole corrections for dipol
 direction  3 min pos     1,
 dipolmoment           0.000000      0.000000      0.041993 electrons x Angstroem
 Tr[quadrupol]    -10227.043484

 energy correction for charged system         0.000000 eV
 dipol+quadrupol energy correction           -0.000062 eV
 added-field ion interaction          0.013293 eV  (added to PSCEN)


 Broyden mixing:
  rms(total) = 0.82894E-01    rms(broyden)= 0.82877E-01
  rms(prec ) = 0.92896E-01
  weight for this iteration     100.00

 eigenvalues of (default mixing * dielectric matrix)
  average eigenvalue GAMMA=   0.7120
  2.1532  1.7158  1.7158  0.6895  0.6895  0.5848  0.4373  0.4373  0.3254  0.3254
  0.2221  0.2493  0.2493  0.1730

 Free energy of the ion-electron system (eV)
  ---------------------------------------------------
  alpha Z        PSCENC =       805.88259525
  Ewald energy   TEWEN  =    200160.77317982
  -Hartree energ DENC   =   -242313.77330033
  -exchange      EXHF   =         0.00000000
  -V(xc)+E(xc)   XCENC  =      -343.54853910
  PAW double counting   =     49347.33611613   -47425.52885095
  entropy T*S    EENTRO =        -0.25646137
  eigenvalues    EBANDS =     -2079.50106379
  atomic energy  EATOM  =     41659.78587232
  Solvation  Ediel_sol  =         0.00000000
  ---------------------------------------------------
  free energy    TOTEN  =      -188.83045203 eV

  energy without entropy =     -188.57399066  energy(sigma->0) =     -188.70222134


--------------------------------------------------------------------------------------------------------




----------------------------------------- Iteration    1(  20)  ---------------------------------------


    POTLOK:  cpu time    0.0419: real time    0.0421
    SETDIJ:  cpu time    0.0055: real time    0.0055
    EDDIAG:  cpu time    1.2218: real time    1.2248
  RMM-DIIS:  cpu time    3.3723: real time    3.3807
    ORTHCH:  cpu time    0.2897: real time    0.2904
       DOS:  cpu time    0.0015: real time    0.0015
    CHARGE:  cpu time    0.2350: real time    0.2355
    MIXING:  cpu time    0.0038: real time    0.0038
    --------------------------------------------
      LOOP:  cpu time    5.1721: real time    5.1874

 eigenvalue-minimisations  :  3682
 total energy-change (2. order) : 0.5547569E-02  (-0.6199507E-03)
 number of electron     503.9998362 magnetization 
 augmentation part      197.1579869 magnetization 

 DIPCOR: dipole corrections for dipol
 direction  3 min pos     1,
 dipolmoment           0.000000      0.000000      0.033274 electrons x Angstroem
 Tr[quadrupol]    -10227.128376

 energy correction for charged system         0.000000 eV
 dipol+quadrupol energy correction           -0.000039 eV
 added-field ion interaction          0.010533 eV  (added to PSCEN)


 Broyden mixing:
  rms(total) = 0.59942E-01    rms(broyden)= 0.59936E-01
  rms(prec ) = 0.65868E-01
  weight for this iteration     100.00

 eigenvalues of (default mixing * dielectric matrix)
  average eigenvalue GAMMA=   0.7260
  2.2672  1.7037  1.7037  0.8239  0.8239  0.5930  0.5930  0.4337  0.4337  0.3204
  0.2860  0.2860  0.2243  0.2243  0.1729

 Free energy of the ion-electron system (eV)
  ---------------------------------------------------
  alpha Z        PSCENC =       805.87985829
  Ewald energy   TEWEN  =    200160.77317982
  -Hartree energ DENC   =   -242317.34403398
  -exchange      EXHF   =         0.00000000
  -V(xc)+E(xc)   XCENC  =      -343.52477024
  PAW double counting   =     49351.73336328   -47429.81781025
  entropy T*S    EENTRO =        -0.25889327
  eigenvalues    EBANDS =     -2076.05167042
  atomic energy  EATOM  =     41659.78587232
  Solvation  Ediel_sol  =         0.00000000
  ---------------------------------------------------
  free energy    TOTEN  =      -188.82490446 eV

  energy without entropy =     -188.56601119  energy(sigma->0) =     -188.69545783


--------------------------------------------------------------------------------------------------------




----------------------------------------- Iteration    1(  21)  ---------------------------------------


    POTLOK:  cpu time    0.0414: real time    0.0415
    SETDIJ:  cpu time    0.0056: real time    0.0056
    EDDIAG:  cpu time    1.2215: real time    1.2244
  RMM-DIIS:  cpu time    3.3939: real time    3.4022
    ORTHCH:  cpu time    0.2891: real time    0.2898
       DOS:  cpu time    0.0016: real time    0.0016
    CHARGE:  cpu time    0.2341: real time    0.2346
    MIXING:  cpu time    0.0038: real time    0.0038
    --------------------------------------------
      LOOP:  cpu time    5.1917: real time    5.2068

 eigenvalue-minimisations  :  3682
 total energy-change (2. order) : 0.8629523E-03  (-0.2783662E-03)
 number of electron     503.9998362 magnetization 
 augmentation part      197.1468187 magnetization 

 DIPCOR: dipole corrections for dipol
 direction  3 min pos     1,
 dipolmoment           0.000000      0.000000      0.033396 electrons x Angstroem
 Tr[quadrupol]    -10227.244095

 energy correction for charged system         0.000000 eV
 dipol+quadrupol energy correction           -0.000039 eV
 added-field ion interaction          0.010572 eV  (added to PSCEN)


 Broyden mixing:
  rms(total) = 0.51861E-01    rms(broyden)= 0.51858E-01
  rms(prec ) = 0.59191E-01
  weight for this iteration     100.00

 eigenvalues of (default mixing * dielectric matrix)
  average eigenvalue GAMMA=   0.7364
  2.3136  1.8015  1.8015  0.8792  0.8792  0.6905  0.6905  0.4253  0.4253  0.4010
  0.2999  0.2999  0.1729  0.2222  0.2336  0.2468

 Free energy of the ion-electron system (eV)
  ---------------------------------------------------
  alpha Z        PSCENC =       805.87989665
  Ewald energy   TEWEN  =    200160.77317982
  -Hartree energ DENC   =   -242321.90446804
  -exchange      EXHF   =         0.00000000
  -V(xc)+E(xc)   XCENC  =      -343.50267186
  PAW double counting   =     49356.88838769   -47434.90772558
  entropy T*S    EENTRO =        -0.25860211
  eigenvalues    EBANDS =     -2071.57791040
  atomic energy  EATOM  =     41659.78587232
  Solvation  Ediel_sol  =         0.00000000
  ---------------------------------------------------
  free energy    TOTEN  =      -188.82404151 eV

  energy without entropy =     -188.56543940  energy(sigma->0) =     -188.69474045


--------------------------------------------------------------------------------------------------------




----------------------------------------- Iteration    1(  22)  ---------------------------------------


    POTLOK:  cpu time    0.0413: real time    0.0414
    SETDIJ:  cpu time    0.0055: real time    0.0055
    EDDIAG:  cpu time    1.2173: real time    1.2202
  RMM-DIIS:  cpu time    3.3729: real time    3.3811
    ORTHCH:  cpu time    0.2906: real time    0.2913
       DOS:  cpu time    0.0015: real time    0.0015
    CHARGE:  cpu time    0.2324: real time    0.2330
    MIXING:  cpu time    0.0041: real time    0.0041
    --------------------------------------------
      LOOP:  cpu time    5.1663: real time    5.1808

 eigenvalue-minimisations  :  3681
 total energy-change (2. order) : 0.2996296E-02  (-0.2816873E-03)
 number of electron     503.9998362 magnetization 
 augmentation part      197.1221721 magnetization 

 DIPCOR: dipole corrections for dipol
 direction  3 min pos     1,
 dipolmoment           0.000000      0.000000      0.033386 electrons x Angstroem
 Tr[quadrupol]    -10227.374760

 energy correction for charged system         0.000000 eV
 dipol+quadrupol energy correction           -0.000039 eV
 added-field ion interaction          0.010569 eV  (added to PSCEN)


 Broyden mixing:
  rms(total) = 0.32213E-01    rms(broyden)= 0.32208E-01
  rms(prec ) = 0.36997E-01
  weight for this iteration     100.00

 eigenvalues of (default mixing * dielectric matrix)
  average eigenvalue GAMMA=   0.7701
  2.3473  2.0658  2.0658  1.0076  1.0076  0.6753  0.6753  0.6336  0.4268  0.4268
  0.3127  0.3127  0.1729  0.2706  0.2249  0.2249  0.2416

 Free energy of the ion-electron system (eV)
  ---------------------------------------------------
  alpha Z        PSCENC =       805.87989359
  Ewald energy   TEWEN  =    200160.77317982
  -Hartree energ DENC   =   -242327.50514868
  -exchange      EXHF   =         0.00000000
  -V(xc)+E(xc)   XCENC  =      -343.46319666
  PAW double counting   =     49360.59071583   -47438.43846167
  entropy T*S    EENTRO =        -0.25956709
  eigenvalues    EBANDS =     -2066.18433265
  atomic energy  EATOM  =     41659.78587232
  Solvation  Ediel_sol  =         0.00000000
  ---------------------------------------------------
  free energy    TOTEN  =      -188.82104521 eV

  energy without entropy =     -188.56147812  energy(sigma->0) =     -188.69126167


--------------------------------------------------------------------------------------------------------




----------------------------------------- Iteration    1(  23)  ---------------------------------------


    POTLOK:  cpu time    0.0418: real time    0.0419
    SETDIJ:  cpu time    0.0054: real time    0.0055
    EDDIAG:  cpu time    1.2193: real time    1.2222
  RMM-DIIS:  cpu time    3.4080: real time    3.4162
[...]
    275       1.7518      0.00000
    276       1.8411      0.00000
    277       2.1357      0.00000
    278       2.2213      0.00000
    279       2.3142      0.00000
    280       2.3791      0.00000
    281       2.4723      0.00000
    282       2.5591      0.00000
    283       2.7677      0.00000
    284       2.9780      0.00000
    285       3.1755      0.00000
    286       3.2117      0.00000
    287       3.5342      0.00000
    288       3.6772      0.00000
    289       3.8041      0.00000
    290       3.9918      0.00000
    291       4.0629      0.00000
    292       4.2236      0.00000
    293       4.5106      0.00000
    294       4.5665      0.00000
    295       4.6031      0.00000
    296       4.6343      0.00000
    297       4.7739      0.00000
    298       4.8372      0.00000
    299       4.8710      0.00000
    300       4.9026      0.00000
    301       4.9829      0.00000
    302       5.0604      0.00000
    303       5.0689      0.00000
    304       5.1133      0.00000
    305       5.1989      0.00000
    306       5.2642      0.00000


--------------------------------------------------------------------------------------------------------


 soft charge-density along one line, spin component           1
         0         1         2         3         4         5         6         7         8         9
 total charge-density along one line
 
 pseudopotential strength for first ion, spin component:           1
 -8.017   0.002   0.003  -0.002  -0.002  -8.165   0.002   0.003
  0.002  -7.942   0.001  -0.002  -0.000   0.002  -8.091   0.001
  0.003   0.001  -7.934   0.000  -0.004   0.003   0.001  -8.083
 -0.002  -0.002   0.000  -7.935   0.001  -0.002  -0.002   0.000
 -0.002  -0.000  -0.004   0.001  -8.017  -0.002  -0.000  -0.004
 -8.165   0.002   0.003  -0.002  -0.002  -8.296   0.002   0.003
  0.002  -8.091   0.001  -0.002  -0.000   0.002  -8.224   0.001
  0.003   0.001  -8.083   0.000  -0.004   0.003   0.001  -8.216
 -0.002  -0.002   0.000  -8.084   0.001  -0.002  -0.002   0.000
 -0.002  -0.000  -0.004   0.001  -8.164  -0.002  -0.000  -0.004
  0.002   0.000  -0.025  -0.001  -0.003   0.002   0.000  -0.025
  0.002   0.000  -0.037  -0.001  -0.004   0.002   0.000  -0.036
 -0.001   0.004  -0.001   0.000  -0.001  -0.001   0.004  -0.001
  0.000   0.001   0.006  -0.001  -0.000   0.000   0.001   0.006
  0.001   0.000   0.001   0.004  -0.001   0.001   0.000   0.001
 -0.001   0.004  -0.001   0.000  -0.002  -0.001   0.004  -0.001
  0.000   0.001   0.007  -0.001  -0.000   0.000   0.001   0.006
  0.001   0.000   0.001   0.004  -0.001   0.001   0.000   0.001
 total augmentation occupancy for first ion, spin component:           1
  4.410   0.003  -0.089   0.051  -0.197  -2.583   0.019   0.097  -0.073   0.162  -0.095   0.045   0.040  -0.009   0.005  -0.003
  0.003   3.997   0.121  -0.034   0.097   0.019  -1.736  -0.099   0.034  -0.106  -0.011   0.024   0.152   0.023  -0.010  -0.004
 -0.089   0.121   4.273  -0.057   0.205   0.097  -0.099  -2.165   0.052  -0.209   0.996  -0.112   0.024   0.203  -0.016  -0.003
  0.051  -0.034  -0.057   4.131  -0.027  -0.072   0.034   0.052  -1.835   0.021   0.056  -0.016  -0.010  -0.016   0.180   0.000
 -0.197   0.097   0.205  -0.027   4.035   0.162  -0.107  -0.209   0.021  -2.216   0.173  -0.074   0.041   0.013  -0.027  -0.003
 -2.583   0.019   0.097  -0.072   0.162   2.639  -0.035  -0.101   0.088  -0.136   0.079  -0.040  -0.033   0.008  -0.008   0.002
  0.019  -1.736  -0.099   0.034  -0.107  -0.035   1.450   0.082  -0.034   0.114   0.007  -0.019  -0.142  -0.018   0.009   0.006
  0.097  -0.099  -2.165   0.052  -0.209  -0.101   0.082   2.001  -0.048   0.210  -0.929   0.132  -0.017  -0.207   0.014   0.001
 -0.073   0.034   0.052  -1.835   0.021   0.088  -0.034  -0.048   1.516  -0.015  -0.052   0.017   0.009   0.016  -0.169  -0.000
  0.162  -0.106  -0.209   0.021  -2.216  -0.136   0.114   0.210  -0.015   2.279  -0.157   0.071  -0.034  -0.012   0.024   0.002
 -0.095  -0.011   0.996   0.056   0.173   0.079   0.007  -0.929  -0.052  -0.157   2.369  -0.492   0.004  -0.117  -0.001  -0.000
  0.045   0.024  -0.112  -0.016  -0.074  -0.040  -0.019   0.132   0.017   0.071  -0.492   0.147  -0.008   0.055   0.004   0.000
  0.040   0.152   0.024  -0.010   0.041  -0.033  -0.142  -0.017   0.009  -0.034   0.004  -0.008   0.187  -0.001   0.003  -0.006
 -0.009   0.023   0.203  -0.016   0.013   0.008  -0.018  -0.207   0.016  -0.012  -0.117   0.055  -0.001   0.084  -0.003  -0.000
  0.005  -0.010  -0.016   0.180  -0.027  -0.008   0.009   0.014  -0.169   0.024  -0.001   0.004   0.003  -0.003   0.175  -0.000
 -0.003  -0.004  -0.003   0.000  -0.003   0.002   0.006   0.001  -0.000   0.002  -0.000   0.000  -0.006  -0.000  -0.000   0.000
  0.000   0.000  -0.000  -0.000  -0.000  -0.000   0.001   0.006  -0.000   0.000   0.008  -0.003  -0.000  -0.003   0.000   0.000
  0.001   0.000   0.001  -0.004  -0.000  -0.000  -0.000  -0.001   0.006  -0.001   0.000  -0.000  -0.000   0.000  -0.005   0.000


------------------------ aborting loop because EDIFF is reached ----------------------------------------


    CHARGE:  cpu time    0.2285: real time    0.2293
    FORLOC:  cpu time    0.0164: real time    0.0164
    FORNL :  cpu time    1.3096: real time    1.3131
    FORCOR:  cpu time    0.0574: real time    0.0576
    FORHAR:  cpu time    0.0248: real time    0.0249
    MIXING:  cpu time    0.0029: real time    0.0029
    OFIELD:  cpu time    0.0000: real time    0.0000

 VOLUME and BASIS-vectors are now :
 -----------------------------------------------------------------------------
  energy-cutoff  :      400.00
  volume of cell :     2567.68
      direct lattice vectors                 reciprocal lattice vectors
    11.002581515  0.000000000  0.000000000     0.090887761 -0.052474073  0.000000000
     5.501290758  9.528515099  0.000000000     0.000000000  0.104948147  0.000000000
     0.000000000  0.000000000 24.491785094     0.000000000  0.000000000  0.040830017

  length of vectors
    11.002581515 11.002581515 24.491785094     0.104948147  0.104948147  0.040830017


 FORCES acting on ions
    electron-ion (+dipol)            ewald-force                    non-local-force                 convergence-correction
 -----------------------------------------------------------------------------------------------
   -.757E+00 -.149E+01 -.231E+04   0.954E+00 0.116E+01 0.231E+04   -.189E+00 0.338E+00 0.359E-01   -.239E-02 0.104E-02 -.106E-01
   -.661E+01 -.533E+01 -.288E+02   0.672E+01 0.508E+01 0.294E+02   -.110E+00 0.255E+00 -.669E+00   -.385E-02 -.637E-03 -.106E-03
   -.431E+01 0.964E+01 0.221E+04   0.464E+01 -.999E+01 -.221E+04   -.240E+00 0.212E+00 -.335E+00   0.107E-02 0.100E-02 0.135E-02
   0.156E+02 -.141E+00 0.220E+04   -.164E+02 0.691E-01 -.220E+04   0.540E+00 0.403E-01 0.167E-01   -.312E-03 0.228E-03 -.139E-02
   0.206E+02 0.346E+01 -.229E+04   -.210E+02 -.353E+01 0.229E+04   0.335E+00 0.709E-01 -.591E-01   -.278E-03 0.204E-02 -.142E-02
   0.953E+01 0.621E+01 -.228E+04   -.913E+01 -.591E+01 0.228E+04   -.393E+00 -.311E+00 0.302E+00   -.934E-03 -.212E-03 -.910E-02
   -.445E+01 -.637E+01 0.221E+04   0.462E+01 0.680E+01 -.221E+04   -.879E-01 -.294E+00 0.358E+00   -.504E-03 0.162E-02 -.378E-03
   0.749E+01 -.251E+01 -.453E+02   -.784E+01 0.266E+01 0.460E+02   0.344E+00 -.157E+00 -.625E+00   0.103E-03 0.294E-02 -.216E-02
   -.618E+01 0.257E+01 -.371E+01   0.601E+01 -.275E+01 0.323E+01   0.160E+00 0.171E+00 0.483E+00   0.716E-02 0.864E-02 -.200E-02
   -.643E+01 -.363E+01 0.158E+02   0.542E+01 0.375E+01 -.158E+02   0.101E+01 -.123E+00 -.513E-01   0.577E-02 -.600E-02 -.414E-02
   0.956E+01 0.149E+02 -.229E+04   -.998E+01 -.152E+02 0.229E+04   0.423E+00 0.238E+00 -.730E-01   -.528E-02 -.362E-02 0.913E-03
   -.867E+00 -.125E+02 0.222E+04   0.946E+00 0.132E+02 -.222E+04   -.734E-01 -.421E+00 -.677E-01   -.222E-03 -.110E-02 -.136E-02
   0.204E+02 0.864E+01 0.221E+04   -.212E+02 -.878E+01 -.221E+04   0.489E+00 0.360E-01 -.249E+00   0.339E-04 -.686E-03 -.231E-02
   -.244E+01 -.125E+01 -.761E+02   0.206E+01 0.272E-01 0.773E+02   0.386E+00 0.121E+01 -.119E+01   -.352E-02 0.845E-02 -.508E-02
   -.123E+02 -.125E+02 -.223E+04   0.133E+02 0.129E+02 0.223E+04   -.964E+00 -.475E+00 0.789E+00   -.121E-02 -.572E-02 -.754E-02
   -.210E+01 0.601E+01 0.515E+01   0.291E+01 -.562E+01 -.514E+01   -.808E+00 -.408E+00 -.641E-02   -.215E-02 0.560E-02 -.223E-02
   -.166E+02 -.521E+01 -.230E+04   0.169E+02 0.509E+01 0.230E+04   -.355E+00 0.118E+00 0.541E-01   -.732E-02 0.558E-02 -.466E-02
   -.125E+02 0.600E-01 0.222E+04   0.128E+02 -.305E+00 -.222E+04   -.705E-01 0.196E+00 -.232E+00   -.274E-03 -.168E-02 0.754E-03
   -.666E+01 -.266E+01 0.405E+02   0.651E+01 0.260E+01 -.411E+02   0.152E+00 0.614E-01 0.632E+00   -.381E-02 0.451E-03 -.381E-02
   -.408E+01 -.676E+01 0.220E+04   0.436E+01 0.745E+01 -.220E+04   -.181E+00 -.501E+00 -.672E+00   0.147E-02 -.166E-02 -.546E-03
   -.273E-01 -.404E+01 -.341E+02   0.516E-01 0.408E+01 0.342E+02   -.351E-01 -.472E-01 -.155E+00   0.592E-02 -.322E-02 -.266E-02
   -.183E+01 -.545E+01 -.227E+04   0.170E+01 0.611E+01 0.226E+04   0.135E+00 -.650E+00 0.400E+00   0.836E-03 -.533E-02 -.575E-02
   0.119E+02 0.194E+02 0.221E+04   -.121E+02 -.202E+02 -.221E+04   0.317E-01 0.459E+00 0.215E+00   0.118E-02 0.544E-03 -.281E-03
   -.147E+02 -.121E+02 0.221E+04   0.158E+02 0.125E+02 -.221E+04   -.843E+00 -.226E+00 -.283E+00   -.622E-03 -.175E-03 -.319E-02
   -.159E+02 -.578E+01 -.200E+04   0.161E+02 0.596E+01 0.200E+04   -.180E+00 -.183E+00 0.159E+01   -.149E-02 0.277E-03 -.997E-02
   0.126E+02 -.167E+01 0.203E+04   -.131E+02 0.172E+01 -.203E+04   0.289E+00 -.625E-01 -.166E+01   0.669E-03 0.408E-03 -.281E-02
   0.386E+01 0.598E+00 -.320E+02   -.360E+01 -.292E+00 0.320E+02   -.252E+00 -.311E+00 0.407E-01   -.252E-02 0.208E-02 -.727E-02
   -.191E+02 -.854E+01 0.203E+04   0.196E+02 0.863E+01 -.203E+04   -.232E+00 -.113E-01 -.190E+01   -.106E-02 0.140E-02 -.249E-02
   0.191E+01 -.465E+01 0.210E+02   -.134E+01 0.431E+01 -.210E+02   -.570E+00 0.337E+00 0.146E-01   -.177E-02 0.585E-02 -.105E-01
   0.628E+00 0.156E+01 -.539E+02   -.299E+00 -.988E+00 0.539E+02   -.331E+00 -.571E+00 0.684E-02   0.262E-02 -.185E-03 -.389E-02
   0.907E+00 0.438E+01 -.294E+02   -.580E+00 -.408E+01 0.303E+02   -.327E+00 -.292E+00 -.860E+00   0.293E-02 -.554E-02 -.120E-01
   0.982E+00 -.207E+02 0.202E+04   -.123E+01 0.210E+02 -.202E+04   0.194E+00 -.144E+00 -.156E+01   0.100E-02 -.186E-02 -.224E-02
   0.436E+01 0.107E+01 -.324E+01   -.452E+01 -.970E+00 0.376E+01   0.148E+00 -.100E+00 -.527E+00   0.125E-02 -.122E-02 -.192E-02
   0.125E+02 0.131E+02 0.203E+04   -.129E+02 -.135E+02 -.203E+04   0.220E+00 0.290E+00 -.158E+01   -.760E-03 0.655E-03 -.171E-02
   -.190E+02 0.130E+01 0.203E+04   0.193E+02 -.121E+01 -.203E+04   -.118E+00 -.970E-01 -.143E+01   -.133E-02 0.987E-03 0.381E-03
   -.331E+01 0.122E+02 0.202E+04   0.353E+01 -.126E+02 -.202E+04   -.168E+00 0.216E+00 -.165E+01   -.112E-02 -.914E-03 -.107E-02
   0.356E+01 0.120E+01 -.354E+02   -.315E+01 -.116E+01 0.354E+02   -.422E+00 -.319E-01 0.260E-01   0.293E-02 0.323E-02 -.447E-02
   0.421E+01 0.881E+01 -.200E+04   -.454E+01 -.919E+01 0.199E+04   0.346E+00 0.385E+00 0.148E+01   -.303E-02 -.289E-02 -.545E-02
   -.114E+02 -.996E+01 -.197E+04   0.114E+02 0.102E+02 0.197E+04   -.563E-01 -.253E+00 0.192E+01   -.460E-03 -.326E-02 -.807E-02
   0.674E+00 0.745E+00 0.533E+02   -.859E+00 -.110E+01 -.535E+02   0.182E+00 0.348E+00 0.132E+00   -.109E-02 0.735E-02 -.299E-02
   0.179E+02 0.940E+01 -.198E+04   -.184E+02 -.982E+01 0.198E+04   0.511E+00 0.417E+00 0.141E+01   -.325E-02 -.184E-03 -.412E-03
   0.157E+01 0.218E+01 0.161E+01   -.214E+01 -.203E+01 -.107E+01   0.562E+00 -.152E+00 -.530E+00   0.723E-02 -.292E-02 -.105E-01
   0.105E+02 0.604E+01 0.202E+04   -.107E+02 -.615E+01 -.201E+04   0.863E-01 0.936E-01 -.144E+01   0.798E-03 0.841E-03 -.297E-03
   0.133E+02 -.112E+01 -.199E+04   -.138E+02 0.100E+01 0.199E+04   0.444E+00 0.117E+00 0.169E+01   0.234E-02 -.301E-02 -.773E-02
   0.680E+01 -.191E+00 -.196E+04   -.687E+01 0.320E+00 0.196E+04   0.737E-01 -.133E+00 0.158E+01   -.975E-03 0.447E-02 -.179E-02
   -.960E+01 -.320E+01 -.202E+04   0.967E+01 0.320E+01 0.202E+04   -.604E-01 -.285E-02 0.187E+01   -.606E-02 0.650E-04 -.105E-01
   -.791E+01 -.877E+00 -.203E+04   0.794E+01 0.732E+00 0.202E+04   -.244E-01 0.147E+00 0.153E+01   -.387E-03 0.221E-02 -.162E-01
   -.211E+01 0.525E+01 -.198E+04   0.234E+01 -.525E+01 0.198E+04   -.223E+00 -.470E-02 0.141E+01   -.383E-02 0.390E-02 0.408E-03
 -----------------------------------------------------------------------------------------------
   0.268E+00 0.210E+00 -.344E-01   0.266E-13 0.233E-12 -.682E-12   -.250E+00 -.206E+00 0.186E+00   -.165E-01 0.198E-01 -.191E+00
 
 
 POSITION                                       TOTAL-FORCE (eV/Angst)
 -----------------------------------------------------------------------------------
     12.39396      7.14485     15.03989         0.005921     -0.000274      0.004471
     10.99980      1.57759     12.47619        -0.005838      0.007213     -0.004938
     13.75323      7.94043     10.00000         0.091283     -0.131592     -0.081256
      2.75065      3.17617     10.00000        -0.269314     -0.031528     -0.044435
     10.99363      4.76319     15.00429         0.001302     -0.000624      0.001033
      1.38793      2.38876     14.98798         0.001224     -0.005088     -0.001349
      4.12597      5.55830     10.00000         0.081567      0.139488     -0.304463
     13.73363      6.34979     12.50024        -0.003730     -0.000433     -0.002633
     10.98879      6.33123     12.44147        -0.000068      0.000642      0.000622
      9.58572      3.95921     12.42301         0.004403     -0.014282     -0.001274
      2.74260     -0.01060     15.00459         0.001363     -0.005306     -0.000226
     11.00258      3.17617     10.00000         0.006176      0.195705     -0.196687
      4.12597      0.79404     10.00000        -0.334822     -0.108244     -0.063302
      4.11647      3.93150     12.53924         0.000260     -0.000713     -0.000459
      8.28909      0.01756     14.90791         0.001735      0.001841     -0.001229
      5.51652      6.34324     12.43560         0.003983     -0.005899      0.001919
      5.52494      4.76389     14.98681         0.000452      0.003211      0.006394
      9.62726      0.79404     10.00000         0.155807     -0.051004     -0.190001
      6.86831      8.72896     12.39410         0.006851     -0.004090      0.000428
      6.87661      0.79404     10.00000         0.095342      0.181188     -0.006811
      9.61846      8.73665     12.47902        -0.004845     -0.004916     -0.005792
      5.51140      0.02583     14.96979         0.006839      0.001551      0.005373
     11.00258      7.94043     10.00000        -0.166360     -0.330361     -0.221977
      5.50129      3.17617     10.00000         0.319346      0.153321     -0.115050
      4.15564      7.14795     14.84159         0.001213     -0.001888     -0.000405
      9.62726      5.55830     10.00000        -0.185130     -0.008362      0.104867
      2.74897      1.58153     12.48383        -0.002041     -0.002401      0.003001
      6.87661      5.55830     10.00000         0.237031      0.076154      0.149289
      6.87054      3.94948     12.41599        -0.003396     -0.001642      0.006783
     12.37594      8.74086     12.50608        -0.000462     -0.002824      0.004008
      5.50860      1.57969     12.48068         0.003673     -0.001728     -0.000988
      8.25194      3.17617     10.00000        -0.047691      0.223641      0.200797
     15.10802      8.73963     12.44782        -0.006870     -0.004007     -0.003296
      8.25194      7.94043     10.00000        -0.173868     -0.117000      0.138653
      5.50129      7.94043     10.00000         0.210456     -0.004267      0.128951
      1.37532      0.79404     10.00000         0.047724     -0.138421      0.194719
     12.37103      3.95504     12.49077        -0.000227      0.001147      0.000923
      0.00725     -0.01578     14.83509         0.005717     -0.000246      0.001347
      6.89362      2.40818     14.79484         0.000710      0.000361      0.000932
      8.23896      6.33477     12.37925        -0.004497      0.001508     -0.005069
      9.61634      7.13224     14.82624        -0.002287     -0.000645     -0.000511
      8.21978      1.57239     12.44104         0.002392      0.000201      0.003068
     12.37790      5.55830     10.00000        -0.104177     -0.015611      0.287855
      9.62085      2.39049     14.82484         0.006018      0.001171      0.003797
      8.25439      4.77885     14.78479         0.002810      0.000020     -0.000147
      4.13735      2.38030     14.88641         0.003744      0.004381      0.002690
      2.76356      4.76854     14.90357         0.006149      0.002764      0.006466
      6.89417      7.14218     14.80880         0.004133     -0.002107     -0.006086
 -----------------------------------------------------------------------------------
    total drift:                                0.001644      0.023607     -0.039583


--------------------------------------------------------------------------------------------------------



  FREE ENERGIE OF THE ION-ELECTRON SYSTEM (eV)
  ---------------------------------------------------
  free  energy   TOTEN  =      -192.24726963 eV

  energy  without entropy=     -192.01481718  energy(sigma->0) =     -192.13104340
 
 d Force = 0.1979664E-03[ 0.690E-04, 0.327E-03]  d Energy = 0.1914453E-03 0.652E-05
 d Force = 0.2523800E+02[ 0.252E+02, 0.252E+02]  d Ewald  = 0.2523800E+02-0.351E-06


--------------------------------------------------------------------------------------------------------


    POTLOK:  cpu time    0.0485: real time    0.0486


--------------------------------------------------------------------------------------------------------


 stress matrix after NEB project (eV)
      0.00000      0.00000      0.00000
      0.00000      0.00000      0.00000
      0.00000      0.00000      0.00000
  FORCES: max atom, RMS     0.015000    0.005335
  FORCE total and by dimension    0.036964    0.014282
  Stress total and by dimension    0.000000    0.000000
 Conjugate gradient step on ions:
 trial-energy change:   -0.000191  1 .order   -0.000198   -0.000327   -0.000069
  (g-gl).g = 0.121E-03      g.g   = 0.126E-03  gl.gl    = 0.295E-03
 g(Force)  = 0.126E-03   g(Stress)= 0.000E+00 ortho     =-0.823E-05
 gamma     =   0.40864
 trial     =   2.65792
 opt step  =   3.54985  (harmonic =   3.36913) maximal distance =0.00357668
 next E    =  -192.247281   (d E  =  -0.00020)


--------------------------------------------------------------------------------------------------------


  
 reached required accuracy - stopping structural energy minimisation
     LOOP+:  cpu time   51.5565: real time   51.8496
    4ORBIT:  cpu time    0.0000: real time    0.0000

 total amount of memory used by VASP on root node    84353. kBytes
========================================================================

   base      :      30000. kBytes
   nonlr-proj:       4285. kBytes
   fftplans  :       4447. kBytes
   grid      :       6721. kBytes
   one-center:        124. kBytes
   wavefun   :      38776. kBytes
 
  
  
 General timing and accounting informations for this job:
 ========================================================
  
                  Total CPU time used (sec):     1467.863
                            User time (sec):     1396.370
                          System time (sec):       71.493
                         Elapsed time (sec):     1477.315
  
                   Maximum memory used (kb):      826612.
                   Average memory used (kb):           0.
  
                          Minor page faults:       694710
                          Major page faults:            2
                 Voluntary context switches:         9452
