 vasp.5.4.1 24Jun15 (build Mar 14 2019 10:18:33) complex                        
  
 executed on INTEL-19.0.2+OPENMPI date 2022.07.15  21:36:34
 running on   36 total cores
 distrk:  each k-point on   36 cores,    1 groups
 distr:  one band on NCORES_PER_BAND=   6 cores,    6 groups


--------------------------------------------------------------------------------------------------------


 INCAR:
 POTCAR:    PAW_PBE Au 04Oct2007                  
 POTCAR:    PAW_PBE Pd 04Jan2005                  
 POTCAR:    PAW_PBE Au 04Oct2007                  
  local pseudopotential read in
  partial core-charges read in
  partial kinetic energy density read in
  atomic valenz-charges read in
  non local Contribution for L=           2  read in
    real space projection operators read in
  non local Contribution for L=           2  read in
    real space projection operators read in
  non local Contribution for L=           0  read in
    real space projection operators read in
  non local Contribution for L=           0  read in
    real space projection operators read in
  non local Contribution for L=           1  read in
    real space projection operators read in
  non local Contribution for L=           1  read in
    real space projection operators read in
    PAW grid and wavefunctions read in
 
   number of l-projection  operators is LMAX  =           6
   number of lm-projection operators is LMMAX =          18
 
 POTCAR:    PAW_PBE Pd 04Jan2005                  
  local pseudopotential read in
  partial core-charges read in
  partial kinetic energy density read in
  atomic valenz-charges read in
  non local Contribution for L=           2  read in
    real space projection operators read in
  non local Contribution for L=           2  read in
    real space projection operators read in
  non local Contribution for L=           0  read in
    real space projection operators read in
  non local Contribution for L=           0  read in
    real space projection operators read in
  non local Contribution for L=           1  read in
    real space projection operators read in
  non local Contribution for L=           1  read in
    real space projection operators read in
    PAW grid and wavefunctions read in
 
   number of l-projection  operators is LMAX  =           6
   number of lm-projection operators is LMMAX =          18
 
 Optimization of the real space projectors (new method)

 maximal supplied QI-value         = 15.12
 optimisation between [QCUT,QGAM] = [ 10.13, 20.41] = [ 28.73,116.64] Ry 
 Optimized for a Real-space Cutoff    1.51 Angstroem

   l    n(q)    QCUT    max X(q) W(low)/X(q) W(high)/X(q)  e(spline) 
   2      8    10.129    60.898    0.46E-03    0.46E-03    0.14E-06
   2      8    10.129    58.894    0.47E-03    0.47E-03    0.14E-06
   0      9    10.129   109.617    0.16E-03    0.11E-03    0.54E-07
   0      9    10.129    75.026    0.15E-03    0.11E-03    0.52E-07
   1      9    10.129    16.344    0.96E-04    0.15E-03    0.14E-06
   1      9    10.129    10.160    0.81E-04    0.12E-03    0.11E-06
 Optimization of the real space projectors (new method)

 maximal supplied QI-value         = 14.36
 optimisation between [QCUT,QGAM] = [ 10.20, 20.39] = [ 29.12,116.47] Ry 
 Optimized for a Real-space Cutoff    1.51 Angstroem

   l    n(q)    QCUT    max X(q) W(low)/X(q) W(high)/X(q)  e(spline) 
   2      8    10.197    59.108    0.26E-03    0.14E-03    0.96E-07
   2      8    10.197    58.101    0.27E-03    0.14E-03    0.98E-07
   0      9    10.197   102.235    0.54E-04    0.60E-05    0.72E-07
   0      9    10.197    58.388    0.52E-04    0.60E-05    0.68E-07
   1      9    10.197    22.191    0.18E-03    0.25E-03    0.79E-07
   1      9    10.197    15.590    0.15E-03    0.21E-03    0.69E-07
  PAW_PBE Au 04Oct2007                  :
 energy of atom  1       EATOM= -926.0867
 kinetic energy error for atom=    0.0062 (will be added to EATOM!!)
  PAW_PBE Pd 04Jan2005                  :
 energy of atom  2       EATOM= -809.7530
 kinetic energy error for atom=    0.0091 (will be added to EATOM!!)
 
 
 POSCAR: Au Pd                                   
  positions in cartesian coordinates
  No initial velocities read in
 exchange correlation table for  LEXCH =        8
   RHO(1)=    0.500       N(1)  =     2000
   RHO(2)=  100.500       N(2)  =     4000

 VTST: version 3.2, (02/03/18)

 CHAIN: initializing optimizer
 
 OPT: Using VASP Conjugate-Gradient optimizer
 CHAIN: Read ICHAIN            0
 
 POSCAR: Au Pd                                   
  positions in cartesian coordinates
  No initial velocities read in
 


--------------------------------------------------------------------------------------------------------


 ion  position               nearest neighbor table
   1  0.083  0.083  0.408-  13 2.75  11 2.75  22 2.75  38 2.75  44 2.75  24 2.75  27 2.75  45 2.75
                            33 2.75
   2  0.583  0.333  0.408-  25 2.75   9 2.75   5 2.75  27 2.75  30 2.75  11 2.75  40 2.75  26 2.75
                            12 2.75
   3  0.417  0.667  0.500-   9 2.75   4 2.75  31 2.75  12 2.75  25 2.75   7 2.75  45 2.75  42 2.75
                            20 2.75  44 2.75   8 2.75  30 2.75
   4  0.500  0.500  0.592-   3 2.75  25 2.75  17 2.75   8 2.75  31 2.75  39 2.75  23 2.75  43 2.75
                            12 2.75
   5  0.583  0.083  0.408-  26 2.75   2 2.75  28 2.75  29 2.75  40 2.75  27 2.75  24 2.75   6 2.75
                            46 2.75
   6  0.667  0.917  0.500-  28 2.75  48 2.75  32 2.75  18 2.75  20 2.75  46 2.75  26 2.75  16 2.75
                             7 2.75   5 2.75  29 2.75  10 2.75
   7  0.417  0.917  0.500-  44 2.75   8 2.75  14 2.75   3 2.75  20 2.75  13 2.75  46 2.75  45 2.75
                             6 2.75  24 2.75  32 2.75  28 2.75
   8  0.500  0.750  0.592-   7 2.75  20 2.75  14 2.75   4 2.75  23 2.75  32 2.75  31 2.75  48 2.75
                             3 2.75
   9  0.333  0.583  0.408-   3 2.75   2 2.75  38 2.75  40 2.75  44 2.75  36 2.75  30 2.75  12 2.75
                            42 2.75
  10  0.750  0.000  0.592-  26 2.75  16 2.75  17 2.75  15 2.75  39 2.75  48 2.75  32 2.75  34 2.75
                             6 2.75
  11  0.833  0.333  0.408-  21 2.75  19 2.75   1 2.75  27 2.75  30 2.75   2 2.75  22 2.75  33 2.75
                            25 2.75
  12  0.417  0.417  0.500-  40 2.75  39 2.75  43 2.75  26 2.75  42 2.75   3 2.75  46 2.75  25 2.75
                            47 2.75   9 2.75   4 2.75   2 2.75
  13  0.167  0.167  0.500-   1 2.75  14 2.75  35 2.75  21 2.75   7 2.75  45 2.75  47 2.75  46 2.75
                            33 2.75  22 2.75  41 2.75  24 2.75
  14  0.250  0.000  0.592-  13 2.75   7 2.75   8 2.75  31 2.75  35 2.75  41 2.75  32 2.75  34 2.75
                            45 2.75
  15  0.000  0.750  0.592-  16 2.75  42 2.75  34 2.75  37 2.75  10 2.75  43 2.75  31 2.75  48 2.75
                            18 2.75
  16  0.917  0.917  0.500-  29 2.75  15 2.75  10 2.75  26 2.75  18 2.75  33 2.75  42 2.75   6 2.75
                            45 2.75  27 2.75  34 2.75  38 2.75
  17  0.750  0.250  0.592-  25 2.75  33 2.75  23 2.75   4 2.75  10 2.75  34 2.75  35 2.75  39 2.75
                            26 2.75
  18  0.917  0.667  0.500-  19 2.75  37 2.75  48 2.75  21 2.75  16 2.75  47 2.75   6 2.75  20 2.75
                            42 2.75  29 2.75  15 2.75  36 2.75
  19  0.833  0.583  0.408-  18 2.75  11 2.75  22 2.75  28 2.75  29 2.75  30 2.75  36 2.75  21 2.75
                            20 2.75
  20  0.667  0.667  0.500-  30 2.75  23 2.75   8 2.75  21 2.75   7 2.75  25 2.75   6 2.75   3 2.75
                            18 2.75  28 2.75  19 2.75  48 2.75
  21  0.917  0.417  0.500-  11 2.75  35 2.75  23 2.75  20 2.75  13 2.75  33 2.75  18 2.75  25 2.75
                            47 2.75  19 2.75  37 2.75  22 2.75
  22  0.083  0.333  0.408-  47 2.75  19 2.75  24 2.75  36 2.75   1 2.75  40 2.75  11 2.75  13 2.75
                            21 2.75
  23  0.750  0.500  0.592-  20 2.75  21 2.75   8 2.75  17 2.75  35 2.75  48 2.75  37 2.75   4 2.75
                            25 2.75
  24  0.333  0.083  0.408-  46 2.75  28 2.75  40 2.75  44 2.75  22 2.75   5 2.75   1 2.75   7 2.75
                            13 2.75
  25  0.667  0.417  0.500-   2 2.75  17 2.75   4 2.75   3 2.75  20 2.75  26 2.75  33 2.75  12 2.75
                            21 2.75  30 2.75  23 2.75  11 2.75
  26  0.667  0.167  0.500-   5 2.75  10 2.75  39 2.75  12 2.75  16 2.75  25 2.75   6 2.75  33 2.75
                            46 2.75   2 2.75  27 2.75  17 2.75
  27  0.833  0.083  0.408-  33 2.75  11 2.75  29 2.75   2 2.75  38 2.75   1 2.75   5 2.75  16 2.75
                            26 2.75
  28  0.583  0.833  0.408-   6 2.75   5 2.75  19 2.75  24 2.75  30 2.75  29 2.75  44 2.75  20 2.75
                             7 2.75
  29  0.833  0.833  0.408-  16 2.75   5 2.75  19 2.75  27 2.75  36 2.75  28 2.75  38 2.75  18 2.75
                             6 2.75
  30  0.583  0.583  0.408-  20 2.75  11 2.75   2 2.75  28 2.75  44 2.75  19 2.75   9 2.75  25 2.75
                             3 2.75
  31  0.250  0.750  0.592-  45 2.75   3 2.75  14 2.75  34 2.75  43 2.75   4 2.75  15 2.75   8 2.75
                            42 2.75
  32  0.500  0.000  0.592-  46 2.75   6 2.75  39 2.75  41 2.75   8 2.75  48 2.75  10 2.75  14 2.75
                             7 2.75
  33  0.917  0.167  0.500-  27 2.75  34 2.75  17 2.75  25 2.75  16 2.75  21 2.75  45 2.75  26 2.75
                            13 2.75  11 2.75  35 2.75   1 2.75
  34  0.000  0.000  0.592-  33 2.75  45 2.75  31 2.75  15 2.75  35 2.75  17 2.75  10 2.75  14 2.75
                            16 2.75
  35  0.000  0.250  0.592-  21 2.75  13 2.75  14 2.75  23 2.75  34 2.75  37 2.75  17 2.75  41 2.75
                            33 2.75
  36  0.083  0.583  0.408-  42 2.75  29 2.75  38 2.75  40 2.75  22 2.75  19 2.75   9 2.75  47 2.75
                            18 2.75
  37  0.000  0.500  0.592-  18 2.75  47 2.75  35 2.75  41 2.75  15 2.75  48 2.75  23 2.75  43 2.75
                            21 2.75
  38  0.083  0.833  0.408-  45 2.75   9 2.75  27 2.75  36 2.75   1 2.75  44 2.75  29 2.75  42 2.75
                            16 2.75
  39  0.500  0.250  0.592-  12 2.75  26 2.75   4 2.75  10 2.75  32 2.75  43 2.75  41 2.75  17 2.75
                            46 2.75
  40  0.333  0.333  0.408-  12 2.75   9 2.75   5 2.75  24 2.75  36 2.75   2 2.75  22 2.75  46 2.75
                            47 2.75
  41  0.250  0.250  0.592-  47 2.75  46 2.75  37 2.75  43 2.75  14 2.75  32 2.75  39 2.75  35 2.75
                            13 2.75
  42  0.167  0.667  0.500-  36 2.75  43 2.75  15 2.75  12 2.75  16 2.75  45 2.75  47 2.75   3 2.75
                            18 2.75  38 2.75  31 2.75   9 2.75
  43  0.250  0.500  0.592-  42 2.75  12 2.75  31 2.75  39 2.75  41 2.75  15 2.75  37 2.75   4 2.75
                            47 2.75
  44  0.333  0.833  0.408-   7 2.75   1 2.75   9 2.75  24 2.75  30 2.75  28 2.75  38 2.75   3 2.75
                            45 2.75
  45  0.167  0.917  0.500-  38 2.75  31 2.75  34 2.75  33 2.75  13 2.75   3 2.75  42 2.75  16 2.75
                             7 2.75   1 2.75  14 2.75  44 2.75
  46  0.417  0.167  0.500-  24 2.75  32 2.75  41 2.75   6 2.75   7 2.75  12 2.75  47 2.75  26 2.75
                            13 2.75  40 2.75  39 2.75   5 2.75
  47  0.167  0.417  0.500-  22 2.75  41 2.75  37 2.75  18 2.75  13 2.75  42 2.75  46 2.75  21 2.75
                            12 2.75  36 2.75  43 2.75  40 2.75
  48  0.750  0.750  0.592-   6 2.75  18 2.75  10 2.75  23 2.75  32 2.75  37 2.75   8 2.75  15 2.75
                            20 2.75
 
  LATTYP: Found a hexagonal cell.
 ALAT       =    11.0025815153
 C/A-ratio  =     2.2260035120
  
  Lattice vectors:
  
 A1 = (   5.5012907576,  -9.5285150994,   0.0000000000)
 A2 = ( -11.0025815153,   0.0000000000,   0.0000000000)
 A3 = (   0.0000000000,   0.0000000000, -24.4917850943)


Analysis of symmetry for initial positions (statically):
=====================================================================
 Subroutine PRICEL returns:
 Original cell was already a primitive cell.
 

 Routine SETGRP: Setting up the symmetry group for a 
 hexagonal supercell.


 Subroutine GETGRP returns: Found  1 space group operations
 (whereof  1 operations were pure point group operations)
 out of a pool of 24 trial point group operations.


The static configuration has the point symmetry C_1 .


Analysis of symmetry for dynamics (positions and initial velocities):
=====================================================================
 Subroutine PRICEL returns:
 Original cell was already a primitive cell.
 

 Routine SETGRP: Setting up the symmetry group for a 
 hexagonal supercell.


 Subroutine GETGRP returns: Found  1 space group operations
 (whereof  1 operations were pure point group operations)
 out of a pool of 24 trial point group operations.


The dynamic configuration has the point symmetry C_1 .
 
 
 KPOINTS: Automatic mesh                          

Automatic generation of k-mesh.
Space group operators:
 irot       det(A)        alpha          n_x          n_y          n_z        tau_x        tau_y        tau_z
    1     1.000000     0.000000     1.000000     0.000000     0.000000     0.000000     0.000000     0.000000
 
 Subroutine IBZKPT returns following result:
 ===========================================
 
 Found      6 irreducible k-points:
 
 Following reciprocal coordinates:
            Coordinates               Weight
  0.250000  0.250000  0.000000     16.000000
  0.000000  0.250000  0.000000     16.000000
 -0.250000  0.000000  0.000000     16.000000
 -0.250000  0.250000  0.000000     16.000000
  0.500000 -0.250000  0.000000     16.000000
 -0.250000  0.500000  0.000000     16.000000
 
 Following cartesian coordinates:
            Coordinates               Weight
  0.022722  0.013119  0.000000     16.000000
  0.000000  0.026237  0.000000     16.000000
 -0.022722  0.013119  0.000000     16.000000
 -0.022722  0.039356  0.000000     16.000000
  0.045444 -0.052474  0.000000     16.000000
 -0.022722  0.065593  0.000000     16.000000
 


--------------------------------------------------------------------------------------------------------




 Dimension of arrays:
   k-points           NKPTS =      6   k-points in BZ     NKDIM =      6   number of bands    NBANDS=    306
   number of dos      NEDOS =    301   number of ions     NIONS =     48
   non local maximal  LDIM  =      6   non local SUM 2l+1 LMDIM =     18
   total plane-waves  NPLWV = 349920
   max r-space proj   IRMAX =   2009   max aug-charges    IRDMAX=   8532
   dimension x,y,z NGX =    54 NGY =   54 NGZ =  120
   dimension x,y,z NGXF=   108 NGYF=  108 NGZF=  240
   support grid    NGXF=   108 NGYF=  108 NGZF=  240
   ions per type =              24  24
 NGX,Y,Z   is equivalent  to a cutoff of   8.16,  8.16,  8.15 a.u.
 NGXF,Y,Z  is equivalent  to a cutoff of  16.32, 16.32, 16.29 a.u.


 I would recommend the setting:
   dimension x,y,z NGX =    54 NGY =   54 NGZ =  120
 SYSTEM =  unknown system                          
 POSCAR =  Au Pd                                   

 Startparameter for this run:
   NWRITE =      1    write-flag & timer
   PREC   = normal    normal or accurate (medium, high low for compatibility)
   ISTART =      0    job   : 0-new  1-cont  2-samecut
   ICHARG =      2    charge: 1-file 2-atom 10-const
   ISPIN  =      1    spin polarized calculation?
   LNONCOLLINEAR =      F non collinear calculations
   LSORBIT =      F    spin-orbit coupling
   INIWAV =      1    electr: 0-lowe 1-rand  2-diag
   LASPH  =      F    aspherical Exc in radial PAW
   METAGGA=      F    non-selfconsistent MetaGGA calc.

 Electronic Relaxation 1
   ENCUT  =  400.0 eV  29.40 Ry    5.42 a.u.  17.94 17.94 39.94*2*pi/ulx,y,z
   ENINI  =  400.0     initial cutoff
   ENAUG  =  416.2 eV  augmentation charge cutoff
   NELM   =    500;   NELMIN=  2; NELMDL= -5     # of ELM steps 
   EDIFF  = 0.1E-05   stopping-criterion for ELM
   LREAL  =      T    real-space projection
   NLSPLINE    = F    spline interpolate recip. space projectors
   LCOMPAT=      F    compatible to vasp.4.4
   GGA_COMPAT  = T    GGA compatible to vasp.4.4-vasp.4.6
   LMAXPAW     = -100 max onsite density
   LMAXMIX     =    2 max onsite mixed and CHGCAR
   VOSKOWN=      1    Vosko Wilk Nusair interpolation
   ROPT   =   -0.00050  -0.00050
 Ionic relaxation
   EDIFFG = -.2E-01   stopping-criterion for IOM
   NSW    =    500    number of steps for IOM
   NBLOCK =      1;   KBLOCK =    500    inner block; outer block 
   IBRION =      2    ionic relax: 0-MD 1-quasi-New 2-CG
   NFREE  =      2    steps in history (QN), initial steepest desc. (CG)
   ISIF   =      0    stress and relaxation
   IWAVPR =     11    prediction:  0-non 1-charg 2-wave 3-comb
   ISYM   =      2    0-nonsym 1-usesym 2-fastsym
   LCORR  =      T    Harris-Foulkes like correction to forces

   POTIM  = 0.3500    time-step for ionic-motion
   TEIN   =    0.0    initial temperature
   TEBEG  =    0.0;   TEEND  =   0.0 temperature during run
   SMASS  =  -3.00    Nose mass-parameter (am)
   estimated Nose-frequenzy (Omega)   =  0.10E-29 period in steps =****** mass=  -0.277E-26a.u.
   SCALEE = 1.0000    scale energy and forces
   NPACO  =    256;   APACO  = 16.0  distance and # of slots for P.C.
   PSTRESS=    0.0 pullay stress

  Mass of Ions in am
   POMASS = 196.97106.42
  Ionic Valenz
   ZVAL   =  11.00 10.00
  Atomic Wigner-Seitz radii
   RWIGS  =  -1.00 -1.00
  virtual crystal weights 
   VCA    =   1.00  1.00
   NELECT =     504.0000    total number of electrons
   NUPDOWN=      -1.0000    fix difference up-down

 DOS related values:
   EMIN   =  10.00;   EMAX   =-10.00  energy-range for DOS
   EFERMI =   0.00
   ISMEAR =     0;   SIGMA  =   0.10  broadening in eV -4-tet -1-fermi 0-gaus

 Electronic relaxation 2 (details)
   IALGO  =     68    algorithm
   LDIAG  =      T    sub-space diagonalisation (order eigenvalues)
   LSUBROT=      F    optimize rotation matrix (better conditioning)
   TURBO    =      0    0=normal 1=particle mesh
   IRESTART =      0    0=no restart 2=restart with 2 vectors
   NREBOOT  =      0    no. of reboots
   NMIN     =      0    reboot dimension
   EREF     =   0.00    reference energy to select bands
   IMIX   =      4    mixing-type and parameters
     AMIX     =   0.40;   BMIX     =  1.00
     AMIX_MAG =   1.60;   BMIX_MAG =  1.00
     AMIN     =   0.10
     WC   =   100.;   INIMIX=   1;  MIXPRE=   1;  MAXMIX= -45

 Intra band minimization:
   WEIMIN = 0.0010     energy-eigenvalue tresh-hold
   EBREAK =  0.82E-09  absolut break condition
   DEPER  =   0.30     relativ break condition  

   TIME   =   0.40     timestep for ELM

  volume/ion in A,a.u.               =      53.49       360.99
  Fermi-wavevector in a.u.,A,eV,Ry     =   0.951418  1.797920 12.315955  0.905197
  Thomas-Fermi vector in A             =   2.079887
 
 Write flags
   LWAVE  =      F    write WAVECAR
   LCHARG =      F    write CHGCAR
   LVTOT  =      F    write LOCPOT, total local potential
   LVHAR  =      F    write LOCPOT, Hartree potential only
   LELF   =      F    write electronic localiz. function (ELF)
   LORBIT =      0    0 simple, 1 ext, 2 COOP (PROOUT)


 Dipole corrections
   LMONO  =      F    monopole corrections only (constant potential shift)
   LDIPOL =      T    correct potential (dipole corrections)
   IDIPOL =      3    1-x, 2-y, 3-z, 4-all directions 
   EPSILON=  1.0000000 bulk dielectric constant

 Exchange correlation treatment:
   GGA     =    PE    GGA type
   LEXCH   =     8    internal setting for exchange type
   VOSKOWN=      1    Vosko Wilk Nusair interpolation
   LHFCALC =     F    Hartree Fock is set to
   LHFONE  =     F    Hartree Fock one center treatment
   AEXX    =    0.0000 exact exchange contribution

 Linear response parameters
   LEPSILON=     F    determine dielectric tensor
   LRPA    =     F    only Hartree local field effects (RPA)
   LNABLA  =     F    use nabla operator in PAW spheres
   LVEL    =     F    velocity operator in full k-point grid
   LINTERFAST=   F  fast interpolation
   KINTER  =     0    interpolate to denser k-point grid
   CSHIFT  =0.1000    complex shift for real part using Kramers Kronig
   OMEGAMAX=  -1.0    maximum frequency
   DEG_THRESHOLD= 0.2000000E-02 threshold for treating states as degnerate
   RTIME   =    0.100 relaxation time in fs

 Orbital magnetization related:
   ORBITALMAG=     F  switch on orbital magnetization
   LCHIMAG   =     F  perturbation theory with respect to B field
   DQ        =  0.001000  dq finite difference perturbation B field



--------------------------------------------------------------------------------------------------------


 conjugate gradient relaxation of ions
 charge density and potential will be updated during run
 non-spin polarized calculation
 RMM-DIIS sequential band-by-band and
  variant of blocked Davidson during initial phase
 perform sub-space diagonalisation
    before iterative eigenvector-optimisation
 modified Broyden-mixing scheme, WC =      100.0
 initial mixing is a Kerker type mixing with AMIX =  0.4000 and BMIX =      1.0000
 Hartree-type preconditioning will be used
 using additional bands           54
 real space projection scheme for non local part
 use partial core corrections
 calculate Harris-corrections to forces 
   (improved forces if not selfconsistent)
 use gradient corrections 
 use of overlap-Matrix (Vanderbilt PP)
 Gauss-broadening in eV      SIGMA  =   0.10


--------------------------------------------------------------------------------------------------------


  energy-cutoff  :      400.00
  volume of cell :     2567.68
      direct lattice vectors                 reciprocal lattice vectors
    11.002581515  0.000000000  0.000000000     0.090887761 -0.052474073  0.000000000
     5.501290758  9.528515099  0.000000000     0.000000000  0.104948147  0.000000000
     0.000000000  0.000000000 24.491785094     0.000000000  0.000000000  0.040830017

  length of vectors
    11.002581515 11.002581515 24.491785094     0.104948147  0.104948147  0.040830017


 
 k-points in units of 2pi/SCALE and weight: Automatic mesh                          
   0.02272194  0.01311852  0.00000000       0.167
   0.00000000  0.02623704  0.00000000       0.167
  -0.02272194  0.01311852  0.00000000       0.167
  -0.02272194  0.03935555  0.00000000       0.167
   0.04544388 -0.05247407  0.00000000       0.167
  -0.02272194  0.06559259  0.00000000       0.167
 
 k-points in reciprocal lattice and weights: Automatic mesh                          
   0.25000000  0.25000000  0.00000000       0.167
   0.00000000  0.25000000  0.00000000       0.167
  -0.25000000  0.00000000  0.00000000       0.167
  -0.25000000  0.25000000  0.00000000       0.167
   0.50000000 -0.25000000  0.00000000       0.167
  -0.25000000  0.50000000  0.00000000       0.167
 
 position of ions in fractional coordinates (direct lattice) 
   0.08333333  0.08333333  0.40830017
   0.58333333  0.33333333  0.40830017
   0.41666667  0.66666667  0.50000000
   0.50000000  0.50000000  0.59169983
   0.58333333  0.08333333  0.40830017
   0.66666667  0.91666667  0.50000000
   0.41666667  0.91666667  0.50000000
   0.50000000  0.75000000  0.59169983
   0.33333333  0.58333333  0.40830017
   0.75000000  0.00000000  0.59169983
   0.83333333  0.33333333  0.40830017
   0.41666667  0.41666667  0.50000000
   0.16666667  0.16666667  0.50000000
   0.25000000  0.00000000  0.59169983
   0.00000000  0.75000000  0.59169983
   0.91666667  0.91666667  0.50000000
   0.75000000  0.25000000  0.59169983
   0.91666667  0.66666667  0.50000000
   0.83333333  0.58333333  0.40830017
   0.66666667  0.66666667  0.50000000
   0.91666667  0.41666667  0.50000000
   0.08333333  0.33333333  0.40830017
   0.75000000  0.50000000  0.59169983
   0.33333333  0.08333333  0.40830017
   0.66666667  0.41666667  0.50000000
   0.66666667  0.16666667  0.50000000
   0.83333333  0.08333333  0.40830017
   0.58333333  0.83333333  0.40830017
   0.83333333  0.83333333  0.40830017
   0.58333333  0.58333333  0.40830017
   0.25000000  0.75000000  0.59169983
   0.50000000  0.00000000  0.59169983
   0.91666667  0.16666667  0.50000000
   0.00000000  0.00000000  0.59169983
   0.00000000  0.25000000  0.59169983
   0.08333333  0.58333333  0.40830017
   0.00000000  0.50000000  0.59169983
   0.08333333  0.83333333  0.40830017
   0.50000000  0.25000000  0.59169983
   0.33333333  0.33333333  0.40830017
   0.25000000  0.25000000  0.59169983
   0.16666667  0.66666667  0.50000000
   0.25000000  0.50000000  0.59169983
   0.33333333  0.83333333  0.40830017
   0.16666667  0.91666667  0.50000000
   0.41666667  0.16666667  0.50000000
   0.16666667  0.41666667  0.50000000
   0.75000000  0.75000000  0.59169983
 
 position of ions in cartesian coordinates  (Angst):
   1.37532269  0.79404292 10.00000000
   8.25193614  3.17617170 10.00000000
   8.25193614  6.35234340 12.24589255
   8.25193614  4.76425755 14.49178509
   6.87661345  0.79404292 10.00000000
  12.37790420  8.73447217 12.24589255
   9.62725883  8.73447217 12.24589255
   9.62725883  7.14638632 14.49178509
   6.87661345  5.55830047 10.00000000
   8.25193614  0.00000000 14.49178509
  11.00258152  3.17617170 10.00000000
   6.87661345  3.97021462 12.24589255
   2.75064538  1.58808585 12.24589255
   2.75064538  0.00000000 14.49178509
   4.12596807  7.14638632 14.49178509
  15.12854958  8.73447217 12.24589255
   9.62725883  2.38212877 14.49178509
  13.75322689  6.35234340 12.24589255
  12.37790420  5.55830047 10.00000000
  11.00258152  6.35234340 12.24589255
  12.37790420  3.97021462 12.24589255
   2.75064538  3.17617170 10.00000000
  11.00258152  4.76425755 14.49178509
   4.12596807  0.79404292 10.00000000
   9.62725883  3.97021462 12.24589255
   8.25193614  1.58808585 12.24589255
   9.62725883  0.79404292 10.00000000
  11.00258152  7.94042925 10.00000000
  13.75322689  7.94042925 10.00000000
   9.62725883  5.55830047 10.00000000
   6.87661345  7.14638632 14.49178509
   5.50129076  0.00000000 14.49178509
  11.00258152  1.58808585 12.24589255
   0.00000000  0.00000000 14.49178509
   1.37532269  2.38212877 14.49178509
   4.12596807  5.55830047 10.00000000
   2.75064538  4.76425755 14.49178509
   5.50129076  7.94042925 10.00000000
   6.87661345  2.38212877 14.49178509
   5.50129076  3.17617170 10.00000000
   4.12596807  2.38212877 14.49178509
   5.50129076  6.35234340 12.24589255
   5.50129076  4.76425755 14.49178509
   8.25193614  7.94042925 10.00000000
   6.87661345  8.73447217 12.24589255
   5.50129076  1.58808585 12.24589255
   4.12596807  3.97021462 12.24589255
  12.37790420  7.14638632 14.49178509
 


--------------------------------------------------------------------------------------------------------


 k-point  1 :   0.2500 0.2500 0.0000  plane waves:   46635
 k-point  2 :   0.0000 0.2500 0.0000  plane waves:   46635
 k-point  3 :  -0.2500 0.0000 0.0000  plane waves:   46635
 k-point  4 :  -0.2500 0.2500 0.0000  plane waves:   46644
 k-point  5 :   0.5000-0.2500 0.0000  plane waves:   46644
 k-point  6 :  -0.2500 0.5000 0.0000  plane waves:   46644

 maximum and minimum number of plane-waves per node :      7818     7732

 maximum number of plane-waves:     46644
 maximum index in each direction: 
   IXMAX=   18   IYMAX=   18   IZMAX=   39
   IXMIN=  -18   IYMIN=  -18   IZMIN=  -39

 WARNING: aliasing errors must be expected set NGX to  74 to avoid them
 WARNING: aliasing errors must be expected set NGY to  74 to avoid them
 WARNING: aliasing errors must be expected set NGZ to 158 to avoid them
 aliasing errors are usually negligible using standard VASP settings
 and one can safely disregard these warnings

 real space projection operators:
  total allocation   :      12803.06 KBytes
  max/ min on nodes  :       2145.66       2127.94


 parallel 3D FFT for wavefunctions:
    minimum data exchange during FFTs selected (reduces bandwidth)
 parallel 3D FFT for charge:
    minimum data exchange during FFTs selected (reduces bandwidth)


 total amount of memory used by VASP on root node    84353. kBytes
========================================================================

   base      :      30000. kBytes
   nonlr-proj:       4285. kBytes
   fftplans  :       4447. kBytes
   grid      :       6721. kBytes
   one-center:        124. kBytes
   wavefun   :      38776. kBytes
 
     INWAV:  cpu time    0.0000: real time    0.0000
 Broyden mixing: mesh for mixing (old mesh)
   NGX = 35   NGY = 35   NGZ = 79
  (NGX  =108   NGY  =108   NGZ  =240)
  gives a total of  96775 points

 initial charge density was supplied:
 charge density of overlapping atoms calculated
 number of electron     504.0000000 magnetization 
 keeping initial charge density in first step


--------------------------------------------------------------------------------------------------------


 Maximum index for non-local projection operator          355
 Maximum index for augmentation-charges          437 (set IRDMAX)


--------------------------------------------------------------------------------------------------------


 First call to EWALD:  gamma=   0.129
 Maximum number of real-space cells 4x 4x 2
 Maximum number of reciprocal cells 2x 2x 5

 FEWALD executed in parallel
    FEWALD:  cpu time    0.0025: real time    0.0026


----------------------------------------- Iteration    1(   1)  ---------------------------------------


    POTLOK:  cpu time    0.0454: real time    0.0460
    SETDIJ:  cpu time    0.0056: real time    0.0057
     EDDAV:  cpu time    7.0958: real time    7.1154
       DOS:  cpu time    0.0013: real time    0.0013
    --------------------------------------------
      LOOP:  cpu time    7.1509: real time    7.1753

 eigenvalue-minimisations  :  3672
 total energy-change (2. order) : 0.3201336E+04  (-0.1898049E+05)
 number of electron     504.0000000 magnetization 
 augmentation part      504.0000000 magnetization 

 DIPCOR: dipole corrections for dipol
 direction  3 min pos     1,
 dipolmoment           0.000000      0.000000      0.000001 electrons x Angstroem
 Tr[quadrupol]    -10300.860934

 energy correction for charged system         0.000000 eV
 dipol+quadrupol energy correction           -0.000000 eV
 added-field ion interaction          0.000000 eV  (added to PSCEN)


 Free energy of the ion-electron system (eV)
  ---------------------------------------------------
  alpha Z        PSCENC =       805.86936440
  Ewald energy   TEWEN  =    200397.60810521
  -Hartree energ DENC   =   -242812.83247091
  -exchange      EXHF   =         0.00000000
  -V(xc)+E(xc)   XCENC  =      -327.55974790
  PAW double counting   =     40340.05962942   -38292.62782345
  entropy T*S    EENTRO =        -0.12087541
  eigenvalues    EBANDS =      1431.15391899
  atomic energy  EATOM  =     41659.78587232
  Solvation  Ediel_sol  =         0.00000000
  ---------------------------------------------------
  free energy    TOTEN  =      3201.33597267 eV

  energy without entropy =     3201.45684809  energy(sigma->0) =     3201.39641038


--------------------------------------------------------------------------------------------------------




----------------------------------------- Iteration    1(   2)  ---------------------------------------


     EDDAV:  cpu time    8.3214: real time    8.4151
       DOS:  cpu time    0.0013: real time    0.0013
    --------------------------------------------
      LOOP:  cpu time    8.3234: real time    8.4187

 eigenvalue-minimisations  :  4368
 total energy-change (2. order) :-0.3185923E+04  (-0.2927309E+04)
 number of electron     504.0000000 magnetization 
 augmentation part      504.0000000 magnetization 

 DIPCOR: dipole corrections for dipol
 direction  3 min pos     1,
 dipolmoment           0.000000      0.000000      0.000001 electrons x Angstroem
 Tr[quadrupol]    -10300.860934

 energy correction for charged system         0.000000 eV
 dipol+quadrupol energy correction           -0.000000 eV
 added-field ion interaction          0.000000 eV  (added to PSCEN)


 Free energy of the ion-electron system (eV)
  ---------------------------------------------------
  alpha Z        PSCENC =       805.86936440
  Ewald energy   TEWEN  =    200397.60810521
  -Hartree energ DENC   =   -242812.83247091
  -exchange      EXHF   =         0.00000000
  -V(xc)+E(xc)   XCENC  =      -327.55974790
  PAW double counting   =     40340.05962942   -38292.62782345
  entropy T*S    EENTRO =        -0.13718652
  eigenvalues    EBANDS =     -1754.75324436
  atomic energy  EATOM  =     41659.78587232
  Solvation  Ediel_sol  =         0.00000000
  ---------------------------------------------------
  free energy    TOTEN  =        15.41249822 eV

  energy without entropy =       15.54968474  energy(sigma->0) =       15.48109148


--------------------------------------------------------------------------------------------------------




----------------------------------------- Iteration    1(   3)  ---------------------------------------


     EDDAV:  cpu time    8.1719: real time    8.2165
       DOS:  cpu time    0.0014: real time    0.0015
    --------------------------------------------
      LOOP:  cpu time    8.1742: real time    8.2217

 eigenvalue-minimisations  :  4140
 total energy-change (2. order) :-0.2154095E+03  (-0.2001729E+03)
 number of electron     504.0000000 magnetization 
 augmentation part      504.0000000 magnetization 

 DIPCOR: dipole corrections for dipol
 direction  3 min pos     1,
 dipolmoment           0.000000      0.000000      0.000001 electrons x Angstroem
 Tr[quadrupol]    -10300.860934

 energy correction for charged system         0.000000 eV
 dipol+quadrupol energy correction           -0.000000 eV
 added-field ion interaction          0.000000 eV  (added to PSCEN)


 Free energy of the ion-electron system (eV)
  ---------------------------------------------------
  alpha Z        PSCENC =       805.86936440
  Ewald energy   TEWEN  =    200397.60810521
  -Hartree energ DENC   =   -242812.83247091
  -exchange      EXHF   =         0.00000000
  -V(xc)+E(xc)   XCENC  =      -327.55974790
  PAW double counting   =     40340.05962942   -38292.62782345
  entropy T*S    EENTRO =        -0.20868596
  eigenvalues    EBANDS =     -1970.09128770
  atomic energy  EATOM  =     41659.78587232
  Solvation  Ediel_sol  =         0.00000000
  ---------------------------------------------------
  free energy    TOTEN  =      -199.99704457 eV

  energy without entropy =     -199.78835861  energy(sigma->0) =     -199.89270159


--------------------------------------------------------------------------------------------------------




----------------------------------------- Iteration    1(   4)  ---------------------------------------


     EDDAV:  cpu time    8.3905: real time    8.4592
       DOS:  cpu time    0.0014: real time    0.0014
    --------------------------------------------
      LOOP:  cpu time    8.3924: real time    8.4636

 eigenvalue-minimisations  :  4272
 total energy-change (2. order) :-0.5874333E+01  (-0.5806116E+01)
 number of electron     504.0000000 magnetization 
 augmentation part      504.0000000 magnetization 

 DIPCOR: dipole corrections for dipol
 direction  3 min pos     1,
 dipolmoment           0.000000      0.000000      0.000001 electrons x Angstroem
 Tr[quadrupol]    -10300.860934

 energy correction for charged system         0.000000 eV
 dipol+quadrupol energy correction           -0.000000 eV
 added-field ion interaction          0.000000 eV  (added to PSCEN)


 Free energy of the ion-electron system (eV)
  ---------------------------------------------------
  alpha Z        PSCENC =       805.86936440
  Ewald energy   TEWEN  =    200397.60810521
  -Hartree energ DENC   =   -242812.83247091
  -exchange      EXHF   =         0.00000000
  -V(xc)+E(xc)   XCENC  =      -327.55974790
  PAW double counting   =     40340.05962942   -38292.62782345
  entropy T*S    EENTRO =        -0.21929362
  eigenvalues    EBANDS =     -1975.95501260
  atomic energy  EATOM  =     41659.78587232
  Solvation  Ediel_sol  =         0.00000000
  ---------------------------------------------------
  free energy    TOTEN  =      -205.87137713 eV

  energy without entropy =     -205.65208350  energy(sigma->0) =     -205.76173032


--------------------------------------------------------------------------------------------------------




----------------------------------------- Iteration    1(   5)  ---------------------------------------


     EDDAV:  cpu time    8.6614: real time    8.6887
       DOS:  cpu time    0.0015: real time    0.0015
    CHARGE:  cpu time    0.2198: real time    0.2203
    MIXING:  cpu time    0.0020: real time    0.0021
    --------------------------------------------
      LOOP:  cpu time    8.8856: real time    8.9169

 eigenvalue-minimisations  :  4440
 total energy-change (2. order) :-0.1825004E+00  (-0.1818822E+00)
 number of electron     503.9998406 magnetization 
 augmentation part      191.3326562 magnetization 

 DIPCOR: dipole corrections for dipol
 direction  3 min pos     1,
 dipolmoment           0.000000      0.000000      0.000001 electrons x Angstroem
 Tr[quadrupol]    -10300.860934

 energy correction for charged system         0.000000 eV
 dipol+quadrupol energy correction           -0.000000 eV
 added-field ion interaction          0.000000 eV  (added to PSCEN)


 Broyden mixing:
  rms(total) = 0.62527E+01    rms(broyden)= 0.62527E+01
  rms(prec ) = 0.63698E+01
  weight for this iteration     100.00

 Free energy of the ion-electron system (eV)
  ---------------------------------------------------
  alpha Z        PSCENC =       805.86936440
  Ewald energy   TEWEN  =    200397.60810521
  -Hartree energ DENC   =   -242812.83247091
  -exchange      EXHF   =         0.00000000
  -V(xc)+E(xc)   XCENC  =      -327.55974790
  PAW double counting   =     40340.05962942   -38292.62782345
  entropy T*S    EENTRO =        -0.21970891
  eigenvalues    EBANDS =     -1976.13709772
  atomic energy  EATOM  =     41659.78587232
  Solvation  Ediel_sol  =         0.00000000
  ---------------------------------------------------
  free energy    TOTEN  =      -206.05387754 eV

  energy without entropy =     -205.83416863  energy(sigma->0) =     -205.94402309


--------------------------------------------------------------------------------------------------------




----------------------------------------- Iteration    1(   6)  ---------------------------------------


    POTLOK:  cpu time    0.0415: real time    0.0416
    SETDIJ:  cpu time    0.0060: real time    0.0062
    EDDIAG:  cpu time    1.2968: real time    1.3013
  RMM-DIIS:  cpu time    3.4324: real time    3.4418
    ORTHCH:  cpu time    0.3559: real time    0.3576
       DOS:  cpu time    0.0014: real time    0.0014
    CHARGE:  cpu time    0.2260: real time    0.2266
    MIXING:  cpu time    0.0020: real time    0.0020
    --------------------------------------------
      LOOP:  cpu time    5.3626: real time    5.3819

 eigenvalue-minimisations  :  3678
 total energy-change (2. order) : 0.7444517E+01  (-0.9239298E+01)
 number of electron     503.9998417 magnetization 
 augmentation part      192.1300190 magnetization 

 DIPCOR: dipole corrections for dipol
 direction  3 min pos     1,
 dipolmoment           0.000000      0.000000      0.339804 electrons x Angstroem
 Tr[quadrupol]    -10301.561137

 energy correction for charged system         0.000000 eV
 dipol+quadrupol energy correction           -0.004069 eV
 added-field ion interaction          0.053784 eV  (added to PSCEN)


 Broyden mixing:
  rms(total) = 0.53909E+01    rms(broyden)= 0.53908E+01
  rms(prec ) = 0.55732E+01
  weight for this iteration     100.00

 eigenvalues of (default mixing * dielectric matrix)
  average eigenvalue GAMMA=   0.7915
  0.7915

 Free energy of the ion-electron system (eV)
  ---------------------------------------------------
  alpha Z        PSCENC =       805.91907921
  Ewald energy   TEWEN  =    200397.60810521
  -Hartree energ DENC   =   -242539.73464383
  -exchange      EXHF   =         0.00000000
  -V(xc)+E(xc)   XCENC  =      -339.98601651
  PAW double counting   =     43929.93158302   -41941.66439773
  entropy T*S    EENTRO =        -0.26387531
  eigenvalues    EBANDS =     -2170.20506719
  atomic energy  EATOM  =     41659.78587232
  Solvation  Ediel_sol  =         0.00000000
  ---------------------------------------------------
  free energy    TOTEN  =      -198.60936080 eV

  energy without entropy =     -198.34548550  energy(sigma->0) =     -198.47742315


--------------------------------------------------------------------------------------------------------




----------------------------------------- Iteration    1(   7)  ---------------------------------------


    POTLOK:  cpu time    0.0416: real time    0.0418
    SETDIJ:  cpu time    0.0045: real time    0.0053
    EDDIAG:  cpu time    1.2823: real time    1.2877
  RMM-DIIS:  cpu time    3.4364: real time    3.4494
    ORTHCH:  cpu time    0.3565: real time    0.3578
       DOS:  cpu time    0.0015: real time    0.0015
    CHARGE:  cpu time    0.2243: real time    0.2249
    MIXING:  cpu time    0.0019: real time    0.0020
    --------------------------------------------
      LOOP:  cpu time    5.3498: real time    5.3747

 eigenvalue-minimisations  :  3684
 total energy-change (2. order) :-0.7308974E+01  (-0.5337662E+01)
 number of electron     503.9998370 magnetization 
 augmentation part      196.0351782 magnetization 

 DIPCOR: dipole corrections for dipol
 direction  3 min pos     1,
 dipolmoment           0.000000      0.000000     -0.943451 electrons x Angstroem
 Tr[quadrupol]    -10300.991064

 energy correction for charged system         0.000000 eV
 dipol+quadrupol energy correction           -0.031365 eV
 added-field ion interaction         -0.149328 eV  (added to PSCEN)


 Broyden mixing:
  rms(total) = 0.41898E+01    rms(broyden)= 0.41895E+01
  rms(prec ) = 0.47812E+01
  weight for this iteration     100.00

 eigenvalues of (default mixing * dielectric matrix)
  average eigenvalue GAMMA=   0.9841
  1.5693  0.3988

 Free energy of the ion-electron system (eV)
  ---------------------------------------------------
  alpha Z        PSCENC =       805.68867158
  Ewald energy   TEWEN  =    200397.60810521
  -Hartree energ DENC   =   -242414.88085500
  -exchange      EXHF   =         0.00000000
  -V(xc)+E(xc)   XCENC  =      -342.42425948
  PAW double counting   =     45501.21107063   -43539.84006172
  entropy T*S    EENTRO =        -0.18927171
  eigenvalues    EBANDS =     -2272.87760703
  atomic energy  EATOM  =     41659.78587232
  Solvation  Ediel_sol  =         0.00000000
  ---------------------------------------------------
  free energy    TOTEN  =      -205.91833521 eV

  energy without entropy =     -205.72906350  energy(sigma->0) =     -205.82369935


--------------------------------------------------------------------------------------------------------




----------------------------------------- Iteration    1(   8)  ---------------------------------------


    POTLOK:  cpu time    0.0415: real time    0.0418
    SETDIJ:  cpu time    0.0053: real time    0.0054
    EDDIAG:  cpu time    1.2891: real time    1.2940
  RMM-DIIS:  cpu time    3.3529: real time    3.4537
    ORTHCH:  cpu time    0.3532: real time    0.3596
       DOS:  cpu time    0.0015: real time    0.0015
    CHARGE:  cpu time    0.2281: real time    0.2290
    MIXING:  cpu time    0.0021: real time    0.0021
    --------------------------------------------
      LOOP:  cpu time    5.2744: real time    5.3914

 eigenvalue-minimisations  :  3672
 total energy-change (2. order) :-0.2275457E+02  (-0.9142962E+01)
 number of electron     503.9998366 magnetization 
 augmentation part      195.3912653 magnetization 

 DIPCOR: dipole corrections for dipol
 direction  3 min pos     1,
 dipolmoment           0.000000      0.000000      2.068813 electrons x Angstroem
 Tr[quadrupol]    -10302.646844

 energy correction for charged system         0.000000 eV
 dipol+quadrupol energy correction           -0.150815 eV
 added-field ion interaction          0.327449 eV  (added to PSCEN)


 Broyden mixing:
  rms(total) = 0.46742E+01    rms(broyden)= 0.46738E+01
  rms(prec ) = 0.57622E+01
  weight for this iteration     100.00

 eigenvalues of (default mixing * dielectric matrix)
  average eigenvalue GAMMA=   0.9316
  2.0847  0.4522  0.2579

 Free energy of the ion-electron system (eV)
  ---------------------------------------------------
  alpha Z        PSCENC =       806.04599759
  Ewald energy   TEWEN  =    200397.60810521
  -Hartree energ DENC   =   -242405.11174738
  -exchange      EXHF   =         0.00000000
  -V(xc)+E(xc)   XCENC  =      -344.49797646
  PAW double counting   =     47347.44321644   -45412.93661814
  entropy T*S    EENTRO =        -0.28316831
  eigenvalues    EBANDS =     -2276.72658574
  atomic energy  EATOM  =     41659.78587232
  Solvation  Ediel_sol  =         0.00000000
  ---------------------------------------------------
  free energy    TOTEN  =      -228.67290447 eV

  energy without entropy =     -228.38973616  energy(sigma->0) =     -228.53132032


--------------------------------------------------------------------------------------------------------




----------------------------------------- Iteration    1(   9)  ---------------------------------------


    POTLOK:  cpu time    0.0404: real time    0.0413
    SETDIJ:  cpu time    0.0051: real time    0.0059
    EDDIAG:  cpu time    1.2863: real time    1.2906
  RMM-DIIS:  cpu time    3.4938: real time    3.5030
    ORTHCH:  cpu time    0.3552: real time    0.3561
       DOS:  cpu time    0.0014: real time    0.0014
    CHARGE:  cpu time    0.2295: real time    0.2300
    MIXING:  cpu time    0.0021: real time    0.0021
    --------------------------------------------
      LOOP:  cpu time    5.4145: real time    5.4336

 eigenvalue-minimisations  :  3675
 total energy-change (2. order) : 0.1718137E+02  (-0.4956266E+01)
 number of electron     503.9998338 magnetization 
 augmentation part      198.3277672 magnetization 

 DIPCOR: dipole corrections for dipol
 direction  3 min pos     1,
 dipolmoment           0.000000      0.000000     -0.549432 electrons x Angstroem
 Tr[quadrupol]    -10303.632968

 energy correction for charged system         0.000000 eV
 dipol+quadrupol energy correction           -0.010637 eV
 added-field ion interaction         -0.086963 eV  (added to PSCEN)


 Broyden mixing:
  rms(total) = 0.35705E+01    rms(broyden)= 0.35701E+01
  rms(prec ) = 0.39783E+01
  weight for this iteration     100.00

 eigenvalues of (default mixing * dielectric matrix)
  average eigenvalue GAMMA=   0.8229
  2.2533  0.4545  0.2919  0.2919

 Free energy of the ion-electron system (eV)
  ---------------------------------------------------
  alpha Z        PSCENC =       805.77176374
  Ewald energy   TEWEN  =    200397.60810521
  -Hartree energ DENC   =   -242395.16538684
  -exchange      EXHF   =         0.00000000
  -V(xc)+E(xc)   XCENC  =      -346.17502251
  PAW double counting   =     48624.66562950   -46710.51669636
  entropy T*S    EENTRO =        -0.20233325
  eigenvalues    EBANDS =     -2247.26346176
  atomic energy  EATOM  =     41659.78587232
  Solvation  Ediel_sol  =         0.00000000
  ---------------------------------------------------
  free energy    TOTEN  =      -211.49152996 eV

  energy without entropy =     -211.28919671  energy(sigma->0) =     -211.39036334


--------------------------------------------------------------------------------------------------------




----------------------------------------- Iteration    1(  10)  ---------------------------------------


    POTLOK:  cpu time    0.0400: real time    0.0401
    SETDIJ:  cpu time    0.0051: real time    0.0051
    EDDIAG:  cpu time    1.2872: real time    1.2939
  RMM-DIIS:  cpu time    3.4163: real time    3.4396
    ORTHCH:  cpu time    0.3577: real time    0.3590
       DOS:  cpu time    0.0014: real time    0.0014
    CHARGE:  cpu time    0.2221: real time    0.2230
    MIXING:  cpu time    0.0021: real time    0.0021
    --------------------------------------------
      LOOP:  cpu time    5.3325: real time    5.3676

 eigenvalue-minimisations  :  3682
 total energy-change (2. order) : 0.1458909E+02  (-0.1927478E+01)
 number of electron     503.9998339 magnetization 
 augmentation part      199.2570769 magnetization 

 DIPCOR: dipole corrections for dipol
 direction  3 min pos     1,
 dipolmoment           0.000000      0.000000      0.387887 electrons x Angstroem
 Tr[quadrupol]    -10302.403495

 energy correction for charged system         0.000000 eV
 dipol+quadrupol energy correction           -0.005302 eV
 added-field ion interaction          0.061394 eV  (added to PSCEN)


 Broyden mixing:
  rms(total) = 0.20946E+01    rms(broyden)= 0.20944E+01
  rms(prec ) = 0.24365E+01
  weight for this iteration     100.00

 eigenvalues of (default mixing * dielectric matrix)
  average eigenvalue GAMMA=   0.7628
  2.2966  0.4416  0.4416  0.4094  0.2250

 Free energy of the ion-electron system (eV)
  ---------------------------------------------------
  alpha Z        PSCENC =       805.92545674
  Ewald energy   TEWEN  =    200397.60810521
  -Hartree energ DENC   =   -242364.41476882
  -exchange      EXHF   =         0.00000000
  -V(xc)+E(xc)   XCENC  =      -345.98346056
  PAW double counting   =     49138.95187842   -47230.14210343
  entropy T*S    EENTRO =        -0.17789380
  eigenvalues    EBANDS =     -2258.45552559
  atomic energy  EATOM  =     41659.78587232
  Solvation  Ediel_sol  =         0.00000000
  ---------------------------------------------------
  free energy    TOTEN  =      -196.90243951 eV

  energy without entropy =     -196.72454571  energy(sigma->0) =     -196.81349261


--------------------------------------------------------------------------------------------------------




----------------------------------------- Iteration    1(  11)  ---------------------------------------


    POTLOK:  cpu time    0.0402: real time    0.0403
    SETDIJ:  cpu time    0.0051: real time    0.0051
    EDDIAG:  cpu time    1.2813: real time    1.2875
  RMM-DIIS:  cpu time    3.4283: real time    3.4412
    ORTHCH:  cpu time    0.3569: real time    0.3582
       DOS:  cpu time    0.0015: real time    0.0015
    CHARGE:  cpu time    0.2220: real time    0.2225
    MIXING:  cpu time    0.0025: real time    0.0025
    --------------------------------------------
      LOOP:  cpu time    5.3384: real time    5.3623

 eigenvalue-minimisations  :  3681
 total energy-change (2. order) : 0.4802119E+01  (-0.1308403E+01)
 number of electron     503.9998344 magnetization 
 augmentation part      198.5772607 magnetization 

 DIPCOR: dipole corrections for dipol
 direction  3 min pos     1,
 dipolmoment           0.000000      0.000000      0.073594 electrons x Angstroem
 Tr[quadrupol]    -10303.197400

 energy correction for charged system         0.000000 eV
 dipol+quadrupol energy correction           -0.000191 eV
 added-field ion interaction          0.011648 eV  (added to PSCEN)


 Broyden mixing:
  rms(total) = 0.12605E+01    rms(broyden)= 0.12603E+01
  rms(prec ) = 0.14478E+01
  weight for this iteration     100.00

 eigenvalues of (default mixing * dielectric matrix)
  average eigenvalue GAMMA=   0.7225
  2.2255  0.6142  0.6142  0.3262  0.3262  0.2287

 Free energy of the ion-electron system (eV)
  ---------------------------------------------------
  alpha Z        PSCENC =       805.88082171
  Ewald energy   TEWEN  =    200397.60810521
  -Hartree energ DENC   =   -242418.93128315
  -exchange      EXHF   =         0.00000000
  -V(xc)+E(xc)   XCENC  =      -345.38503883
  PAW double counting   =     49294.80126635   -47384.02137918
  entropy T*S    EENTRO =        -0.22295619
  eigenvalues    EBANDS =     -2201.61572855
  atomic energy  EATOM  =     41659.78587232
  Solvation  Ediel_sol  =         0.00000000
  ---------------------------------------------------
  free energy    TOTEN  =      -192.10032031 eV

  energy without entropy =     -191.87736412  energy(sigma->0) =     -191.98884222


--------------------------------------------------------------------------------------------------------




----------------------------------------- Iteration    1(  12)  ---------------------------------------


    POTLOK:  cpu time    0.0406: real time    0.0409
    SETDIJ:  cpu time    0.0055: real time    0.0055
    EDDIAG:  cpu time    1.2910: real time    1.2969
  RMM-DIIS:  cpu time    3.4403: real time    3.4584
    ORTHCH:  cpu time    0.3564: real time    0.3588
       DOS:  cpu time    0.0015: real time    0.0015
    CHARGE:  cpu time    0.2236: real time    0.2245
    MIXING:  cpu time    0.0025: real time    0.0026
    --------------------------------------------
      LOOP:  cpu time    5.3621: real time    5.3933

 eigenvalue-minimisations  :  3679
 total energy-change (2. order) : 0.2601749E+01  (-0.5537602E+00)
 number of electron     503.9998358 magnetization 
 augmentation part      197.5471155 magnetization 

 DIPCOR: dipole corrections for dipol
 direction  3 min pos     1,
 dipolmoment           0.000000      0.000000      0.079306 electrons x Angstroem
 Tr[quadrupol]    -10303.337420

 energy correction for charged system         0.000000 eV
 dipol+quadrupol energy correction           -0.000222 eV
 added-field ion interaction          0.012552 eV  (added to PSCEN)


 Broyden mixing:
  rms(total) = 0.10346E+01    rms(broyden)= 0.10344E+01
  rms(prec ) = 0.11463E+01
  weight for this iteration     100.00

 eigenvalues of (default mixing * dielectric matrix)
  average eigenvalue GAMMA=   0.6655
  2.2563  0.5084  0.5084  0.5280  0.3182  0.3182  0.2207

 Free energy of the ion-electron system (eV)
  ---------------------------------------------------
  alpha Z        PSCENC =       805.88169510
  Ewald energy   TEWEN  =    200397.60810521
  -Hartree energ DENC   =   -242459.00547233
  -exchange      EXHF   =         0.00000000
  -V(xc)+E(xc)   XCENC  =      -344.38557897
  PAW double counting   =     49303.41364760   -47387.88589167
  entropy T*S    EENTRO =        -0.21132874
  eigenvalues    EBANDS =     -2164.69961958
  atomic energy  EATOM  =     41659.78587232
  Solvation  Ediel_sol  =         0.00000000
  ---------------------------------------------------
  free energy    TOTEN  =      -189.49857107 eV

  energy without entropy =     -189.28724233  energy(sigma->0) =     -189.39290670


--------------------------------------------------------------------------------------------------------




----------------------------------------- Iteration    1(  13)  ---------------------------------------


    POTLOK:  cpu time    0.0410: real time    0.0413
    SETDIJ:  cpu time    0.0048: real time    0.0052
    EDDIAG:  cpu time    1.2813: real time    1.2865
  RMM-DIIS:  cpu time    3.4309: real time    3.4562
    ORTHCH:  cpu time    0.3534: real time    0.3569
       DOS:  cpu time    0.0014: real time    0.0015
    CHARGE:  cpu time    0.2568: real time    0.2604
    MIXING:  cpu time    0.0048: real time    0.0049
    --------------------------------------------
      LOOP:  cpu time    5.3752: real time    5.4166

 eigenvalue-minimisations  :  3681
 total energy-change (2. order) : 0.6840687E+00  (-0.1729841E+00)
 number of electron     503.9998359 magnetization 
 augmentation part      197.4358172 magnetization 

 DIPCOR: dipole corrections for dipol
 direction  3 min pos     1,
 dipolmoment           0.000000      0.000000      0.033641 electrons x Angstroem
 Tr[quadrupol]    -10303.635468

 energy correction for charged system         0.000000 eV
 dipol+quadrupol energy correction           -0.000040 eV
 added-field ion interaction          0.005325 eV  (added to PSCEN)


 Broyden mixing:
  rms(total) = 0.72170E+00    rms(broyden)= 0.72155E+00
  rms(prec ) = 0.80150E+00
  weight for this iteration     100.00

 eigenvalues of (default mixing * dielectric matrix)
  average eigenvalue GAMMA=   0.6797
  2.2929  0.6660  0.6660  0.7159  0.3182  0.3182  0.2464  0.2142

 Free energy of the ion-electron system (eV)
  ---------------------------------------------------
  alpha Z        PSCENC =       805.87464906
  Ewald energy   TEWEN  =    200397.60810521
  -Hartree energ DENC   =   -242472.92049722
  -exchange      EXHF   =         0.00000000
  -V(xc)+E(xc)   XCENC  =      -344.24008743
  PAW double counting   =     49349.64216004   -47433.61449093
  entropy T*S    EENTRO =        -0.23614391
  eigenvalues    EBANDS =     -2150.71406955
  atomic energy  EATOM  =     41659.78587232
  Solvation  Ediel_sol  =         0.00000000
  ---------------------------------------------------
  free energy    TOTEN  =      -188.81450241 eV

  energy without entropy =     -188.57835849  energy(sigma->0) =     -188.69643045


--------------------------------------------------------------------------------------------------------




----------------------------------------- Iteration    1(  14)  ---------------------------------------


    POTLOK:  cpu time    0.0496: real time    0.0511
    SETDIJ:  cpu time    0.0052: real time    0.0052
    EDDIAG:  cpu time    1.5580: real time    1.5703
  RMM-DIIS:  cpu time    3.4061: real time    3.4177
    ORTHCH:  cpu time    0.3606: real time    0.3616
       DOS:  cpu time    0.0014: real time    0.0014
    CHARGE:  cpu time    0.2223: real time    0.2228
    MIXING:  cpu time    0.0027: real time    0.0027
    --------------------------------------------
      LOOP:  cpu time    5.6064: real time    5.6351

 eigenvalue-minimisations  :  3678
 total energy-change (2. order) : 0.1275398E+00  (-0.9650595E-01)
 number of electron     503.9998357 magnetization 
 augmentation part      197.5725106 magnetization 

 DIPCOR: dipole corrections for dipol
 direction  3 min pos     1,
 dipolmoment           0.000000      0.000000      0.023104 electrons x Angstroem
 Tr[quadrupol]    -10303.864742

 energy correction for charged system         0.000000 eV
 dipol+quadrupol energy correction           -0.000019 eV
 added-field ion interaction          0.003657 eV  (added to PSCEN)


 Broyden mixing:
  rms(total) = 0.60142E+00    rms(broyden)= 0.60130E+00
  rms(prec ) = 0.65425E+00
  weight for this iteration     100.00

 eigenvalues of (default mixing * dielectric matrix)
  average eigenvalue GAMMA=   0.6766
  2.2912  0.8265  0.8265  0.7168  0.3499  0.3499  0.2629  0.2629  0.2028

 Free energy of the ion-electron system (eV)
  ---------------------------------------------------
  alpha Z        PSCENC =       805.87300235
  Ewald energy   TEWEN  =    200397.60810521
  -Hartree energ DENC   =   -242481.52160500
  -exchange      EXHF   =         0.00000000
  -V(xc)+E(xc)   XCENC  =      -344.17324707
  PAW double counting   =     49389.52811626   -47473.25045274
  entropy T*S    EENTRO =        -0.25429335
  eigenvalues    EBANDS =     -2142.28246059
  atomic energy  EATOM  =     41659.78587232
  Solvation  Ediel_sol  =         0.00000000
  ---------------------------------------------------
  free energy    TOTEN  =      -188.68696263 eV

  energy without entropy =     -188.43266927  energy(sigma->0) =     -188.55981595


--------------------------------------------------------------------------------------------------------




----------------------------------------- Iteration    1(  15)  ---------------------------------------


    POTLOK:  cpu time    0.0403: real time    0.0407
    SETDIJ:  cpu time    0.0051: real time    0.0052
    EDDIAG:  cpu time    1.2777: real time    1.2816
  RMM-DIIS:  cpu time    3.3604: real time    3.4537
    ORTHCH:  cpu time    0.3546: real time    0.3555
       DOS:  cpu time    0.0014: real time    0.0014
    CHARGE:  cpu time    0.2224: real time    0.2231
    MIXING:  cpu time    0.0028: real time    0.0028
    --------------------------------------------
      LOOP:  cpu time    5.2654: real time    5.3665

 eigenvalue-minimisations  :  3682
 total energy-change (2. order) :-0.4973994E-02  (-0.3317797E-01)
 number of electron     503.9998357 magnetization 
 augmentation part      197.5524501 magnetization 

 DIPCOR: dipole corrections for dipol
 direction  3 min pos     1,
 dipolmoment           0.000000      0.000000      0.021838 electrons x Angstroem
 Tr[quadrupol]    -10304.067055

 energy correction for charged system         0.000000 eV
 dipol+quadrupol energy correction           -0.000017 eV
 added-field ion interaction          0.003456 eV  (added to PSCEN)


 Broyden mixing:
  rms(total) = 0.53520E+00    rms(broyden)= 0.53516E+00
  rms(prec ) = 0.59419E+00
  weight for this iteration     100.00

 eigenvalues of (default mixing * dielectric matrix)
  average eigenvalue GAMMA=   0.7149
  2.2408  1.1764  1.1764  0.6153  0.4616  0.4616  0.2907  0.2907  0.2311  0.2040

 Free energy of the ion-electron system (eV)
  ---------------------------------------------------
  alpha Z        PSCENC =       805.87280397
  Ewald energy   TEWEN  =    200397.60810521
  -Hartree energ DENC   =   -242491.15050497
  -exchange      EXHF   =         0.00000000
  -V(xc)+E(xc)   XCENC  =      -344.05963076
  PAW double counting   =     49395.01543737   -47477.90386287
  entropy T*S    EENTRO =        -0.25458855
  eigenvalues    EBANDS =     -2133.60556834
  atomic energy  EATOM  =     41659.78587232
  Solvation  Ediel_sol  =         0.00000000
  ---------------------------------------------------
  free energy    TOTEN  =      -188.69193662 eV

  energy without entropy =     -188.43734807  energy(sigma->0) =     -188.56464234


--------------------------------------------------------------------------------------------------------




----------------------------------------- Iteration    1(  16)  ---------------------------------------


    POTLOK:  cpu time    0.0402: real time    0.0413
    SETDIJ:  cpu time    0.0050: real time    0.0051
    EDDIAG:  cpu time    1.2873: real time    1.2930
  RMM-DIIS:  cpu time    3.4563: real time    3.4699
    ORTHCH:  cpu time    0.3556: real time    0.3571
       DOS:  cpu time    0.0015: real time    0.0015
    CHARGE:  cpu time    0.2232: real time    0.2242
    MIXING:  cpu time    0.0029: real time    0.0029
    --------------------------------------------
      LOOP:  cpu time    5.3728: real time    5.3983

 eigenvalue-minimisations  :  3678
 total energy-change (2. order) : 0.1291881E+00  (-0.2757110E-01)
 number of electron     503.9998358 magnetization 
 augmentation part      197.4370998 magnetization 

 DIPCOR: dipole corrections for dipol
 direction  3 min pos     1,
 dipolmoment           0.000000      0.000000      0.008499 electrons x Angstroem
 Tr[quadrupol]    -10304.459786

 energy correction for charged system         0.000000 eV
 dipol+quadrupol energy correction           -0.000003 eV
 added-field ion interaction          0.001345 eV  (added to PSCEN)


 Broyden mixing:
  rms(total) = 0.40578E+00    rms(broyden)= 0.40573E+00
  rms(prec ) = 0.45834E+00
  weight for this iteration     100.00

 eigenvalues of (default mixing * dielectric matrix)
  average eigenvalue GAMMA=   0.7234
  2.1558  1.4486  1.4486  0.5182  0.5182  0.5514  0.3188  0.3188  0.2385  0.2385
  0.2019

 Free energy of the ion-electron system (eV)
  ---------------------------------------------------
  alpha Z        PSCENC =       805.87070694
  Ewald energy   TEWEN  =    200397.60810521
  -Hartree energ DENC   =   -242512.08947662
  -exchange      EXHF   =         0.00000000
  -V(xc)+E(xc)   XCENC  =      -343.80566501
  PAW double counting   =     49384.37424563   -47465.30427265
  entropy T*S    EENTRO =        -0.25574749
  eigenvalues    EBANDS =     -2114.74651684
  atomic energy  EATOM  =     41659.78587232
  Solvation  Ediel_sol  =         0.00000000
  ---------------------------------------------------
  free energy    TOTEN  =      -188.56274851 eV

  energy without entropy =     -188.30700101  energy(sigma->0) =     -188.43487476


--------------------------------------------------------------------------------------------------------




----------------------------------------- Iteration    1(  17)  ---------------------------------------


    POTLOK:  cpu time    0.0400: real time    0.0410
    SETDIJ:  cpu time    0.0050: real time    0.0051
    EDDIAG:  cpu time    1.2806: real time    1.2859
  RMM-DIIS:  cpu time    3.4380: real time    3.4478
    ORTHCH:  cpu time    0.3537: real time    0.3547
       DOS:  cpu time    0.0015: real time    0.0015
    CHARGE:  cpu time    0.2267: real time    0.2273
    MIXING:  cpu time    0.0030: real time    0.0030
    --------------------------------------------
      LOOP:  cpu time    5.3493: real time    5.3693

 eigenvalue-minimisations  :  3683
 total energy-change (2. order) : 0.1236784E+00  (-0.1803994E-01)
 number of electron     503.9998360 magnetization 
 augmentation part      197.3012004 magnetization 

 DIPCOR: dipole corrections for dipol
 direction  3 min pos     1,
 dipolmoment           0.000000      0.000000      0.025968 electrons x Angstroem
 Tr[quadrupol]    -10304.752900

 energy correction for charged system         0.000000 eV
 dipol+quadrupol energy correction           -0.000024 eV
 added-field ion interaction          0.004110 eV  (added to PSCEN)


 Broyden mixing:
  rms(total) = 0.27527E+00    rms(broyden)= 0.27521E+00
  rms(prec ) = 0.31980E+00
  weight for this iteration     100.00

 eigenvalues of (default mixing * dielectric matrix)
  average eigenvalue GAMMA=   0.7346
  2.1313  1.6574  1.6574  0.5819  0.5819  0.5402  0.3631  0.3631  0.2601  0.2601
  0.2195  0.1987

 Free energy of the ion-electron system (eV)
  ---------------------------------------------------
  alpha Z        PSCENC =       805.87345075
  Ewald energy   TEWEN  =    200397.60810521
  -Hartree energ DENC   =   -242528.61204908
  -exchange      EXHF   =         0.00000000
  -V(xc)+E(xc)   XCENC  =      -343.57535233
  PAW double counting   =     49381.78820631   -47461.10645910
  entropy T*S    EENTRO =        -0.25421516
  eigenvalues    EBANDS =     -2099.94662899
  atomic energy  EATOM  =     41659.78587232
  Solvation  Ediel_sol  =         0.00000000
  ---------------------------------------------------
  free energy    TOTEN  =      -188.43907007 eV

  energy without entropy =     -188.18485491  energy(sigma->0) =     -188.31196249


--------------------------------------------------------------------------------------------------------




----------------------------------------- Iteration    1(  18)  ---------------------------------------


    POTLOK:  cpu time    0.0399: real time    0.0401
    SETDIJ:  cpu time    0.0052: real time    0.0052
    EDDIAG:  cpu time    1.2823: real time    1.2886
  RMM-DIIS:  cpu time    3.4280: real time    3.4434
    ORTHCH:  cpu time    0.3628: real time    0.3640
       DOS:  cpu time    0.0014: real time    0.0014
    CHARGE:  cpu time    0.2207: real time    0.2214
    MIXING:  cpu time    0.0032: real time    0.0032
    --------------------------------------------
      LOOP:  cpu time    5.3442: real time    5.3698

 eigenvalue-minimisations  :  3679
 total energy-change (2. order) : 0.5739833E-01  (-0.8555055E-02)
 number of electron     503.9998361 magnetization 
 augmentation part      197.2265856 magnetization 

 DIPCOR: dipole corrections for dipol
 direction  3 min pos     1,
 dipolmoment           0.000000      0.000000      0.032008 electrons x Angstroem
 Tr[quadrupol]    -10305.014622

 energy correction for charged system         0.000000 eV
 dipol+quadrupol energy correction           -0.000036 eV
 added-field ion interaction          0.005066 eV  (added to PSCEN)


 Broyden mixing:
  rms(total) = 0.19655E+00    rms(broyden)= 0.19650E+00
  rms(prec ) = 0.22803E+00
  weight for this iteration     100.00

 eigenvalues of (default mixing * dielectric matrix)
  average eigenvalue GAMMA=   0.7144
  1.9981  1.9981  1.5580  0.6185  0.6185  0.5386  0.3780  0.3780  0.2886  0.2886
  0.2214  0.2115  0.1912

 Free energy of the ion-electron system (eV)
  ---------------------------------------------------
  alpha Z        PSCENC =       805.87439443
  Ewald energy   TEWEN  =    200397.60810521
  -Hartree energ DENC   =   -242541.14017007
  -exchange      EXHF   =         0.00000000
  -V(xc)+E(xc)   XCENC  =      -343.44921513
  PAW double counting   =     49394.57072716   -47473.07566420
  entropy T*S    EENTRO =        -0.25534251
  eigenvalues    EBANDS =     -2088.30037895
  atomic energy  EATOM  =     41659.78587232
  Solvation  Ediel_sol  =         0.00000000
  ---------------------------------------------------
  free energy    TOTEN  =      -188.38167174 eV

  energy without entropy =     -188.12632923  energy(sigma->0) =     -188.25400048


--------------------------------------------------------------------------------------------------------




----------------------------------------- Iteration    1(  19)  ---------------------------------------


    POTLOK:  cpu time    0.0401: real time    0.0404
    SETDIJ:  cpu time    0.0051: real time    0.0051
    EDDIAG:  cpu time    1.2782: real time    1.2836
  RMM-DIIS:  cpu time    3.4544: real time    3.4657
    ORTHCH:  cpu time    0.3559: real time    0.3568
       DOS:  cpu time    0.0014: real time    0.0015
    CHARGE:  cpu time    0.2216: real time    0.2223
    MIXING:  cpu time    0.0034: real time    0.0034
    --------------------------------------------
      LOOP:  cpu time    5.3609: real time    5.3811

 eigenvalue-minimisations  :  3679
 total energy-change (2. order) : 0.4200279E-01  (-0.4416003E-02)
 number of electron     503.9998362 magnetization 
 augmentation part      197.1758448 magnetization 

 DIPCOR: dipole corrections for dipol
 direction  3 min pos     1,
 dipolmoment           0.000000      0.000000      0.028155 electrons x Angstroem
 Tr[quadrupol]    -10305.127201

 energy correction for charged system         0.000000 eV
 dipol+quadrupol energy correction           -0.000028 eV
 added-field ion interaction          0.004456 eV  (added to PSCEN)


 Broyden mixing:
  rms(total) = 0.81384E-01    rms(broyden)= 0.81327E-01
  rms(prec ) = 0.93192E-01
  weight for this iteration     100.00

 eigenvalues of (default mixing * dielectric matrix)
  average eigenvalue GAMMA=   0.7074
  2.1421  1.7195  1.7195  0.6709  0.6709  0.4991  0.4991  0.4552  0.3182  0.3182
  0.2671  0.2288  0.2024  0.1917

 Free energy of the ion-electron system (eV)
  ---------------------------------------------------
  alpha Z        PSCENC =       805.87379268
  Ewald energy   TEWEN  =    200397.60810521
  -Hartree energ DENC   =   -242547.46185175
  -exchange      EXHF   =         0.00000000
  -V(xc)+E(xc)   XCENC  =      -343.35343506
  PAW double counting   =     49401.98748660   -47479.97257283
  entropy T*S    EENTRO =        -0.25654477
  eigenvalues    EBANDS =     -2082.55052135
  atomic energy  EATOM  =     41659.78587232
  Solvation  Ediel_sol  =         0.00000000
  ---------------------------------------------------
  free energy    TOTEN  =      -188.33966895 eV

  energy without entropy =     -188.08312418  energy(sigma->0) =     -188.21139656


--------------------------------------------------------------------------------------------------------




----------------------------------------- Iteration    1(  20)  ---------------------------------------


    POTLOK:  cpu time    0.0404: real time    0.0405
    SETDIJ:  cpu time    0.0051: real time    0.0051
    EDDIAG:  cpu time    1.2890: real time    1.2931
  RMM-DIIS:  cpu time    3.4227: real time    3.4316
    ORTHCH:  cpu time    0.3547: real time    0.3557
       DOS:  cpu time    0.0014: real time    0.0015
    CHARGE:  cpu time    0.2213: real time    0.2229
    MIXING:  cpu time    0.0037: real time    0.0037
    --------------------------------------------
      LOOP:  cpu time    5.3391: real time    5.3583

 eigenvalue-minimisations  :  3684
 total energy-change (2. order) : 0.4729083E-02  (-0.7562043E-03)
 number of electron     503.9998362 magnetization 
 augmentation part      197.1558948 magnetization 

 DIPCOR: dipole corrections for dipol
 direction  3 min pos     1,
 dipolmoment           0.000000      0.000000      0.017439 electrons x Angstroem
 Tr[quadrupol]    -10305.228865

 energy correction for charged system         0.000000 eV
 dipol+quadrupol energy correction           -0.000011 eV
 added-field ion interaction          0.002760 eV  (added to PSCEN)


 Broyden mixing:
  rms(total) = 0.56496E-01    rms(broyden)= 0.56484E-01
  rms(prec ) = 0.62517E-01
  weight for this iteration     100.00

 eigenvalues of (default mixing * dielectric matrix)
  average eigenvalue GAMMA=   0.7019
  2.1573  1.6964  1.6964  0.7727  0.7727  0.5572  0.5572  0.4755  0.3389  0.3389
  0.2721  0.2721  0.2284  0.2020  0.1902

 Free energy of the ion-electron system (eV)
  ---------------------------------------------------
  alpha Z        PSCENC =       805.87211383
  Ewald energy   TEWEN  =    200397.60810521
  -Hartree energ DENC   =   -242551.21015353
  -exchange      EXHF   =         0.00000000
  -V(xc)+E(xc)   XCENC  =      -343.33761272
  PAW double counting   =     49408.64968571   -47486.60465737
  entropy T*S    EENTRO =        -0.25962458
  eigenvalues    EBANDS =     -2078.83866874
  atomic energy  EATOM  =     41659.78587232
  Solvation  Ediel_sol  =         0.00000000
  ---------------------------------------------------
  free energy    TOTEN  =      -188.33493986 eV

  energy without entropy =     -188.07531528  energy(sigma->0) =     -188.20512757


--------------------------------------------------------------------------------------------------------




----------------------------------------- Iteration    1(  21)  ---------------------------------------


    POTLOK:  cpu time    0.0406: real time    0.0415
    SETDIJ:  cpu time    0.0053: real time    0.0053
    EDDIAG:  cpu time    1.2830: real time    1.2875
  RMM-DIIS:  cpu time    3.4434: real time    3.4529
    ORTHCH:  cpu time    0.3537: real time    0.3565
       DOS:  cpu time    0.0015: real time    0.0015
    CHARGE:  cpu time    0.2243: real time    0.2259
    MIXING:  cpu time    0.0038: real time    0.0038
    --------------------------------------------
      LOOP:  cpu time    5.3564: real time    5.3782

 eigenvalue-minimisations  :  3678
 total energy-change (2. order) : 0.2163796E-02  (-0.4170757E-03)
 number of electron     503.9998362 magnetization 
 augmentation part      197.1377866 magnetization 

 DIPCOR: dipole corrections for dipol
 direction  3 min pos     1,
 dipolmoment           0.000000      0.000000      0.012653 electrons x Angstroem
 Tr[quadrupol]    -10305.313626

 energy correction for charged system         0.000000 eV
 dipol+quadrupol energy correction           -0.000006 eV
 added-field ion interaction          0.002003 eV  (added to PSCEN)


 Broyden mixing:
  rms(total) = 0.42461E-01    rms(broyden)= 0.42454E-01
  rms(prec ) = 0.47805E-01
  weight for this iteration     100.00

 eigenvalues of (default mixing * dielectric matrix)
  average eigenvalue GAMMA=   0.7106
  2.2417  1.6710  1.6710  0.9246  0.9246  0.5804  0.5804  0.6057  0.3664  0.3664
  0.2860  0.2860  0.2464  0.2281  0.2017  0.1897

 Free energy of the ion-electron system (eV)
  ---------------------------------------------------
  alpha Z        PSCENC =       805.87136129
  Ewald energy   TEWEN  =    200397.60810521
  -Hartree energ DENC   =   -242554.79784885
  -exchange      EXHF   =         0.00000000
  -V(xc)+E(xc)   XCENC  =      -343.31385432
  PAW double counting   =     49412.21839884   -47490.09290229
  entropy T*S    EENTRO =        -0.25851118
  eigenvalues    EBANDS =     -2075.35339710
  atomic energy  EATOM  =     41659.78587232
  Solvation  Ediel_sol  =         0.00000000
  ---------------------------------------------------
  free energy    TOTEN  =      -188.33277607 eV

  energy without entropy =     -188.07426489  energy(sigma->0) =     -188.20352048


--------------------------------------------------------------------------------------------------------




----------------------------------------- Iteration    1(  22)  ---------------------------------------


    POTLOK:  cpu time    0.0415: real time    0.0418
    SETDIJ:  cpu time    0.0052: real time    0.0052
    EDDIAG:  cpu time    1.2835: real time    1.2891
  RMM-DIIS:  cpu time    3.4261: real time    3.4417
    ORTHCH:  cpu time    0.3539: real time    0.3551
       DOS:  cpu time    0.0015: real time    0.0015
    CHARGE:  cpu time    0.2215: real time    0.2221
    MIXING:  cpu time    0.0038: real time    0.0038
    --------------------------------------------
      LOOP:  cpu time    5.3376: real time    5.3643

 eigenvalue-minimisations  :  3678
 total energy-change (2. order) : 0.9294697E-03  (-0.1683233E-03)
 number of electron     503.9998362 magnetization 
 augmentation part      197.1322953 magnetization 

 DIPCOR: dipole corrections for dipol
 direction  3 min pos     1,
 dipolmoment           0.000000      0.000000      0.014062 electrons x Angstroem
 Tr[quadrupol]    -10305.410524

 energy correction for charged system         0.000000 eV
 dipol+quadrupol energy correction           -0.000007 eV
 added-field ion interaction          0.002226 eV  (added to PSCEN)


 Broyden mixing:
  rms(total) = 0.34474E-01    rms(broyden)= 0.34469E-01
  rms(prec ) = 0.39206E-01
  weight for this iteration     100.00

 eigenvalues of (default mixing * dielectric matrix)
  average eigenvalue GAMMA=   0.7410
  2.3086  1.9124  1.9124  0.9916  0.9916  0.7196  0.6204  0.6204  0.3907  0.3907
  0.3098  0.3098  0.2529  0.2529  0.2218  0.2015  0.1894

 Free energy of the ion-electron system (eV)
  ---------------------------------------------------
  alpha Z        PSCENC =       805.87158298
  Ewald energy   TEWEN  =    200397.60810521
  -Hartree energ DENC   =   -242558.46240191
  -exchange      EXHF   =         0.00000000
  -V(xc)+E(xc)   XCENC  =      -343.29710469
  PAW double counting   =     49416.45419299   -47494.31571619
  entropy T*S    EENTRO =        -0.25931827
  eigenvalues    EBANDS =     -2071.71705903
  atomic energy  EATOM  =     41659.78587232
  Solvation  Ediel_sol  =         0.00000000
  ---------------------------------------------------
  free energy    TOTEN  =      -188.33184660 eV

  energy without entropy =     -188.07252833  energy(sigma->0) =     -188.20218746


--------------------------------------------------------------------------------------------------------




----------------------------------------- Iteration    1(  23)  ---------------------------------------


    POTLOK:  cpu time    0.0400: real time    0.0403
    SETDIJ:  cpu time    0.0051: real time    0.0051
    EDDIAG:  cpu time    1.2627: real time    1.3410
  RMM-DIIS:  cpu time    3.4521: real time    3.4644
    ORTHCH:  cpu time    0.3569: real time    0.3579
       DOS:  cpu time    0.0014: real time    0.0014
    CHARGE:  cpu time    0.2223: real time    0.2229
    MIXING:  cpu time    0.0040: real time    0.0040
    --------------------------------------------
      LOOP:  cpu time    5.3452: real time    5.4396

 eigenvalue-minimisations  :  3682
 total energy-change (2. order) : 0.1033877E-02  (-0.1593118E-03)
 number of electron     503.9998363 magnetization 
 augmentation part      197.1210197 magnetization 

 DIPCOR: dipole corrections for dipol
 direction  3 min pos     1,
 dipolmoment           0.000000      0.000000      0.016674 electrons x Angstroem
 Tr[quadrupol]    -10305.572470

 energy correction for charged system         0.000000 eV
 dipol+quadrupol energy correction           -0.000010 eV
[...]
    275       1.7216      0.00000
    276       1.8225      0.00000
    277       2.0767      0.00000
    278       2.2061      0.00000
    279       2.3100      0.00000
    280       2.3355      0.00000
    281       2.4362      0.00000
    282       2.5625      0.00000
    283       2.6859      0.00000
    284       2.9809      0.00000
    285       3.1800      0.00000
    286       3.2272      0.00000
    287       3.5104      0.00000
    288       3.5836      0.00000
    289       3.7639      0.00000
    290       3.9947      0.00000
    291       4.0509      0.00000
    292       4.2182      0.00000
    293       4.4614      0.00000
    294       4.5045      0.00000
    295       4.6299      0.00000
    296       4.6401      0.00000
    297       4.7435      0.00000
    298       4.7893      0.00000
    299       4.8468      0.00000
    300       4.9354      0.00000
    301       4.9945      0.00000
    302       5.0398      0.00000
    303       5.0633      0.00000
    304       5.1247      0.00000
    305       5.2248      0.00000
    306       5.2681      0.00000


--------------------------------------------------------------------------------------------------------


 soft charge-density along one line, spin component           1
         0         1         2         3         4         5         6         7         8         9
 total charge-density along one line
 
 pseudopotential strength for first ion, spin component:           1
 -8.029   0.002  -0.000   0.002  -0.000  -8.176   0.002  -0.000
  0.002  -7.952  -0.001  -0.001  -0.006   0.002  -8.101  -0.001
 -0.000  -0.001  -7.949  -0.002   0.002  -0.000  -0.001  -8.098
  0.002  -0.001  -0.002  -7.956   0.003   0.002  -0.001  -0.002
 -0.000  -0.006   0.002   0.003  -8.028  -0.000  -0.006   0.002
 -8.176   0.002  -0.000   0.002  -0.000  -8.307   0.002  -0.000
  0.002  -8.101  -0.001  -0.001  -0.006   0.002  -8.234  -0.001
 -0.000  -0.001  -8.098  -0.002   0.002  -0.000  -0.001  -8.230
  0.002  -0.001  -0.002  -8.105   0.003   0.002  -0.001  -0.002
 -0.000  -0.006   0.002   0.003  -8.175  -0.000  -0.006   0.002
 -0.000  -0.002  -0.024  -0.001   0.001  -0.000  -0.002  -0.024
 -0.001  -0.003  -0.035  -0.002   0.002  -0.001  -0.003  -0.035
  0.003  -0.005  -0.003   0.000  -0.005   0.003  -0.005  -0.003
  0.000   0.005  -0.008   0.004   0.000   0.000   0.005  -0.007
  0.005   0.000  -0.002  -0.005   0.004   0.005   0.000  -0.002
  0.004  -0.005  -0.004   0.000  -0.006   0.004  -0.005  -0.004
  0.000   0.006  -0.008   0.004   0.000   0.000   0.006  -0.008
  0.006   0.000  -0.002  -0.005   0.005   0.006   0.000  -0.002
 total augmentation occupancy for first ion, spin component:           1
  4.264  -0.010   0.030   0.016   0.031  -2.441   0.022  -0.037  -0.027  -0.033   0.018   0.009   0.022  -0.006  -0.055   0.003
 -0.010   4.040  -0.007   0.008  -0.006   0.021  -1.783  -0.020  -0.013  -0.056   0.076   0.001  -0.143   0.004  -0.003   0.002
  0.030  -0.007   4.347  -0.002   0.005  -0.037  -0.020  -2.238  -0.031   0.005   0.966  -0.127   0.024  -0.219   0.011  -0.004
  0.016   0.008  -0.002   4.054   0.031  -0.026  -0.013  -0.031  -1.806   0.000   0.042   0.014  -0.002  -0.007  -0.149   0.000
  0.031  -0.006   0.005   0.031   4.298  -0.033  -0.057   0.005   0.001  -2.467  -0.044   0.008  -0.004  -0.002  -0.051  -0.006
 -2.441   0.021  -0.037  -0.026  -0.033   2.499  -0.029   0.043   0.035   0.036  -0.020  -0.005  -0.023   0.004   0.041   0.000
  0.022  -1.783  -0.020  -0.013  -0.057  -0.029   1.497   0.040   0.017   0.103  -0.069   0.002   0.135  -0.006   0.002  -0.005
 -0.037  -0.020  -2.238  -0.031   0.005   0.043   0.040   2.072   0.054  -0.014  -0.901   0.144  -0.016   0.228  -0.006   0.001
 -0.027  -0.013  -0.031  -1.806   0.001   0.035   0.017   0.054   1.525  -0.025  -0.039  -0.009   0.001   0.006   0.138  -0.000
 -0.033  -0.056   0.005   0.000  -2.467   0.036   0.103  -0.014  -0.025   2.522   0.038  -0.007   0.011   0.001   0.041   0.001
  0.018   0.076   0.966   0.042  -0.044  -0.020  -0.069  -0.901  -0.039   0.038   2.386  -0.488   0.006   0.115   0.005  -0.000
  0.009   0.001  -0.127   0.014   0.008  -0.005   0.002   0.144  -0.009  -0.007  -0.488   0.143  -0.021  -0.050  -0.014   0.001
  0.022  -0.143   0.024  -0.002  -0.004  -0.023   0.135  -0.016   0.001   0.011   0.006  -0.021   0.185  -0.005  -0.002  -0.006
 -0.006   0.004  -0.219  -0.007  -0.002   0.004  -0.006   0.228   0.006   0.001   0.115  -0.050  -0.005   0.092  -0.004   0.000
 -0.055  -0.003   0.011  -0.149  -0.051   0.041   0.002  -0.006   0.138   0.041   0.005  -0.014  -0.002  -0.004   0.189   0.000
  0.003   0.002  -0.004   0.000  -0.006   0.000  -0.005   0.001  -0.000   0.001  -0.000   0.001  -0.006   0.000   0.000   0.000
  0.000   0.006  -0.002   0.005   0.000  -0.000  -0.001  -0.005  -0.001  -0.000  -0.008   0.002   0.000  -0.003   0.000  -0.000
  0.008   0.000  -0.002   0.002   0.006  -0.003  -0.000   0.001  -0.005  -0.003  -0.000   0.001   0.000   0.000  -0.006   0.000


------------------------ aborting loop because EDIFF is reached ----------------------------------------


    CHARGE:  cpu time    0.2129: real time    0.2195
    FORLOC:  cpu time    0.0160: real time    0.0164
    FORNL :  cpu time    1.2877: real time    1.3638
    FORCOR:  cpu time    0.0559: real time    0.0561
    FORHAR:  cpu time    0.0241: real time    0.0241
    MIXING:  cpu time    0.0031: real time    0.0031
    OFIELD:  cpu time    0.0000: real time    0.0000

 VOLUME and BASIS-vectors are now :
 -----------------------------------------------------------------------------
  energy-cutoff  :      400.00
  volume of cell :     2567.68
      direct lattice vectors                 reciprocal lattice vectors
    11.002581515  0.000000000  0.000000000     0.090887761 -0.052474073  0.000000000
     5.501290758  9.528515099  0.000000000     0.000000000  0.104948147  0.000000000
     0.000000000  0.000000000 24.491785094     0.000000000  0.000000000  0.040830017

  length of vectors
    11.002581515 11.002581515 24.491785094     0.104948147  0.104948147  0.040830017


 FORCES acting on ions
    electron-ion (+dipol)            ewald-force                    non-local-force                 convergence-correction
 -----------------------------------------------------------------------------------------------
   0.147E+02 0.184E+02 0.224E+04   -.153E+02 -.195E+02 -.224E+04   0.645E+00 0.105E+01 -.263E+00   -.445E-03 0.192E-02 0.117E-02
   -.638E+01 -.329E+01 0.223E+04   0.664E+01 0.321E+01 -.223E+04   -.252E+00 0.847E-01 -.259E+00   -.163E-02 -.717E-03 -.285E-04
   -.539E+01 0.684E+01 -.376E+02   0.495E+01 -.652E+01 0.371E+02   0.425E+00 -.323E+00 0.497E+00   0.111E-02 -.367E-03 -.291E-02
   0.182E+02 0.121E+02 -.228E+04   -.191E+02 -.120E+02 0.228E+04   0.929E+00 -.176E-01 0.206E+00   0.283E-02 0.100E-03 0.211E-03
   -.134E+02 0.104E+02 0.227E+04   0.135E+02 -.106E+02 -.227E+04   -.118E+00 0.191E+00 -.259E+00   0.221E-03 0.276E-02 -.682E-03
   -.309E+01 -.544E+01 -.179E+02   0.280E+01 0.598E+01 0.180E+02   0.286E+00 -.537E+00 -.914E-01   0.758E-03 -.105E-02 0.114E-03
   0.597E+01 0.211E+00 -.299E+02   -.604E+01 0.133E+00 0.293E+02   0.790E-01 -.333E+00 0.642E+00   -.661E-03 0.149E-02 0.329E-03
   -.893E+00 -.907E+01 -.234E+04   0.128E+01 0.952E+01 0.234E+04   -.396E+00 -.457E+00 -.286E+00   0.321E-02 0.733E-03 0.133E-03
   -.396E+01 -.143E+02 0.228E+04   0.337E+01 0.147E+02 -.228E+04   0.604E+00 -.466E+00 0.743E-01   -.231E-02 -.261E-02 -.179E-02
   0.733E+01 -.697E+01 -.229E+04   -.792E+01 0.715E+01 0.229E+04   0.592E+00 -.175E+00 0.261E-01   0.727E-03 -.225E-02 -.878E-03
   0.143E+02 0.108E+01 0.222E+04   -.150E+02 -.123E+01 -.222E+04   0.662E+00 0.144E+00 -.304E+00   0.989E-03 -.154E-02 0.956E-03
   -.125E+02 -.534E+01 0.155E+02   0.117E+02 0.459E+01 -.149E+02   0.751E+00 0.750E+00 -.608E+00   -.306E-02 -.103E-02 -.422E-02
   0.157E+01 0.367E+01 0.266E+02   -.150E+01 -.332E+01 -.255E+02   -.670E-01 -.356E+00 -.109E+01   -.965E-04 0.368E-02 0.623E-03
   0.263E-01 -.237E+02 -.228E+04   -.536E+00 0.238E+02 0.228E+04   0.504E+00 -.566E-01 0.431E-01   0.130E-02 0.287E-02 -.119E-02
   -.263E+01 0.140E+02 -.231E+04   0.313E+01 -.145E+02 0.231E+04   -.493E+00 0.469E+00 -.749E-02   -.416E-02 -.283E-03 -.439E-03
   0.322E+01 0.763E+00 -.519E+02   -.210E+01 -.153E+00 0.508E+02   -.111E+01 -.611E+00 0.112E+01   -.810E-04 0.749E-03 -.766E-03
   0.433E-01 0.634E+01 -.222E+04   0.298E+00 -.662E+01 0.222E+04   -.343E+00 0.280E+00 0.541E+00   0.293E-02 -.704E-03 -.123E-02
   0.295E+01 0.161E+01 -.481E+01   -.218E+01 -.218E+01 0.474E+01   -.763E+00 0.569E+00 0.655E-01   0.278E-03 -.360E-02 0.141E-02
   0.708E+01 -.182E+02 0.231E+04   -.708E+01 0.191E+02 -.231E+04   -.237E-02 -.823E+00 0.286E+00   0.246E-02 -.245E-02 -.542E-03
   0.353E+01 0.909E+01 -.386E+02   -.390E+01 -.943E+01 0.380E+02   0.370E+00 0.347E+00 0.618E+00   0.227E-02 -.964E-03 0.103E-02
   0.622E+01 -.343E+01 0.192E+02   -.628E+01 0.280E+01 -.180E+02   0.577E-01 0.621E+00 -.117E+01   0.391E-02 -.140E-02 0.985E-03
   -.425E-01 -.242E+01 0.230E+04   0.122E+01 0.316E+01 -.230E+04   -.118E+01 -.740E+00 0.131E-01   0.210E-02 0.217E-03 0.391E-02
   -.177E+02 0.124E+02 -.228E+04   0.185E+02 -.122E+02 0.228E+04   -.807E+00 -.163E+00 0.427E-01   0.331E-02 0.650E-03 -.113E-02
   -.782E+00 0.184E+02 0.229E+04   0.132E+01 -.186E+02 -.229E+04   -.530E+00 0.159E+00 -.485E-01   -.455E-03 0.443E-02 0.187E-02
   0.631E+00 0.630E+00 -.383E+02   -.525E+00 -.937E+00 0.378E+02   -.107E+00 0.305E+00 0.491E+00   0.173E-02 -.121E-02 -.985E-03
   -.208E+01 -.291E+01 -.377E+01   0.219E+01 0.322E+01 0.380E+01   -.112E+00 -.309E+00 -.233E-01   0.163E-02 -.475E-03 -.207E-02
   -.901E+00 0.126E+02 0.196E+04   0.894E+00 -.127E+02 -.196E+04   0.496E-02 0.106E+00 -.179E+01   0.748E-03 0.654E-03 0.776E-04
   0.329E+01 0.659E+01 0.198E+04   -.341E+01 -.697E+01 -.198E+04   0.124E+00 0.377E+00 -.101E+01   0.113E-02 0.647E-03 0.609E-03
   -.817E+01 -.484E+01 0.199E+04   0.837E+01 0.476E+01 -.199E+04   -.198E+00 0.862E-01 -.149E+01   0.156E-02 0.172E-03 0.438E-04
   0.556E+01 -.773E+01 0.195E+04   -.543E+01 0.808E+01 -.195E+04   -.128E+00 -.354E+00 -.162E+01   -.709E-03 -.243E-02 -.129E-04
   0.121E+02 -.291E+00 -.198E+04   -.125E+02 0.281E+00 0.198E+04   0.378E+00 0.132E-01 0.160E+01   -.894E-04 0.140E-02 0.457E-03
   0.622E+00 -.216E+02 -.199E+04   -.396E+00 0.220E+02 0.199E+04   -.226E+00 -.343E+00 0.162E+01   -.126E-02 -.145E-02 0.295E-03
   -.634E-01 -.506E+01 -.185E+01   -.257E+00 0.490E+01 0.220E+01   0.322E+00 0.156E+00 -.360E+00   0.170E-02 0.316E-03 -.754E-03
   -.718E+01 -.592E+01 -.200E+04   0.772E+01 0.587E+01 0.199E+04   -.537E+00 0.468E-01 0.175E+01   -.959E-03 0.164E-02 -.104E-02
   -.145E+02 -.607E+00 -.198E+04   0.145E+02 0.426E+00 0.198E+04   0.492E-01 0.175E+00 0.153E+01   0.119E-02 0.111E-02 -.249E-02
   -.893E+01 -.173E+02 0.199E+04   0.919E+01 0.174E+02 -.198E+04   -.262E+00 -.258E-01 -.172E+01   0.432E-03 -.266E-02 0.689E-03
   -.130E+02 0.151E+02 -.198E+04   0.133E+02 -.153E+02 0.198E+04   -.358E+00 0.184E+00 0.162E+01   -.731E-03 -.147E-03 -.246E-02
   0.172E+01 -.107E+01 0.196E+04   -.176E+01 0.826E+00 -.196E+04   0.422E-01 0.247E+00 -.170E+01   -.105E-02 -.250E-03 -.766E-03
   0.194E+02 -.166E+01 -.196E+04   -.199E+02 0.137E+01 0.196E+04   0.442E+00 0.295E+00 0.174E+01   -.659E-03 -.132E-02 -.453E-03
   -.639E+01 -.690E+01 0.199E+04   0.588E+01 0.705E+01 -.199E+04   0.511E+00 -.150E+00 -.165E+01   -.161E-02 0.821E-03 0.518E-03
   -.498E+01 -.735E+01 -.197E+04   0.533E+01 0.776E+01 0.196E+04   -.341E+00 -.409E+00 0.186E+01   -.353E-02 0.972E-03 -.247E-02
   -.125E+01 -.893E+00 -.136E+02   0.128E+01 0.897E+00 0.136E+02   -.241E-01 -.597E-02 0.182E-01   -.344E-02 -.169E-02 -.277E-02
   0.126E+02 0.161E+02 -.197E+04   -.128E+02 -.160E+02 0.197E+04   0.239E+00 -.357E-01 0.167E+01   -.463E-02 -.107E-02 -.156E-02
   0.243E+01 0.999E+01 0.198E+04   -.245E+01 -.100E+02 -.198E+04   0.241E-01 -.980E-03 -.160E+01   -.187E-02 0.117E-02 0.267E-03
   -.406E+01 -.398E+01 -.179E+02   0.356E+01 0.368E+01 0.179E+02   0.490E+00 0.299E+00 -.597E-02   -.967E-04 0.364E-02 -.132E-02
   0.727E+00 0.220E+01 0.466E+02   -.580E+00 -.167E+01 -.458E+02   -.140E+00 -.537E+00 -.852E+00   -.312E-02 0.308E-02 -.237E-02
   0.328E+01 0.251E+01 0.409E+02   -.284E+01 -.246E+01 -.405E+02   -.440E+00 -.401E-01 -.397E+00   -.253E-02 -.155E-02 -.144E-02
   -.903E+01 -.645E+00 -.200E+04   0.881E+01 0.480E+00 0.200E+04   0.219E+00 0.165E+00 0.113E+01   0.888E-03 -.216E-02 -.222E-03
 -----------------------------------------------------------------------------------------------
   0.214E+00 0.113E+00 -.551E+00   0.398E-12 -.245E-12 0.182E-11   -.190E+00 -.148E+00 0.592E+00   0.241E-03 -.149E-03 -.233E-01
 
 
 POSITION                                       TOTAL-FORCE (eV/Angst)
 -----------------------------------------------------------------------------------
      1.35931      0.76469      9.74756        -0.001802     -0.005141     -0.003567
      8.25562      3.18447      9.75755         0.008461      0.002855     -0.007980
      8.22412      6.35437     12.27435        -0.008744     -0.006078      0.006574
      8.21681      4.75214     14.80734         0.009612     -0.000859      0.002518
      6.88885      0.78240      9.71978        -0.001771     -0.005959      0.001658
     12.38657      8.76251     12.26013        -0.003602      0.005944     -0.000041
      9.61483      8.74752     12.26426         0.005880      0.012553      0.003262
      9.63745      7.15982     14.92297        -0.001840     -0.005510      0.000547
      6.86017      5.58852      9.70951         0.002772      0.006925     -0.001164
      8.23501     -0.00773     14.80223         0.002014     -0.001134      0.005013
     10.99463      3.18390      9.75497        -0.002052     -0.001258     -0.006704
      6.85679      3.95301     12.22586        -0.006039      0.002740      0.005166
      2.75123      1.59624     12.22144        -0.002094      0.003070      0.009018
      2.73938      0.00697     14.78671        -0.004951      0.002304      0.008018
      4.14365      7.11438     14.82306        -0.001937      0.001030      0.000406
     15.15595      8.75094     12.28606         0.008022      0.000422     -0.005583
      9.63627      2.36127     14.71845         0.001126      0.002788      0.000081
     13.77866      6.33995     12.24599         0.009941     -0.001195     -0.002520
     12.38107      5.60148      9.63207        -0.004810      0.003667      0.002835
     10.99182      6.34426     12.27806         0.003609      0.004363     -0.001608
     12.36701      3.96102     12.23650         0.002181     -0.009483      0.000627
      2.77857      3.20595      9.62860        -0.002779     -0.002295     -0.010278
     11.02764      4.75664     14.81402        -0.003072     -0.006185      0.007894
      4.13741      0.78713      9.66923         0.003581     -0.001932     -0.011269
      9.61568      3.95503     12.28491         0.001027     -0.002148     -0.000998
      8.25755      1.60017     12.24445        -0.001940      0.001369     -0.000341
      9.62521      0.78596      9.89049        -0.000968      0.004382      0.001329
     10.99865      7.93287      9.86673         0.004503      0.002564      0.002233
     13.77396      7.94478      9.87012         0.000284      0.001237     -0.000988
      9.62769      5.57849      9.89425        -0.002325     -0.001359     -0.000465
      6.87159      7.13967     14.64610         0.005943      0.004664     -0.000349
      5.49810      0.01571     14.63672        -0.001517      0.000771      0.000623
     10.98980      1.59514     12.24676         0.002844      0.001182     -0.005311
      0.01451     -0.01320     14.65659        -0.002528      0.000473     -0.005956
      1.38772      2.37008     14.61806        -0.003221     -0.003149     -0.004539
      4.13229      5.57654      9.84551        -0.002973      0.002431      0.002842
      2.76978      4.73643     14.60921         0.000082     -0.004803     -0.001470
      5.48538      7.93836      9.90709        -0.001496      0.005376      0.002144
      6.85319      2.36219     14.58453        -0.005675     -0.003995     -0.000790
      5.49826      3.19186      9.81655         0.002505     -0.003699      0.002308
      4.14076      2.39366     14.56697         0.004050      0.003205     -0.000506
      5.50028      6.34862     12.25702         0.002893     -0.002756      0.003609
      5.49368      4.74820     14.58886        -0.006622     -0.010464      0.002529
      8.25192      7.93744      9.87411        -0.000268     -0.002945     -0.001920
      6.86676      8.74688     12.26146        -0.009425      0.003648      0.002470
      5.50344      1.59192     12.18529         0.003558     -0.002090      0.000839
      4.12790      3.96546     12.19127         0.000198      0.006113      0.004114
     12.38229      7.13318     14.67309        -0.000634     -0.001637     -0.004310
 -----------------------------------------------------------------------------------
    total drift:                                0.024201     -0.035017      0.017181


--------------------------------------------------------------------------------------------------------



  FREE ENERGIE OF THE ION-ELECTRON SYSTEM (eV)
  ---------------------------------------------------
  free  energy   TOTEN  =      -192.13915785 eV

  energy  without entropy=     -191.89324543  energy(sigma->0) =     -192.01620164
 
 d Force = 0.3371962E-03[ 0.418E-04, 0.633E-03]  d Energy = 0.3573412E-03-0.201E-04
 d Force = 0.1728488E+02[ 0.173E+02, 0.173E+02]  d Ewald  = 0.1728488E+02-0.172E-05


--------------------------------------------------------------------------------------------------------


    POTLOK:  cpu time    0.0474: real time    0.0475


--------------------------------------------------------------------------------------------------------


 stress matrix after NEB project (eV)
      0.00000      0.00000      0.00000
      0.00000      0.00000      0.00000
      0.00000      0.00000      0.00000
  FORCES: max atom, RMS     0.014240    0.007603
  FORCE total and by dimension    0.052675    0.012553
  Stress total and by dimension    0.000000    0.000000
 Conjugate gradient step on ions:
 trial-energy change:   -0.000357  1 .order   -0.000337   -0.000633   -0.000042
  (g-gl).g = 0.211E-03      g.g   = 0.201E-03  gl.gl    = 0.397E-03
 g(Force)  = 0.201E-03   g(Stress)= 0.000E+00 ortho     =-0.392E-05
 gamma     =   0.53221
 trial     =   3.18154
 opt step  =   3.36679  (harmonic =   3.40691) maximal distance =0.00323421
 next E    =  -192.139159   (d E  =  -0.00036)


--------------------------------------------------------------------------------------------------------


  
 reached required accuracy - stopping structural energy minimisation
     LOOP+:  cpu time   62.8245: real time   64.2649
    4ORBIT:  cpu time    0.0000: real time    0.0000

 total amount of memory used by VASP on root node    84353. kBytes
========================================================================

   base      :      30000. kBytes
   nonlr-proj:       4285. kBytes
   fftplans  :       4447. kBytes
   grid      :       6721. kBytes
   one-center:        124. kBytes
   wavefun   :      38776. kBytes
 
  
  
 General timing and accounting informations for this job:
 ========================================================
  
                  Total CPU time used (sec):     1912.121
                            User time (sec):     1825.263
                          System time (sec):       86.858
                         Elapsed time (sec):     1958.835
  
                   Maximum memory used (kb):      975084.
                   Average memory used (kb):           0.
  
                          Minor page faults:       942955
                          Major page faults:            0
                 Voluntary context switches:        11754
