unknown system                          
           1
    11.002582    0.000000    0.000000
     5.501291    9.528515    0.000000
     0.000000    0.000000   24.491785
   Au   Pd
  24  24
Direct configuration=     1
   0.08333333  0.08333333  0.40830017
   0.58333333  0.33333333  0.40830017
   0.41666667  0.66666667  0.50000000
   0.50000000  0.50000000  0.59169983
   0.58333333  0.08333333  0.40830017
   0.66666667  0.91666667  0.50000000
   0.41666667  0.91666667  0.50000000
   0.50000000  0.75000000  0.59169983
   0.33333333  0.58333333  0.40830017
   0.75000000  0.00000000  0.59169983
   0.83333333  0.33333333  0.40830017
   0.41666667  0.41666667  0.50000000
   0.16666667  0.16666667  0.50000000
   0.25000000  0.00000000  0.59169983
   0.00000000  0.75000000  0.59169983
   0.91666667  0.91666667  0.50000000
   0.75000000  0.25000000  0.59169983
   0.91666667  0.66666667  0.50000000
   0.83333333  0.58333333  0.40830017
   0.66666667  0.66666667  0.50000000
   0.91666667  0.41666667  0.50000000
   0.08333333  0.33333333  0.40830017
   0.75000000  0.50000000  0.59169983
   0.33333333  0.08333333  0.40830017
   0.66666667  0.41666667  0.50000000
   0.66666667  0.16666667  0.50000000
   0.83333333  0.08333333  0.40830017
   0.58333333  0.83333333  0.40830017
   0.83333333  0.83333333  0.40830017
   0.58333333  0.58333333  0.40830017
   0.25000000  0.75000000  0.59169983
   0.50000000  0.00000000  0.59169983
   0.91666667  0.16666667  0.50000000
   0.00000000  0.00000000  0.59169983
   0.00000000  0.25000000  0.59169983
   0.08333333  0.58333333  0.40830017
   0.00000000  0.50000000  0.59169983
   0.08333333  0.83333333  0.40830017
   0.50000000  0.25000000  0.59169983
   0.33333333  0.33333333  0.40830017
   0.25000000  0.25000000  0.59169983
   0.16666667  0.66666667  0.50000000
   0.25000000  0.50000000  0.59169983
   0.33333333  0.83333333  0.40830017
   0.16666667  0.91666667  0.50000000
   0.41666667  0.16666667  0.50000000
   0.16666667  0.41666667  0.50000000
   0.75000000  0.75000000  0.59169983
Direct configuration=     2
   0.08314269  0.08150352  0.40642253
   0.58396407  0.33296610  0.40645835
   0.41522028  0.66741212  0.49955553
   0.49893316  0.49964447  0.59388222
   0.58379694  0.08304834  0.40644803
   0.66578279  0.91757314  0.49996090
   0.41651458  0.91720982  0.49966317
   0.49994317  0.75077384  0.59430304
   0.33202809  0.58436744  0.40622990
   0.74887682  0.00068997  0.59386204
   0.83220761  0.33302980  0.40638418
   0.41578214  0.41510550  0.50039129
   0.16639587  0.16742661  0.50085053
   0.24891985  0.00045809  0.59378354
   0.00141528  0.74891098  0.59385795
   0.91800725  0.91777034  0.49924759
   0.75076565  0.24929378  0.59327926
   0.91855895  0.66586045  0.49994689
   0.83261110  0.58478509  0.40578461
   0.66627423  0.66666636  0.49959114
   0.91748857  0.41543329  0.50081561
   0.08436611  0.33437910  0.40604833
   0.75123807  0.49960743  0.59392036
   0.33429303  0.08289785  0.40610195
   0.66706296  0.41584206  0.49976079
   0.66658912  0.16717452  0.50000679
   0.83357999  0.08288745  0.40735586
   0.58335491  0.83284141  0.40689753
   0.83398875  0.83326223  0.40693848
   0.58307715  0.58396667  0.40702067
   0.24920164  0.75007858  0.59274605
   0.49989590  0.00094455  0.59291967
   0.91632425  0.16605317  0.50022662
   0.00079564  0.00006894  0.59270446
   0.00029476  0.24972793  0.59281945
   0.08371070  0.58357303  0.40731254
   0.00094547  0.49935488  0.59282748
   0.08312954  0.83314699  0.40744379
   0.49925509  0.24963865  0.59262523
   0.33258168  0.33374282  0.40732085
   0.25010605  0.25087545  0.59259122
   0.16665749  0.66661922  0.49998745
   0.24971799  0.49977906  0.59259860
   0.33336869  0.83297648  0.40709389
   0.16579643  0.91603458  0.49995028
   0.41652082  0.16774003  0.50052574
   0.16752809  0.41697404  0.50033216
   0.74999059  0.74988384  0.59320546
Direct configuration=     3
   0.08257075  0.07601407  0.40078963
   0.58585630  0.33186440  0.40093288
   0.41088114  0.66964847  0.49822213
   0.49573265  0.49857786  0.60042937
   0.58518777  0.08219338  0.40089163
   0.66313117  0.92029256  0.49984362
   0.41605833  0.91883929  0.49865269
   0.49977268  0.75309535  0.60211266
   0.32811235  0.58746978  0.40001910
   0.74550730  0.00275987  0.60034868
   0.82883044  0.33211920  0.40063619
   0.41312856  0.41042201  0.50156516
   0.16558349  0.16970642  0.50340210
   0.24567939  0.00183234  0.60003466
   0.00566111  0.74564392  0.60033232
   0.92202901  0.92108138  0.49699036
   0.75306259  0.24717510  0.59801755
   0.92423579  0.66344179  0.49978756
   0.83044441  0.58914037  0.39823791
   0.66509692  0.66666543  0.49836455
   0.91995426  0.41173315  0.50326242
   0.08746444  0.33751639  0.39929281
   0.75495229  0.49842971  0.60058195
   0.33717212  0.08159141  0.39950731
   0.66825184  0.41336823  0.49904318
   0.66635649  0.16869809  0.50002714
   0.83431995  0.08154978  0.40452293
   0.58341963  0.83136566  0.40268961
   0.83595499  0.83304893  0.40285343
   0.58230860  0.58586668  0.40318216
   0.24680657  0.75031433  0.59588470
   0.49958361  0.00377822  0.59657920
   0.91529700  0.16421268  0.50090648
   0.00318255  0.00027576  0.59571836
   0.00117903  0.24891170  0.59617829
   0.08484278  0.58429211  0.40434965
   0.00378187  0.49741951  0.59621043
   0.08251817  0.83258798  0.40487463
   0.49702035  0.24855459  0.59540144
   0.33032674  0.33497127  0.40438291
   0.25042419  0.25350181  0.59526540
   0.16662995  0.66647688  0.49994981
   0.24887198  0.49911624  0.59529489
   0.33347475  0.83190592  0.40347504
   0.16318571  0.91413831  0.49980111
   0.41608330  0.17096011  0.50210298
   0.17011237  0.41789617  0.50132864
   0.74996236  0.74953538  0.59772233
Direct configuration=     4
   0.08340784  0.07800208  0.39958525
   0.58277744  0.33323439  0.39953763
   0.41251068  0.66712664  0.49874873
   0.49645307  0.49909612  0.60178675
   0.58531637  0.08206247  0.39944635
   0.66610796  0.91961137  0.49991331
   0.41363638  0.92024660  0.49894787
   0.49949322  0.75270738  0.60382621
   0.32960075  0.58592448  0.39829521
   0.74770154  0.00079751  0.60172926
   0.83201993  0.33261765  0.39931974
   0.41561550  0.41371003  0.50096114
   0.16713431  0.16743056  0.50239127
   0.24752420  0.00100330  0.60173297
   0.00331270  0.74748572  0.60194247
   0.91831893  0.91933750  0.49807351
   0.75211023  0.24813342  0.59939616
   0.92152122  0.66518714  0.49991420
   0.83168398  0.58762352  0.39645768
   0.66677763  0.66506481  0.49884775
   0.91806329  0.41368605  0.50228972
   0.08535502  0.33666799  0.39792589
   0.75316264  0.49941584  0.60229576
   0.33566353  0.08211248  0.39801606
   0.66668152  0.41462313  0.49944261
   0.66658569  0.16801100  0.50007289
   0.83344256  0.08162600  0.40319183
   0.58338214  0.83194232  0.40142666
   0.83577886  0.83307504  0.40200928
   0.58178348  0.58547241  0.40212297
   0.24838237  0.74997730  0.59671912
   0.49840125  0.00331139  0.59760618
   0.91551333  0.16624615  0.50058277
   0.00211862 -0.00072881  0.59673696
   0.00138802  0.24873273  0.59797127
   0.08403124  0.58492153  0.40329203
   0.00382364  0.49769430  0.59747730
   0.08275375  0.83145766  0.40333834
   0.49758314  0.24884186  0.59689163
   0.33215675  0.33482572  0.40354032
   0.25027314  0.25327649  0.59681975
   0.16751088  0.66586770  0.50007113
   0.24912496  0.49916002  0.59665033
   0.33347174  0.83243386  0.40223411
   0.16565105  0.91588595  0.49989828
   0.41629369  0.16787741  0.50133337
   0.16786886  0.41763389  0.50086047
   0.75073094  0.74954988  0.59832947
Direct configuration=     5
   0.08372150  0.07874698  0.39913397
   0.58162381  0.33374773  0.39901484
   0.41312127  0.66618172  0.49894604
   0.49672301  0.49929031  0.60229536
   0.58536456  0.08201343  0.39890481
   0.66722335  0.91935613  0.49993943
   0.41272888  0.92077392  0.49905848
   0.49938850  0.75256201  0.60446827
   0.33015845  0.58534546  0.39764927
   0.74852372  0.00006222  0.60224656
   0.83321501  0.33280442  0.39882647
   0.41654735  0.41494204  0.50073482
   0.16771539  0.16657781  0.50201251
   0.24821544  0.00069266  0.60236931
   0.00243275  0.74817583  0.60254579
   0.91692879  0.91868407  0.49847936
   0.75175339  0.24849249  0.59991273
   0.92050408  0.66584112  0.49996166
   0.83214845  0.58705516  0.39579063
   0.66740739  0.66446506  0.49902881
   0.91735475  0.41441780  0.50192525
   0.08456463  0.33635010  0.39741372
   0.75249206  0.49978533  0.60293792
   0.33509827  0.08230772  0.39745730
   0.66609313  0.41509333  0.49959228
   0.66667158  0.16775355  0.50009003
   0.83311381  0.08165456  0.40269307
   0.58336810  0.83215839  0.40095344
   0.83571287  0.83308482  0.40169298
   0.58158672  0.58532468  0.40172610
   0.24897281  0.74985102  0.59703178
   0.49795822  0.00313647  0.59799098
   0.91559439  0.16700807  0.50046148
   0.00171997 -0.00110521  0.59711863
   0.00146633  0.24866567  0.59864310
   0.08372716  0.58515737  0.40289575
   0.00383929  0.49779726  0.59795199
   0.08284201  0.83103414  0.40276270
   0.49779402  0.24894950  0.59744999
   0.33284245  0.33477119  0.40322460
   0.25021654  0.25319207  0.59740216
   0.16784095  0.66563944  0.50011659
   0.24921975  0.49917643  0.59715821
   0.33347061  0.83263167  0.40176914
   0.16657481  0.91654078  0.49993469
   0.41637252  0.16672233  0.50104500
   0.16702822  0.41753562  0.50068505
   0.75101892  0.74955531  0.59855696
Direct configuration=     6
   0.08373726  0.07945008  0.39891214
   0.58226460  0.33392889  0.39863649
   0.41449370  0.66661575  0.49920986
   0.49734408  0.49957329  0.60270471
   0.58491789  0.08182940  0.39851362
   0.66627334  0.91874805  0.49998071
   0.41518802  0.91812752  0.49923191
   0.49981646  0.75195916  0.60490614
   0.33055862  0.58528530  0.39702813
   0.74878811 -0.00016860  0.60264471
   0.83313580  0.33308295  0.39860723
   0.41665646  0.41448662  0.50064253
   0.16628623  0.16772182  0.50157981
   0.24849508  0.00064366  0.60296607
   0.00214201  0.74848656  0.60301649
   0.91814869  0.91840275  0.49904615
   0.75132815  0.24880092  0.60021848
   0.91976590  0.66562105  0.50004260
   0.83223545  0.58665803  0.39524617
   0.66640651  0.66562433  0.49924256
   0.91714723  0.41474626  0.50156260
   0.08455893  0.33579440  0.39707784
   0.75182908  0.50020359  0.60339186
   0.33448385  0.08301261  0.39696001
   0.66637573  0.41510977  0.49976688
   0.66638441  0.16810597  0.50014881
   0.83319948  0.08229587  0.40248544
   0.58352539  0.83224818  0.40095093
   0.83525982  0.83293008  0.40147292
   0.58199435  0.58487201  0.40163788
   0.24947999  0.74969570  0.59714819
   0.49817145  0.00248740  0.59811326
   0.91577901  0.16712647  0.50022438
   0.00143158 -0.00133613  0.59723865
   0.00150854  0.24883375  0.59897172
   0.08343971  0.58477067  0.40269859
   0.00317197  0.49803985  0.59820748
   0.08276411  0.83157218  0.40259462
   0.49823202  0.24893106  0.59763982
   0.33266641  0.33441460  0.40313160
   0.25005304  0.25280033  0.59776133
   0.16722160  0.66613279  0.50018415
   0.24948330  0.49928014  0.59739457
   0.33353896  0.83258932  0.40155940
   0.16567003  0.91715691  0.49985211
   0.41671299  0.16710997  0.50056377
   0.16709739  0.41677144  0.50038635
   0.75083727  0.74942724  0.59849834
Direct configuration=     7
   0.08374038  0.07958938  0.39886819
   0.58239156  0.33396478  0.39856154
   0.41476561  0.66670175  0.49926213
   0.49746713  0.49962936  0.60278581
   0.58482939  0.08179295  0.39843612
   0.66608512  0.91862758  0.49998889
   0.41567523  0.91760321  0.49926628
   0.49990125  0.75183972  0.60499290
   0.33063790  0.58527338  0.39690507
   0.74884049 -0.00021433  0.60272359
   0.83312011  0.33313813  0.39856379
   0.41667807  0.41439639  0.50062424
   0.16600308  0.16794847  0.50149408
   0.24855048  0.00063396  0.60308430
   0.00208441  0.74854812  0.60310975
   0.91839038  0.91834702  0.49915844
   0.75124390  0.24886202  0.60027905
   0.91961965  0.66557745  0.50005864
   0.83225269  0.58657935  0.39513830
   0.66620821  0.66585400  0.49928490
   0.91710612  0.41481133  0.50149075
   0.08455780  0.33568430  0.39701130
   0.75169773  0.50028645  0.60348180
   0.33436212  0.08315227  0.39686148
   0.66643172  0.41511303  0.49980147
   0.66632752  0.16817580  0.50016045
   0.83321646  0.08242293  0.40244431
   0.58355656  0.83226596  0.40095043
   0.83517006  0.83289943  0.40142932
   0.58207511  0.58478232  0.40162040
   0.24958047  0.74966492  0.59717125
   0.49821369  0.00235881  0.59813748
   0.91581558  0.16714992  0.50017740
   0.00137444 -0.00138187  0.59726243
   0.00151691  0.24886705  0.59903683
   0.08338276  0.58469406  0.40265953
   0.00303976  0.49808792  0.59825810
   0.08274868  0.83167878  0.40256132
   0.49831880  0.24892740  0.59767743
   0.33263153  0.33434396  0.40311317
   0.25002065  0.25272272  0.59783249
   0.16709889  0.66623053  0.50019753
   0.24953551  0.49930069  0.59744140
   0.33355250  0.83258093  0.40151785
   0.16549078  0.91727899  0.49983575
   0.41678044  0.16718677  0.50046842
   0.16711109  0.41662004  0.50032718
   0.75080129  0.74940186  0.59848672
Direct configuration=     8
   0.08370961  0.07961782  0.39875884
   0.58305845  0.33371951  0.39841717
   0.41455597  0.66682578  0.49935907
   0.49757203  0.49965863  0.60299593
   0.58475598  0.08182917  0.39826600
   0.66595918  0.91895361  0.49999151
   0.41549563  0.91772079  0.49938127
   0.50000408  0.75176617  0.60535700
   0.33054815  0.58543827  0.39666568
   0.74846435 -0.00002780  0.60289111
   0.83263713  0.33333933  0.39847854
   0.41607848  0.41455284  0.50062728
   0.16644517  0.16754348  0.50138434
   0.24835212  0.00078385  0.60330573
   0.00241364  0.74817787  0.60339052
   0.91858649  0.91851310  0.49935114
   0.75135704  0.24879792  0.60036013
   0.91966740  0.66528708  0.50006171
   0.83205264  0.58658916  0.39482284
   0.66648822  0.66555045  0.49935880
   0.91655202  0.41533651  0.50141805
   0.08466835  0.33568194  0.39674576
   0.75192505  0.50011242  0.60369739
   0.33440904  0.08306203  0.39662714
   0.66687081  0.41499344  0.49992995
   0.66657012  0.16784749  0.50015934
   0.83331235  0.08256418  0.40254925
   0.58353479  0.83220985  0.40101435
   0.83501305  0.83300255  0.40151208
   0.58241181  0.58472718  0.40171256
   0.24964225  0.74964965  0.59712045
   0.49848848  0.00215152  0.59807537
   0.91550543  0.16718107  0.50008652
   0.00146971 -0.00116267  0.59728738
   0.00135635  0.24905871  0.59900526
   0.08336751  0.58445237  0.40266975
   0.00262854  0.49820690  0.59824118
   0.08257186  0.83216398  0.40265560
   0.49841104  0.24881727  0.59760516
   0.33238879  0.33436762  0.40305789
   0.25005755  0.25243102  0.59778402
   0.16723690  0.66613528  0.50021598
   0.24968085  0.49927074  0.59737261
   0.33360783  0.83256807  0.40156260
   0.16543239  0.91742208  0.49976143
   0.41666815  0.16727359  0.50023809
   0.16736211  0.41650839  0.50024110
   0.75065512  0.74932979  0.59842913
Direct configuration=     9
   0.08368723  0.07963849  0.39867932
   0.58354337  0.33354116  0.39831219
   0.41440353  0.66691596  0.49942957
   0.49764830  0.49967992  0.60314871
   0.58470260  0.08185551  0.39814230
   0.66586760  0.91919069  0.49999341
   0.41536503  0.91780629  0.49946488
   0.50007886  0.75171269  0.60562175
   0.33048289  0.58555817  0.39649161
   0.74819085  0.00010782  0.60301293
   0.83228594  0.33348563  0.39841656
   0.41564249  0.41466660  0.50062948
   0.16676663  0.16724899  0.50130455
   0.24820789  0.00089284  0.60346674
   0.00265305  0.74790866  0.60359468
   0.91872909  0.91863386  0.49949126
   0.75143932  0.24875131  0.60041909
   0.91970212  0.66507594  0.50006395
   0.83190718  0.58659628  0.39459346
   0.66669183  0.66532973  0.49941253
   0.91614911  0.41571839  0.50136518
   0.08474874  0.33568021  0.39655268
   0.75209034  0.49998588  0.60385416
   0.33444315  0.08299641  0.39645674
   0.66719008  0.41490648  0.50002337
   0.66674653  0.16760877  0.50015854
   0.83338207  0.08266689  0.40262555
   0.58351897  0.83216905  0.40106084
   0.83489888  0.83307754  0.40157227
   0.58265664  0.58468708  0.40177957
   0.24968717  0.74963854  0.59708352
   0.49868829  0.00200079  0.59803021
   0.91527990  0.16720371  0.50002043
   0.00153898 -0.00100328  0.59730551
   0.00123960  0.24919807  0.59898230
   0.08335642  0.58427663  0.40267717
   0.00232953  0.49829342  0.59822888
   0.08244330  0.83251679  0.40272415
   0.49847811  0.24873720  0.59755261
   0.33221229  0.33438483  0.40301770
   0.25008438  0.25221891  0.59774878
   0.16733725  0.66606603  0.50022940
   0.24978653  0.49924897  0.59732259
   0.33364806  0.83255872  0.40159514
   0.16538993  0.91752613  0.49970740
   0.41658650  0.16733672  0.50007060
   0.16754463  0.41642721  0.50017852
   0.75054884  0.74927738  0.59838725
Direct configuration=    10
   0.08360036  0.07987411  0.39853149
   0.58357018  0.33349213  0.39823714
   0.41426446  0.66673959  0.49951154
   0.49771558  0.49957528  0.60338203
   0.58470453  0.08201200  0.39793741
   0.66606612  0.91934605  0.49996662
   0.41515794  0.91799026  0.49963217
   0.50003262  0.75180098  0.60613728
   0.33049270  0.58560991  0.39626342
   0.74814787  0.00004435  0.60322471
   0.83231133  0.33356263  0.39831036
   0.41572647  0.41474581  0.50056361
   0.16671577  0.16725788  0.50122035
   0.24810843  0.00096063  0.60370588
   0.00279919  0.74768758  0.60391022
   0.91876897  0.91837547  0.49973662
   0.75157802  0.24861884  0.60049631
   0.91992785  0.66518961  0.50003447
   0.83180404  0.58672839  0.39416909
   0.66657551  0.66541260  0.49950454
   0.91645779  0.41538093  0.50126690
   0.08454342  0.33568814  0.39620399
   0.75227667  0.49975942  0.60415323
   0.33459763  0.08267810  0.39615510
   0.66699646  0.41481549  0.50021981
   0.66669524  0.16766793  0.50014470
   0.83347983  0.08253300  0.40280113
   0.58344698  0.83213558  0.40120585
   0.83489542  0.83318430  0.40178942
   0.58261185  0.58485074  0.40196797
   0.24969680  0.74974837  0.59700612
   0.49877123  0.00187223  0.59791184
   0.91517598  0.16745616  0.49994599
   0.00159976 -0.00083722  0.59734170
   0.00117176  0.24935066  0.59878478
   0.08329011  0.58435933  0.40272465
   0.00223190  0.49826148  0.59814026
   0.08223452  0.83277538  0.40290932
   0.49842114  0.24869982  0.59736726
   0.33228294  0.33451458  0.40289064
   0.25015714  0.25200847  0.59756437
   0.16728966  0.66607499  0.50021121
   0.24991924  0.49902452  0.59721006
   0.33377190  0.83249112  0.40170295
   0.16549867  0.91759580  0.49965089
   0.41652739  0.16731999  0.49980922
   0.16737656  0.41630001  0.50012689
   0.75051408  0.74926657  0.59831849
Direct configuration=    11
   0.08348789  0.08017918  0.39834009
   0.58360490  0.33342865  0.39813997
   0.41408439  0.66651122  0.49961767
   0.49780268  0.49943980  0.60368412
   0.58470703  0.08221462  0.39767213
   0.66632317  0.91954721  0.49993194
   0.41488982  0.91822846  0.49984876
   0.49997274  0.75191529  0.60680478
   0.33050541  0.58567691  0.39596798
   0.74809222 -0.00003784  0.60349892
   0.83234421  0.33366234  0.39817286
   0.41583520  0.41484837  0.50047833
   0.16664994  0.16726939  0.50111134
   0.24797966  0.00104841  0.60401551
   0.00298840  0.74740133  0.60431877
   0.91882061  0.91804092  0.50005430
   0.75175760  0.24844732  0.60059628
   0.92022012  0.66533679  0.49999629
   0.83167049  0.58689943  0.39361963
   0.66642491  0.66551990  0.49962369
   0.91685746  0.41494400  0.50113964
   0.08427759  0.33569841  0.39575251
   0.75251791  0.49946621  0.60454046
   0.33479763  0.08226596  0.39576455
   0.66674576  0.41469768  0.50047414
   0.66662884  0.16774453  0.50012678
   0.83360640  0.08235964  0.40302846
   0.58335376  0.83209224  0.40139360
   0.83489094  0.83332253  0.40207059
   0.58255386  0.58506264  0.40221190
   0.24970927  0.74989058  0.59690590
   0.49887862  0.00170578  0.59775858
   0.91504142  0.16778302  0.49984961
   0.00167846 -0.00062221  0.59738855
   0.00108393  0.24954824  0.59852905
   0.08320425  0.58446641  0.40278613
   0.00210549  0.49822013  0.59802551
   0.08196420  0.83311019  0.40314907
   0.49834737  0.24865144  0.59712728
   0.33237441  0.33468258  0.40272613
   0.25025135  0.25173600  0.59732559
   0.16722803  0.66608660  0.50018765
   0.25009106  0.49873390  0.59706437
   0.33393224  0.83240360  0.40184254
   0.16563946  0.91768601  0.49957773
   0.41645086  0.16729831  0.49947078
   0.16715894  0.41613531  0.50006006
   0.75046907  0.74925257  0.59822945
Direct configuration=    12
   0.08345052  0.08028057  0.39827648
   0.58361644  0.33340755  0.39810768
   0.41402455  0.66643532  0.49965294
   0.49783163  0.49939477  0.60378451
   0.58470786  0.08228196  0.39758397
   0.66640860  0.91961407  0.49992042
   0.41480071  0.91830763  0.49992075
   0.49995284  0.75195328  0.60702662
   0.33050963  0.58569918  0.39586979
   0.74807373 -0.00006516  0.60359005
   0.83235513  0.33369547  0.39812716
   0.41587133  0.41488246  0.50044998
   0.16662805  0.16727321  0.50107511
   0.24793686  0.00107758  0.60411842
   0.00305129  0.74730619  0.60445455
   0.91883777  0.91792974  0.50015988
   0.75181729  0.24839031  0.60062951
   0.92031726  0.66538570  0.49998360
   0.83162611  0.58695628  0.39343701
   0.66637486  0.66555557  0.49966328
   0.91699029  0.41479879  0.50109735
   0.08418924  0.33570183  0.39560247
   0.75259809  0.49936877  0.60466915
   0.33486410  0.08212899  0.39563475
   0.66666244  0.41465853  0.50055867
   0.66660677  0.16776998  0.50012083
   0.83364847  0.08230202  0.40310401
   0.58332278  0.83207783  0.40145600
   0.83488946  0.83336847  0.40216403
   0.58253459  0.58513306  0.40229297
   0.24971341  0.74993784  0.59687260
   0.49891431  0.00165046  0.59770765
   0.91499670  0.16789165  0.49981758
   0.00170461 -0.00055075  0.59740412
   0.00105473  0.24961390  0.59844406
   0.08317571  0.58450200  0.40280656
   0.00206348  0.49820638  0.59798738
   0.08187437  0.83322147  0.40322876
   0.49832285  0.24863535  0.59704752
   0.33240481  0.33473841  0.40267145
   0.25028266  0.25164545  0.59724623
   0.16720755  0.66609045  0.50017983
   0.25014816  0.49863732  0.59701595
   0.33398553  0.83237451  0.40188894
   0.16568625  0.91771600  0.49955342
   0.41642542  0.16729111  0.49935831
   0.16708661  0.41608058  0.50003784
   0.75045412  0.74924792  0.59819986
Direct configuration=    13
   0.08356276  0.08032274  0.39810869
   0.58325193  0.33381607  0.39810806
   0.41424708  0.66644319  0.49979438
   0.49773681  0.49935127  0.60406321
   0.58476151  0.08221528  0.39734351
   0.66624313  0.91951416  0.49989883
   0.41512371  0.91802952  0.50015015
   0.49997176  0.75182367  0.60768853
   0.33042784  0.58581700  0.39567107
   0.74861420 -0.00039276  0.60382779
   0.83235092  0.33386586  0.39803413
   0.41602852  0.41470850  0.50023452
   0.16650113  0.16727051  0.50087426
   0.24806185  0.00108475  0.60435284
   0.00298385  0.74743264  0.60480424
   0.91892847  0.91815407  0.50061996
   0.75176871  0.24813559  0.60072486
   0.92012959  0.66513768  0.50000292
   0.83163715  0.58730566  0.39296886
   0.66641618  0.66556873  0.49988912
   0.91673763  0.41520620  0.50085481
   0.08439179  0.33574336  0.39512891
   0.75228761  0.49967304  0.60498071
   0.33482892  0.08225873  0.39530062
   0.66636912  0.41490124  0.50081357
   0.66646347  0.16800870  0.50010959
   0.83361989  0.08223524  0.40336283
   0.58337962  0.83226222  0.40172677
   0.83486322  0.83336799  0.40241637
   0.58235518  0.58502966  0.40259192
   0.24975128  0.74996286  0.59681543
   0.49867714  0.00171801  0.59754437
   0.91518138  0.16754723  0.49977112
   0.00166356 -0.00072429  0.59742190
   0.00124169  0.24946304  0.59817398
   0.08314720  0.58466053  0.40281763
   0.00239549  0.49809996  0.59781519
   0.08202217  0.83300528  0.40349077
   0.49833606  0.24848971  0.59672111
   0.33233150  0.33476987  0.40246929
   0.25041144  0.25158466  0.59690980
   0.16726820  0.66595357  0.50015773
   0.25010494  0.49851194  0.59683097
   0.33378768  0.83245936  0.40208204
   0.16547706  0.91789248  0.49955101
   0.41648951  0.16722817  0.49897422
   0.16702751  0.41603033  0.49987588
   0.75064263  0.74905680  0.59813156
Direct configuration=    14
   0.08361072  0.08034076  0.39803698
   0.58309614  0.33399067  0.39810822
   0.41434219  0.66644656  0.49985483
   0.49769628  0.49933267  0.60418232
   0.58478444  0.08218678  0.39724074
   0.66617242  0.91947146  0.49988960
   0.41526175  0.91791066  0.50024819
   0.49997985  0.75176828  0.60797142
   0.33039289  0.58586736  0.39558614
   0.74884519 -0.00053277  0.60392939
   0.83234912  0.33393868  0.39799437
   0.41609570  0.41463416  0.50014243
   0.16644688  0.16726936  0.50078842
   0.24811526  0.00108781  0.60445303
   0.00295502  0.74748667  0.60495369
   0.91896724  0.91824994  0.50081659
   0.75174796  0.24802673  0.60076561
   0.92004939  0.66503168  0.50001118
   0.83164187  0.58745497  0.39276879
   0.66643384  0.66557436  0.49998564
   0.91662964  0.41538032  0.50075115
   0.08447836  0.33576111  0.39492652
   0.75215492  0.49980309  0.60511386
   0.33481389  0.08231418  0.39515782
   0.66624376  0.41500497  0.50092251
   0.66640223  0.16811072  0.50010479
   0.83360768  0.08220670  0.40347344
   0.58340391  0.83234102  0.40184249
   0.83485201  0.83336778  0.40252421
   0.58227851  0.58498547  0.40271968
   0.24976746  0.74997356  0.59679099
   0.49857577  0.00174687  0.59747460
   0.91526031  0.16740003  0.49975126
   0.00164602 -0.00079846  0.59742949
   0.00132159  0.24939856  0.59805856
   0.08313501  0.58472828  0.40282235
   0.00253739  0.49805448  0.59774160
   0.08208534  0.83291289  0.40360275
   0.49834170  0.24842746  0.59658160
   0.33230017  0.33478331  0.40238289
   0.25046647  0.25155868  0.59676601
   0.16729411  0.66589507  0.50014829
   0.25008647  0.49845835  0.59675191
   0.33370312  0.83249562  0.40216456
   0.16538766  0.91796791  0.49954999
   0.41651690  0.16720126  0.49881008
   0.16700225  0.41600886  0.49980666
   0.75072320  0.74897512  0.59810236
Direct configuration=    15
   0.08363163  0.08016522  0.39798882
   0.58304390  0.33408428  0.39818219
   0.41433434  0.66670973  0.50000026
   0.49745536  0.49927895  0.60428230
   0.58483463  0.08214745  0.39715394
   0.66618580  0.91952009  0.49995954
   0.41515589  0.91776619  0.50032728
   0.49995136  0.75173345  0.60826818
   0.33020003  0.58599998  0.39560254
   0.74877645 -0.00068424  0.60397767
   0.83225500  0.33403905  0.39804060
   0.41581869  0.41475529  0.49995505
   0.16654806  0.16719968  0.50059736
   0.24823893  0.00097526  0.60442622
   0.00306499  0.74739752  0.60504043
   0.91864798  0.91824305  0.50101294
   0.75164309  0.24821184  0.60078119
   0.91983839  0.66515393  0.50004666
   0.83166549  0.58747776  0.39267236
   0.66655323  0.66533670  0.50016193
   0.91605655  0.41561019  0.50054971
   0.08456979  0.33607264  0.39470131
   0.75214907  0.49977975  0.60512918
   0.33472691  0.08254539  0.39509865
   0.66662176  0.41509190  0.50105215
   0.66649410  0.16791684  0.50008551
   0.83346253  0.08238729  0.40358411
   0.58341018  0.83235932  0.40196893
   0.83501411  0.83337391  0.40263262
   0.58235286  0.58498698  0.40287294
   0.24980842  0.74980498  0.59683721
   0.49864089  0.00181057  0.59745273
   0.91521783  0.16757156  0.49977608
   0.00186554 -0.00099122  0.59753944
   0.00128506  0.24927181  0.59790649
   0.08314778  0.58471412  0.40276068
   0.00273265  0.49793784  0.59763724
   0.08218484  0.83271995  0.40373415
   0.49862240  0.24817292  0.59638288
   0.33216832  0.33474315  0.40222804
   0.25049668  0.25163494  0.59653374
   0.16738222  0.66571020  0.50018102
   0.24995683  0.49874044  0.59662445
   0.33357883  0.83269819  0.40229677
   0.16556104  0.91786253  0.49965624
   0.41655326  0.16702816  0.49857311
   0.16725281  0.41600015  0.49955357
   0.75084348  0.74893430  0.59817358
Direct configuration=    16
   0.08363575  0.08013055  0.39797931
   0.58303358  0.33410276  0.39819680
   0.41433279  0.66676171  0.50002897
   0.49740779  0.49926834  0.60430205
   0.58484454  0.08213969  0.39713679
   0.66618844  0.91952970  0.49997336
   0.41513498  0.91773766  0.50034290
   0.49994574  0.75172658  0.60832679
   0.33016195  0.58602616  0.39560578
   0.74876287 -0.00071415  0.60398721
   0.83223642  0.33405887  0.39804972
   0.41576399  0.41477921  0.49991804
   0.16656804  0.16718592  0.50055963
   0.24826335  0.00095303  0.60442093
   0.00308671  0.74737991  0.60505756
   0.91858494  0.91824168  0.50105172
   0.75162239  0.24824839  0.60078427
   0.91979673  0.66517807  0.50005367
   0.83167015  0.58748225  0.39265331
   0.66657681  0.66528977  0.50019674
   0.91594338  0.41565558  0.50050994
   0.08458784  0.33613416  0.39465683
   0.75214792  0.49977514  0.60513221
   0.33470973  0.08259105  0.39508696
   0.66669641  0.41510907  0.50107775
   0.66651224  0.16787856  0.50008171
   0.83343386  0.08242295  0.40360597
   0.58341141  0.83236294  0.40199390
   0.83504612  0.83337511  0.40265403
   0.58236754  0.58498728  0.40290320
   0.24981651  0.74977169  0.59684634
   0.49865375  0.00182315  0.59744841
   0.91520945  0.16760544  0.49978099
   0.00190889 -0.00102929  0.59756115
   0.00127785  0.24924678  0.59787646
   0.08315031  0.58471132  0.40274850
   0.00277121  0.49791481  0.59761663
   0.08220449  0.83268185  0.40376010
   0.49867783  0.24812266  0.59634364
   0.33214228  0.33473522  0.40219746
   0.25050264  0.25164999  0.59648788
   0.16739962  0.66567370  0.50018748
   0.24993123  0.49879614  0.59659928
   0.33355429  0.83273819  0.40232288
   0.16559528  0.91784173  0.49967722
   0.41656044  0.16699398  0.49852632
   0.16730229  0.41599843  0.49950360
   0.75086723  0.74892624  0.59818765
Direct configuration=    17
   0.08349788  0.08008741  0.39797012
   0.58299551  0.33416686  0.39832884
   0.41439754  0.66667652  0.50022170
   0.49717608  0.49916904  0.60435710