 vasp.5.4.1 24Jun15 (build Mar 14 2019 10:18:33) complex                        
  
 executed on INTEL-19.0.2+OPENMPI date 2022.07.15  14:38:30
 running on   36 total cores
 distrk:  each k-point on   36 cores,    1 groups
 distr:  one band on NCORES_PER_BAND=   6 cores,    6 groups


--------------------------------------------------------------------------------------------------------


 INCAR:
 POTCAR:    PAW_PBE Au 04Oct2007                  
 POTCAR:    PAW_PBE Pd 04Jan2005                  
 POTCAR:    PAW_PBE Au 04Oct2007                  
  local pseudopotential read in
  partial core-charges read in
  partial kinetic energy density read in
  atomic valenz-charges read in
  non local Contribution for L=           2  read in
    real space projection operators read in
  non local Contribution for L=           2  read in
    real space projection operators read in
  non local Contribution for L=           0  read in
    real space projection operators read in
  non local Contribution for L=           0  read in
    real space projection operators read in
  non local Contribution for L=           1  read in
    real space projection operators read in
  non local Contribution for L=           1  read in
    real space projection operators read in
    PAW grid and wavefunctions read in
 
   number of l-projection  operators is LMAX  =           6
   number of lm-projection operators is LMMAX =          18
 
 POTCAR:    PAW_PBE Pd 04Jan2005                  
  local pseudopotential read in
  partial core-charges read in
  partial kinetic energy density read in
  atomic valenz-charges read in
  non local Contribution for L=           2  read in
    real space projection operators read in
  non local Contribution for L=           2  read in
    real space projection operators read in
  non local Contribution for L=           0  read in
    real space projection operators read in
  non local Contribution for L=           0  read in
    real space projection operators read in
  non local Contribution for L=           1  read in
    real space projection operators read in
  non local Contribution for L=           1  read in
    real space projection operators read in
    PAW grid and wavefunctions read in
 
   number of l-projection  operators is LMAX  =           6
   number of lm-projection operators is LMMAX =          18
 
 Optimization of the real space projectors (new method)

 maximal supplied QI-value         = 15.12
 optimisation between [QCUT,QGAM] = [ 10.13, 20.41] = [ 28.73,116.64] Ry 
 Optimized for a Real-space Cutoff    1.51 Angstroem

   l    n(q)    QCUT    max X(q) W(low)/X(q) W(high)/X(q)  e(spline) 
   2      8    10.129    60.898    0.46E-03    0.46E-03    0.14E-06
   2      8    10.129    58.894    0.47E-03    0.47E-03    0.14E-06
   0      9    10.129   109.617    0.16E-03    0.11E-03    0.54E-07
   0      9    10.129    75.026    0.15E-03    0.11E-03    0.52E-07
   1      9    10.129    16.344    0.96E-04    0.15E-03    0.14E-06
   1      9    10.129    10.160    0.81E-04    0.12E-03    0.11E-06
 Optimization of the real space projectors (new method)

 maximal supplied QI-value         = 14.36
 optimisation between [QCUT,QGAM] = [ 10.20, 20.39] = [ 29.12,116.47] Ry 
 Optimized for a Real-space Cutoff    1.51 Angstroem

   l    n(q)    QCUT    max X(q) W(low)/X(q) W(high)/X(q)  e(spline) 
   2      8    10.197    59.108    0.26E-03    0.14E-03    0.96E-07
   2      8    10.197    58.101    0.27E-03    0.14E-03    0.98E-07
   0      9    10.197   102.235    0.54E-04    0.60E-05    0.72E-07
   0      9    10.197    58.388    0.52E-04    0.60E-05    0.68E-07
   1      9    10.197    22.191    0.18E-03    0.25E-03    0.79E-07
   1      9    10.197    15.590    0.15E-03    0.21E-03    0.69E-07
  PAW_PBE Au 04Oct2007                  :
 energy of atom  1       EATOM= -926.0867
 kinetic energy error for atom=    0.0062 (will be added to EATOM!!)
  PAW_PBE Pd 04Jan2005                  :
 energy of atom  2       EATOM= -809.7530
 kinetic energy error for atom=    0.0091 (will be added to EATOM!!)
 
 
 POSCAR: Au Pd                                   
  positions in cartesian coordinates
  No initial velocities read in
 exchange correlation table for  LEXCH =        8
   RHO(1)=    0.500       N(1)  =     2000
   RHO(2)=  100.500       N(2)  =     4000

 VTST: version 3.2, (02/03/18)

 CHAIN: initializing optimizer
 
 OPT: Using VASP Conjugate-Gradient optimizer
 CHAIN: Read ICHAIN            0
 
 POSCAR: Au Pd                                   
  positions in cartesian coordinates
  No initial velocities read in
 


--------------------------------------------------------------------------------------------------------


 ion  position               nearest neighbor table
   1  0.250  0.750  0.592-  37 2.75  14 2.75  19 2.75  39 2.75  43 2.75  47 2.75  15 2.75   7 2.75
                            40 2.75
   2  0.500  0.250  0.592-   3 2.75   8 2.75  28 2.75  34 2.75  39 2.75  47 2.75  41 2.75  32 2.75
                             5 2.75
   3  0.417  0.417  0.500-  42 2.75   2 2.75  39 2.75  14 2.75   5 2.75  40 2.75   8 2.75  30 2.75
                            10 2.75   9 2.75   4 2.75  47 2.75
   4  0.583  0.333  0.408-  30 2.75  11 2.75  27 2.75   9 2.75  35 2.75  29 2.75  42 2.75   8 2.75
                             3 2.75
   5  0.417  0.167  0.500-  21 2.75  34 2.75  41 2.75   3 2.75   6 2.75  36 2.75  10 2.75   8 2.75
                            13 2.75  42 2.75  35 2.75   2 2.75
   6  0.417  0.917  0.500-  38 2.75   7 2.75  43 2.75  14 2.75  17 2.75   5 2.75  13 2.75  36 2.75
                            37 2.75  21 2.75  26 2.75  34 2.75
   7  0.500  0.750  0.592-   6 2.75  17 2.75  31 2.75  34 2.75  43 2.75  47 2.75   1 2.75  48 2.75
                            14 2.75
   8  0.667  0.167  0.500-  35 2.75  28 2.75   2 2.75   3 2.75  30 2.75  16 2.75  36 2.75   5 2.75
                            46 2.75   4 2.75  32 2.75  27 2.75
   9  0.333  0.583  0.408-  14 2.75   4 2.75  38 2.75  42 2.75  44 2.75  22 2.75  11 2.75   3 2.75
                            40 2.75
  10  0.167  0.417  0.500-  20 2.75  41 2.75  18 2.75  13 2.75  40 2.75   5 2.75  45 2.75  24 2.75
                             3 2.75  22 2.75  42 2.75  39 2.75
  11  0.583  0.583  0.408-  17 2.75   4 2.75  26 2.75  29 2.75  38 2.75   9 2.75  12 2.75  30 2.75
                            14 2.75
  12  0.833  0.583  0.408-  45 2.75  25 2.75  26 2.75  29 2.75  20 2.75  11 2.75  22 2.75  24 2.75
                            17 2.75
  13  0.167  0.167  0.500-  33 2.75  43 2.75  23 2.75  24 2.75  10 2.75  37 2.75   6 2.75   5 2.75
                            46 2.75  20 2.75  21 2.75  41 2.75
  14  0.417  0.667  0.500-   9 2.75  47 2.75   1 2.75   3 2.75  30 2.75  37 2.75   6 2.75  40 2.75
                            17 2.75  38 2.75   7 2.75  11 2.75
  15  0.000  0.750  0.592-  16 2.75  40 2.75  19 2.75  28 2.75  39 2.75  18 2.75   1 2.75  48 2.75
                            45 2.75
  16  0.917  0.917  0.500-  25 2.75  15 2.75  28 2.75   8 2.75  40 2.75  45 2.75  46 2.75  37 2.75
                            36 2.75  27 2.75  19 2.75  44 2.75
  17  0.667  0.667  0.500-  11 2.75  31 2.75   7 2.75  24 2.75  30 2.75   6 2.75  36 2.75  14 2.75
                            45 2.75  26 2.75  12 2.75  48 2.75
  18  0.000  0.500  0.592-  45 2.75  10 2.75  23 2.75  41 2.75  15 2.75  48 2.75  39 2.75  31 2.75
                            24 2.75
  19  0.000  0.000  0.592-  46 2.75  37 2.75  23 2.75  32 2.75   1 2.75  15 2.75  43 2.75  28 2.75
                            16 2.75
  20  0.083  0.333  0.408-  10 2.75  12 2.75  21 2.75  22 2.75  33 2.75  29 2.75  42 2.75  13 2.75
                            24 2.75
  21  0.333  0.083  0.408-   5 2.75  20 2.75  26 2.75  38 2.75  42 2.75  33 2.75  35 2.75   6 2.75
                            13 2.75
  22  0.083  0.583  0.408-  40 2.75  25 2.75  20 2.75  42 2.75  44 2.75  12 2.75   9 2.75  10 2.75
                            45 2.75
  23  0.000  0.250  0.592-  24 2.75  13 2.75  19 2.75  18 2.75  31 2.75  43 2.75  41 2.75  32 2.75
                            46 2.75
  24  0.917  0.417  0.500-  29 2.75  23 2.75  31 2.75  17 2.75  13 2.75  45 2.75  46 2.75  30 2.75
                            10 2.75  12 2.75  18 2.75  20 2.75
  25  0.833  0.833  0.408-  16 2.75  12 2.75  22 2.75  27 2.75  35 2.75  26 2.75  44 2.75  45 2.75
                            36 2.75
  26  0.583  0.833  0.408-  36 2.75  12 2.75  21 2.75  35 2.75  11 2.75  25 2.75  38 2.75  17 2.75
                             6 2.75
  27  0.833  0.083  0.408-  46 2.75  25 2.75  29 2.75  44 2.75   4 2.75  33 2.75  35 2.75  16 2.75
                             8 2.75
  28  0.750  0.000  0.592-   8 2.75  16 2.75  15 2.75   2 2.75  32 2.75  48 2.75  34 2.75  19 2.75
                            36 2.75
  29  0.833  0.333  0.408-  24 2.75  12 2.75  11 2.75  27 2.75  33 2.75  20 2.75   4 2.75  46 2.75
                            30 2.75
  30  0.667  0.417  0.500-   4 2.75  32 2.75  47 2.75  17 2.75   8 2.75  46 2.75  14 2.75  24 2.75
                             3 2.75  11 2.75  31 2.75  29 2.75
  31  0.750  0.500  0.592-  17 2.75  24 2.75  23 2.75   7 2.75  32 2.75  48 2.75  47 2.75  18 2.75
                            30 2.75
  32  0.750  0.250  0.592-  30 2.75  46 2.75  19 2.75  31 2.75  28 2.75  47 2.75  23 2.75   2 2.75
                             8 2.75
  33  0.083  0.083  0.408-  13 2.75  20 2.75  29 2.75  38 2.75  44 2.75  27 2.75  21 2.75  37 2.75
                            46 2.75
  34  0.500  0.000  0.592-   5 2.75  36 2.75   7 2.75   2 2.75  41 2.75  48 2.75  43 2.75  28 2.75
                             6 2.75
  35  0.583  0.083  0.408-   8 2.75   4 2.75  25 2.75  26 2.75  42 2.75  27 2.75  21 2.75  36 2.75
                             5 2.75
  36  0.667  0.917  0.500-  26 2.75  48 2.75  34 2.75   5 2.75   8 2.75  45 2.75  17 2.75  16 2.75
                             6 2.75  35 2.75  25 2.75  28 2.75
  37  0.167  0.917  0.500-  44 2.75   1 2.75  19 2.75  13 2.75  40 2.75  14 2.75  46 2.75   6 2.75
                            16 2.75  33 2.75  38 2.75  43 2.75
  38  0.333  0.833  0.408-   6 2.75   9 2.75  11 2.75  21 2.75  33 2.75  26 2.75  44 2.75  14 2.75
                            37 2.75
  39  0.250  0.500  0.592-  40 2.75   3 2.75   1 2.75  15 2.75   2 2.75  41 2.75  18 2.75  47 2.75
                            10 2.75
  40  0.167  0.667  0.500-  22 2.75  39 2.75  15 2.75  16 2.75  10 2.75  37 2.75   3 2.75  14 2.75
                            45 2.75  44 2.75   9 2.75   1 2.75
  41  0.250  0.250  0.592-  10 2.75   5 2.75  18 2.75  34 2.75  39 2.75  43 2.75  23 2.75   2 2.75
                            13 2.75
  42  0.333  0.333  0.408-   3 2.75   9 2.75  21 2.75  22 2.75  35 2.75  20 2.75   4 2.75   5 2.75
                            10 2.75
  43  0.250  0.000  0.592-  13 2.75   6 2.75   7 2.75   1 2.75  23 2.75  41 2.75  34 2.75  19 2.75
                            37 2.75
  44  0.083  0.833  0.408-  37 2.75  22 2.75  27 2.75  33 2.75   9 2.75  25 2.75  38 2.75  40 2.75
                            16 2.75
  45  0.917  0.667  0.500-  12 2.75  18 2.75  48 2.75  10 2.75  24 2.75  36 2.75  16 2.75  40 2.75
                            17 2.75  25 2.75  22 2.75  15 2.75
  46  0.917  0.167  0.500-  27 2.75  19 2.75  32 2.75  16 2.75  30 2.75  24 2.75  37 2.75  13 2.75
                             8 2.75  29 2.75  33 2.75  23 2.75
  47  0.500  0.500  0.592-  14 2.75  30 2.75   7 2.75   1 2.75   2 2.75  32 2.75  31 2.75  39 2.75
                             3 2.75
  48  0.750  0.750  0.592-  36 2.75  45 2.75  31 2.75  34 2.75  18 2.75  28 2.75   7 2.75  15 2.75
                            17 2.75
 
  LATTYP: Found a hexagonal cell.
 ALAT       =    11.0025815153
 C/A-ratio  =     2.2260035120
  
  Lattice vectors:
  
 A1 = (   5.5012907576,  -9.5285150994,   0.0000000000)
 A2 = ( -11.0025815153,   0.0000000000,   0.0000000000)
 A3 = (   0.0000000000,   0.0000000000, -24.4917850943)


Analysis of symmetry for initial positions (statically):
=====================================================================
 Subroutine PRICEL returns:
 Original cell was already a primitive cell.
 

 Routine SETGRP: Setting up the symmetry group for a 
 hexagonal supercell.


 Subroutine GETGRP returns: Found  1 space group operations
 (whereof  1 operations were pure point group operations)
 out of a pool of 24 trial point group operations.


The static configuration has the point symmetry C_1 .


Analysis of symmetry for dynamics (positions and initial velocities):
=====================================================================
 Subroutine PRICEL returns:
 Original cell was already a primitive cell.
 

 Routine SETGRP: Setting up the symmetry group for a 
 hexagonal supercell.


 Subroutine GETGRP returns: Found  1 space group operations
 (whereof  1 operations were pure point group operations)
 out of a pool of 24 trial point group operations.


The dynamic configuration has the point symmetry C_1 .
 
 
 KPOINTS: Automatic mesh                          

Automatic generation of k-mesh.
Space group operators:
 irot       det(A)        alpha          n_x          n_y          n_z        tau_x        tau_y        tau_z
    1     1.000000     0.000000     1.000000     0.000000     0.000000     0.000000     0.000000     0.000000
 
 Subroutine IBZKPT returns following result:
 ===========================================
 
 Found      6 irreducible k-points:
 
 Following reciprocal coordinates:
            Coordinates               Weight
  0.250000  0.250000  0.000000     16.000000
  0.000000  0.250000  0.000000     16.000000
 -0.250000  0.000000  0.000000     16.000000
 -0.250000  0.250000  0.000000     16.000000
  0.500000 -0.250000  0.000000     16.000000
 -0.250000  0.500000  0.000000     16.000000
 
 Following cartesian coordinates:
            Coordinates               Weight
  0.022722  0.013119  0.000000     16.000000
  0.000000  0.026237  0.000000     16.000000
 -0.022722  0.013119  0.000000     16.000000
 -0.022722  0.039356  0.000000     16.000000
  0.045444 -0.052474  0.000000     16.000000
 -0.022722  0.065593  0.000000     16.000000
 


--------------------------------------------------------------------------------------------------------




 Dimension of arrays:
   k-points           NKPTS =      6   k-points in BZ     NKDIM =      6   number of bands    NBANDS=    306
   number of dos      NEDOS =    301   number of ions     NIONS =     48
   non local maximal  LDIM  =      6   non local SUM 2l+1 LMDIM =     18
   total plane-waves  NPLWV = 349920
   max r-space proj   IRMAX =   2009   max aug-charges    IRDMAX=   8532
   dimension x,y,z NGX =    54 NGY =   54 NGZ =  120
   dimension x,y,z NGXF=   108 NGYF=  108 NGZF=  240
   support grid    NGXF=   108 NGYF=  108 NGZF=  240
   ions per type =              24  24
 NGX,Y,Z   is equivalent  to a cutoff of   8.16,  8.16,  8.15 a.u.
 NGXF,Y,Z  is equivalent  to a cutoff of  16.32, 16.32, 16.29 a.u.


 I would recommend the setting:
   dimension x,y,z NGX =    54 NGY =   54 NGZ =  120
 SYSTEM =  unknown system                          
 POSCAR =  Au Pd                                   

 Startparameter for this run:
   NWRITE =      1    write-flag & timer
   PREC   = normal    normal or accurate (medium, high low for compatibility)
   ISTART =      0    job   : 0-new  1-cont  2-samecut
   ICHARG =      2    charge: 1-file 2-atom 10-const
   ISPIN  =      1    spin polarized calculation?
   LNONCOLLINEAR =      F non collinear calculations
   LSORBIT =      F    spin-orbit coupling
   INIWAV =      1    electr: 0-lowe 1-rand  2-diag
   LASPH  =      F    aspherical Exc in radial PAW
   METAGGA=      F    non-selfconsistent MetaGGA calc.

 Electronic Relaxation 1
   ENCUT  =  400.0 eV  29.40 Ry    5.42 a.u.  17.94 17.94 39.94*2*pi/ulx,y,z
   ENINI  =  400.0     initial cutoff
   ENAUG  =  416.2 eV  augmentation charge cutoff
   NELM   =    500;   NELMIN=  2; NELMDL= -5     # of ELM steps 
   EDIFF  = 0.1E-05   stopping-criterion for ELM
   LREAL  =      T    real-space projection
   NLSPLINE    = F    spline interpolate recip. space projectors
   LCOMPAT=      F    compatible to vasp.4.4
   GGA_COMPAT  = T    GGA compatible to vasp.4.4-vasp.4.6
   LMAXPAW     = -100 max onsite density
   LMAXMIX     =    2 max onsite mixed and CHGCAR
   VOSKOWN=      1    Vosko Wilk Nusair interpolation
   ROPT   =   -0.00050  -0.00050
 Ionic relaxation
   EDIFFG = -.2E-01   stopping-criterion for IOM
   NSW    =    500    number of steps for IOM
   NBLOCK =      1;   KBLOCK =    500    inner block; outer block 
   IBRION =      2    ionic relax: 0-MD 1-quasi-New 2-CG
   NFREE  =      2    steps in history (QN), initial steepest desc. (CG)
   ISIF   =      0    stress and relaxation
   IWAVPR =     11    prediction:  0-non 1-charg 2-wave 3-comb
   ISYM   =      2    0-nonsym 1-usesym 2-fastsym
   LCORR  =      T    Harris-Foulkes like correction to forces

   POTIM  = 0.3500    time-step for ionic-motion
   TEIN   =    0.0    initial temperature
   TEBEG  =    0.0;   TEEND  =   0.0 temperature during run
   SMASS  =  -3.00    Nose mass-parameter (am)
   estimated Nose-frequenzy (Omega)   =  0.10E-29 period in steps =****** mass=  -0.277E-26a.u.
   SCALEE = 1.0000    scale energy and forces
   NPACO  =    256;   APACO  = 16.0  distance and # of slots for P.C.
   PSTRESS=    0.0 pullay stress

  Mass of Ions in am
   POMASS = 196.97106.42
  Ionic Valenz
   ZVAL   =  11.00 10.00
  Atomic Wigner-Seitz radii
   RWIGS  =  -1.00 -1.00
  virtual crystal weights 
   VCA    =   1.00  1.00
   NELECT =     504.0000    total number of electrons
   NUPDOWN=      -1.0000    fix difference up-down

 DOS related values:
   EMIN   =  10.00;   EMAX   =-10.00  energy-range for DOS
   EFERMI =   0.00
   ISMEAR =     0;   SIGMA  =   0.10  broadening in eV -4-tet -1-fermi 0-gaus

 Electronic relaxation 2 (details)
   IALGO  =     68    algorithm
   LDIAG  =      T    sub-space diagonalisation (order eigenvalues)
   LSUBROT=      F    optimize rotation matrix (better conditioning)
   TURBO    =      0    0=normal 1=particle mesh
   IRESTART =      0    0=no restart 2=restart with 2 vectors
   NREBOOT  =      0    no. of reboots
   NMIN     =      0    reboot dimension
   EREF     =   0.00    reference energy to select bands
   IMIX   =      4    mixing-type and parameters
     AMIX     =   0.40;   BMIX     =  1.00
     AMIX_MAG =   1.60;   BMIX_MAG =  1.00
     AMIN     =   0.10
     WC   =   100.;   INIMIX=   1;  MIXPRE=   1;  MAXMIX= -45

 Intra band minimization:
   WEIMIN = 0.0010     energy-eigenvalue tresh-hold
   EBREAK =  0.82E-09  absolut break condition
   DEPER  =   0.30     relativ break condition  

   TIME   =   0.40     timestep for ELM

  volume/ion in A,a.u.               =      53.49       360.99
  Fermi-wavevector in a.u.,A,eV,Ry     =   0.951418  1.797920 12.315955  0.905197
  Thomas-Fermi vector in A             =   2.079887
 
 Write flags
   LWAVE  =      F    write WAVECAR
   LCHARG =      F    write CHGCAR
   LVTOT  =      F    write LOCPOT, total local potential
   LVHAR  =      F    write LOCPOT, Hartree potential only
   LELF   =      F    write electronic localiz. function (ELF)
   LORBIT =      0    0 simple, 1 ext, 2 COOP (PROOUT)


 Dipole corrections
   LMONO  =      F    monopole corrections only (constant potential shift)
   LDIPOL =      T    correct potential (dipole corrections)
   IDIPOL =      3    1-x, 2-y, 3-z, 4-all directions 
   EPSILON=  1.0000000 bulk dielectric constant

 Exchange correlation treatment:
   GGA     =    PE    GGA type
   LEXCH   =     8    internal setting for exchange type
   VOSKOWN=      1    Vosko Wilk Nusair interpolation
   LHFCALC =     F    Hartree Fock is set to
   LHFONE  =     F    Hartree Fock one center treatment
   AEXX    =    0.0000 exact exchange contribution

 Linear response parameters
   LEPSILON=     F    determine dielectric tensor
   LRPA    =     F    only Hartree local field effects (RPA)
   LNABLA  =     F    use nabla operator in PAW spheres
   LVEL    =     F    velocity operator in full k-point grid
   LINTERFAST=   F  fast interpolation
   KINTER  =     0    interpolate to denser k-point grid
   CSHIFT  =0.1000    complex shift for real part using Kramers Kronig
   OMEGAMAX=  -1.0    maximum frequency
   DEG_THRESHOLD= 0.2000000E-02 threshold for treating states as degnerate
   RTIME   =    0.100 relaxation time in fs

 Orbital magnetization related:
   ORBITALMAG=     F  switch on orbital magnetization
   LCHIMAG   =     F  perturbation theory with respect to B field
   DQ        =  0.001000  dq finite difference perturbation B field



--------------------------------------------------------------------------------------------------------


 conjugate gradient relaxation of ions
 charge density and potential will be updated during run
 non-spin polarized calculation
 RMM-DIIS sequential band-by-band and
  variant of blocked Davidson during initial phase
 perform sub-space diagonalisation
    before iterative eigenvector-optimisation
 modified Broyden-mixing scheme, WC =      100.0
 initial mixing is a Kerker type mixing with AMIX =  0.4000 and BMIX =      1.0000
 Hartree-type preconditioning will be used
 using additional bands           54
 real space projection scheme for non local part
 use partial core corrections
 calculate Harris-corrections to forces 
   (improved forces if not selfconsistent)
 use gradient corrections 
 use of overlap-Matrix (Vanderbilt PP)
 Gauss-broadening in eV      SIGMA  =   0.10


--------------------------------------------------------------------------------------------------------


  energy-cutoff  :      400.00
  volume of cell :     2567.68
      direct lattice vectors                 reciprocal lattice vectors
    11.002581515  0.000000000  0.000000000     0.090887761 -0.052474073  0.000000000
     5.501290758  9.528515099  0.000000000     0.000000000  0.104948147  0.000000000
     0.000000000  0.000000000 24.491785094     0.000000000  0.000000000  0.040830017

  length of vectors
    11.002581515 11.002581515 24.491785094     0.104948147  0.104948147  0.040830017


 
 k-points in units of 2pi/SCALE and weight: Automatic mesh                          
   0.02272194  0.01311852  0.00000000       0.167
   0.00000000  0.02623704  0.00000000       0.167
  -0.02272194  0.01311852  0.00000000       0.167
  -0.02272194  0.03935555  0.00000000       0.167
   0.04544388 -0.05247407  0.00000000       0.167
  -0.02272194  0.06559259  0.00000000       0.167
 
 k-points in reciprocal lattice and weights: Automatic mesh                          
   0.25000000  0.25000000  0.00000000       0.167
   0.00000000  0.25000000  0.00000000       0.167
  -0.25000000  0.00000000  0.00000000       0.167
  -0.25000000  0.25000000  0.00000000       0.167
   0.50000000 -0.25000000  0.00000000       0.167
  -0.25000000  0.50000000  0.00000000       0.167
 
 position of ions in fractional coordinates (direct lattice) 
   0.25000000  0.75000000  0.59169983
   0.50000000  0.25000000  0.59169983
   0.41666667  0.41666667  0.50000000
   0.58333333  0.33333333  0.40830017
   0.41666667  0.16666667  0.50000000
   0.41666667  0.91666667  0.50000000
   0.50000000  0.75000000  0.59169983
   0.66666667  0.16666667  0.50000000
   0.33333333  0.58333333  0.40830017
   0.16666667  0.41666667  0.50000000
   0.58333333  0.58333333  0.40830017
   0.83333333  0.58333333  0.40830017
   0.16666667  0.16666667  0.50000000
   0.41666667  0.66666667  0.50000000
   0.00000000  0.75000000  0.59169983
   0.91666667  0.91666667  0.50000000
   0.66666667  0.66666667  0.50000000
   0.00000000  0.50000000  0.59169983
   0.00000000  0.00000000  0.59169983
   0.08333333  0.33333333  0.40830017
   0.33333333  0.08333333  0.40830017
   0.08333333  0.58333333  0.40830017
   0.00000000  0.25000000  0.59169983
   0.91666667  0.41666667  0.50000000
   0.83333333  0.83333333  0.40830017
   0.58333333  0.83333333  0.40830017
   0.83333333  0.08333333  0.40830017
   0.75000000  0.00000000  0.59169983
   0.83333333  0.33333333  0.40830017
   0.66666667  0.41666667  0.50000000
   0.75000000  0.50000000  0.59169983
   0.75000000  0.25000000  0.59169983
   0.08333333  0.08333333  0.40830017
   0.50000000  0.00000000  0.59169983
   0.58333333  0.08333333  0.40830017
   0.66666667  0.91666667  0.50000000
   0.16666667  0.91666667  0.50000000
   0.33333333  0.83333333  0.40830017
   0.25000000  0.50000000  0.59169983
   0.16666667  0.66666667  0.50000000
   0.25000000  0.25000000  0.59169983
   0.33333333  0.33333333  0.40830017
   0.25000000  0.00000000  0.59169983
   0.08333333  0.83333333  0.40830017
   0.91666667  0.66666667  0.50000000
   0.91666667  0.16666667  0.50000000
   0.50000000  0.50000000  0.59169983
   0.75000000  0.75000000  0.59169983
 
 position of ions in cartesian coordinates  (Angst):
   6.87661345  7.14638632 14.49178509
   6.87661345  2.38212877 14.49178509
   6.87661345  3.97021462 12.24589255
   8.25193614  3.17617170 10.00000000
   5.50129076  1.58808585 12.24589255
   9.62725883  8.73447217 12.24589255
   9.62725883  7.14638632 14.49178509
   8.25193614  1.58808585 12.24589255
   6.87661345  5.55830047 10.00000000
   4.12596807  3.97021462 12.24589255
   9.62725883  5.55830047 10.00000000
  12.37790420  5.55830047 10.00000000
   2.75064538  1.58808585 12.24589255
   8.25193614  6.35234340 12.24589255
   4.12596807  7.14638632 14.49178509
  15.12854958  8.73447217 12.24589255
  11.00258152  6.35234340 12.24589255
   2.75064538  4.76425755 14.49178509
   0.00000000  0.00000000 14.49178509
   2.75064538  3.17617170 10.00000000
   4.12596807  0.79404292 10.00000000
   4.12596807  5.55830047 10.00000000
   1.37532269  2.38212877 14.49178509
  12.37790420  3.97021462 12.24589255
  13.75322689  7.94042925 10.00000000
  11.00258152  7.94042925 10.00000000
   9.62725883  0.79404292 10.00000000
   8.25193614  0.00000000 14.49178509
  11.00258152  3.17617170 10.00000000
   9.62725883  3.97021462 12.24589255
  11.00258152  4.76425755 14.49178509
   9.62725883  2.38212877 14.49178509
   1.37532269  0.79404292 10.00000000
   5.50129076  0.00000000 14.49178509
   6.87661345  0.79404292 10.00000000
  12.37790420  8.73447217 12.24589255
   6.87661345  8.73447217 12.24589255
   8.25193614  7.94042925 10.00000000
   5.50129076  4.76425755 14.49178509
   5.50129076  6.35234340 12.24589255
   4.12596807  2.38212877 14.49178509
   5.50129076  3.17617170 10.00000000
   2.75064538  0.00000000 14.49178509
   5.50129076  7.94042925 10.00000000
  13.75322689  6.35234340 12.24589255
  11.00258152  1.58808585 12.24589255
   8.25193614  4.76425755 14.49178509
  12.37790420  7.14638632 14.49178509
 


--------------------------------------------------------------------------------------------------------


 k-point  1 :   0.2500 0.2500 0.0000  plane waves:   46635
 k-point  2 :   0.0000 0.2500 0.0000  plane waves:   46635
 k-point  3 :  -0.2500 0.0000 0.0000  plane waves:   46635
 k-point  4 :  -0.2500 0.2500 0.0000  plane waves:   46644
 k-point  5 :   0.5000-0.2500 0.0000  plane waves:   46644
 k-point  6 :  -0.2500 0.5000 0.0000  plane waves:   46644

 maximum and minimum number of plane-waves per node :      7818     7732

 maximum number of plane-waves:     46644
 maximum index in each direction: 
   IXMAX=   18   IYMAX=   18   IZMAX=   39
   IXMIN=  -18   IYMIN=  -18   IZMIN=  -39

 WARNING: aliasing errors must be expected set NGX to  74 to avoid them
 WARNING: aliasing errors must be expected set NGY to  74 to avoid them
 WARNING: aliasing errors must be expected set NGZ to 158 to avoid them
 aliasing errors are usually negligible using standard VASP settings
 and one can safely disregard these warnings

 real space projection operators:
  total allocation   :      12803.06 KBytes
  max/ min on nodes  :       2145.66       2127.94


 parallel 3D FFT for wavefunctions:
    minimum data exchange during FFTs selected (reduces bandwidth)
 parallel 3D FFT for charge:
    minimum data exchange during FFTs selected (reduces bandwidth)


 total amount of memory used by VASP on root node    84353. kBytes
========================================================================

   base      :      30000. kBytes
   nonlr-proj:       4285. kBytes
   fftplans  :       4447. kBytes
   grid      :       6721. kBytes
   one-center:        124. kBytes
   wavefun   :      38776. kBytes
 
     INWAV:  cpu time    0.0000: real time    0.0001
 Broyden mixing: mesh for mixing (old mesh)
   NGX = 35   NGY = 35   NGZ = 79
  (NGX  =108   NGY  =108   NGZ  =240)
  gives a total of  96775 points

 initial charge density was supplied:
 charge density of overlapping atoms calculated
 number of electron     504.0000000 magnetization 
 keeping initial charge density in first step


--------------------------------------------------------------------------------------------------------


 Maximum index for non-local projection operator          355
 Maximum index for augmentation-charges          437 (set IRDMAX)


--------------------------------------------------------------------------------------------------------


 First call to EWALD:  gamma=   0.129
 Maximum number of real-space cells 4x 4x 2
 Maximum number of reciprocal cells 2x 2x 5

 FEWALD executed in parallel
    FEWALD:  cpu time    0.0023: real time    0.0023


----------------------------------------- Iteration    1(   1)  ---------------------------------------


    POTLOK:  cpu time    0.0526: real time    0.0528
    SETDIJ:  cpu time    0.0061: real time    0.0062
     EDDAV:  cpu time    9.6468: real time    9.6814
       DOS:  cpu time    0.0014: real time    0.0014
    --------------------------------------------
      LOOP:  cpu time    9.7122: real time    9.7496

 eigenvalue-minimisations  :  3672
 total energy-change (2. order) : 0.3201448E+04  (-0.1897860E+05)
 number of electron     504.0000000 magnetization 
 augmentation part      504.0000000 magnetization 

 DIPCOR: dipole corrections for dipol
 direction  3 min pos     1,
 dipolmoment           0.000000      0.000000      0.000000 electrons x Angstroem
 Tr[quadrupol]    -10323.559080

 energy correction for charged system         0.000000 eV
 dipol+quadrupol energy correction           -0.000000 eV
 added-field ion interaction          0.000000 eV  (added to PSCEN)


 Free energy of the ion-electron system (eV)
  ---------------------------------------------------
  alpha Z        PSCENC =       805.86936429
  Ewald energy   TEWEN  =    200633.13100503
  -Hartree energ DENC   =   -243049.35963275
  -exchange      EXHF   =         0.00000000
  -V(xc)+E(xc)   XCENC  =      -327.49238046
  PAW double counting   =     40340.05962942   -38292.62782345
  entropy T*S    EENTRO =        -0.13234357
  eigenvalues    EBANDS =      1432.21381804
  atomic energy  EATOM  =     41659.78587232
  Solvation  Ediel_sol  =         0.00000000
  ---------------------------------------------------
  free energy    TOTEN  =      3201.44750887 eV

  energy without entropy =     3201.57985244  energy(sigma->0) =     3201.51368065


--------------------------------------------------------------------------------------------------------




----------------------------------------- Iteration    1(   2)  ---------------------------------------


     EDDAV:  cpu time   11.1391: real time   11.2449
       DOS:  cpu time    0.0014: real time    0.0014
    --------------------------------------------
      LOOP:  cpu time   11.1411: real time   11.2501

 eigenvalue-minimisations  :  4392
 total energy-change (2. order) :-0.3187171E+04  (-0.2930321E+04)
 number of electron     504.0000000 magnetization 
 augmentation part      504.0000000 magnetization 

 DIPCOR: dipole corrections for dipol
 direction  3 min pos     1,
 dipolmoment           0.000000      0.000000      0.000000 electrons x Angstroem
 Tr[quadrupol]    -10323.559080

 energy correction for charged system         0.000000 eV
 dipol+quadrupol energy correction           -0.000000 eV
 added-field ion interaction          0.000000 eV  (added to PSCEN)


 Free energy of the ion-electron system (eV)
  ---------------------------------------------------
  alpha Z        PSCENC =       805.86936429
  Ewald energy   TEWEN  =    200633.13100503
  -Hartree energ DENC   =   -243049.35963275
  -exchange      EXHF   =         0.00000000
  -V(xc)+E(xc)   XCENC  =      -327.49238046
  PAW double counting   =     40340.05962942   -38292.62782345
  entropy T*S    EENTRO =        -0.12450733
  eigenvalues    EBANDS =     -1754.96486943
  atomic energy  EATOM  =     41659.78587232
  Solvation  Ediel_sol  =         0.00000000
  ---------------------------------------------------
  free energy    TOTEN  =        14.27665764 eV

  energy without entropy =       14.40116497  energy(sigma->0) =       14.33891130


--------------------------------------------------------------------------------------------------------




----------------------------------------- Iteration    1(   3)  ---------------------------------------


     EDDAV:  cpu time   10.6582: real time   10.6967
       DOS:  cpu time    0.0013: real time    0.0013
    --------------------------------------------
      LOOP:  cpu time   10.6604: real time   10.7016

 eigenvalue-minimisations  :  4140
 total energy-change (2. order) :-0.2139369E+03  (-0.1992749E+03)
 number of electron     504.0000000 magnetization 
 augmentation part      504.0000000 magnetization 

 DIPCOR: dipole corrections for dipol
 direction  3 min pos     1,
 dipolmoment           0.000000      0.000000      0.000000 electrons x Angstroem
 Tr[quadrupol]    -10323.559080

 energy correction for charged system         0.000000 eV
 dipol+quadrupol energy correction           -0.000000 eV
 added-field ion interaction          0.000000 eV  (added to PSCEN)


 Free energy of the ion-electron system (eV)
  ---------------------------------------------------
  alpha Z        PSCENC =       805.86936429
  Ewald energy   TEWEN  =    200633.13100503
  -Hartree energ DENC   =   -243049.35963275
  -exchange      EXHF   =         0.00000000
  -V(xc)+E(xc)   XCENC  =      -327.49238046
  PAW double counting   =     40340.05962942   -38292.62782345
  entropy T*S    EENTRO =        -0.22273348
  eigenvalues    EBANDS =     -1968.80351251
  atomic energy  EATOM  =     41659.78587232
  Solvation  Ediel_sol  =         0.00000000
  ---------------------------------------------------
  free energy    TOTEN  =      -199.66021160 eV

  energy without entropy =     -199.43747812  energy(sigma->0) =     -199.54884486


--------------------------------------------------------------------------------------------------------




----------------------------------------- Iteration    1(   4)  ---------------------------------------


     EDDAV:  cpu time   10.8902: real time   10.9228
       DOS:  cpu time    0.0014: real time    0.0014
    --------------------------------------------
      LOOP:  cpu time   10.8922: real time   10.9266

 eigenvalue-minimisations  :  4284
 total energy-change (2. order) :-0.5707794E+01  (-0.5644250E+01)
 number of electron     504.0000000 magnetization 
 augmentation part      504.0000000 magnetization 

 DIPCOR: dipole corrections for dipol
 direction  3 min pos     1,
 dipolmoment           0.000000      0.000000      0.000000 electrons x Angstroem
 Tr[quadrupol]    -10323.559080

 energy correction for charged system         0.000000 eV
 dipol+quadrupol energy correction           -0.000000 eV
 added-field ion interaction          0.000000 eV  (added to PSCEN)


 Free energy of the ion-electron system (eV)
  ---------------------------------------------------
  alpha Z        PSCENC =       805.86936429
  Ewald energy   TEWEN  =    200633.13100503
  -Hartree energ DENC   =   -243049.35963275
  -exchange      EXHF   =         0.00000000
  -V(xc)+E(xc)   XCENC  =      -327.49238046
  PAW double counting   =     40340.05962942   -38292.62782345
  entropy T*S    EENTRO =        -0.23048699
  eigenvalues    EBANDS =     -1974.50355347
  atomic energy  EATOM  =     41659.78587232
  Solvation  Ediel_sol  =         0.00000000
  ---------------------------------------------------
  free energy    TOTEN  =      -205.36800606 eV

  energy without entropy =     -205.13751907  energy(sigma->0) =     -205.25276257


--------------------------------------------------------------------------------------------------------




----------------------------------------- Iteration    1(   5)  ---------------------------------------


     EDDAV:  cpu time   11.1970: real time   11.2318
       DOS:  cpu time    0.0015: real time    0.0015
    CHARGE:  cpu time    0.2225: real time    0.2230
    MIXING:  cpu time    0.0025: real time    0.0026
    --------------------------------------------
      LOOP:  cpu time   11.4243: real time   11.4624

 eigenvalue-minimisations  :  4416
 total energy-change (2. order) :-0.1838868E+00  (-0.1833538E+00)
 number of electron     503.9998406 magnetization 
 augmentation part      191.3850108 magnetization 

 DIPCOR: dipole corrections for dipol
 direction  3 min pos     1,
 dipolmoment           0.000000      0.000000      0.000000 electrons x Angstroem
 Tr[quadrupol]    -10323.559080

 energy correction for charged system         0.000000 eV
 dipol+quadrupol energy correction           -0.000000 eV
 added-field ion interaction          0.000000 eV  (added to PSCEN)


 Broyden mixing:
  rms(total) = 0.62726E+01    rms(broyden)= 0.62726E+01
  rms(prec ) = 0.63873E+01
  weight for this iteration     100.00

 Free energy of the ion-electron system (eV)
  ---------------------------------------------------
  alpha Z        PSCENC =       805.86936429
  Ewald energy   TEWEN  =    200633.13100503
  -Hartree energ DENC   =   -243049.35963275
  -exchange      EXHF   =         0.00000000
  -V(xc)+E(xc)   XCENC  =      -327.49238046
  PAW double counting   =     40340.05962942   -38292.62782345
  entropy T*S    EENTRO =        -0.22977056
  eigenvalues    EBANDS =     -1974.68815668
  atomic energy  EATOM  =     41659.78587232
  Solvation  Ediel_sol  =         0.00000000
  ---------------------------------------------------
  free energy    TOTEN  =      -205.55189284 eV

  energy without entropy =     -205.32212228  energy(sigma->0) =     -205.43700756


--------------------------------------------------------------------------------------------------------




----------------------------------------- Iteration    1(   6)  ---------------------------------------


    POTLOK:  cpu time    0.0486: real time    0.0488
    SETDIJ:  cpu time    0.0054: real time    0.0057
    EDDIAG:  cpu time    1.6144: real time    1.6993
  RMM-DIIS:  cpu time    5.3892: real time    5.4045
    ORTHCH:  cpu time    0.3885: real time    0.3904
       DOS:  cpu time    0.0014: real time    0.0014
    CHARGE:  cpu time    0.2304: real time    0.2309
    MIXING:  cpu time    0.0025: real time    0.0025
    --------------------------------------------
      LOOP:  cpu time    7.6812: real time    7.7882

 eigenvalue-minimisations  :  3678
 total energy-change (2. order) : 0.8192670E+01  (-0.9103769E+01)
 number of electron     503.9998417 magnetization 
 augmentation part      192.2996507 magnetization 

 DIPCOR: dipole corrections for dipol
 direction  3 min pos     1,
 dipolmoment           0.000000      0.000000      0.004316 electrons x Angstroem
 Tr[quadrupol]    -10323.552889

 energy correction for charged system         0.000000 eV
 dipol+quadrupol energy correction           -0.000001 eV
 added-field ion interaction          0.000000 eV  (added to PSCEN)


 Broyden mixing:
  rms(total) = 0.53938E+01    rms(broyden)= 0.53937E+01
  rms(prec ) = 0.55237E+01
  weight for this iteration     100.00

 eigenvalues of (default mixing * dielectric matrix)
  average eigenvalue GAMMA=   0.8089
  0.8089

 Free energy of the ion-electron system (eV)
  ---------------------------------------------------
  alpha Z        PSCENC =       805.86936363
  Ewald energy   TEWEN  =    200633.13100503
  -Hartree energ DENC   =   -242752.95359548
  -exchange      EXHF   =         0.00000000
  -V(xc)+E(xc)   XCENC  =      -339.77821599
  PAW double counting   =     43943.85444565   -41955.41497675
  entropy T*S    EENTRO =        -0.23382412
  eigenvalues    EBANDS =     -2191.61929740
  atomic energy  EATOM  =     41659.78587232
  Solvation  Ediel_sol  =         0.00000000
  ---------------------------------------------------
  free energy    TOTEN  =      -197.35922311 eV

  energy without entropy =     -197.12539899  energy(sigma->0) =     -197.24231105


--------------------------------------------------------------------------------------------------------




----------------------------------------- Iteration    1(   7)  ---------------------------------------


    POTLOK:  cpu time    0.0482: real time    0.0484
    SETDIJ:  cpu time    0.0054: real time    0.0054
    EDDIAG:  cpu time    1.6698: real time    1.6827
  RMM-DIIS:  cpu time    5.3770: real time    5.3919
    ORTHCH:  cpu time    0.3900: real time    0.3912
       DOS:  cpu time    0.0014: real time    0.0014
    CHARGE:  cpu time    0.2219: real time    0.2224
    MIXING:  cpu time    0.0025: real time    0.0025
    --------------------------------------------
      LOOP:  cpu time    7.7170: real time    7.7489

 eigenvalue-minimisations  :  3683
 total energy-change (2. order) :-0.3689461E+00  (-0.4507224E+01)
 number of electron     503.9998359 magnetization 
 augmentation part      197.4170966 magnetization 

 DIPCOR: dipole corrections for dipol
 direction  3 min pos     1,
 dipolmoment           0.000000      0.000000      0.431874 electrons x Angstroem
 Tr[quadrupol]    -10323.709890

 energy correction for charged system         0.000000 eV
 dipol+quadrupol energy correction           -0.006572 eV
 added-field ion interaction          0.000000 eV  (added to PSCEN)


 Broyden mixing:
  rms(total) = 0.34547E+01    rms(broyden)= 0.34545E+01
  rms(prec ) = 0.37195E+01
  weight for this iteration     100.00

 eigenvalues of (default mixing * dielectric matrix)
  average eigenvalue GAMMA=   1.1338
  1.8072  0.4604

 Free energy of the ion-electron system (eV)
  ---------------------------------------------------
  alpha Z        PSCENC =       805.86279198
  Ewald energy   TEWEN  =    200633.13100503
  -Hartree energ DENC   =   -242649.06778547
  -exchange      EXHF   =         0.00000000
  -V(xc)+E(xc)   XCENC  =      -342.38525256
  PAW double counting   =     45607.62256426   -43647.04969697
  entropy T*S    EENTRO =        -0.16630411
  eigenvalues    EBANDS =     -2265.46136370
  atomic energy  EATOM  =     41659.78587232
  Solvation  Ediel_sol  =         0.00000000
  ---------------------------------------------------
  free energy    TOTEN  =      -197.72816921 eV

  energy without entropy =     -197.56186509  energy(sigma->0) =     -197.64501715


--------------------------------------------------------------------------------------------------------




----------------------------------------- Iteration    1(   8)  ---------------------------------------


    POTLOK:  cpu time    0.0474: real time    0.0475
    SETDIJ:  cpu time    0.0055: real time    0.0055
    EDDIAG:  cpu time    1.6677: real time    1.6723
  RMM-DIIS:  cpu time    5.3581: real time    5.3728
    ORTHCH:  cpu time    0.3919: real time    0.3936
       DOS:  cpu time    0.0014: real time    0.0014
    CHARGE:  cpu time    0.2330: real time    0.2339
    MIXING:  cpu time    0.0026: real time    0.0026
    --------------------------------------------
      LOOP:  cpu time    7.7087: real time    7.7324

 eigenvalue-minimisations  :  3678
 total energy-change (2. order) :-0.1949575E+02  (-0.6381895E+01)
 number of electron     503.9998370 magnetization 
 augmentation part      195.4590215 magnetization 

 DIPCOR: dipole corrections for dipol
 direction  3 min pos     1,
 dipolmoment           0.000000      0.000000     -1.682849 electrons x Angstroem
 Tr[quadrupol]    -10325.786834

 energy correction for charged system         0.000000 eV
 dipol+quadrupol energy correction           -0.099791 eV
 added-field ion interaction          0.000000 eV  (added to PSCEN)


 Broyden mixing:
  rms(total) = 0.39880E+01    rms(broyden)= 0.39877E+01
  rms(prec ) = 0.49841E+01
  weight for this iteration     100.00

 eigenvalues of (default mixing * dielectric matrix)
  average eigenvalue GAMMA=   1.0224
  2.2298  0.5340  0.3033

 Free energy of the ion-electron system (eV)
  ---------------------------------------------------
  alpha Z        PSCENC =       805.76957281
  Ewald energy   TEWEN  =    200633.13100503
  -Hartree energ DENC   =   -242670.86320491
  -exchange      EXHF   =         0.00000000
  -V(xc)+E(xc)   XCENC  =      -344.19755033
  PAW double counting   =     48050.83272406   -46120.22527590
  entropy T*S    EENTRO =        -0.28555439
  eigenvalues    EBANDS =     -2231.17150968
  atomic energy  EATOM  =     41659.78587232
  Solvation  Ediel_sol  =         0.00000000
  ---------------------------------------------------
  free energy    TOTEN  =      -217.22392099 eV

  energy without entropy =     -216.93836660  energy(sigma->0) =     -217.08114379


--------------------------------------------------------------------------------------------------------




----------------------------------------- Iteration    1(   9)  ---------------------------------------


    POTLOK:  cpu time    0.0481: real time    0.0482
    SETDIJ:  cpu time    0.0055: real time    0.0055
    EDDIAG:  cpu time    1.6762: real time    1.6820
  RMM-DIIS:  cpu time    5.3755: real time    5.3918
    ORTHCH:  cpu time    0.3837: real time    0.3969
       DOS:  cpu time    0.0014: real time    0.0014
    CHARGE:  cpu time    0.2260: real time    0.2265
    MIXING:  cpu time    0.0028: real time    0.0028
    --------------------------------------------
      LOOP:  cpu time    7.7201: real time    7.7579

 eigenvalue-minimisations  :  3677
 total energy-change (2. order) : 0.8405899E+01  (-0.3393439E+01)
 number of electron     503.9998353 magnetization 
 augmentation part      196.6694189 magnetization 

 DIPCOR: dipole corrections for dipol
 direction  3 min pos     1,
 dipolmoment           0.000000      0.000000      0.998161 electrons x Angstroem
 Tr[quadrupol]    -10326.534634

 energy correction for charged system         0.000000 eV
 dipol+quadrupol energy correction           -0.035108 eV
 added-field ion interaction         -0.000000 eV  (added to PSCEN)


 Broyden mixing:
  rms(total) = 0.35727E+01    rms(broyden)= 0.35723E+01
  rms(prec ) = 0.43891E+01
  weight for this iteration     100.00

 eigenvalues of (default mixing * dielectric matrix)
  average eigenvalue GAMMA=   0.8470
  2.3073  0.5343  0.3301  0.2164

 Free energy of the ion-electron system (eV)
  ---------------------------------------------------
  alpha Z        PSCENC =       805.83425642
  Ewald energy   TEWEN  =    200633.13100503
  -Hartree energ DENC   =   -242672.55430778
  -exchange      EXHF   =         0.00000000
  -V(xc)+E(xc)   XCENC  =      -345.23354048
  PAW double counting   =     49062.87363459   -47146.97730483
  entropy T*S    EENTRO =        -0.21082675
  eigenvalues    EBANDS =     -2205.46681041
  atomic energy  EATOM  =     41659.78587232
  Solvation  Ediel_sol  =         0.00000000
  ---------------------------------------------------
  free energy    TOTEN  =      -208.81802189 eV

  energy without entropy =     -208.60719514  energy(sigma->0) =     -208.71260851


--------------------------------------------------------------------------------------------------------




----------------------------------------- Iteration    1(  10)  ---------------------------------------


    POTLOK:  cpu time    0.0481: real time    0.0487
    SETDIJ:  cpu time    0.0059: real time    0.0059
    EDDIAG:  cpu time    1.6874: real time    1.6932
  RMM-DIIS:  cpu time    5.3649: real time    5.3799
    ORTHCH:  cpu time    0.3852: real time    0.3861
       DOS:  cpu time    0.0014: real time    0.0014
    CHARGE:  cpu time    0.2283: real time    0.2289
    MIXING:  cpu time    0.0029: real time    0.0029
    --------------------------------------------
      LOOP:  cpu time    7.7251: real time    7.7509

 eigenvalue-minimisations  :  3681
 total energy-change (2. order) : 0.1582134E+02  (-0.1484185E+01)
 number of electron     503.9998335 magnetization 
 augmentation part      199.1272627 magnetization 

 DIPCOR: dipole corrections for dipol
 direction  3 min pos     1,
 dipolmoment           0.000000      0.000000     -0.005443 electrons x Angstroem
 Tr[quadrupol]    -10326.189646

 energy correction for charged system         0.000000 eV
 dipol+quadrupol energy correction           -0.000001 eV
 added-field ion interaction          0.000000 eV  (added to PSCEN)


 Broyden mixing:
  rms(total) = 0.16955E+01    rms(broyden)= 0.16952E+01
  rms(prec ) = 0.19102E+01
  weight for this iteration     100.00

 eigenvalues of (default mixing * dielectric matrix)
  average eigenvalue GAMMA=   0.7564
  2.2764  0.5015  0.5015  0.3001  0.2025

 Free energy of the ion-electron system (eV)
  ---------------------------------------------------
  alpha Z        PSCENC =       805.86936324
  Ewald energy   TEWEN  =    200633.13100503
  -Hartree energ DENC   =   -242660.74375698
  -exchange      EXHF   =         0.00000000
  -V(xc)+E(xc)   XCENC  =      -345.33276761
  PAW double counting   =     49297.58428216   -47385.26290347
  entropy T*S    EENTRO =        -0.18857246
  eigenvalues    EBANDS =     -2197.83920351
  atomic energy  EATOM  =     41659.78587232
  Solvation  Ediel_sol  =         0.00000000
  ---------------------------------------------------
  free energy    TOTEN  =      -192.99668126 eV

  energy without entropy =     -192.80810881  energy(sigma->0) =     -192.90239504


--------------------------------------------------------------------------------------------------------




----------------------------------------- Iteration    1(  11)  ---------------------------------------


    POTLOK:  cpu time    0.0477: real time    0.0478
    SETDIJ:  cpu time    0.0062: real time    0.0062
    EDDIAG:  cpu time    1.6610: real time    1.6923
  RMM-DIIS:  cpu time    5.3648: real time    5.4425
    ORTHCH:  cpu time    0.3851: real time    0.3863
       DOS:  cpu time    0.0013: real time    0.0013
    CHARGE:  cpu time    0.2222: real time    0.2227
    MIXING:  cpu time    0.0029: real time    0.0029
    --------------------------------------------
      LOOP:  cpu time    7.6920: real time    7.8066

 eigenvalue-minimisations  :  3680
 total energy-change (2. order) : 0.3773568E+01  (-0.7544163E+00)
 number of electron     503.9998351 magnetization 
 augmentation part      198.5865411 magnetization 

 DIPCOR: dipole corrections for dipol
 direction  3 min pos     1,
 dipolmoment           0.000000      0.000000      0.000390 electrons x Angstroem
 Tr[quadrupol]    -10325.493321

 energy correction for charged system         0.000000 eV
 dipol+quadrupol energy correction           -0.000000 eV
 added-field ion interaction          0.000000 eV  (added to PSCEN)


 Broyden mixing:
  rms(total) = 0.89384E+00    rms(broyden)= 0.89360E+00
  rms(prec ) = 0.98550E+00
  weight for this iteration     100.00

 eigenvalues of (default mixing * dielectric matrix)
  average eigenvalue GAMMA=   0.7289
  2.2953  0.6372  0.6372  0.3113  0.2576  0.2348

 Free energy of the ion-electron system (eV)
  ---------------------------------------------------
  alpha Z        PSCENC =       805.86936428
  Ewald energy   TEWEN  =    200633.13100503
  -Hartree energ DENC   =   -242658.72968097
  -exchange      EXHF   =         0.00000000
  -V(xc)+E(xc)   XCENC  =      -344.65970208
  PAW double counting   =     49326.49074742   -47411.79253158
  entropy T*S    EENTRO =        -0.19566661
  eigenvalues    EBANDS =     -2199.12252059
  atomic energy  EATOM  =     41659.78587232
  Solvation  Ediel_sol  =         0.00000000
  ---------------------------------------------------
  free energy    TOTEN  =      -189.22311278 eV

  energy without entropy =     -189.02744617  energy(sigma->0) =     -189.12527947


--------------------------------------------------------------------------------------------------------




----------------------------------------- Iteration    1(  12)  ---------------------------------------


    POTLOK:  cpu time    0.0482: real time    0.0484
    SETDIJ:  cpu time    0.0055: real time    0.0055
    EDDIAG:  cpu time    1.6746: real time    1.6821
  RMM-DIIS:  cpu time    5.4263: real time    5.4409
    ORTHCH:  cpu time    0.3853: real time    0.3865
       DOS:  cpu time    0.0013: real time    0.0013
    CHARGE:  cpu time    0.2257: real time    0.2263
    MIXING:  cpu time    0.0030: real time    0.0030
    --------------------------------------------
      LOOP:  cpu time    7.7707: real time    7.7981

 eigenvalue-minimisations  :  3680
 total energy-change (2. order) : 0.9864864E+00  (-0.2822897E+00)
 number of electron     503.9998362 magnetization 
 augmentation part      197.4873410 magnetization 

 DIPCOR: dipole corrections for dipol
 direction  3 min pos     1,
 dipolmoment           0.000000      0.000000      0.036805 electrons x Angstroem
 Tr[quadrupol]    -10326.328505

 energy correction for charged system         0.000000 eV
 dipol+quadrupol energy correction           -0.000048 eV
 added-field ion interaction         -0.000000 eV  (added to PSCEN)


 Broyden mixing:
  rms(total) = 0.60593E+00    rms(broyden)= 0.60579E+00
  rms(prec ) = 0.66244E+00
  weight for this iteration     100.00

 eigenvalues of (default mixing * dielectric matrix)
  average eigenvalue GAMMA=   0.7085
  2.2925  0.7955  0.5320  0.5320  0.3445  0.2315  0.2315

 Free energy of the ion-electron system (eV)
  ---------------------------------------------------
  alpha Z        PSCENC =       805.86931655
  Ewald energy   TEWEN  =    200633.13100503
  -Hartree energ DENC   =   -242711.35123333
  -exchange      EXHF   =         0.00000000
  -V(xc)+E(xc)   XCENC  =      -344.03355418
  PAW double counting   =     49413.81757837   -47496.43129514
  entropy T*S    EENTRO =        -0.22188082
  eigenvalues    EBANDS =     -2148.80243516
  atomic energy  EATOM  =     41659.78587232
  Solvation  Ediel_sol  =         0.00000000
  ---------------------------------------------------
  free energy    TOTEN  =      -188.23662635 eV

  energy without entropy =     -188.01474553  energy(sigma->0) =     -188.12568594


--------------------------------------------------------------------------------------------------------




----------------------------------------- Iteration    1(  13)  ---------------------------------------


    POTLOK:  cpu time    0.0473: real time    0.0474
    SETDIJ:  cpu time    0.0056: real time    0.0056
    EDDIAG:  cpu time    1.6823: real time    1.6868
  RMM-DIIS:  cpu time    5.4561: real time    5.4710
    ORTHCH:  cpu time    0.3846: real time    0.3855
       DOS:  cpu time    0.0014: real time    0.0014
    CHARGE:  cpu time    0.2227: real time    0.2251
    MIXING:  cpu time    0.0032: real time    0.0032
    --------------------------------------------
      LOOP:  cpu time    7.8041: real time    7.8290

 eigenvalue-minimisations  :  3679
 total energy-change (2. order) :-0.2753769E-01  (-0.9700979E-01)
 number of electron     503.9998361 magnetization 
 augmentation part      197.2988722 magnetization 

 DIPCOR: dipole corrections for dipol
 direction  3 min pos     1,
 dipolmoment           0.000000      0.000000     -0.022653 electrons x Angstroem
 Tr[quadrupol]    -10326.542960

 energy correction for charged system         0.000000 eV
 dipol+quadrupol energy correction           -0.000018 eV
 added-field ion interaction          0.000000 eV  (added to PSCEN)


 Broyden mixing:
  rms(total) = 0.63704E+00    rms(broyden)= 0.63688E+00
  rms(prec ) = 0.71664E+00
  weight for this iteration     100.00

 eigenvalues of (default mixing * dielectric matrix)
  average eigenvalue GAMMA=   0.7164
  2.2822  0.9405  0.7274  0.7274  0.3103  0.3103  0.2166  0.2166

 Free energy of the ion-electron system (eV)
  ---------------------------------------------------
  alpha Z        PSCENC =       805.86934620
  Ewald energy   TEWEN  =    200633.13100503
  -Hartree energ DENC   =   -242724.55320974
  -exchange      EXHF   =         0.00000000
  -V(xc)+E(xc)   XCENC  =      -343.83593117
  PAW double counting   =     49433.20360875   -47515.05828635
  entropy T*S    EENTRO =        -0.22560115
  eigenvalues    EBANDS =     -2136.58096795
  atomic energy  EATOM  =     41659.78587232
  Solvation  Ediel_sol  =         0.00000000
  ---------------------------------------------------
  free energy    TOTEN  =      -188.26416405 eV

  energy without entropy =     -188.03856290  energy(sigma->0) =     -188.15136347


--------------------------------------------------------------------------------------------------------




----------------------------------------- Iteration    1(  14)  ---------------------------------------


    POTLOK:  cpu time    0.0476: real time    0.0477
    SETDIJ:  cpu time    0.0055: real time    0.0055
    EDDIAG:  cpu time    1.6812: real time    1.6866
  RMM-DIIS:  cpu time    5.4026: real time    5.4293
    ORTHCH:  cpu time    0.3808: real time    0.3849
       DOS:  cpu time    0.0014: real time    0.0014
    CHARGE:  cpu time    0.2242: real time    0.2271
    MIXING:  cpu time    0.0032: real time    0.0034
    --------------------------------------------
      LOOP:  cpu time    7.7474: real time    7.7901

 eigenvalue-minimisations  :  3680
 total energy-change (2. order) : 0.6360717E-01  (-0.4892754E-01)
 number of electron     503.9998361 magnetization 
 augmentation part      197.3965189 magnetization 

 DIPCOR: dipole corrections for dipol
 direction  3 min pos     1,
 dipolmoment           0.000000      0.000000      0.045462 electrons x Angstroem
 Tr[quadrupol]    -10326.719228

 energy correction for charged system         0.000000 eV
 dipol+quadrupol energy correction           -0.000073 eV
 added-field ion interaction          0.000000 eV  (added to PSCEN)


 Broyden mixing:
  rms(total) = 0.46040E+00    rms(broyden)= 0.46022E+00
  rms(prec ) = 0.52827E+00
  weight for this iteration     100.00

 eigenvalues of (default mixing * dielectric matrix)
  average eigenvalue GAMMA=   0.6976
  2.2727  0.9864  0.8364  0.8364  0.3359  0.3359  0.2729  0.2008  0.2008

 Free energy of the ion-electron system (eV)
  ---------------------------------------------------
  alpha Z        PSCENC =       805.86929146
  Ewald energy   TEWEN  =    200633.13100503
  -Hartree energ DENC   =   -242731.33945355
  -exchange      EXHF   =         0.00000000
  -V(xc)+E(xc)   XCENC  =      -343.72012649
  PAW double counting   =     49437.68950800   -47518.97892916
  entropy T*S    EENTRO =        -0.23469292
  eigenvalues    EBANDS =     -2130.40303156
  atomic energy  EATOM  =     41659.78587232
  Solvation  Ediel_sol  =         0.00000000
  ---------------------------------------------------
  free energy    TOTEN  =      -188.20055687 eV

  energy without entropy =     -187.96586395  energy(sigma->0) =     -188.08321041


--------------------------------------------------------------------------------------------------------




----------------------------------------- Iteration    1(  15)  ---------------------------------------


    POTLOK:  cpu time    0.0474: real time    0.0484
    SETDIJ:  cpu time    0.0054: real time    0.0057
    EDDIAG:  cpu time    1.6627: real time    1.6835
  RMM-DIIS:  cpu time    5.4169: real time    5.4319
    ORTHCH:  cpu time    0.3796: real time    0.3805
       DOS:  cpu time    0.0013: real time    0.0013
    CHARGE:  cpu time    0.2217: real time    0.2222
    MIXING:  cpu time    0.0036: real time    0.0036
    --------------------------------------------
      LOOP:  cpu time    7.7393: real time    7.7818

 eigenvalue-minimisations  :  3678
 total energy-change (2. order) : 0.1723586E+00  (-0.1643324E-01)
 number of electron     503.9998360 magnetization 
 augmentation part      197.4096986 magnetization 

 DIPCOR: dipole corrections for dipol
 direction  3 min pos     1,
 dipolmoment           0.000000      0.000000      0.032427 electrons x Angstroem
 Tr[quadrupol]    -10326.959609

 energy correction for charged system         0.000000 eV
 dipol+quadrupol energy correction           -0.000037 eV
 added-field ion interaction         -0.000000 eV  (added to PSCEN)


 Broyden mixing:
  rms(total) = 0.30884E+00    rms(broyden)= 0.30881E+00
  rms(prec ) = 0.34423E+00
  weight for this iteration     100.00

 eigenvalues of (default mixing * dielectric matrix)
  average eigenvalue GAMMA=   0.7014
  2.2209  1.1331  1.1331  0.7121  0.4262  0.4262  0.2745  0.2745  0.2067  0.2067

 Free energy of the ion-electron system (eV)
  ---------------------------------------------------
  alpha Z        PSCENC =       805.86932723
  Ewald energy   TEWEN  =    200633.13100503
  -Hartree energ DENC   =   -242742.52078208
  -exchange      EXHF   =         0.00000000
  -V(xc)+E(xc)   XCENC  =      -343.61648825
  PAW double counting   =     49442.05411432   -47522.63383330
  entropy T*S    EENTRO =        -0.25032246
  eigenvalues    EBANDS =     -2119.84709106
  atomic energy  EATOM  =     41659.78587232
  Solvation  Ediel_sol  =         0.00000000
  ---------------------------------------------------
  free energy    TOTEN  =      -188.02819825 eV

  energy without entropy =     -187.77787579  energy(sigma->0) =     -187.90303702


--------------------------------------------------------------------------------------------------------




----------------------------------------- Iteration    1(  16)  ---------------------------------------


    POTLOK:  cpu time    0.0477: real time    0.0479
    SETDIJ:  cpu time    0.0057: real time    0.0057
    EDDIAG:  cpu time    1.6716: real time    1.6770
  RMM-DIIS:  cpu time    5.2790: real time    5.3945
    ORTHCH:  cpu time    0.3764: real time    0.3775
       DOS:  cpu time    0.0014: real time    0.0014
    CHARGE:  cpu time    0.2259: real time    0.2264
    MIXING:  cpu time    0.0038: real time    0.0038
    --------------------------------------------
      LOOP:  cpu time    7.6124: real time    7.7389

 eigenvalue-minimisations  :  3679
 total energy-change (2. order) : 0.6361358E-01  (-0.8760961E-02)
 number of electron     503.9998361 magnetization 
 augmentation part      197.3167930 magnetization 

 DIPCOR: dipole corrections for dipol
 direction  3 min pos     1,
 dipolmoment           0.000000      0.000000      0.039519 electrons x Angstroem
 Tr[quadrupol]    -10327.169032

 energy correction for charged system         0.000000 eV
 dipol+quadrupol energy correction           -0.000055 eV
 added-field ion interaction          0.000000 eV  (added to PSCEN)


 Broyden mixing:
  rms(total) = 0.22791E+00    rms(broyden)= 0.22788E+00
  rms(prec ) = 0.26043E+00
  weight for this iteration     100.00

 eigenvalues of (default mixing * dielectric matrix)
  average eigenvalue GAMMA=   0.7549
  2.1015  2.1015  1.2736  0.5908  0.5908  0.3628  0.3007  0.3007  0.2790  0.2012
  0.2012

 Free energy of the ion-electron system (eV)
  ---------------------------------------------------
  alpha Z        PSCENC =       805.86930925
  Ewald energy   TEWEN  =    200633.13100503
  -Hartree energ DENC   =   -242754.31172271
  -exchange      EXHF   =         0.00000000
  -V(xc)+E(xc)   XCENC  =      -343.44819574
  PAW double counting   =     49439.37879857   -47518.80681752
  entropy T*S    EENTRO =        -0.25013467
  eigenvalues    EBANDS =     -2109.31269920
  atomic energy  EATOM  =     41659.78587232
  Solvation  Ediel_sol  =         0.00000000
  ---------------------------------------------------
  free energy    TOTEN  =      -187.96458467 eV

  energy without entropy =     -187.71445000  energy(sigma->0) =     -187.83951733


--------------------------------------------------------------------------------------------------------




----------------------------------------- Iteration    1(  17)  ---------------------------------------


    POTLOK:  cpu time    0.0476: real time    0.0480
    SETDIJ:  cpu time    0.0061: real time    0.0061
    EDDIAG:  cpu time    1.6866: real time    1.6946
  RMM-DIIS:  cpu time    5.4315: real time    5.4466
    ORTHCH:  cpu time    0.3765: real time    0.3781
       DOS:  cpu time    0.0014: real time    0.0014
    CHARGE:  cpu time    0.2251: real time    0.2256
    MIXING:  cpu time    0.0038: real time    0.0038
    --------------------------------------------
      LOOP:  cpu time    7.7794: real time    7.8068

 eigenvalue-minimisations  :  3678
 total energy-change (2. order) : 0.3563456E-01  (-0.8296842E-02)
 number of electron     503.9998364 magnetization 
 augmentation part      197.1767268 magnetization 

 DIPCOR: dipole corrections for dipol
 direction  3 min pos     1,
 dipolmoment           0.000000      0.000000      0.029849 electrons x Angstroem
 Tr[quadrupol]    -10327.546930

 energy correction for charged system         0.000000 eV
 dipol+quadrupol energy correction           -0.000031 eV
 added-field ion interaction          0.000000 eV  (added to PSCEN)


 Broyden mixing:
  rms(total) = 0.13704E+00    rms(broyden)= 0.13698E+00
  rms(prec ) = 0.16141E+00
  weight for this iteration     100.00

 eigenvalues of (default mixing * dielectric matrix)
  average eigenvalue GAMMA=   0.7701
  2.3492  2.3492  1.2682  0.6106  0.6106  0.4110  0.4110  0.3039  0.3039  0.2069
  0.2069  0.2100

 Free energy of the ion-electron system (eV)
  ---------------------------------------------------
  alpha Z        PSCENC =       805.86933289
  Ewald energy   TEWEN  =    200633.13100503
  -Hartree energ DENC   =   -242772.74777929
  -exchange      EXHF   =         0.00000000
  -V(xc)+E(xc)   XCENC  =      -343.22952569
  PAW double counting   =     49443.34516075   -47521.25983401
  entropy T*S    EENTRO =        -0.23899983
  eigenvalues    EBANDS =     -2092.58418228
  atomic energy  EATOM  =     41659.78587232
  Solvation  Ediel_sol  =         0.00000000
  ---------------------------------------------------
  free energy    TOTEN  =      -187.92895011 eV

  energy without entropy =     -187.68995028  energy(sigma->0) =     -187.80945019


--------------------------------------------------------------------------------------------------------




----------------------------------------- Iteration    1(  18)  ---------------------------------------


    POTLOK:  cpu time    0.0476: real time    0.0478
    SETDIJ:  cpu time    0.0059: real time    0.0059
    EDDIAG:  cpu time    1.6786: real time    1.6841
  RMM-DIIS:  cpu time    5.4374: real time    5.4522
    ORTHCH:  cpu time    0.3770: real time    0.3779
       DOS:  cpu time    0.0014: real time    0.0015
    CHARGE:  cpu time    0.2286: real time    0.2294
    MIXING:  cpu time    0.0039: real time    0.0040
    --------------------------------------------
      LOOP:  cpu time    7.7814: real time    7.8063

 eigenvalue-minimisations  :  3679
 total energy-change (2. order) : 0.1671938E-01  (-0.3024847E-02)
 number of electron     503.9998364 magnetization 
 augmentation part      197.1361130 magnetization 

 DIPCOR: dipole corrections for dipol
 direction  3 min pos     1,
 dipolmoment           0.000000      0.000000      0.011073 electrons x Angstroem
 Tr[quadrupol]    -10327.763986

 energy correction for charged system         0.000000 eV
 dipol+quadrupol energy correction           -0.000004 eV
 added-field ion interaction          0.000000 eV  (added to PSCEN)


 Broyden mixing:
  rms(total) = 0.91239E-01    rms(broyden)= 0.91216E-01
  rms(prec ) = 0.10277E+00
  weight for this iteration     100.00

 eigenvalues of (default mixing * dielectric matrix)
  average eigenvalue GAMMA=   0.7419
  2.2682  2.2682  1.3062  0.6251  0.6251  0.6288  0.3665  0.3665  0.2846  0.2846
  0.2043  0.2043  0.2124

 Free energy of the ion-electron system (eV)
  ---------------------------------------------------
  alpha Z        PSCENC =       805.86935997
  Ewald energy   TEWEN  =    200633.13100503
  -Hartree energ DENC   =   -242781.67083185
  -exchange      EXHF   =         0.00000000
  -V(xc)+E(xc)   XCENC  =      -343.16368545
  PAW double counting   =     49454.12771287   -47531.62629923
  entropy T*S    EENTRO =        -0.24226232
  eigenvalues    EBANDS =     -2084.12310206
  atomic energy  EATOM  =     41659.78587232
  Solvation  Ediel_sol  =         0.00000000
  ---------------------------------------------------
  free energy    TOTEN  =      -187.91223072 eV

  energy without entropy =     -187.66996841  energy(sigma->0) =     -187.79109957


--------------------------------------------------------------------------------------------------------




----------------------------------------- Iteration    1(  19)  ---------------------------------------


    POTLOK:  cpu time    0.0475: real time    0.0485
    SETDIJ:  cpu time    0.0055: real time    0.0055
    EDDIAG:  cpu time    1.6750: real time    1.6794
  RMM-DIIS:  cpu time    5.4117: real time    5.4304
    ORTHCH:  cpu time    0.3765: real time    0.3775
       DOS:  cpu time    0.0014: real time    0.0014
    CHARGE:  cpu time    0.2218: real time    0.2224
    MIXING:  cpu time    0.0042: real time    0.0042
    --------------------------------------------
      LOOP:  cpu time    7.7445: real time    7.7725

 eigenvalue-minimisations  :  3680
 total energy-change (2. order) : 0.7752010E-02  (-0.7991599E-03)
 number of electron     503.9998364 magnetization 
 augmentation part      197.1480441 magnetization 

 DIPCOR: dipole corrections for dipol
 direction  3 min pos     1,
 dipolmoment           0.000000      0.000000      0.009738 electrons x Angstroem
 Tr[quadrupol]    -10327.818450

 energy correction for charged system         0.000000 eV
 dipol+quadrupol energy correction           -0.000003 eV
 added-field ion interaction          0.000000 eV  (added to PSCEN)


 Broyden mixing:
  rms(total) = 0.40263E-01    rms(broyden)= 0.40247E-01
  rms(prec ) = 0.43652E-01
  weight for this iteration     100.00

 eigenvalues of (default mixing * dielectric matrix)
  average eigenvalue GAMMA=   0.7316
  2.2105  2.2105  1.3672  0.7108  0.7108  0.5095  0.5095  0.4983  0.2958  0.2958
  0.3051  0.2053  0.2053  0.2074

 Free energy of the ion-electron system (eV)
  ---------------------------------------------------
  alpha Z        PSCENC =       805.86936094
  Ewald energy   TEWEN  =    200633.13100503
  -Hartree energ DENC   =   -242782.99319146
  -exchange      EXHF   =         0.00000000
  -V(xc)+E(xc)   XCENC  =      -343.17498059
  PAW double counting   =     49460.67420052   -47538.32857991
  entropy T*S    EENTRO =        -0.24397788
  eigenvalues    EBANDS =     -2082.62418768
  atomic energy  EATOM  =     41659.78587232
  Solvation  Ediel_sol  =         0.00000000
  ---------------------------------------------------
  free energy    TOTEN  =      -187.90447871 eV

  energy without entropy =     -187.66050083  energy(sigma->0) =     -187.78248977


--------------------------------------------------------------------------------------------------------




----------------------------------------- Iteration    1(  20)  ---------------------------------------


    POTLOK:  cpu time    0.0476: real time    0.0477
    SETDIJ:  cpu time    0.0055: real time    0.0056
    EDDIAG:  cpu time    1.6657: real time    1.6704
  RMM-DIIS:  cpu time    5.3999: real time    5.4144
    ORTHCH:  cpu time    0.3752: real time    0.3763
       DOS:  cpu time    0.0014: real time    0.0014
    CHARGE:  cpu time    0.2345: real time    0.2351
    MIXING:  cpu time    0.0043: real time    0.0043
    --------------------------------------------
      LOOP:  cpu time    7.7351: real time    7.7578

 eigenvalue-minimisations  :  3679
 total energy-change (2. order) : 0.3511334E-03  (-0.2311301E-03)
 number of electron     503.9998364 magnetization 
 augmentation part      197.1558784 magnetization 

 DIPCOR: dipole corrections for dipol
 direction  3 min pos     1,
 dipolmoment           0.000000      0.000000      0.005132 electrons x Angstroem
 Tr[quadrupol]    -10327.885150

 energy correction for charged system         0.000000 eV
 dipol+quadrupol energy correction           -0.000001 eV
 added-field ion interaction         -0.000000 eV  (added to PSCEN)


 Broyden mixing:
  rms(total) = 0.35739E-01    rms(broyden)= 0.35734E-01
  rms(prec ) = 0.39008E-01
  weight for this iteration     100.00

 eigenvalues of (default mixing * dielectric matrix)
  average eigenvalue GAMMA=   0.7496
  2.2046  2.2046  1.3987  0.9852  0.9852  0.5961  0.5961  0.3915  0.3915  0.3006
  0.3006  0.2713  0.2054  0.2054  0.2071

 Free energy of the ion-electron system (eV)
  ---------------------------------------------------
  alpha Z        PSCENC =       805.86936336
  Ewald energy   TEWEN  =    200633.13100503
  -Hartree energ DENC   =   -242785.14474700
  -exchange      EXHF   =         0.00000000
  -V(xc)+E(xc)   XCENC  =      -343.17707057
  PAW double counting   =     49463.81648021   -47541.54718667
  entropy T*S    EENTRO =        -0.24400581
  eigenvalues    EBANDS =     -2080.39383845
  atomic energy  EATOM  =     41659.78587232
  Solvation  Ediel_sol  =         0.00000000
  ---------------------------------------------------
  free energy    TOTEN  =      -187.90412758 eV

  energy without entropy =     -187.66012177  energy(sigma->0) =     -187.78212467


--------------------------------------------------------------------------------------------------------




----------------------------------------- Iteration    1(  21)  ---------------------------------------


    POTLOK:  cpu time    0.0474: real time    0.0475
    SETDIJ:  cpu time    0.0055: real time    0.0055
    EDDIAG:  cpu time    1.6720: real time    1.6768
  RMM-DIIS:  cpu time    5.3302: real time    5.4437
    ORTHCH:  cpu time    0.3742: real time    0.3779
       DOS:  cpu time    0.0014: real time    0.0014
    CHARGE:  cpu time    0.2247: real time    0.2252
    MIXING:  cpu time    0.0045: real time    0.0045
    --------------------------------------------
      LOOP:  cpu time    7.6608: real time    7.7853

 eigenvalue-minimisations  :  3679
 total energy-change (2. order) : 0.4191061E-03  (-0.1427621E-03)
 number of electron     503.9998364 magnetization 
 augmentation part      197.1528803 magnetization 

 DIPCOR: dipole corrections for dipol
 direction  3 min pos     1,
 dipolmoment           0.000000      0.000000      0.004625 electrons x Angstroem
 Tr[quadrupol]    -10328.004478

 energy correction for charged system         0.000000 eV
 dipol+quadrupol energy correction           -0.000001 eV
 added-field ion interaction          0.000000 eV  (added to PSCEN)


 Broyden mixing:
  rms(total) = 0.29155E-01    rms(broyden)= 0.29151E-01
  rms(prec ) = 0.33528E-01
  weight for this iteration     100.00

 eigenvalues of (default mixing * dielectric matrix)
  average eigenvalue GAMMA=   0.7793
  2.4787  2.1122  1.3259  1.3259  1.2912  0.6172  0.6172  0.4486  0.4486  0.3084
  0.3084  0.2848  0.2848  0.2054  0.2054  0.2060

 Free energy of the ion-electron system (eV)
  ---------------------------------------------------
  alpha Z        PSCENC =       805.86936353
  Ewald energy   TEWEN  =    200633.13100503
  -Hartree energ DENC   =   -242789.53623033
  -exchange      EXHF   =         0.00000000
  -V(xc)+E(xc)   XCENC  =      -343.16252551
  PAW double counting   =     49466.22629138   -47543.95020022
  entropy T*S    EENTRO =        -0.24497983
  eigenvalues    EBANDS =     -2076.02230484
  atomic energy  EATOM  =     41659.78587232
  Solvation  Ediel_sol  =         0.00000000
  ---------------------------------------------------
  free energy    TOTEN  =      -187.90370847 eV

  energy without entropy =     -187.65872864  energy(sigma->0) =     -187.78121856


--------------------------------------------------------------------------------------------------------




----------------------------------------- Iteration    1(  22)  ---------------------------------------


    POTLOK:  cpu time    0.0477: real time    0.0479
    SETDIJ:  cpu time    0.0056: real time    0.0056
    EDDIAG:  cpu time    1.6686: real time    1.6745
  RMM-DIIS:  cpu time    5.3136: real time    5.3458
    ORTHCH:  cpu time    0.3770: real time    0.3780
       DOS:  cpu time    0.0014: real time    0.0014
    CHARGE:  cpu time    0.2276: real time    0.2284
    MIXING:  cpu time    0.0047: real time    0.0047
    --------------------------------------------
      LOOP:  cpu time    7.6470: real time    7.6919

 eigenvalue-minimisations  :  3679
 total energy-change (2. order) : 0.5633762E-03  (-0.1387424E-03)
 number of electron     503.9998364 magnetization 
 augmentation part      197.1342879 magnetization 

 DIPCOR: dipole corrections for dipol
 direction  3 min pos     1,
 dipolmoment           0.000000      0.000000      0.005757 electrons x Angstroem
 Tr[quadrupol]    -10328.173596

 energy correction for charged system         0.000000 eV
 dipol+quadrupol energy correction           -0.000001 eV
 added-field ion interaction         -0.000000 eV  (added to PSCEN)


 Broyden mixing:
  rms(total) = 0.21327E-01    rms(broyden)= 0.21324E-01
  rms(prec ) = 0.26115E-01
  weight for this iteration     100.00

 eigenvalues of (default mixing * dielectric matrix)
  average eigenvalue GAMMA=   0.7798
  2.5210  2.1200  1.5871  1.5871  1.0566  0.6233  0.6233  0.4947  0.4947  0.3471
  0.3471  0.2904  0.2904  0.2054  0.2054  0.2068  0.2566

 Free energy of the ion-electron system (eV)
  ---------------------------------------------------
  alpha Z        PSCENC =       805.86936312
  Ewald energy   TEWEN  =    200633.13100503
  -Hartree energ DENC   =   -242795.97337135
  -exchange      EXHF   =         0.00000000
  -V(xc)+E(xc)   XCENC  =      -343.13293696
  PAW double counting   =     49468.94042271   -47546.60061603
  entropy T*S    EENTRO =        -0.24374635
  eigenvalues    EBANDS =     -2069.67913759
  atomic energy  EATOM  =     41659.78587232
  Solvation  Ediel_sol  =         0.00000000
  ---------------------------------------------------
  free energy    TOTEN  =      -187.90314510 eV

  energy without entropy =     -187.65939875  energy(sigma->0) =     -187.78127192


--------------------------------------------------------------------------------------------------------




----------------------------------------- Iteration    1(  23)  ---------------------------------------


    POTLOK:  cpu time    0.0479: real time    0.0486
    SETDIJ:  cpu time    0.0055: real time    0.0055
    EDDIAG:  cpu time    1.6771: real time    1.6826
  RMM-DIIS:  cpu time    5.4047: real time    5.4198
    ORTHCH:  cpu time    0.3792: real time    0.3801
       DOS:  cpu time    0.0014: real time    0.0014
    CHARGE:  cpu time    0.2226: real time    0.2232
    MIXING:  cpu time    0.0049: real time    0.0049
    --------------------------------------------
      LOOP:  cpu time    7.7443: real time    7.7690

 eigenvalue-minimisations  :  3679
 total energy-change (2. order) : 0.1961135E-03  (-0.4653116E-04)
 number of electron     503.9998364 magnetization 
 augmentation part      197.1262966 magnetization 

 DIPCOR: dipole corrections for dipol
 direction  3 min pos     1,
 dipolmoment           0.000000      0.000000      0.003988 electrons x Angstroem
 Tr[quadrupol]    -10328.255008

 energy correction for charged system         0.000000 eV
 dipol+quadrupol energy correction           -0.000001 eV
[...]
    275       1.7013      0.00000
    276       1.8048      0.00000
    277       2.0339      0.00000
    278       2.2219      0.00000
    279       2.2591      0.00000
    280       2.3036      0.00000
    281       2.3882      0.00000
    282       2.5964      0.00000
    283       2.6787      0.00000
    284       2.9751      0.00000
    285       3.1831      0.00000
    286       3.2796      0.00000
    287       3.4427      0.00000
    288       3.6408      0.00000
    289       3.7148      0.00000
    290       3.9732      0.00000
    291       4.0694      0.00000
    292       4.1690      0.00000
    293       4.4359      0.00000
    294       4.5215      0.00000
    295       4.6157      0.00000
    296       4.6280      0.00000
    297       4.7882      0.00000
    298       4.8068      0.00000
    299       4.8730      0.00000
    300       4.9336      0.00000
    301       4.9632      0.00000
    302       5.0577      0.00000
    303       5.0803      0.00000
    304       5.0954      0.00000
    305       5.2056      0.00000
    306       5.2581      0.00000


--------------------------------------------------------------------------------------------------------


 soft charge-density along one line, spin component           1
         0         1         2         3         4         5         6         7         8         9
 total charge-density along one line
 
 pseudopotential strength for first ion, spin component:           1
 -8.019   0.003  -0.004  -0.005   0.001  -8.167   0.003  -0.003
  0.003  -7.936   0.001   0.003   0.000   0.003  -8.085   0.001
 -0.004   0.001  -7.934   0.001   0.006  -0.003   0.001  -8.083
 -0.005   0.003   0.001  -7.942   0.001  -0.005   0.003   0.001
  0.001   0.000   0.006   0.001  -8.017   0.001   0.000   0.006
 -8.167   0.003  -0.003  -0.005   0.001  -8.298   0.003  -0.003
  0.003  -8.085   0.001   0.003   0.000   0.003  -8.218   0.001
 -0.003   0.001  -8.083   0.001   0.006  -0.003   0.001  -8.216
 -0.005   0.003   0.001  -8.091   0.001  -0.005   0.002   0.001
  0.001   0.000   0.006   0.001  -8.164   0.001  -0.000   0.006
 -0.002   0.001  -0.025  -0.001   0.003  -0.002   0.001  -0.025
 -0.002   0.002  -0.037  -0.001   0.004  -0.002   0.002  -0.037
 -0.001   0.005  -0.001   0.000  -0.001  -0.001   0.005  -0.001
  0.000   0.001   0.007  -0.000  -0.000   0.000   0.001   0.007
  0.001   0.000   0.000   0.005  -0.000   0.001   0.000   0.000
 -0.001   0.005  -0.001   0.000  -0.001  -0.001   0.005  -0.001
  0.000   0.001   0.008  -0.000  -0.000   0.000   0.001   0.008
  0.001   0.000   0.001   0.005  -0.000   0.001   0.000   0.001
 total augmentation occupancy for first ion, spin component:           1
  3.984   0.039   0.039  -0.002   0.138  -2.189  -0.013  -0.048  -0.049  -0.122   0.097  -0.055   0.039  -0.007   0.003  -0.002
  0.039   4.035   0.072  -0.029   0.012  -0.013  -1.769  -0.040   0.030  -0.029  -0.055   0.020   0.167   0.012   0.003  -0.002
  0.039   0.072   4.301  -0.066  -0.116  -0.048  -0.040  -2.193   0.058   0.136   0.998  -0.133   0.020   0.207  -0.012  -0.002
 -0.002  -0.029  -0.066   4.070   0.012  -0.048   0.030   0.058  -1.795  -0.022   0.028  -0.027   0.001  -0.015   0.129   0.000
  0.138   0.012  -0.116   0.012   4.462  -0.122  -0.030   0.137  -0.022  -2.617  -0.169   0.086   0.040  -0.006  -0.023  -0.003
 -2.189  -0.013  -0.048  -0.048  -0.122   2.270  -0.006   0.054   0.086   0.108  -0.082   0.049  -0.033   0.003  -0.006   0.002
 -0.013  -1.769  -0.040   0.030  -0.030  -0.006   1.475   0.013  -0.030   0.043   0.047  -0.018  -0.159  -0.006  -0.004   0.005
 -0.048  -0.040  -2.193   0.058   0.137   0.054   0.013   2.028  -0.051  -0.151  -0.926   0.147  -0.014  -0.215   0.009   0.001
 -0.049   0.030   0.058  -1.795  -0.022   0.086  -0.030  -0.051   1.496   0.030  -0.020   0.021  -0.003   0.012  -0.120  -0.000
 -0.122  -0.029   0.136  -0.022  -2.617   0.108   0.043  -0.151   0.030   2.659   0.147  -0.079  -0.034   0.010   0.020   0.002
  0.097  -0.055   0.998   0.028  -0.169  -0.082   0.047  -0.926  -0.020   0.147   2.378  -0.487   0.008  -0.114  -0.003  -0.001
 -0.055   0.020  -0.133  -0.027   0.086   0.049  -0.018   0.147   0.021  -0.079  -0.487   0.142  -0.009   0.050   0.003   0.000
  0.039   0.167   0.020   0.001   0.040  -0.033  -0.159  -0.014  -0.003  -0.034   0.008  -0.009   0.179   0.003  -0.002  -0.005
 -0.007   0.012   0.207  -0.015  -0.006   0.003  -0.006  -0.215   0.012   0.010  -0.114   0.050   0.003   0.087   0.001  -0.000
  0.003   0.003  -0.012   0.129  -0.023  -0.006  -0.004   0.009  -0.120   0.020  -0.003   0.003  -0.002   0.001   0.188   0.000
 -0.002  -0.002  -0.002   0.000  -0.003   0.002   0.005   0.001  -0.000   0.002  -0.001   0.000  -0.005  -0.000   0.000   0.000
  0.000   0.000   0.002   0.001  -0.000  -0.000   0.000   0.005  -0.001  -0.000   0.008  -0.002  -0.000  -0.003   0.000   0.000
  0.001   0.000   0.001  -0.002   0.000  -0.000  -0.000  -0.001   0.005  -0.001   0.000  -0.000   0.000   0.000  -0.006  -0.000


------------------------ aborting loop because EDIFF is reached ----------------------------------------


    CHARGE:  cpu time    0.2212: real time    0.2218
    FORLOC:  cpu time    0.0159: real time    0.0159
    FORNL :  cpu time    1.7559: real time    1.7608
    FORCOR:  cpu time    0.0604: real time    0.0618
    FORHAR:  cpu time    0.0252: real time    0.0252
    MIXING:  cpu time    0.0036: real time    0.0036
    OFIELD:  cpu time    0.0000: real time    0.0000

 VOLUME and BASIS-vectors are now :
 -----------------------------------------------------------------------------
  energy-cutoff  :      400.00
  volume of cell :     2567.68
      direct lattice vectors                 reciprocal lattice vectors
    11.002581515  0.000000000  0.000000000     0.090887761 -0.052474073  0.000000000
     5.501290758  9.528515099  0.000000000     0.000000000  0.104948147  0.000000000
     0.000000000  0.000000000 24.491785094     0.000000000  0.000000000  0.040830017

  length of vectors
    11.002581515 11.002581515 24.491785094     0.104948147  0.104948147  0.040830017


 FORCES acting on ions
    electron-ion (+dipol)            ewald-force                    non-local-force                 convergence-correction
 -----------------------------------------------------------------------------------------------
   -.493E+01 0.157E+02 -.228E+04   0.500E+01 -.159E+02 0.228E+04   -.736E-01 0.260E+00 0.265E+00   0.495E-03 -.299E-02 0.113E-02
   0.909E-01 -.519E+01 -.231E+04   -.383E-01 0.514E+01 0.231E+04   -.531E-01 0.546E-01 -.323E+00   0.732E-03 0.196E-02 0.303E-02
   -.522E+01 -.754E+00 0.278E+02   0.538E+01 0.147E+01 -.273E+02   -.167E+00 -.706E+00 -.502E+00   0.408E-03 -.365E-03 0.265E-02
   -.281E+01 0.210E+02 0.230E+04   0.307E+01 -.217E+02 -.230E+04   -.261E+00 0.712E+00 -.200E+00   -.766E-04 0.726E-03 -.495E-03
   0.317E+01 -.286E+01 0.188E+02   -.294E+01 0.237E+01 -.188E+02   -.224E+00 0.472E+00 0.423E-01   -.908E-03 0.390E-02 0.159E-02
   0.291E+01 0.854E+00 -.144E+02   -.295E+01 -.875E+00 0.144E+02   0.579E-01 0.297E-01 0.231E-01   -.127E-02 -.717E-03 0.945E-04
   -.135E+02 0.105E+02 -.232E+04   0.140E+02 -.104E+02 0.232E+04   -.537E+00 -.860E-01 -.303E+00   -.337E-03 -.387E-02 0.253E-02
   0.423E+01 -.112E+02 -.463E+01   -.345E+01 0.110E+02 0.465E+01   -.775E+00 0.230E+00 -.285E-01   -.823E-03 0.416E-02 0.137E-02
   0.696E+01 -.194E+02 0.229E+04   -.754E+01 0.199E+02 -.229E+04   0.589E+00 -.554E+00 0.194E+00   0.799E-03 -.155E-02 -.125E-03
   0.117E+02 -.519E+01 0.299E+02   -.113E+02 0.582E+01 -.294E+02   -.394E+00 -.621E+00 -.489E+00   0.699E-03 -.135E-02 0.291E-02
   0.229E+01 -.120E+02 0.229E+04   -.190E+01 0.122E+02 -.229E+04   -.398E+00 -.118E+00 -.106E-01   0.591E-04 -.849E-03 0.358E-03
   -.363E+01 -.137E+02 0.230E+04   0.358E+01 0.143E+02 -.230E+04   0.682E-01 -.615E+00 0.717E-01   -.150E-02 -.197E-02 0.573E-03
   -.221E+01 -.742E+01 0.672E+01   0.129E+01 0.670E+01 -.611E+01   0.909E+00 0.716E+00 -.613E+00   0.243E-02 0.265E-02 0.831E-03
   -.178E+01 0.300E+01 0.892E+00   0.122E+01 -.303E+01 -.993E+00   0.562E+00 0.272E-01 0.968E-01   0.112E-02 -.257E-02 0.196E-02
   0.122E+02 0.980E+01 -.226E+04   -.128E+02 -.999E+01 0.226E+04   0.612E+00 0.189E+00 0.286E+00   0.835E-03 -.136E-02 0.304E-03
   -.602E+01 0.506E+01 -.497E+02   0.613E+01 -.548E+01 0.487E+02   -.116E+00 0.412E+00 0.104E+01   0.118E-02 -.343E-04 0.181E-02
   0.585E+01 0.660E+01 0.223E+02   -.508E+01 -.649E+01 -.217E+02   -.765E+00 -.105E+00 -.538E+00   -.276E-02 -.404E-02 0.191E-02
   0.447E+01 0.164E+01 -.224E+04   -.449E+01 -.136E+01 0.224E+04   0.146E-01 -.289E+00 0.940E-01   0.320E-04 -.169E-02 0.242E-02
   0.803E+01 -.974E+01 -.230E+04   -.800E+01 0.104E+02 0.230E+04   -.302E-01 -.679E+00 0.387E+00   -.112E-02 0.658E-03 0.162E-02
   0.573E+01 0.924E+01 0.231E+04   -.605E+01 -.991E+01 -.231E+04   0.317E+00 0.666E+00 0.152E+00   -.239E-03 0.920E-04 -.640E-03
   0.324E+01 0.162E+02 0.233E+04   -.294E+01 -.166E+02 -.233E+04   -.306E+00 0.331E+00 0.342E+00   0.558E-03 0.803E-03 -.216E-02
   -.512E+01 -.218E+02 0.224E+04   0.534E+01 0.224E+02 -.224E+04   -.230E+00 -.594E+00 -.298E+00   0.910E-04 -.264E-02 -.346E-03
   -.145E+01 -.151E+02 -.229E+04   0.108E+01 0.149E+02 0.229E+04   0.383E+00 0.184E+00 -.128E+00   -.112E-04 0.277E-02 0.252E-02
   -.128E+02 -.285E+01 0.357E+02   0.116E+02 0.277E+01 -.358E+02   0.116E+01 0.861E-01 0.138E+00   -.341E-03 0.803E-03 0.268E-02
   -.104E+02 -.154E+02 0.197E+04   0.101E+02 0.157E+02 -.197E+04   0.332E+00 -.256E+00 -.179E+01   -.732E-03 -.222E-03 -.267E-02
   -.523E+01 -.116E+02 0.198E+04   0.557E+01 0.119E+02 -.198E+04   -.328E+00 -.313E+00 -.150E+01   -.144E-02 -.525E-03 -.223E-02
   -.926E+01 0.164E+02 0.198E+04   0.962E+01 -.164E+02 -.198E+04   -.368E+00 0.495E-01 -.149E+01   -.490E-03 0.235E-02 -.195E-02
   0.105E+02 -.576E+01 -.201E+04   -.109E+02 0.552E+01 0.201E+04   0.433E+00 0.242E+00 0.154E+01   0.949E-03 0.170E-02 0.416E-02
   0.200E+01 0.248E+02 0.198E+04   -.217E+01 -.253E+02 -.198E+04   0.174E+00 0.455E+00 -.163E+01   -.252E-03 0.136E-02 -.123E-02
   0.428E+01 -.489E+01 0.636E+02   -.389E+01 0.450E+01 -.628E+02   -.388E+00 0.391E+00 -.816E+00   -.560E-03 0.179E-02 0.226E-02
   0.614E+01 0.121E+01 -.196E+04   -.665E+01 -.118E+01 0.196E+04   0.511E+00 -.304E-01 0.143E+01   -.161E-02 -.871E-03 0.177E-02
   0.564E+01 -.161E+02 -.197E+04   -.561E+01 0.163E+02 0.197E+04   -.370E-01 -.261E+00 0.166E+01   -.591E-03 0.257E-02 0.289E-02
   0.186E+02 0.192E+02 0.196E+04   -.191E+02 -.193E+02 -.196E+04   0.498E+00 0.166E+00 -.176E+01   0.861E-03 0.188E-02 -.212E-02
   -.361E+01 -.354E+01 -.200E+04   0.373E+01 0.337E+01 0.200E+04   -.130E+00 0.176E+00 0.159E+01   -.148E-03 0.171E-02 0.344E-02
   -.131E+02 0.146E+02 0.199E+04   0.131E+02 -.150E+02 -.199E+04   0.408E-01 0.345E+00 -.163E+01   -.754E-03 0.224E-02 -.231E-02
   0.233E+00 0.283E+01 -.112E+02   -.105E+00 -.314E+01 0.111E+02   -.132E+00 0.315E+00 0.399E-01   -.959E-03 0.575E-03 0.723E-03
   0.211E+01 0.342E+01 -.732E+02   -.222E+01 -.328E+01 0.723E+02   0.111E+00 -.131E+00 0.849E+00   0.641E-03 -.132E-02 0.123E-02
   0.136E+02 -.135E+02 0.196E+04   -.138E+02 0.137E+02 -.196E+04   0.273E+00 -.199E+00 -.149E+01   0.156E-02 -.107E-02 -.117E-02
   -.210E+01 0.120E+02 -.198E+04   0.229E+01 -.118E+02 0.198E+04   -.189E+00 -.174E+00 0.145E+01   0.618E-03 -.743E-03 0.167E-02
   -.107E+01 0.922E+00 -.147E+02   0.935E+00 -.656E+00 0.146E+02   0.136E+00 -.269E+00 0.704E-02   0.110E-02 -.211E-02 0.218E-02
   -.571E+01 -.325E+01 -.198E+04   0.588E+01 0.289E+01 0.198E+04   -.169E+00 0.366E+00 0.133E+01   0.217E-03 0.185E-02 0.152E-02
   -.208E+01 0.531E+01 0.200E+04   0.231E+01 -.555E+01 -.200E+04   -.235E+00 0.246E+00 -.120E+01   0.569E-03 -.221E-03 -.453E-03
   -.129E+02 -.768E+01 -.201E+04   0.131E+02 0.770E+01 0.201E+04   -.225E+00 -.220E-01 0.155E+01   0.209E-03 0.110E-02 0.244E-02
   0.120E+01 -.177E+02 0.194E+04   -.937E+00 0.180E+02 -.194E+04   -.263E+00 -.369E+00 -.196E+01   0.771E-03 -.851E-03 -.151E-02
   -.221E+01 0.101E+02 0.137E+02   0.217E+01 -.947E+01 -.137E+02   0.397E-01 -.608E+00 -.419E-02   0.302E-03 -.345E-02 0.174E-02
   -.406E+01 -.772E+00 -.353E+02   0.394E+01 0.927E+00 0.345E+02   0.107E+00 -.154E+00 0.836E+00   -.351E-03 0.234E-02 0.147E-02
   -.835E+01 0.120E+02 -.197E+04   0.863E+01 -.123E+02 0.196E+04   -.284E+00 0.285E+00 0.167E+01   0.915E-03 -.346E-03 0.145E-02
   0.420E+01 0.512E+01 -.197E+04   -.421E+01 -.465E+01 0.197E+04   -.834E-02 -.472E+00 0.160E+01   -.431E-03 -.227E-02 0.381E-02
 -----------------------------------------------------------------------------------------------
   -.215E+00 0.232E+00 0.122E-01   -.234E-12 -.412E-12 0.341E-11   0.249E+00 -.218E+00 -.502E-01   0.465E-03 -.689E-05 0.456E-01
 
 
 POSITION                                       TOTAL-FORCE (eV/Angst)
 -----------------------------------------------------------------------------------
      6.87742      7.13895     14.80902        -0.004085     -0.003333      0.001073
      6.87065      2.38957     14.81004        -0.000451      0.009263      0.002070
      6.88217      3.97717     12.21974        -0.006823      0.006645      0.004223
      8.27163      3.13812      9.65779         0.004019      0.005393      0.006926
      5.50545      1.56974     12.22715         0.008198     -0.007762     -0.001886
      9.62192      8.72707     12.26614         0.006414      0.007664      0.004704
      9.64283      7.15026     14.85291         0.005950     -0.000098      0.002515
      8.26995      1.58337     12.25072         0.006888     -0.003784     -0.004876
      6.87521      5.57652      9.66865         0.007018     -0.001231     -0.004367
      4.11996      3.98315     12.21936         0.002209      0.008237     -0.000408
      9.64322      5.56478      9.65024        -0.013184     -0.001402     -0.001329
     12.39252      5.57812      9.64654         0.010702      0.002128     -0.010552
      2.72098      1.56793     12.25348        -0.005655     -0.004057      0.001529
      8.23405      6.35525     12.24572         0.000224     -0.004694     -0.001573
      4.10185      7.14617     14.77480         0.014337     -0.002880      0.009801
     15.13349      8.71788     12.29941         0.001944     -0.002320     -0.000696
     11.01498      6.35123     12.22275         0.003420      0.005370      0.007006
      2.73563      4.77238     14.73453        -0.002613     -0.012035      0.005492
     -0.01675      0.02749     14.83032        -0.006771     -0.008579     -0.001016
      2.75335      3.14859      9.63226        -0.002257      0.000442      0.000467
      4.14335      0.76874      9.62206        -0.007061     -0.002087      0.003352
      4.13911      5.58937      9.74071        -0.004723     -0.003917     -0.004068
      1.36118      2.39025     14.80505         0.008899      0.010911      0.003044
     12.34895      3.95902     12.20631         0.002061      0.003870      0.001897
     13.76015      7.97284      9.90139         0.000853     -0.002397      0.001355
     11.02132      7.95008      9.85968         0.004561     -0.003876      0.000323
      9.65625      0.77964      9.90119        -0.003194     -0.001999      0.001972
      8.21922      0.00506     14.66597         0.002637      0.003979     -0.002904
     11.01267      3.14832      9.84088         0.004196     -0.000394      0.000559
      9.62422      3.96127     12.17166        -0.002091     -0.004121     -0.001164
     10.97530      4.76851     14.59289         0.000049     -0.001463      0.003134
      9.61187      2.40832     14.61048        -0.008988      0.003886     -0.006435
      1.37452      0.77958      9.90691         0.006709     -0.002206     -0.000307
      5.50080      0.00373     14.65343        -0.005090      0.005647     -0.006567
      6.89066      0.77627      9.85741         0.004848     -0.004433      0.004208
     12.38500      8.72565     12.26236        -0.005301     -0.001250     -0.000962
      6.85532      8.72921     12.33794        -0.000862      0.000861     -0.004609
      8.24576      7.95264      9.89393        -0.002932      0.001299      0.000284
      5.50009      4.76246     14.63031        -0.001164     -0.003333     -0.004662
      5.49474      6.35588     12.26804        -0.002490     -0.005159     -0.003293
      4.12727      2.37376     14.62720        -0.002794      0.008182      0.000172
      5.51887      3.16126      9.80556        -0.003043      0.006522      0.003369
      2.76427      0.01043     14.68372         0.008157     -0.004948     -0.005185
      5.52102      7.96475      9.94719         0.003585      0.001528     -0.001185
     13.75551      6.35532     12.23242        -0.002949      0.009970      0.000626
     11.00265      1.57983     12.28657        -0.007139      0.003361     -0.002959
      8.25810      4.76254     14.60759        -0.003510     -0.006660     -0.001370
     12.36650      7.16887     14.61243        -0.012709     -0.004742      0.002275
 -----------------------------------------------------------------------------------
    total drift:                                0.034519      0.013741      0.007699


--------------------------------------------------------------------------------------------------------



  FREE ENERGIE OF THE ION-ELECTRON SYSTEM (eV)
  ---------------------------------------------------
  free  energy   TOTEN  =      -191.80089101 eV

  energy  without entropy=     -191.59210741  energy(sigma->0) =     -191.69649921
 
 d Force = 0.2766427E-03[ 0.238E-04, 0.529E-03]  d Energy = 0.2775271E-03-0.884E-06
 d Force = 0.3267178E+02[ 0.327E+02, 0.326E+02]  d Ewald  = 0.3267178E+02-0.473E-05


--------------------------------------------------------------------------------------------------------


    POTLOK:  cpu time    0.0526: real time    0.0527


--------------------------------------------------------------------------------------------------------


 stress matrix after NEB project (eV)
      0.00000      0.00000      0.00000
      0.00000      0.00000      0.00000
      0.00000      0.00000      0.00000
  FORCES: max atom, RMS     0.017605    0.008816
  FORCE total and by dimension    0.061080    0.014337
  Stress total and by dimension    0.000000    0.000000
 Conjugate gradient step on ions:
 trial-energy change:   -0.000278  1 .order   -0.000277   -0.000529   -0.000024
  (g-gl).g = 0.336E-03      g.g   = 0.306E-03  gl.gl    = 0.352E-03
 g(Force)  = 0.306E-03   g(Stress)= 0.000E+00 ortho     =-0.576E-04
 gamma     =   0.95417
 trial     =   2.10874
 opt step  =   2.20813  (harmonic =   2.20813) maximal distance =0.00578163
 next E    =  -191.800891   (d E  =  -0.00028)


--------------------------------------------------------------------------------------------------------


  
 reached required accuracy - stopping structural energy minimisation
     LOOP+:  cpu time   84.3611: real time   84.9708
    4ORBIT:  cpu time    0.0000: real time    0.0000

 total amount of memory used by VASP on root node    84353. kBytes
========================================================================

   base      :      30000. kBytes
   nonlr-proj:       4285. kBytes
   fftplans  :       4447. kBytes
   grid      :       6721. kBytes
   one-center:        124. kBytes
   wavefun   :      38776. kBytes
 
  
  
 General timing and accounting informations for this job:
 ========================================================
  
                  Total CPU time used (sec):     3075.229
                            User time (sec):     2940.391
                          System time (sec):      134.837
                         Elapsed time (sec):     3094.862
  
                   Maximum memory used (kb):     1102968.
                   Average memory used (kb):           0.
  
                          Minor page faults:      1012031
                          Major page faults:            2
                 Voluntary context switches:        14557
