<?xml version="1.0" encoding="ISO-8859-1"?>
<modeling>
 <generator>
  <i name="program" type="string">vasp </i>
  <i name="version" type="string">5.4.1  </i>
  <i name="subversion" type="string">24Jun15 (build Mar 14 2019 10:18:33) complex                          parallel </i>
  <i name="platform" type="string">INTEL-19.0.2+OPENMPI-3.1.3 </i>
  <i name="date" type="string">2022 07 15 </i>
  <i name="time" type="string">14:38:30 </i>
 </generator>
 <incar>
  <i type="int" name="ISTART">     0</i>
  <i type="string" name="PREC">normal</i>
  <i type="string" name="ALGO"> Fast</i>
  <i type="int" name="NELM">   500</i>
  <i type="int" name="IBRION">     2</i>
  <i type="int" name="NFREE">     2</i>
  <i name="EDIFF">      0.00000100</i>
  <i name="EDIFFG">     -0.02000000</i>
  <i type="int" name="NSW">   500</i>
  <i type="int" name="ISIF">     0</i>
  <i type="int" name="ISYM">     2</i>
  <i name="ENCUT">    400.00000000</i>
  <i name="POTIM">      0.35000000</i>
  <i type="string" name="LREAL"> Auto</i>
  <i type="logical" name="LPLANE"> T  </i>
  <i type="int" name="ISMEAR">     0</i>
  <i name="SIGMA">      0.10000000</i>
  <i type="int" name="NWRITE">     1</i>
  <i type="logical" name="LWAVE"> F  </i>
  <i type="logical" name="LCHARG"> F  </i>
  <i type="logical" name="LVTOT"> F  </i>
  <i type="logical" name="LORBIT"> F  </i>
  <i type="logical" name="LAECHG"> F  </i>
  <v type="int" name="KPOINT_BSE">    -1     0     0     0</v>
  <i type="int" name="NELM">   500</i>
  <i type="string" name="GGA"> PE          ! optPBE-vdW XC-functional</i>
  <i type="int" name="VOSKOWN">     1</i>
  <i type="logical" name="LDIPOL"> T  </i>
  <i type="logical" name="LMONO"> F  </i>
  <i type="int" name="IDIPOL">     3</i>
  <v name="DIPOL">      0.00000000      0.00000000      0.50000000</v>
 </incar>
 <kpoints>
  <generation param="Monkhorst-Pack">
   <v type="int" name="divisions">       2        2        1 </v>
   <v name="usershift">      0.00000000       0.00000000       0.00000000 </v>
   <v name="genvec1">      0.50000000      -0.00000000       0.00000000 </v>
   <v name="genvec2">      0.00000000       0.50000000       0.00000000 </v>
   <v name="genvec3">      0.00000000       0.00000000       1.00000000 </v>
   <v name="shift">      0.50000000       0.50000000       0.00000000 </v>
  </generation>
  <varray name="kpointlist" >
   <v>       0.25000000       0.25000000       0.00000000 </v>
   <v>       0.00000000       0.25000000       0.00000000 </v>
   <v>      -0.25000000       0.00000000       0.00000000 </v>
   <v>      -0.25000000       0.25000000       0.00000000 </v>
   <v>       0.50000000      -0.25000000       0.00000000 </v>
   <v>      -0.25000000       0.50000000       0.00000000 </v>
  </varray>
  <varray name="weights" >
   <v>       0.16666667 </v>
   <v>       0.16666667 </v>
   <v>       0.16666667 </v>
   <v>       0.16666667 </v>
   <v>       0.16666667 </v>
   <v>       0.16666667 </v>
  </varray>
 </kpoints>
 <parameters>
  <separator name="general" >
   <i type="string" name="SYSTEM">unknown system</i>
   <i type="logical" name="LCOMPAT"> F  </i>
  </separator>
  <separator name="electronic" >
   <i type="string" name="PREC">normal</i>
   <i name="ENMAX">    400.00000000</i>
   <i name="ENAUG">    416.23000000</i>
   <i name="EDIFF">      0.00000100</i>
   <i type="int" name="IALGO">    68</i>
   <i type="int" name="IWAVPR">    11</i>
   <i type="int" name="NBANDS">   306</i>
   <i name="NELECT">    504.00000000</i>
   <i type="int" name="TURBO">     0</i>
   <i type="int" name="IRESTART">     0</i>
   <i type="int" name="NREBOOT">     0</i>
   <i type="int" name="NMIN">     0</i>
   <i name="EREF">      0.00000000</i>
   <separator name="electronic smearing" >
    <i type="int" name="ISMEAR">     0</i>
    <i name="SIGMA">      0.10000000</i>
    <i name="KSPACING">      0.50000000</i>
    <i type="logical" name="KGAMMA"> T  </i>
   </separator>
   <separator name="electronic projectors" >
    <i type="logical" name="LREAL"> T  </i>
    <v name="ROPT">     -0.00050000     -0.00050000</v>
    <i type="int" name="LMAXPAW">  -100</i>
    <i type="int" name="LMAXMIX">     2</i>
    <i type="logical" name="NLSPLINE"> F  </i>
   </separator>
   <separator name="electronic startup" >
    <i type="int" name="ISTART">     0</i>
    <i type="int" name="ICHARG">     2</i>
    <i type="int" name="INIWAV">     1</i>
   </separator>
   <separator name="electronic spin" >
    <i type="int" name="ISPIN">     1</i>
    <i type="logical" name="LNONCOLLINEAR"> F  </i>
    <v name="MAGMOM">      1.00000000      1.00000000      1.00000000      1.00000000      1.00000000      1.00000000      1.00000000      1.00000000      1.00000000      1.00000000      1.00000000      1.00000000      1.00000000      1.00000000      1.00000000      1.00000000      1.00000000      1.00000000      1.00000000      1.00000000
      1.00000000      1.00000000      1.00000000      1.00000000      1.00000000      1.00000000      1.00000000      1.00000000      1.00000000      1.00000000      1.00000000      1.00000000      1.00000000      1.00000000      1.00000000      1.00000000      1.00000000      1.00000000      1.00000000      1.00000000
      1.00000000      1.00000000      1.00000000      1.00000000      1.00000000      1.00000000      1.00000000      1.00000000</v>
    <i name="NUPDOWN">     -1.00000000</i>
    <i type="logical" name="LSORBIT"> F  </i>
    <v name="SAXIS">      0.00000000      0.00000000      1.00000000</v>
    <i type="logical" name="LSPIRAL"> F  </i>
    <v name="QSPIRAL">      0.00000000      0.00000000      0.00000000</v>
    <i type="logical" name="LZEROZ"> F  </i>
   </separator>
   <separator name="electronic exchange-correlation" >
    <i type="logical" name="LASPH"> F  </i>
    <i type="logical" name="LMETAGGA"> F  </i>
   </separator>
   <separator name="electronic convergence" >
    <i type="int" name="NELM">   500</i>
    <i type="int" name="NELMDL">    -5</i>
    <i type="int" name="NELMIN">     2</i>
    <i name="ENINI">    400.00000000</i>
    <separator name="electronic convergence detail" >
     <i type="logical" name="LDIAG"> T  </i>
     <i type="logical" name="LSUBROT"> F  </i>
     <i name="WEIMIN">      0.00100000</i>
     <i name="EBREAK">      0.00000000</i>
     <i name="DEPER">      0.30000000</i>
     <i type="int" name="NRMM">     4</i>
     <i name="TIME">      0.40000000</i>
    </separator>
   </separator>
   <separator name="electronic mixer" >
    <i name="AMIX">      0.40000000</i>
    <i name="BMIX">      1.00000000</i>
    <i name="AMIN">      0.10000000</i>
    <i name="AMIX_MAG">      1.60000000</i>
    <i name="BMIX_MAG">      1.00000000</i>
    <separator name="electronic mixer details" >
     <i type="int" name="IMIX">     4</i>
     <i type="logical" name="MIXFIRST"> F  </i>
     <i type="int" name="MAXMIX">   -45</i>
     <i name="WC">    100.00000000</i>
     <i type="int" name="INIMIX">     1</i>
     <i type="int" name="MIXPRE">     1</i>
     <i type="int" name="MREMOVE">     5</i>
    </separator>
   </separator>
   <separator name="electronic dipolcorrection" >
    <i type="logical" name="LDIPOL"> T  </i>
    <i type="logical" name="LMONO"> F  </i>
    <i type="int" name="IDIPOL">     3</i>
    <i name="EPSILON">      1.00000000</i>
    <v name="DIPOL">      0.00000000      0.00000000      0.50000000</v>
    <i name="EFIELD">      0.00000000</i>
   </separator>
  </separator>
  <separator name="grids" >
   <i type="int" name="NGX">    54</i>
   <i type="int" name="NGY">    54</i>
   <i type="int" name="NGZ">   120</i>
   <i type="int" name="NGXF">   108</i>
   <i type="int" name="NGYF">   108</i>
   <i type="int" name="NGZF">   240</i>
   <i type="logical" name="ADDGRID"> F  </i>
  </separator>
  <separator name="ionic" >
   <i type="int" name="NSW">   500</i>
   <i type="int" name="IBRION">     2</i>
   <i type="int" name="ISIF">     0</i>
   <i name="PSTRESS">      0.00000000</i>
   <i name="EDIFFG">     -0.02000000</i>
   <i type="int" name="NFREE">     2</i>
   <i name="POTIM">      0.35000000</i>
   <i name="SMASS">     -3.00000000</i>
   <i name="SCALEE">      1.00000000</i>
  </separator>
  <separator name="ionic md" >
   <i name="TEBEG">      0.00010000</i>
   <i name="TEEND">      0.00010000</i>
   <i type="int" name="NBLOCK">     1</i>
   <i type="int" name="KBLOCK">   500</i>
   <i type="int" name="NPACO">   256</i>
   <i name="APACO">     16.00000000</i>
  </separator>
  <separator name="symmetry" >
   <i type="int" name="ISYM">     2</i>
   <i name="SYMPREC">      0.00001000</i>
  </separator>
  <separator name="dos" >
   <i type="logical" name="LORBIT"> F  </i>
   <v name="RWIGS">     -1.00000000     -1.00000000</v>
   <i type="int" name="NEDOS">   301</i>
   <i name="EMIN">     10.00000000</i>
   <i name="EMAX">    -10.00000000</i>
   <i name="EFERMI">      0.00000000</i>
  </separator>
  <separator name="writing" >
   <i type="int" name="NWRITE">     1</i>
   <i type="logical" name="LWAVE"> F  </i>
   <i type="logical" name="LCHARG"> F  </i>
   <i type="logical" name="LPARD"> F  </i>
   <i type="logical" name="LVTOT"> F  </i>
   <i type="logical" name="LVHAR"> F  </i>
   <i type="logical" name="LELF"> F  </i>
   <i type="logical" name="LOPTICS"> F  </i>
   <v name="STM">      0.00000000      0.00000000      0.00000000      0.00000000      0.00000000      0.00000000      0.00000000</v>
  </separator>
  <separator name="performance" >
   <i type="int" name="NPAR">     6</i>
   <i type="int" name="NSIM">     4</i>
   <i type="int" name="NBLK">    -1</i>
   <i type="logical" name="LPLANE"> T  </i>
   <i type="logical" name="LSCALAPACK"> T  </i>
   <i type="logical" name="LSCAAWARE"> F  </i>
   <i type="logical" name="LSCALU"> F  </i>
   <i type="logical" name="LASYNC"> F  </i>
   <i type="logical" name="LORBITALREAL"> F  </i>
  </separator>
  <separator name="miscellaneous" >
   <i type="int" name="IDIOT">     3</i>
   <i type="logical" name="LMUSIC"> F  </i>
   <v name="POMASS">    196.96600000    106.42000000</v>
   <v name="DARWINR">      0.00000000      0.00000000</v>
   <v name="DARWINV">      1.00000000      1.00000000</v>
   <i type="logical" name="LCORR"> T  </i>
  </separator>
  <i type="logical" name="GGA_COMPAT"> T  </i>
  <i type="logical" name="LBERRY"> F  </i>
  <i type="int" name="ICORELEVEL">     0</i>
  <i type="logical" name="LDAU"> F  </i>
  <i type="int" name="I_CONSTRAINED_M">     0</i>
  <separator name="electronic exchange-correlation" >
   <i type="string" name="GGA">PE</i>
   <i type="int" name="VOSKOWN">     1</i>
   <i type="logical" name="LHFCALC"> F  </i>
   <i type="string" name="PRECFOCK"></i>
   <i type="logical" name="LSYMGRAD"> F  </i>
   <i type="logical" name="LHFONE"> F  </i>
   <i type="logical" name="LRHFCALC"> F  </i>
   <i type="logical" name="LTHOMAS"> F  </i>
   <i type="logical" name="LMODELHF"> F  </i>
   <i name="ENCUT4O">     -1.00000000</i>
   <i type="int" name="EXXOEP">     0</i>
   <i type="int" name="FOURORBIT">     0</i>
   <i name="AEXX">      0.00000000</i>
   <i name="HFALPHA">      0.00000000</i>
   <i name="MCALPHA">      0.00000000</i>
   <i name="ALDAX">      1.00000000</i>
   <i name="AGGAX">      1.00000000</i>
   <i name="ALDAC">      1.00000000</i>
   <i name="AGGAC">      1.00000000</i>
   <i type="int" name="NKREDX">     1</i>
   <i type="int" name="NKREDY">     1</i>
   <i type="int" name="NKREDZ">     1</i>
   <i type="logical" name="SHIFTRED"> F  </i>
   <i type="logical" name="ODDONLY"> F  </i>
   <i type="logical" name="EVENONLY"> F  </i>
   <i type="int" name="LMAXFOCK">     0</i>
   <i type="int" name="NMAXFOCKAE">     0</i>
   <i type="logical" name="LFOCKAEDFT"> F  </i>
   <i name="HFSCREEN">      0.00000000</i>
   <i name="HFSCREENC">      0.00000000</i>
   <i type="int" name="NBANDSGWLOW">     0</i>
  </separator>
  <separator name="vdW DFT" >
   <i type="logical" name="LUSE_VDW"> F  </i>
   <i name="Zab_VDW">     -0.84910000</i>
   <i name="PARAM1">      0.12340000</i>
   <i name="PARAM2">      1.00000000</i>
   <i name="PARAM3">      0.00000000</i>
  </separator>
  <separator name="model GW" >
   <i type="int" name="MODEL_GW">     0</i>
   <i name="MODEL_EPS0">     32.09595293</i>
   <i name="MODEL_ALPHA">      1.00000000</i>
  </separator>
  <separator name="linear response parameters" >
   <i type="logical" name="LEPSILON"> F  </i>
   <i type="logical" name="LRPA"> F  </i>
   <i type="logical" name="LNABLA"> F  </i>
   <i type="logical" name="LVEL"> F  </i>
   <i type="int" name="KINTER">     0</i>
   <i name="CSHIFT">      0.10000000</i>
   <i name="OMEGAMAX">     -1.00000000</i>
   <i name="DEG_THRESHOLD">      0.00200000</i>
  </separator>
  <separator name="orbital magnetization" >
   <i type="logical" name="NUCIND"> F  </i>
   <v name="MAGPOS">      0.00000000      0.00000000      0.00000000</v>
   <i type="logical" name="LNICSALL"> T  </i>
   <i type="logical" name="ORBITALMAG"> F  </i>
   <i type="logical" name="LMAGBLOCH"> F  </i>
   <i type="logical" name="LCHIMAG"> F  </i>
   <i type="logical" name="LGAUGE"> T  </i>
   <i type="int" name="MAGATOM">     0</i>
   <v name="MAGDIPOL">      0.00000000      0.00000000      0.00000000</v>
   <v name="AVECCONST">      0.00000000      0.00000000      0.00000000</v>
  </separator>
  <separator name="response functions" >
   <i type="logical" name="LADDER"> F  </i>
   <i type="logical" name="LFXC"> F  </i>
   <i type="logical" name="LHARTREE"> T  </i>
   <i type="int" name="IBSE">     0</i>
   <v type="int" name="KPOINT">    -1     0     0     0</v>
   <i type="logical" name="LTCTE"> F  </i>
   <i type="logical" name="LTETE"> F  </i>
   <i type="logical" name="LTRIPLET"> F  </i>
   <i type="logical" name="LFXCEPS"> F  </i>
   <i type="logical" name="LFXHEG"> F  </i>
   <i type="int" name="NATURALO">     0</i>
   <i type="logical" name="L2ORDER"> F  </i>
   <i type="logical" name="LUSEW"> F  </i>
   <i name="ENCUTGW">     -2.00000000</i>
   <i name="ENCUTGWSOFT">     -2.00000000</i>
   <i name="ENCUTLF">     -1.00000000</i>
   <i type="int" name="LMAXMP2">    -1</i>
   <i name="SCISSOR">      0.00000000</i>
   <i type="int" name="NOMEGA">     0</i>
   <i type="int" name="NOMEGAR">     0</i>
   <i type="int" name="NBANDSGW">    -1</i>
   <i type="int" name="NBANDSO">    -1</i>
   <i type="int" name="NBANDSV">    -1</i>
   <i type="int" name="NELM">   500</i>
   <i type="int" name="NELMHF">     1</i>
   <i type="int" name="DIM">     3</i>
   <i type="int" name="ANTIRES">     0</i>
   <i name="OMEGAMAX">    -30.00000000</i>
   <i name="OMEGAMIN">    -30.00000000</i>
   <i name="OMEGATL">   -200.00000000</i>
   <i type="int" name="OMEGAGRID">     0</i>
   <i name="CSHIFT">     -0.10000000</i>
   <i type="logical" name="SELFENERGY"> F  </i>
   <i type="logical" name="LSPECTRAL"> F  </i>
   <i type="logical" name="LSPECTRALGW"> F  </i>
   <i type="logical" name="LSINGLES"> F  </i>
   <i type="logical" name="LFERMIGW"> F  </i>
   <i type="logical" name="ODDONLYGW"> F  </i>
   <i type="logical" name="EVENONLYGW"> F  </i>
   <i type="int" name="NKREDLFX">     1</i>
   <i type="int" name="NKREDLFY">     1</i>
   <i type="int" name="NKREDLFZ">     1</i>
   <i type="int" name="MAXMEM">  1800</i>
   <i type="int" name="TELESCOPE">     0</i>
   <i type="int" name="TAUPAR">     1</i>
   <i type="int" name="OMEGAPAR">    -1</i>
   <i name="LAMBDA">      1.00000000</i>
  </separator>
  <separator name="External order field" >
   <i name="OFIELD_KAPPA">      0.00000000</i>
   <v name="OFIELD_K">      0.00000000      0.00000000      0.00000000</v>
   <i name="OFIELD_Q6_NEAR">      0.00000000</i>
   <i name="OFIELD_Q6_FAR">      0.00000000</i>
   <i name="OFIELD_A">      0.00000000</i>
  </separator>
 </parameters>
 <atominfo>
  <atoms>      48 </atoms>
  <types>       2 </types>
  <array name="atoms" >
   <dimension dim="1">ion</dimension>
   <field type="string">element</field>
   <field type="int">atomtype</field>
   <set>
    <rc><c>Au</c><c>   1</c></rc>
    <rc><c>Au</c><c>   1</c></rc>
    <rc><c>Au</c><c>   1</c></rc>
    <rc><c>Au</c><c>   1</c></rc>
    <rc><c>Au</c><c>   1</c></rc>
    <rc><c>Au</c><c>   1</c></rc>
    <rc><c>Au</c><c>   1</c></rc>
    <rc><c>Au</c><c>   1</c></rc>
    <rc><c>Au</c><c>   1</c></rc>
    <rc><c>Au</c><c>   1</c></rc>
    <rc><c>Au</c><c>   1</c></rc>
    <rc><c>Au</c><c>   1</c></rc>
    <rc><c>Au</c><c>   1</c></rc>
    <rc><c>Au</c><c>   1</c></rc>
    <rc><c>Au</c><c>   1</c></rc>
    <rc><c>Au</c><c>   1</c></rc>
    <rc><c>Au</c><c>   1</c></rc>
    <rc><c>Au</c><c>   1</c></rc>
    <rc><c>Au</c><c>   1</c></rc>
    <rc><c>Au</c><c>   1</c></rc>
    <rc><c>Au</c><c>   1</c></rc>
    <rc><c>Au</c><c>   1</c></rc>
    <rc><c>Au</c><c>   1</c></rc>
    <rc><c>Au</c><c>   1</c></rc>
    <rc><c>Pd</c><c>   2</c></rc>
    <rc><c>Pd</c><c>   2</c></rc>
    <rc><c>Pd</c><c>   2</c></rc>
    <rc><c>Pd</c><c>   2</c></rc>
    <rc><c>Pd</c><c>   2</c></rc>
    <rc><c>Pd</c><c>   2</c></rc>
    <rc><c>Pd</c><c>   2</c></rc>
    <rc><c>Pd</c><c>   2</c></rc>
    <rc><c>Pd</c><c>   2</c></rc>
    <rc><c>Pd</c><c>   2</c></rc>
    <rc><c>Pd</c><c>   2</c></rc>
    <rc><c>Pd</c><c>   2</c></rc>
    <rc><c>Pd</c><c>   2</c></rc>
    <rc><c>Pd</c><c>   2</c></rc>
    <rc><c>Pd</c><c>   2</c></rc>
    <rc><c>Pd</c><c>   2</c></rc>
    <rc><c>Pd</c><c>   2</c></rc>
    <rc><c>Pd</c><c>   2</c></rc>
    <rc><c>Pd</c><c>   2</c></rc>
    <rc><c>Pd</c><c>   2</c></rc>
    <rc><c>Pd</c><c>   2</c></rc>
    <rc><c>Pd</c><c>   2</c></rc>
    <rc><c>Pd</c><c>   2</c></rc>
    <rc><c>Pd</c><c>   2</c></rc>
   </set>
  </array>
  <array name="atomtypes" >
   <dimension dim="1">type</dimension>
   <field type="int">atomspertype</field>
   <field type="string">element</field>
   <field>mass</field>
   <field>valence</field>
   <field type="string">pseudopotential</field>
   <set>
    <rc><c>  24</c><c>Au</c><c>    196.96600000</c><c>     11.00000000</c><c>  PAW_PBE Au 04Oct2007                  </c></rc>
    <rc><c>  24</c><c>Pd</c><c>    106.42000000</c><c>     10.00000000</c><c>  PAW_PBE Pd 04Jan2005                  </c></rc>
   </set>
  </array>
 </atominfo>
 <structure name="initialpos" >
  <crystal>
   <varray name="basis" >
    <v>      11.00258152       0.00000000       0.00000000 </v>
    <v>       5.50129076       9.52851510       0.00000000 </v>
    <v>       0.00000000       0.00000000      24.49178509 </v>
   </varray>
   <i name="volume">   2567.67623402 </i>
   <varray name="rec_basis" >
    <v>       0.09088776      -0.05247407       0.00000000 </v>
    <v>       0.00000000       0.10494815       0.00000000 </v>
    <v>       0.00000000       0.00000000       0.04083002 </v>
   </varray>
  </crystal>
  <varray name="positions" >
   <v>       0.25000000       0.75000000       0.59169983 </v>
   <v>       0.50000000       0.25000000       0.59169983 </v>
   <v>       0.41666667       0.41666667       0.50000000 </v>
   <v>       0.58333333       0.33333333       0.40830017 </v>
   <v>       0.41666667       0.16666667       0.50000000 </v>
   <v>       0.41666667       0.91666667       0.50000000 </v>
   <v>       0.50000000       0.75000000       0.59169983 </v>
   <v>       0.66666667       0.16666667       0.50000000 </v>
   <v>       0.33333333       0.58333333       0.40830017 </v>
   <v>       0.16666667       0.41666667       0.50000000 </v>
   <v>       0.58333333       0.58333333       0.40830017 </v>
   <v>       0.83333333       0.58333333       0.40830017 </v>
   <v>       0.16666667       0.16666667       0.50000000 </v>
   <v>       0.41666667       0.66666667       0.50000000 </v>
   <v>       0.00000000       0.75000000       0.59169983 </v>
   <v>       0.91666667       0.91666667       0.50000000 </v>
   <v>       0.66666667       0.66666667       0.50000000 </v>
   <v>       0.00000000       0.50000000       0.59169983 </v>
   <v>       0.00000000       0.00000000       0.59169983 </v>
   <v>       0.08333333       0.33333333       0.40830017 </v>
   <v>       0.33333333       0.08333333       0.40830017 </v>
   <v>       0.08333333       0.58333333       0.40830017 </v>
   <v>       0.00000000       0.25000000       0.59169983 </v>
   <v>       0.91666667       0.41666667       0.50000000 </v>
   <v>       0.83333333       0.83333333       0.40830017 </v>
   <v>       0.58333333       0.83333333       0.40830017 </v>
   <v>       0.83333333       0.08333333       0.40830017 </v>
   <v>       0.75000000       0.00000000       0.59169983 </v>
   <v>       0.83333333       0.33333333       0.40830017 </v>
   <v>       0.66666667       0.41666667       0.50000000 </v>
   <v>       0.75000000       0.50000000       0.59169983 </v>
   <v>       0.75000000       0.25000000       0.59169983 </v>
   <v>       0.08333333       0.08333333       0.40830017 </v>
   <v>       0.50000000       0.00000000       0.59169983 </v>
   <v>       0.58333333       0.08333333       0.40830017 </v>
   <v>       0.66666667       0.91666667       0.50000000 </v>
   <v>       0.16666667       0.91666667       0.50000000 </v>
   <v>       0.33333333       0.83333333       0.40830017 </v>
   <v>       0.25000000       0.50000000       0.59169983 </v>
   <v>       0.16666667       0.66666667       0.50000000 </v>
   <v>       0.25000000       0.25000000       0.59169983 </v>
   <v>       0.33333333       0.33333333       0.40830017 </v>
   <v>       0.25000000       0.00000000       0.59169983 </v>
   <v>       0.08333333       0.83333333       0.40830017 </v>
   <v>       0.91666667       0.66666667       0.50000000 </v>
   <v>       0.91666667       0.16666667       0.50000000 </v>
   <v>       0.50000000       0.50000000       0.59169983 </v>
   <v>       0.75000000       0.75000000       0.59169983 </v>
  </varray>
 </structure>
 <calculation>
  <scstep>
   <time name="dav">    9.65    9.68</time>
   <time name="total">    9.71    9.75</time>
   <dipole>
    <v name="dipole">      0.00000000       0.00000000       0.00000000 </v>
    <i name="Tr[quadrupol]"> -10323.55907979 </i>
    <i name="Echarged">      0.00000000 </i>
    <i name="Edipol_quadrupol">      0.00000000 </i>
    <i name="Eion">      0.00000000 </i>
   </dipole>
   <energy>
    <i name="alphaZ">    805.86936429 </i>
    <i name="ewald"> 200633.13100503 </i>
    <i name="hartreedc">-243049.35963275 </i>
    <i name="XCdc">   -327.49238046 </i>
    <i name="pawpsdc">  40340.05962942 </i>
    <i name="pawaedc"> -38292.62782345 </i>
    <i name="eentropy">     -0.13234357 </i>
    <i name="bandstr">   1432.21381804 </i>
    <i name="atom">  41659.78587232 </i>
    <i name="e_fr_energy">   3201.44750887 </i>
    <i name="e_wo_entrp">   3201.57985244 </i>
    <i name="e_0_energy">   3201.51368065 </i>
   </energy>
  </scstep>
  <scstep>
   <time name="dav">   11.14   11.24</time>
   <time name="total">   11.14   11.25</time>
   <dipole>
    <v name="dipole">      0.00000000       0.00000000       0.00000000 </v>
    <i name="Tr[quadrupol]"> -10323.55907979 </i>
    <i name="Echarged">      0.00000000 </i>
    <i name="Edipol_quadrupol">      0.00000000 </i>
    <i name="Eion">      0.00000000 </i>
   </dipole>
   <energy>
    <i name="e_fr_energy">     14.27665764 </i>
    <i name="e_wo_entrp">     14.40116497 </i>
    <i name="e_0_energy">     14.33891130 </i>
   </energy>
  </scstep>
  <scstep>
   <time name="dav">   10.66   10.70</time>
   <time name="total">   10.66   10.70</time>
   <dipole>
    <v name="dipole">      0.00000000       0.00000000       0.00000000 </v>
    <i name="Tr[quadrupol]"> -10323.55907979 </i>
    <i name="Echarged">      0.00000000 </i>
    <i name="Edipol_quadrupol">      0.00000000 </i>
    <i name="Eion">      0.00000000 </i>
   </dipole>
   <energy>
    <i name="e_fr_energy">   -199.66021160 </i>
    <i name="e_wo_entrp">   -199.43747812 </i>
    <i name="e_0_energy">   -199.54884486 </i>
   </energy>
  </scstep>
  <scstep>
   <time name="dav">   10.89   10.92</time>
   <time name="total">   10.89   10.93</time>
   <dipole>
    <v name="dipole">      0.00000000       0.00000000       0.00000000 </v>
    <i name="Tr[quadrupol]"> -10323.55907979 </i>
    <i name="Echarged">      0.00000000 </i>
    <i name="Edipol_quadrupol">      0.00000000 </i>
    <i name="Eion">      0.00000000 </i>
   </dipole>
   <energy>
    <i name="e_fr_energy">   -205.36800606 </i>
    <i name="e_wo_entrp">   -205.13751907 </i>
    <i name="e_0_energy">   -205.25276257 </i>
   </energy>
  </scstep>
  <scstep>
   <time name="dav">   11.20   11.23</time>
   <time name="total">   11.42   11.46</time>
   <dipole>
    <v name="dipole">      0.00000000       0.00000000       0.00000000 </v>
    <i name="Tr[quadrupol]"> -10323.55907979 </i>
    <i name="Echarged">      0.00000000 </i>
    <i name="Edipol_quadrupol">      0.00000000 </i>
    <i name="Eion">      0.00000000 </i>
   </dipole>
   <energy>
    <i name="e_fr_energy">   -205.55189284 </i>
    <i name="e_wo_entrp">   -205.32212228 </i>
    <i name="e_0_energy">   -205.43700756 </i>
   </energy>
  </scstep>
  <scstep>
   <time name="diag">    1.61    1.70</time>
   <time name="diis">    5.39    5.40</time>
   <time name="orth">    0.39    0.39</time>
   <time name="total">    7.68    7.79</time>
   <dipole>
    <v name="dipole">      0.00000000       0.00000000       0.00431605 </v>
    <i name="Tr[quadrupol]"> -10323.55288855 </i>
    <i name="Echarged">      0.00000000 </i>
    <i name="Edipol_quadrupol">      0.00000000 </i>
    <i name="Eion">      0.00000000 </i>
   </dipole>
   <energy>
    <i name="e_fr_energy">   -197.35922311 </i>
    <i name="e_wo_entrp">   -197.12539899 </i>
    <i name="e_0_energy">   -197.24231105 </i>
   </energy>
  </scstep>
  <scstep>
   <time name="diag">    1.67    1.68</time>
   <time name="diis">    5.38    5.39</time>
   <time name="orth">    0.39    0.39</time>
   <time name="total">    7.72    7.75</time>
   <dipole>
    <v name="dipole">      0.00000000       0.00000000       0.43187432 </v>
    <i name="Tr[quadrupol]"> -10323.70988971 </i>
    <i name="Echarged">      0.00000000 </i>
    <i name="Edipol_quadrupol">      0.00000000 </i>
    <i name="Eion">      0.00000000 </i>
   </dipole>
   <energy>
    <i name="e_fr_energy">   -197.72816921 </i>
    <i name="e_wo_entrp">   -197.56186509 </i>
    <i name="e_0_energy">   -197.64501715 </i>
   </energy>
  </scstep>
  <scstep>
   <time name="diag">    1.67    1.67</time>
   <time name="diis">    5.36    5.37</time>
   <time name="orth">    0.39    0.39</time>
   <time name="total">    7.71    7.73</time>
   <dipole>
    <v name="dipole">      0.00000000       0.00000000      -1.68284943 </v>
    <i name="Tr[quadrupol]"> -10325.78683431 </i>
    <i name="Echarged">      0.00000000 </i>
    <i name="Edipol_quadrupol">      0.00000000 </i>
    <i name="Eion">      0.00000000 </i>
   </dipole>
   <energy>
    <i name="e_fr_energy">   -217.22392099 </i>
    <i name="e_wo_entrp">   -216.93836660 </i>
    <i name="e_0_energy">   -217.08114379 </i>
   </energy>
  </scstep>
  <scstep>
   <time name="diag">    1.68    1.68</time>
   <time name="diis">    5.38    5.39</time>
   <time name="orth">    0.38    0.40</time>
   <time name="total">    7.72    7.76</time>
   <dipole>
    <v name="dipole">      0.00000000       0.00000000       0.99816128 </v>
    <i name="Tr[quadrupol]"> -10326.53463372 </i>
    <i name="Echarged">      0.00000000 </i>
    <i name="Edipol_quadrupol">      0.00000000 </i>
    <i name="Eion">      0.00000000 </i>
   </dipole>
   <energy>
    <i name="e_fr_energy">   -208.81802189 </i>
    <i name="e_wo_entrp">   -208.60719514 </i>
    <i name="e_0_energy">   -208.71260851 </i>
   </energy>
  </scstep>
  <scstep>
   <time name="diag">    1.69    1.69</time>
   <time name="diis">    5.36    5.38</time>
   <time name="orth">    0.39    0.39</time>
   <time name="total">    7.73    7.75</time>
   <dipole>
    <v name="dipole">      0.00000000       0.00000000      -0.00544281 </v>
    <i name="Tr[quadrupol]"> -10326.18964602 </i>
    <i name="Echarged">      0.00000000 </i>
    <i name="Edipol_quadrupol">      0.00000000 </i>
    <i name="Eion">      0.00000000 </i>
   </dipole>
   <energy>
    <i name="e_fr_energy">   -192.99668126 </i>
    <i name="e_wo_entrp">   -192.80810881 </i>
    <i name="e_0_energy">   -192.90239504 </i>
   </energy>
  </scstep>
  <scstep>
   <time name="diag">    1.66    1.69</time>
   <time name="diis">    5.36    5.44</time>
   <time name="orth">    0.39    0.39</time>
   <time name="total">    7.69    7.81</time>
   <dipole>
    <v name="dipole">      0.00000000       0.00000000       0.00038961 </v>
    <i name="Tr[quadrupol]"> -10325.49332102 </i>
    <i name="Echarged">      0.00000000 </i>
    <i name="Edipol_quadrupol">      0.00000000 </i>
    <i name="Eion">      0.00000000 </i>
   </dipole>
   <energy>
    <i name="e_fr_energy">   -189.22311278 </i>
    <i name="e_wo_entrp">   -189.02744617 </i>
    <i name="e_0_energy">   -189.12527947 </i>
   </energy>
  </scstep>
  <scstep>
   <time name="diag">    1.67    1.68</time>
   <time name="diis">    5.43    5.44</time>
   <time name="orth">    0.39    0.39</time>
   <time name="total">    7.77    7.80</time>
   <dipole>
    <v name="dipole">      0.00000000       0.00000000       0.03680490 </v>
    <i name="Tr[quadrupol]"> -10326.32850543 </i>
    <i name="Echarged">      0.00000000 </i>
    <i name="Edipol_quadrupol">      0.00000000 </i>
    <i name="Eion">      0.00000000 </i>
   </dipole>
   <energy>
    <i name="e_fr_energy">   -188.23662635 </i>
    <i name="e_wo_entrp">   -188.01474553 </i>
    <i name="e_0_energy">   -188.12568594 </i>
   </energy>
  </scstep>
  <scstep>
   <time name="diag">    1.68    1.69</time>
   <time name="diis">    5.46    5.47</time>
   <time name="orth">    0.38    0.39</time>
   <time name="total">    7.80    7.83</time>
   <dipole>
    <v name="dipole">      0.00000000       0.00000000      -0.02265287 </v>
    <i name="Tr[quadrupol]"> -10326.54296028 </i>
    <i name="Echarged">      0.00000000 </i>
    <i name="Edipol_quadrupol">      0.00000000 </i>
    <i name="Eion">      0.00000000 </i>
   </dipole>
   <energy>
    <i name="e_fr_energy">   -188.26416405 </i>
    <i name="e_wo_entrp">   -188.03856290 </i>
    <i name="e_0_energy">   -188.15136347 </i>
   </energy>
  </scstep>
  <scstep>
   <time name="diag">    1.68    1.69</time>
   <time name="diis">    5.40    5.43</time>
   <time name="orth">    0.38    0.38</time>
   <time name="total">    7.75    7.79</time>
   <dipole>
    <v name="dipole">      0.00000000       0.00000000       0.04546220 </v>
    <i name="Tr[quadrupol]"> -10326.71922790 </i>
    <i name="Echarged">      0.00000000 </i>
    <i name="Edipol_quadrupol">      0.00000000 </i>
    <i name="Eion">      0.00000000 </i>
   </dipole>
   <energy>
    <i name="e_fr_energy">   -188.20055687 </i>
    <i name="e_wo_entrp">   -187.96586395 </i>
    <i name="e_0_energy">   -188.08321041 </i>
   </energy>
  </scstep>
  <scstep>
   <time name="diag">    1.66    1.68</time>
   <time name="diis">    5.42    5.43</time>
   <time name="orth">    0.38    0.38</time>
   <time name="total">    7.74    7.78</time>
   <dipole>
    <v name="dipole">      0.00000000       0.00000000       0.03242692 </v>
    <i name="Tr[quadrupol]"> -10326.95960858 </i>
    <i name="Echarged">      0.00000000 </i>
    <i name="Edipol_quadrupol">      0.00000000 </i>
    <i name="Eion">      0.00000000 </i>
   </dipole>
   <energy>
    <i name="e_fr_energy">   -188.02819825 </i>
    <i name="e_wo_entrp">   -187.77787579 </i>
    <i name="e_0_energy">   -187.90303702 </i>
   </energy>
  </scstep>
  <scstep>
   <time name="diag">    1.67    1.68</time>
   <time name="diis">    5.28    5.39</time>
   <time name="orth">    0.38    0.38</time>
   <time name="total">    7.61    7.74</time>
   <dipole>
    <v name="dipole">      0.00000000       0.00000000       0.03951942 </v>
    <i name="Tr[quadrupol]"> -10327.16903227 </i>
    <i name="Echarged">      0.00000000 </i>
    <i name="Edipol_quadrupol">      0.00000000 </i>
    <i name="Eion">      0.00000000 </i>
   </dipole>
   <energy>
    <i name="e_fr_energy">   -187.96458467 </i>
    <i name="e_wo_entrp">   -187.71445000 </i>
    <i name="e_0_energy">   -187.83951733 </i>
   </energy>
  </scstep>
  <scstep>
   <time name="diag">    1.69    1.69</time>
   <time name="diis">    5.43    5.45</time>
   <time name="orth">    0.38    0.38</time>
   <time name="total">    7.78    7.81</time>
   <dipole>
    <v name="dipole">      0.00000000       0.00000000       0.02984872 </v>
    <i name="Tr[quadrupol]"> -10327.54693040 </i>
    <i name="Echarged">      0.00000000 </i>
    <i name="Edipol_quadrupol">      0.00000000 </i>
    <i name="Eion">      0.00000000 </i>
   </dipole>
   <energy>
    <i name="e_fr_energy">   -187.92895011 </i>
    <i name="e_wo_entrp">   -187.68995028 </i>
    <i name="e_0_energy">   -187.80945019 </i>
   </energy>
  </scstep>
  <scstep>
   <time name="diag">    1.68    1.68</time>
   <time name="diis">    5.44    5.45</time>
   <time name="orth">    0.38    0.38</time>
   <time name="total">    7.78    7.81</time>
   <dipole>
    <v name="dipole">      0.00000000       0.00000000       0.01107298 </v>
    <i name="Tr[quadrupol]"> -10327.76398631 </i>
    <i name="Echarged">      0.00000000 </i>
    <i name="Edipol_quadrupol">      0.00000000 </i>
    <i name="Eion">      0.00000000 </i>
   </dipole>
   <energy>
    <i name="e_fr_energy">   -187.91223072 </i>
    <i name="e_wo_entrp">   -187.66996841 </i>
    <i name="e_0_energy">   -187.79109957 </i>
   </energy>
  </scstep>
  <scstep>
   <time name="diag">    1.67    1.68</time>
   <time name="diis">    5.41    5.43</time>
   <time name="orth">    0.38    0.38</time>
   <time name="total">    7.74    7.77</time>
   <dipole>
    <v name="dipole">      0.00000000       0.00000000       0.00973848 </v>
    <i name="Tr[quadrupol]"> -10327.81845019 </i>
    <i name="Echarged">      0.00000000 </i>
    <i name="Edipol_quadrupol">      0.00000000 </i>
    <i name="Eion">      0.00000000 </i>
   </dipole>
   <energy>
    <i name="e_fr_energy">   -187.90447871 </i>
    <i name="e_wo_entrp">   -187.66050083 </i>
    <i name="e_0_energy">   -187.78248977 </i>
   </energy>
  </scstep>
  <scstep>
   <time name="diag">    1.67    1.67</time>
   <time name="diis">    5.40    5.41</time>
   <time name="orth">    0.38    0.38</time>
   <time name="total">    7.74    7.76</time>
   <dipole>
    <v name="dipole">      0.00000000       0.00000000       0.00513210 </v>
    <i name="Tr[quadrupol]"> -10327.88514954 </i>
    <i name="Echarged">      0.00000000 </i>
    <i name="Edipol_quadrupol">      0.00000000 </i>
    <i name="Eion">      0.00000000 </i>
   </dipole>
   <energy>
    <i name="e_fr_energy">   -187.90412758 </i>
    <i name="e_wo_entrp">   -187.66012177 </i>
    <i name="e_0_energy">   -187.78212467 </i>
   </energy>
  </scstep>
  <scstep>
   <time name="diag">    1.67    1.68</time>
   <time name="diis">    5.33    5.44</time>
   <time name="orth">    0.37    0.38</time>
   <time name="total">    7.66    7.79</time>
   <dipole>
    <v name="dipole">      0.00000000       0.00000000       0.00462453 </v>
    <i name="Tr[quadrupol]"> -10328.00447784 </i>
    <i name="Echarged">      0.00000000 </i>
    <i name="Edipol_quadrupol">      0.00000000 </i>
    <i name="Eion">      0.00000000 </i>
   </dipole>
   <energy>
    <i name="e_fr_energy">   -187.90370847 </i>
    <i name="e_wo_entrp">   -187.65872864 </i>
    <i name="e_0_energy">   -187.78121856 </i>
   </energy>
  </scstep>
  <scstep>
   <time name="diag">    1.67    1.67</time>
   <time name="diis">    5.31    5.35</time>
   <time name="orth">    0.38    0.38</time>
   <time name="total">    7.65    7.69</time>
   <dipole>
    <v name="dipole">      0.00000000       0.00000000       0.00575714 </v>
    <i name="Tr[quadrupol]"> -10328.17359636 </i>
    <i name="Echarged">      0.00000000 </i>
    <i name="Edipol_quadrupol">      0.00000000 </i>
    <i name="Eion">      0.00000000 </i>
   </dipole>
   <energy>
    <i name="e_fr_energy">   -187.90314510 </i>
    <i name="e_wo_entrp">   -187.65939875 </i>
    <i name="e_0_energy">   -187.78127192 </i>
   </energy>
  </scstep>
  <scstep>
   <time name="diag">    1.68    1.68</time>
   <time name="diis">    5.40    5.42</time>
   <time name="orth">    0.38    0.38</time>
   <time name="total">    7.74    7.77</time>
   <dipole>
    <v name="dipole">      0.00000000       0.00000000       0.00398823 </v>
    <i name="Tr[quadrupol]"> -10328.25500782 </i>
    <i name="Echarged">      0.00000000 </i>
    <i name="Edipol_quadrupol">      0.00000000 </i>
    <i name="Eion">      0.00000000 </i>
   </dipole>
   <energy>
    <i name="e_fr_energy">   -187.90294898 </i>
    <i name="e_wo_entrp">   -187.65884257 </i>
    <i name="e_0_energy">   -187.78089578 </i>
   </energy>
  </scstep>
  <scstep>
   <time name="diag">    1.67    1.68</time>
   <time name="diis">    5.45    5.47</time>
   <time name="orth">    0.38    0.38</time>
   <time name="total">    7.79    7.81</time>
   <dipole>
    <v name="dipole">      0.00000000       0.00000000       0.00193934 </v>
    <i name="Tr[quadrupol]"> -10328.33575970 </i>
    <i name="Echarged">      0.00000000 </i>
    <i name="Edipol_quadrupol">      0.00000000 </i>
    <i name="Eion">      0.00000000 </i>
   </dipole>
   <energy>
    <i name="e_fr_energy">   -187.90309811 </i>
    <i name="e_wo_entrp">   -187.65934607 </i>
    <i name="e_0_energy">   -187.78122209 </i>
   </energy>
  </scstep>
  <scstep>
   <time name="diag">    1.68    1.69</time>
   <time name="diis">    5.44    5.45</time>
   <time name="orth">    0.38    0.38</time>
   <time name="total">    7.78    7.81</time>
   <dipole>
    <v name="dipole">      0.00000000       0.00000000       0.00116957 </v>
    <i name="Tr[quadrupol]"> -10328.40311637 </i>
    <i name="Echarged">      0.00000000 </i>
    <i name="Edipol_quadrupol">      0.00000000 </i>
    <i name="Eion">      0.00000000 </i>
   </dipole>
   <energy>
    <i name="e_fr_energy">   -187.90341425 </i>
    <i name="e_wo_entrp">   -187.65968864 </i>
    <i name="e_0_energy">   -187.78155144 </i>
   </energy>
  </scstep>
  <scstep>
   <time name="diag">    1.67    1.67</time>
   <time name="diis">    5.46    5.57</time>
   <time name="orth">    0.38    0.38</time>
   <time name="total">    7.79    7.91</time>
   <dipole>
    <v name="dipole">      0.00000000       0.00000000       0.00088077 </v>
    <i name="Tr[quadrupol]"> -10328.47901055 </i>
    <i name="Echarged">      0.00000000 </i>
    <i name="Edipol_quadrupol">      0.00000000 </i>
    <i name="Eion">      0.00000000 </i>
   </dipole>
   <energy>
    <i name="e_fr_energy">   -187.90386776 </i>
    <i name="e_wo_entrp">   -187.66019685 </i>
    <i name="e_0_energy">   -187.78203231 </i>
   </energy>
  </scstep>
  <scstep>
   <time name="diag">    1.68    1.69</time>
   <time name="diis">    5.57    5.60</time>
   <time name="orth">    0.38    0.38</time>
   <time name="total">    7.92    7.95</time>
   <dipole>
    <v name="dipole">      0.00000000       0.00000000       0.00120129 </v>
    <i name="Tr[quadrupol]"> -10328.54723320 </i>
    <i name="Echarged">      0.00000000 </i>
    <i name="Edipol_quadrupol">      0.00000000 </i>
    <i name="Eion">      0.00000000 </i>
   </dipole>
   <energy>
    <i name="e_fr_energy">   -187.90436443 </i>
    <i name="e_wo_entrp">   -187.66061170 </i>
    <i name="e_0_energy">   -187.78248807 </i>
   </energy>
  </scstep>
  <scstep>
   <time name="diag">    1.67    1.68</time>
   <time name="diis">    5.55    5.57</time>
   <time name="orth">    0.38    0.38</time>
   <time name="total">    7.89    7.91</time>
   <dipole>
    <v name="dipole">      0.00000000       0.00000000       0.00083356 </v>
    <i name="Tr[quadrupol]"> -10328.64635989 </i>
    <i name="Echarged">      0.00000000 </i>
    <i name="Edipol_quadrupol">      0.00000000 </i>
    <i name="Eion">      0.00000000 </i>
   </dipole>
   <energy>
    <i name="e_fr_energy">   -187.90522982 </i>
    <i name="e_wo_entrp">   -187.66138823 </i>
    <i name="e_0_energy">   -187.78330902 </i>
   </energy>
  </scstep>
  <scstep>
   <time name="diag">    1.68    1.68</time>
   <time name="diis">    5.03    5.04</time>
   <time name="orth">    0.38    0.38</time>
   <time name="total">    7.38    7.40</time>
   <dipole>
    <v name="dipole">      0.00000000       0.00000000       0.00096468 </v>
    <i name="Tr[quadrupol]"> -10328.69162715 </i>
    <i name="Echarged">      0.00000000 </i>
    <i name="Edipol_quadrupol">      0.00000000 </i>
    <i name="Eion">      0.00000000 </i>
   </dipole>
   <energy>
    <i name="e_fr_energy">   -187.90564202 </i>
    <i name="e_wo_entrp">   -187.66183118 </i>
    <i name="e_0_energy">   -187.78373660 </i>
   </energy>
  </scstep>
  <scstep>
   <time name="diag">    1.67    1.68</time>
   <time name="diis">    5.06    5.07</time>
   <time name="orth">    0.38    0.38</time>
   <time name="total">    7.40    7.43</time>
   <dipole>
    <v name="dipole">      0.00000000       0.00000000       0.00098209 </v>
    <i name="Tr[quadrupol]"> -10328.75441295 </i>
    <i name="Echarged">      0.00000000 </i>
    <i name="Edipol_quadrupol">      0.00000000 </i>
    <i name="Eion">      0.00000000 </i>
   </dipole>
   <energy>
    <i name="e_fr_energy">   -187.90619307 </i>
    <i name="e_wo_entrp">   -187.66241979 </i>
    <i name="e_0_energy">   -187.78430643 </i>
   </energy>
  </scstep>
  <scstep>
   <time name="diag">    1.68    1.68</time>
   <time name="diis">    4.46    4.47</time>
   <time name="orth">    0.38    0.38</time>
   <time name="total">    6.80    6.82</time>
   <dipole>
    <v name="dipole">      0.00000000       0.00000000       0.00087724 </v>
    <i name="Tr[quadrupol]"> -10328.78564994 </i>
    <i name="Echarged">      0.00000000 </i>
    <i name="Edipol_quadrupol">      0.00000000 </i>
    <i name="Eion">      0.00000000 </i>
   </dipole>
   <energy>
    <i name="e_fr_energy">   -187.90640191 </i>
    <i name="e_wo_entrp">   -187.66259132 </i>
    <i name="e_0_energy">   -187.78449662 </i>
   </energy>
  </scstep>
  <scstep>
   <time name="diag">    1.67    1.68</time>
   <time name="diis">    3.99    4.08</time>
   <time name="orth">    0.38    0.38</time>
   <time name="total">    6.33    6.44</time>
   <dipole>
    <v name="dipole">      0.00000000       0.00000000       0.00071711 </v>
    <i name="Tr[quadrupol]"> -10328.80470554 </i>
    <i name="Echarged">      0.00000000 </i>
    <i name="Edipol_quadrupol">      0.00000000 </i>
    <i name="Eion">      0.00000000 </i>
   </dipole>
   <energy>
    <i name="e_fr_energy">   -187.90651823 </i>
    <i name="e_wo_entrp">   -187.66267140 </i>
    <i name="e_0_energy">   -187.78459481 </i>
   </energy>
  </scstep>
  <scstep>
   <time name="diag">    1.68    1.69</time>
   <time name="diis">    3.50    3.51</time>
   <time name="orth">    0.38    0.38</time>
   <time name="total">    5.85    5.87</time>
   <dipole>
    <v name="dipole">      0.00000000       0.00000000       0.00065257 </v>
    <i name="Tr[quadrupol]"> -10328.81619038 </i>
    <i name="Echarged">      0.00000000 </i>
    <i name="Edipol_quadrupol">      0.00000000 </i>
    <i name="Eion">      0.00000000 </i>
   </dipole>
   <energy>
    <i name="e_fr_energy">   -187.90659428 </i>
    <i name="e_wo_entrp">   -187.66275798 </i>
    <i name="e_0_energy">   -187.78467613 </i>
   </energy>
  </scstep>
  <scstep>
   <time name="diag">    1.68    1.68</time>
   <time name="diis">    3.32    3.33</time>
   <time name="orth">    0.38    0.38</time>
   <time name="total">    5.67    5.69</time>
   <dipole>
    <v name="dipole">      0.00000000       0.00000000       0.00063605 </v>
    <i name="Tr[quadrupol]"> -10328.82260434 </i>
    <i name="Echarged">      0.00000000 </i>
    <i name="Edipol_quadrupol">      0.00000000 </i>
    <i name="Eion">      0.00000000 </i>
   </dipole>
   <energy>
    <i name="e_fr_energy">   -187.90663694 </i>
    <i name="e_wo_entrp">   -187.66280425 </i>
    <i name="e_0_energy">   -187.78472060 </i>
   </energy>
  </scstep>
  <scstep>
   <time name="diag">    1.68    1.68</time>
   <time name="diis">    3.35    3.36</time>
   <time name="orth">    0.38    0.38</time>
   <time name="total">    5.69    5.71</time>
   <dipole>
    <v name="dipole">      0.00000000       0.00000000       0.00057893 </v>
    <i name="Tr[quadrupol]"> -10328.83084848 </i>
    <i name="Echarged">      0.00000000 </i>
    <i name="Edipol_quadrupol">      0.00000000 </i>
    <i name="Eion">      0.00000000 </i>
   </dipole>
   <energy>
    <i name="e_fr_energy">   -187.90668016 </i>
    <i name="e_wo_entrp">   -187.66285989 </i>
    <i name="e_0_energy">   -187.78477002 </i>
   </energy>
  </scstep>
  <scstep>
   <time name="diag">    1.67    1.67</time>
   <time name="diis">    3.06    3.06</time>
   <time name="orth">    0.38    0.38</time>
   <time name="total">    5.39    5.41</time>
   <dipole>
    <v name="dipole">      0.00000000       0.00000000       0.00053530 </v>
    <i name="Tr[quadrupol]"> -10328.83487853 </i>
    <i name="Echarged">      0.00000000 </i>
    <i name="Edipol_quadrupol">      0.00000000 </i>
    <i name="Eion">      0.00000000 </i>
   </dipole>
   <energy>
    <i name="e_fr_energy">   -187.90669453 </i>
    <i name="e_wo_entrp">   -187.66287536 </i>
    <i name="e_0_energy">   -187.78478495 </i>
   </energy>
  </scstep>
  <scstep>
   <time name="diag">    1.68    1.69</time>
   <time name="diis">    3.24    3.26</time>
   <time name="orth">    0.38    0.38</time>
   <time name="total">    5.59    5.62</time>
   <dipole>
    <v name="dipole">      0.00000000       0.00000000       0.00049390 </v>
    <i name="Tr[quadrupol]"> -10328.84098249 </i>
    <i name="Echarged">      0.00000000 </i>
    <i name="Edipol_quadrupol">      0.00000000 </i>
    <i name="Eion">      0.00000000 </i>
   </dipole>
   <energy>
    <i name="e_fr_energy">   -187.90670651 </i>
    <i name="e_wo_entrp">   -187.66288565 </i>
    <i name="e_0_energy">   -187.78479608 </i>
   </energy>
  </scstep>
  <scstep>
   <time name="diag">    1.68    1.68</time>
   <time name="diis">    2.49    2.50</time>
   <time name="orth">    0.38    0.38</time>
   <time name="total">    4.84    4.86</time>
   <dipole>
    <v name="dipole">      0.00000000       0.00000000       0.00047239 </v>
    <i name="Tr[quadrupol]"> -10328.84355933 </i>
    <i name="Echarged">      0.00000000 </i>
    <i name="Edipol_quadrupol">      0.00000000 </i>
    <i name="Eion">      0.00000000 </i>
   </dipole>
   <energy>
    <i name="e_fr_energy">   -187.90670830 </i>
    <i name="e_wo_entrp">   -187.66288594 </i>
    <i name="e_0_energy">   -187.78479712 </i>
   </energy>
  </scstep>
  <scstep>
   <time name="diag">    1.68    1.68</time>
   <time name="diis">    2.32    2.40</time>
   <time name="orth">    0.38    0.39</time>
   <time name="total">    4.66    4.76</time>
   <dipole>
    <v name="dipole">      0.00000000       0.00000000       0.00044575 </v>
    <i name="Tr[quadrupol]"> -10328.84640068 </i>
    <i name="Echarged">      0.00000000 </i>
    <i name="Edipol_quadrupol">      0.00000000 </i>
    <i name="Eion">      0.00000000 </i>
   </dipole>
   <energy>
    <i name="e_fr_energy">   -187.90670946 </i>
    <i name="e_wo_entrp">   -187.66288673 </i>
    <i name="e_0_energy">   -187.78479810 </i>
   </energy>
  </scstep>
  <scstep>
   <time name="diag">    1.67    1.67</time>
   <time name="diis">    2.42    2.46</time>
   <time name="orth">    0.38    0.38</time>
   <time name="total">    4.52    4.57</time>
   <dipole>
    <v name="dipole">      0.00000000       0.00000000       0.00042956 </v>
    <i name="Tr[quadrupol]"> -10328.84854525 </i>
    <i name="Echarged">      0.00000000 </i>
    <i name="Edipol_quadrupol">      0.00000000 </i>
    <i name="Eion">      0.00000000 </i>
   </dipole>
   <energy>
    <i name="alphaZ">    805.86936428 </i>
    <i name="ewald"> 200633.13100503 </i>
    <i name="hartreedc">-242818.10434524 </i>
    <i name="XCdc">   -343.08036627 </i>
    <i name="pawpsdc">  49463.35425170 </i>
    <i name="pawaedc"> -47541.05373309 </i>
    <i name="eentropy">     -0.24382408 </i>
    <i name="bandstr">  -2047.56493488 </i>
    <i name="atom">  41659.78587232 </i>
    <i name="e_fr_energy">   -187.90671024 </i>
    <i name="e_wo_entrp">   -187.66288615 </i>
    <i name="e_0_energy">   -187.78479819 </i>
   </energy>
  </scstep>
  <structure>
   <crystal>
    <varray name="basis" >
     <v>      11.00258152       0.00000000       0.00000000 </v>
     <v>       5.50129076       9.52851510       0.00000000 </v>
     <v>       0.00000000       0.00000000      24.49178509 </v>
    </varray>
    <i name="volume">   2567.67623402 </i>
    <varray name="rec_basis" >
     <v>       0.09088776      -0.05247407       0.00000000 </v>
     <v>       0.00000000       0.10494815       0.00000000 </v>
     <v>       0.00000000       0.00000000       0.04083002 </v>
    </varray>
   </crystal>
   <varray name="positions" >
    <v>       0.25000000       0.75000000       0.59169983 </v>
    <v>       0.50000000       0.25000000       0.59169983 </v>
    <v>       0.41666667       0.41666667       0.50000000 </v>
    <v>       0.58333333       0.33333333       0.40830017 </v>
    <v>       0.41666667       0.16666667       0.50000000 </v>
    <v>       0.41666667       0.91666667       0.50000000 </v>
    <v>       0.50000000       0.75000000       0.59169983 </v>
    <v>       0.66666667       0.16666667       0.50000000 </v>
    <v>       0.33333333       0.58333333       0.40830017 </v>
    <v>       0.16666667       0.41666667       0.50000000 </v>
    <v>       0.58333333       0.58333333       0.40830017 </v>
    <v>       0.83333333       0.58333333       0.40830017 </v>
    <v>       0.16666667       0.16666667       0.50000000 </v>
    <v>       0.41666667       0.66666667       0.50000000 </v>
    <v>       0.00000000       0.75000000       0.59169983 </v>
    <v>       0.91666667       0.91666667       0.50000000 </v>
    <v>       0.66666667       0.66666667       0.50000000 </v>
    <v>       0.00000000       0.50000000       0.59169983 </v>
    <v>       0.00000000       0.00000000       0.59169983 </v>
    <v>       0.08333333       0.33333333       0.40830017 </v>
    <v>       0.33333333       0.08333333       0.40830017 </v>
    <v>       0.08333333       0.58333333       0.40830017 </v>
    <v>       0.00000000       0.25000000       0.59169983 </v>
    <v>       0.91666667       0.41666667       0.50000000 </v>
    <v>       0.83333333       0.83333333       0.40830017 </v>
    <v>       0.58333333       0.83333333       0.40830017 </v>
    <v>       0.83333333       0.08333333       0.40830017 </v>
    <v>       0.75000000       0.00000000       0.59169983 </v>
    <v>       0.83333333       0.33333333       0.40830017 </v>
    <v>       0.66666667       0.41666667       0.50000000 </v>
    <v>       0.75000000       0.50000000       0.59169983 </v>
    <v>       0.75000000       0.25000000       0.59169983 </v>
    <v>       0.08333333       0.08333333       0.40830017 </v>
    <v>       0.50000000       0.00000000       0.59169983 </v>
    <v>       0.58333333       0.08333333       0.40830017 </v>
    <v>       0.66666667       0.91666667       0.50000000 </v>
    <v>       0.16666667       0.91666667       0.50000000 </v>
    <v>       0.33333333       0.83333333       0.40830017 </v>
    <v>       0.25000000       0.50000000       0.59169983 </v>
    <v>       0.16666667       0.66666667       0.50000000 </v>
    <v>       0.25000000       0.25000000       0.59169983 </v>
    <v>       0.33333333       0.33333333       0.40830017 </v>
    <v>       0.25000000       0.00000000       0.59169983 </v>
    <v>       0.08333333       0.83333333       0.40830017 </v>
    <v>       0.91666667       0.66666667       0.50000000 </v>
    <v>       0.91666667       0.16666667       0.50000000 </v>
    <v>       0.50000000       0.50000000       0.59169983 </v>
    <v>       0.75000000       0.75000000       0.59169983 </v>
   </varray>
  </structure>
  <varray name="forces" >
   <v>      -0.01535240      -0.14227945       1.40039202 </v>
   <v>       0.02792227      -0.00854738       1.73548905 </v>
   <v>      -0.02723482       0.31254218       0.31388199 </v>
   <v>       0.16939728      -0.37521886      -1.59133665 </v>
   <v>       0.16574648      -0.28860092       0.04430145 </v>
   <v>       0.01295395       0.02464427      -0.00940870 </v>
   <v>       0.23717676       0.00020542       1.76676235 </v>
   <v>       0.48753718      -0.32232490      -0.03957574 </v>
   <v>      -0.25301830       0.30941605      -1.62419307 </v>
   <v>       0.39475784       0.29734424       0.30248338 </v>
   <v>       0.11978054       0.04672554      -1.63483121 </v>
   <v>       0.02137106       0.31058364      -1.63601706 </v>
   <v>      -0.45266247      -0.50565822       0.24943694 </v>
   <v>      -0.30488410       0.04212126       0.02269765 </v>
   <v>      -0.22641966      -0.15215153       1.36154153 </v>
   <v>      -0.03817831      -0.09567819      -0.54492253 </v>
   <v>       0.47747126       0.11853819       0.25903444 </v>
   <v>       0.02275111       0.17766969       1.54781933 </v>
   <v>       0.02276209       0.26968212       1.36278046 </v>
   <v>      -0.15490730      -0.24352545      -1.84605935 </v>
   <v>       0.12538312      -0.21600823      -1.81484836 </v>
   <v>       0.10349163       0.37319848      -1.38054037 </v>
   <v>      -0.16539086      -0.09354775       1.55880834 </v>
   <v>      -0.73116366      -0.03895306       0.05610705 </v>
   <v>      -0.10166359       0.24335604      -0.63086296 </v>
   <v>       0.21608164       0.17476419      -0.86605141 </v>
   <v>       0.19679754      -0.09420499      -0.71744055 </v>
   <v>      -0.29795349      -0.09343313       0.81425918 </v>
   <v>      -0.08736010      -0.32508852      -0.75074104 </v>
   <v>       0.23489531      -0.28680902       0.34278278 </v>
   <v>      -0.23731172      -0.06980106       0.85794646 </v>
   <v>       0.01772466       0.18545542       0.70784643 </v>
   <v>      -0.32497412      -0.12899664      -0.70356006 </v>
   <v>       0.11645109      -0.08520332       0.87357522 </v>
   <v>       0.05137024      -0.24883199      -0.85502094 </v>
   <v>       0.12431598      -0.15961749       0.00295675 </v>
   <v>      -0.13993576       0.09748468      -0.39236662 </v>
   <v>      -0.20152771       0.16776526      -0.87141428 </v>
   <v>       0.05478687       0.00224831       0.90166636 </v>
   <v>      -0.10091561       0.18489803      -0.06781710 </v>
   <v>       0.08241901      -0.15655849       1.04835579 </v>
   <v>       0.10441168      -0.13858549      -1.10998712 </v>
   <v>       0.14915644       0.10999136       0.87710001 </v>
   <v>       0.08188787       0.24441983      -0.57997367 </v>
   <v>       0.00419473       0.45421885       0.01624633 </v>
   <v>      -0.11853721       0.02899609      -0.34743352 </v>
   <v>       0.15762304      -0.17176180       0.88446766 </v>
   <v>      -0.00122746       0.26511675       0.70566333 </v>
  </varray>
  <energy>
   <i name="e_fr_energy">   -187.90671024 </i>
   <i name="e_wo_entrp">   -187.78479819 </i>
   <i name="e_0_energy">     -0.24382408 </i>
  </energy>
  <time name="totalsc">  305.62  307.49</time>
 </calculation>
 <calculation>
  <scstep>
   <time name="dav">    9.64    9.66</time>
   <time name="total">    9.92    9.96</time>
   <dipole>
    <v name="dipole">      0.00000000       0.00000000       0.00041421 </v>
    <i name="Tr[quadrupol]"> -10306.07021234 </i>
    <i name="Echarged">      0.00000000 </i>
    <i name="Edipol_quadrupol">      0.00000000 </i>
    <i name="Eion">      0.00000000 </i>
   </dipole>
   <energy>
    <i name="alphaZ">    805.86936442 </i>
    <i name="ewald"> 197847.49955006 </i>
    <i name="hartreedc">-240049.54805985 </i>
    <i name="XCdc">   -345.38979483 </i>
    <i name="pawpsdc">  49463.35018426 </i>
    <i name="pawaedc"> -47541.04956848 </i>
    <i name="eentropy">     -0.23490439 </i>
    <i name="bandstr">  -2029.33753430 </i>
    <i name="atom">  41659.78587232 </i>
    <i name="e_fr_energy">   -189.05489079 </i>
    <i name="e_wo_entrp">   -188.81998641 </i>
    <i name="e_0_energy">   -188.93743860 </i>
   </energy>
  </scstep>
  <scstep>
   <time name="diag">    1.67    1.68</time>
   <time name="diis">    5.39    5.41</time>
   <time name="orth">    0.38    0.38</time>
   <time name="total">    7.72    7.75</time>
   <dipole>
    <v name="dipole">      0.00000000       0.00000000       0.00501118 </v>
    <i name="Tr[quadrupol]"> -10305.81999392 </i>
    <i name="Echarged">      0.00000000 </i>
    <i name="Edipol_quadrupol">      0.00000000 </i>
    <i name="Eion">      0.00000000 </i>
   </dipole>
   <energy>
    <i name="e_fr_energy">   -189.45713453 </i>
    <i name="e_wo_entrp">   -189.22015504 </i>
    <i name="e_0_energy">   -189.33864479 </i>
   </energy>
  </scstep>
  <scstep>
   <time name="diag">    1.68    1.69</time>
   <time name="diis">    5.46    5.47</time>
   <time name="orth">    0.38    0.38</time>
   <time name="total">    7.80    7.83</time>
   <dipole>
    <v name="dipole">      0.00000000       0.00000000      -0.04837349 </v>
    <i name="Tr[quadrupol]"> -10306.22652820 </i>
    <i name="Echarged">      0.00000000 </i>
    <i name="Edipol_quadrupol">      0.00000000 </i>
    <i name="Eion">      0.00000000 </i>
   </dipole>
   <energy>
    <i name="e_fr_energy">   -189.60349651 </i>
    <i name="e_wo_entrp">   -189.36972834 </i>
    <i name="e_0_energy">   -189.48661242 </i>
   </energy>
  </scstep>
  <scstep>
   <time name="diag">    1.66    1.67</time>
   <time name="diis">    5.25    5.36</time>
   <time name="orth">    0.38    0.38</time>
   <time name="total">    7.58    7.70</time>
   <dipole>
    <v name="dipole">      0.00000000       0.00000000       0.04348531 </v>
    <i name="Tr[quadrupol]"> -10306.18651899 </i>
    <i name="Echarged">      0.00000000 </i>
    <i name="Edipol_quadrupol">      0.00000000 </i>
    <i name="Eion">      0.00000000 </i>
   </dipole>
   <energy>
    <i name="e_fr_energy">   -189.46957620 </i>
    <i name="e_wo_entrp">   -189.23481834 </i>
    <i name="e_0_energy">   -189.35219727 </i>
   </energy>
  </scstep>
  <scstep>
   <time name="diag">    1.68    1.68</time>
   <time name="diis">    5.43    5.45</time>
   <time name="orth">    0.38    0.38</time>
   <time name="total">    7.77    7.80</time>
   <dipole>
    <v name="dipole">      0.00000000       0.00000000      -0.06468203 </v>
    <i name="Tr[quadrupol]"> -10306.16814916 </i>
    <i name="Echarged">      0.00000000 </i>
    <i name="Edipol_quadrupol">      0.00000000 </i>
    <i name="Eion">      0.00000000 </i>
   </dipole>
   <energy>
    <i name="e_fr_energy">   -189.50591360 </i>
    <i name="e_wo_entrp">   -189.27130626 </i>
    <i name="e_0_energy">   -189.38860993 </i>
   </energy>
  </scstep>
  <scstep>
   <time name="diag">    1.67    1.67</time>
   <time name="diis">    5.37    5.38</time>
   <time name="orth">    0.38    0.38</time>
   <time name="total">    7.70    7.72</time>
   <dipole>
    <v name="dipole">      0.00000000       0.00000000       0.01948313 </v>
    <i name="Tr[quadrupol]"> -10306.16501320 </i>
    <i name="Echarged">      0.00000000 </i>
    <i name="Edipol_quadrupol">      0.00000000 </i>
    <i name="Eion">      0.00000000 </i>
   </dipole>
   <energy>
    <i name="e_fr_energy">   -189.45327029 </i>
    <i name="e_wo_entrp">   -189.21468022 </i>
    <i name="e_0_energy">   -189.33397525 </i>
   </energy>
  </scstep>
  <scstep>
   <time name="diag">    1.68    1.68</time>
   <time name="diis">    5.33    5.38</time>
   <time name="orth">    0.37    0.38</time>
   <time name="total">    7.66    7.73</time>
   <dipole>
    <v name="dipole">      0.00000000       0.00000000      -0.00299244 </v>
    <i name="Tr[quadrupol]"> -10306.14326609 </i>
    <i name="Echarged">      0.00000000 </i>
    <i name="Edipol_quadrupol">      0.00000000 </i>
    <i name="Eion">      0.00000000 </i>
   </dipole>
   <energy>
    <i name="e_fr_energy">   -189.42975808 </i>
    <i name="e_wo_entrp">   -189.19215004 </i>
    <i name="e_0_energy">   -189.31095406 </i>
   </energy>
  </scstep>
  <scstep>
   <time name="diag">    1.64    1.67</time>
   <time name="diis">    5.34    5.36</time>
   <time name="orth">    0.37    0.38</time>
   <time name="total">    7.65    7.69</time>
   <dipole>
    <v name="dipole">      0.00000000       0.00000000      -0.00118745 </v>
    <i name="Tr[quadrupol]"> -10306.10383550 </i>
    <i name="Echarged">      0.00000000 </i>
    <i name="Edipol_quadrupol">      0.00000000 </i>
    <i name="Eion">      0.00000000 </i>
   </dipole>
   <energy>
    <i name="e_fr_energy">   -189.42823955 </i>
    <i name="e_wo_entrp">   -189.19038972 </i>
    <i name="e_0_energy">   -189.30931464 </i>
   </energy>
  </scstep>
  <scstep>
   <time name="diag">    1.69    1.69</time>
   <time name="diis">    5.32    5.41</time>
   <time name="orth">    0.37    0.39</time>
   <time name="total">    7.67    7.77</time>
   <dipole>
    <v name="dipole">      0.00000000       0.00000000       0.00047355 </v>
    <i name="Tr[quadrupol]"> -10306.10189381 </i>
    <i name="Echarged">      0.00000000 </i>
    <i name="Edipol_quadrupol">      0.00000000 </i>
    <i name="Eion">      0.00000000 </i>
   </dipole>
   <energy>
    <i name="e_fr_energy">   -189.42701677 </i>
    <i name="e_wo_entrp">   -189.18807310 </i>
    <i name="e_0_energy">   -189.30754494 </i>
   </energy>
  </scstep>
  <scstep>
   <time name="diag">    1.69    1.70</time>
   <time name="diis">    5.34    5.36</time>
   <time name="orth">    0.38    0.38</time>
   <time name="total">    7.69    7.72</time>
   <dipole>
    <v name="dipole">      0.00000000       0.00000000      -0.00102655 </v>
    <i name="Tr[quadrupol]"> -10306.09271284 </i>
    <i name="Echarged">      0.00000000 </i>
    <i name="Edipol_quadrupol">      0.00000000 </i>
    <i name="Eion">      0.00000000 </i>
   </dipole>
   <energy>
    <i name="e_fr_energy">   -189.42700127 </i>
    <i name="e_wo_entrp">   -189.18885923 </i>
    <i name="e_0_energy">   -189.30793025 </i>
   </energy>
  </scstep>
  <scstep>
   <time name="diag">    1.68    1.68</time>
   <time name="diis">    5.36    5.38</time>
   <time name="orth">    0.38    0.38</time>
   <time name="total">    7.70    7.73</time>
   <dipole>
    <v name="dipole">      0.00000000       0.00000000      -0.00076922 </v>
    <i name="Tr[quadrupol]"> -10306.09585608 </i>
    <i name="Echarged">      0.00000000 </i>
    <i name="Edipol_quadrupol">      0.00000000 </i>
    <i name="Eion">      0.00000000 </i>
   </dipole>
   <energy>
    <i name="e_fr_energy">   -189.42685037 </i>
    <i name="e_wo_entrp">   -189.18809480 </i>
    <i name="e_0_energy">   -189.30747258 </i>
   </energy>
  </scstep>
  <scstep>
   <time name="diag">    1.66    1.67</time>
   <time name="diis">    5.36    5.38</time>
   <time name="orth">    0.38    0.38</time>
   <time name="total">    7.69    7.71</time>
   <dipole>
    <v name="dipole">      0.00000000       0.00000000      -0.00058262 </v>
    <i name="Tr[quadrupol]"> -10306.09998969 </i>
    <i name="Echarged">      0.00000000 </i>
    <i name="Edipol_quadrupol">      0.00000000 </i>
    <i name="Eion">      0.00000000 </i>
   </dipole>
   <energy>
    <i name="e_fr_energy">   -189.42686265 </i>
    <i name="e_wo_entrp">   -189.18819252 </i>
    <i name="e_0_energy">   -189.30752758 </i>
   </energy>
  </scstep>
  <scstep>
   <time name="diag">    1.68    1.69</time>
   <time name="diis">    5.58    5.59</time>
   <time name="orth">    0.38    0.38</time>
   <time name="total">    7.93    7.96</time>
   <dipole>
    <v name="dipole">      0.00000000       0.00000000      -0.00063591 </v>
    <i name="Tr[quadrupol]"> -10306.10548654 </i>
    <i name="Echarged">      0.00000000 </i>
    <i name="Edipol_quadrupol">      0.00000000 </i>
    <i name="Eion">      0.00000000 </i>
   </dipole>
   <energy>
    <i name="e_fr_energy">   -189.42685150 </i>
    <i name="e_wo_entrp">   -189.18822069 </i>
    <i name="e_0_energy">   -189.30753609 </i>
   </energy>
  </scstep>
  <scstep>
   <time name="diag">    1.67    1.67</time>
   <time name="diis">    4.72    4.73</time>
   <time name="orth">    0.38    0.38</time>
   <time name="total">    6.82    6.84</time>
   <dipole>
    <v name="dipole">      0.00000000       0.00000000      -0.00074162 </v>
    <i name="Tr[quadrupol]"> -10306.10864937 </i>
    <i name="Echarged">      0.00000000 </i>
    <i name="Edipol_quadrupol">      0.00000000 </i>
    <i name="Eion">      0.00000000 </i>
   </dipole>
   <energy>
    <i name="alphaZ">    805.86936402 </i>
    <i name="ewald"> 197847.49955006 </i>
    <i name="hartreedc">-240051.50203875 </i>
    <i name="XCdc">   -345.32320955 </i>
    <i name="pawpsdc">  48993.53270171 </i>
    <i name="pawaedc"> -47067.96696705 </i>
    <i name="eentropy">     -0.23872394 </i>
    <i name="bandstr">  -2031.08339945 </i>
    <i name="atom">  41659.78587232 </i>
    <i name="e_fr_energy">   -189.42685064 </i>
    <i name="e_wo_entrp">   -189.18812669 </i>
    <i name="e_0_energy">   -189.30748867 </i>
   </energy>
  </scstep>
  <structure>
   <crystal>
    <varray name="basis" >
     <v>      11.00258152       0.00000000       0.00000000 </v>
     <v>       5.50129076       9.52851510       0.00000000 </v>
     <v>       0.00000000       0.00000000      24.49178509 </v>
    </varray>
    <i name="volume">   2567.67623402 </i>
    <varray name="rec_basis" >
     <v>       0.09088776      -0.05247407       0.00000000 </v>
     <v>       0.00000000       0.10494815       0.00000000 </v>
     <v>       0.00000000       0.00000000       0.04083002 </v>
    </varray>
   </crystal>
   <varray name="positions" >
    <v>       0.25020500       0.74949575       0.59363072 </v>
    <v>       0.50010085       0.24996971       0.59409276 </v>
    <v>       0.41602924       0.41777434       0.50043279 </v>
    <v>       0.58451816       0.33200353       0.40610600 </v>
    <v>       0.41768680       0.16564384       0.50006108 </v>
    <v>       0.41666276       0.91675401       0.49998703 </v>
    <v>       0.50072759       0.75000073       0.59413588 </v>
    <v>       0.66873422       0.16552432       0.49994543 </v>
    <v>       0.33200845       0.58442993       0.40606069 </v>
    <v>       0.16735138       0.41772048       0.50041707 </v>
    <v>       0.58361817       0.58349893       0.40604602 </v>
    <v>       0.83284856       0.58443407       0.40604439 </v>
    <v>       0.16617337       0.16487457       0.50034393 </v>
    <v>       0.41565626       0.66681595       0.50003130 </v>
    <v>      -0.00042532       0.74946076       0.59357716 </v>
    <v>       0.91671903       0.91632758       0.49924865 </v>
    <v>       0.66792210       0.66708678       0.50035716 </v>
    <v>      -0.00024501       0.50062968       0.59383400 </v>
    <v>      -0.00040803       0.00095578       0.59357886 </v>
    <v>       0.08328942       0.33247026       0.40575478 </v>
    <v>       0.33410094       0.08256778       0.40579781 </v>
    <v>       0.08298965       0.58465598       0.40639665 </v>
    <v>      -0.00034186       0.24966846       0.59384915 </v>
    <v>       0.91449156       0.41652861       0.50007736 </v>
    <v>       0.83259006       0.83419581       0.40743032 </v>
    <v>       0.58368686       0.83395271       0.40710604 </v>
    <v>       0.83410429       0.08299946       0.40731095 </v>
    <v>       0.74925107      -0.00033113       0.59282255 </v>
    <v>       0.83364127       0.33218119       0.40726503 </v>
    <v>       0.66789586       0.41565019       0.50047264 </v>
    <v>       0.74939532       0.49975262       0.59288279 </v>
    <v>       0.74972577       0.25065727       0.59267583 </v>
    <v>       0.08256449       0.08287616       0.40733008 </v>
    <v>       0.50050840      -0.00030197       0.59290434 </v>
    <v>       0.58393194       0.08245145       0.40712125 </v>
    <v>       0.66733107       0.91610097       0.50000408 </v>
    <v>       0.16606442       0.91701216       0.49945900 </v>
    <v>       0.33241750       0.83392791       0.40709864 </v>
    <v>       0.25016417       0.50000797       0.59294307 </v>
    <v>       0.16602928       0.66732196       0.49990649 </v>
    <v>       0.25053039       0.24944514       0.59314533 </v>
    <v>       0.33389938       0.33284217       0.40676969 </v>
    <v>       0.25026289       0.00038982       0.59290920 </v>
    <v>       0.08315155       0.83419958       0.40750049 </v>
    <v>       0.91587465       0.66827646       0.50002240 </v>
    <v>       0.91625146       0.16676943       0.49952095 </v>
    <v>       0.50078816       0.49939126       0.59291936 </v>
    <v>       0.74952643       0.75093960       0.59267282 </v>
   </varray>
  </structure>
  <varray name="forces" >
   <v>       0.00089426      -0.04125785       1.01957906 </v>
   <v>       0.03698521      -0.02281981       1.22967356 </v>
   <v>       0.12710242       0.04848780       0.05615379 </v>
   <v>       0.05123234      -0.17820750      -1.07870911 </v>
   <v>       0.11085044      -0.10292651      -0.00031604 </v>
   <v>       0.00450747      -0.08740179      -0.01000988 </v>
   <v>       0.11563162      -0.00425205       1.26698909 </v>
   <v>       0.15216630      -0.06073663       0.01335210 </v>
   <v>      -0.08370608       0.11799997      -1.18987698 </v>
   <v>      -0.05672135       0.08945607       0.04852327 </v>
   <v>       0.04767519       0.03258833      -1.07913034 </v>
   <v>       0.04735149       0.13781390      -1.17511364 </v>
   <v>      -0.19533878      -0.07510127       0.04274401 </v>
   <v>      -0.03490886       0.03207786      -0.01070863 </v>
   <v>      -0.09513916       0.00842444       0.98909687 </v>
   <v>       0.07354146      -0.09800970      -0.10324153 </v>
   <v>       0.11334917       0.06864008       0.07750404 </v>
   <v>      -0.06472909       0.02992212       1.05811296 </v>
   <v>      -0.06073702       0.08325873       0.92042368 </v>
   <v>      -0.05975131      -0.12841307      -1.15905650 </v>
   <v>       0.04338082      -0.10569163      -1.29311335 </v>
   <v>      -0.00983317       0.17419797      -0.99209539 </v>
   <v>      -0.06854889       0.01377700       1.15560109 </v>
   <v>      -0.13207464      -0.04157017      -0.01915970 </v>
   <v>      -0.06449857       0.18238614      -0.58388992 </v>
   <v>       0.09748137       0.09041362      -0.64765290 </v>
   <v>       0.11231943      -0.08077773      -0.66560525 </v>
   <v>      -0.13959390      -0.05641164       0.60879852 </v>
   <v>      -0.03573523      -0.15638832      -0.61930802 </v>
   <v>      -0.02224530      -0.06617710       0.04290613 </v>
   <v>      -0.12024015      -0.01445394       0.73227817 </v>
   <v>      -0.02867703       0.07751341       0.58287839 </v>
   <v>      -0.15451991      -0.06505495      -0.61495283 </v>
   <v>       0.05907684      -0.03912981       0.67923414 </v>
   <v>       0.05740749      -0.13733777      -0.65047978 </v>
   <v>       0.06146948      -0.04738637       0.00773861 </v>
   <v>      -0.15216275      -0.00483843      -0.07751341 </v>
   <v>      -0.07959665       0.09040368      -0.66397248 </v>
   <v>       0.05163692      -0.00507544       0.75922035 </v>
   <v>      -0.08009176       0.18422289      -0.00717268 </v>
   <v>       0.04004693      -0.09822504       0.73496839 </v>
   <v>       0.06368913      -0.07392148      -0.73176605 </v>
   <v>       0.11330062       0.00279277       0.69593348 </v>
   <v>       0.04355841       0.17688330      -0.54730656 </v>
   <v>       0.04198560       0.11436756      -0.01465000 </v>
   <v>      -0.02418405      -0.04909719      -0.09826577 </v>
   <v>       0.10307461      -0.07472734       0.69244508 </v>
   <v>      -0.00668135       0.15976288       0.61891195 </v>
  </varray>
  <energy>
   <i name="e_fr_energy">   -189.42685064 </i>
   <i name="e_wo_entrp">   -189.30748867 </i>
   <i name="e_0_energy">     -0.23872394 </i>
  </energy>
  <time name="totalsc">  112.61  113.34</time>
 </calculation>
 <calculation>
  <scstep>
   <time name="dav">    9.66    9.70</time>
   <time name="total">    9.94    9.99</time>
   <dipole>
    <v name="dipole">      0.00000000       0.00000000      -0.00077788 </v>
    <i name="Tr[quadrupol]"> -10238.66433795 </i>
    <i name="Echarged">      0.00000000 </i>
    <i name="Edipol_quadrupol">      0.00000000 </i>
    <i name="Eion">      0.00000000 </i>
   </dipole>
   <energy>
    <i name="alphaZ">    805.86936323 </i>
    <i name="ewald"> 189615.22065493 </i>
    <i name="hartreedc">-231863.53403622 </i>
    <i name="XCdc">   -351.10380692 </i>
    <i name="pawpsdc">  48993.45767457 </i>
    <i name="pawaedc"> -47067.89273035 </i>
    <i name="eentropy">     -0.20760318 </i>
    <i name="bandstr">  -1979.50693536 </i>
    <i name="atom">  41659.78587232 </i>
    <i name="e_fr_energy">   -187.91154698 </i>
    <i name="e_wo_entrp">   -187.70394380 </i>
    <i name="e_0_energy">   -187.80774539 </i>
   </energy>
  </scstep>
  <scstep>
   <time name="diag">    1.69    1.69</time>
   <time name="diis">    5.38    5.39</time>
   <time name="orth">    0.38    0.38</time>
   <time name="total">    7.72    7.75</time>
   <dipole>
    <v name="dipole">      0.00000000       0.00000000       0.01130626 </v>
    <i name="Tr[quadrupol]"> -10237.87307079 </i>
    <i name="Echarged">      0.00000000 </i>
    <i name="Edipol_quadrupol">      0.00000000 </i>
    <i name="Eion">      0.00000000 </i>
   </dipole>
   <energy>
    <i name="e_fr_energy">   -191.45351218 </i>
    <i name="e_wo_entrp">   -191.23285205 </i>
    <i name="e_0_energy">   -191.34318212 </i>
   </energy>
  </scstep>
  <scstep>
   <time name="diag">    1.66    1.66</time>
   <time name="diis">    5.43    5.45</time>
   <time name="orth">    0.38    0.38</time>
   <time name="total">    7.75    7.78</time>
   <dipole>
    <v name="dipole">      0.00000000       0.00000000      -0.10866299 </v>
    <i name="Tr[quadrupol]"> -10238.79547304 </i>
    <i name="Echarged">      0.00000000 </i>
    <i name="Edipol_quadrupol">      0.00000000 </i>
    <i name="Eion">      0.00000000 </i>
   </dipole>
   <energy>
    <i name="e_fr_energy">   -191.97661636 </i>
    <i name="e_wo_entrp">   -191.74846099 </i>
    <i name="e_0_energy">   -191.86253868 </i>
   </energy>
  </scstep>
  <scstep>
   <time name="diag">    1.69    1.69</time>
   <time name="diis">    5.40    5.42</time>
   <time name="orth">    0.38    0.38</time>
   <time name="total">    7.75    7.77</time>
   <dipole>
    <v name="dipole">      0.00000000       0.00000000       0.09701857 </v>
    <i name="Tr[quadrupol]"> -10238.72612007 </i>
    <i name="Echarged">      0.00000000 </i>
    <i name="Edipol_quadrupol">      0.00000000 </i>
    <i name="Eion">      0.00000000 </i>
   </dipole>
   <energy>
    <i name="e_fr_energy">   -191.45122930 </i>
    <i name="e_wo_entrp">   -191.24665395 </i>
    <i name="e_0_energy">   -191.34894162 </i>
   </energy>
  </scstep>
  <scstep>
   <time name="diag">    1.66    1.66</time>
   <time name="diis">    5.32    5.42</time>
   <time name="orth">    0.38    0.38</time>
   <time name="total">    7.63    7.75</time>
   <dipole>
    <v name="dipole">      0.00000000       0.00000000      -0.13616423 </v>
    <i name="Tr[quadrupol]"> -10238.83153247 </i>
    <i name="Echarged">      0.00000000 </i>
    <i name="Edipol_quadrupol">      0.00000000 </i>
    <i name="Eion">      0.00000000 </i>
   </dipole>
   <energy>
    <i name="e_fr_energy">   -191.51408612 </i>
    <i name="e_wo_entrp">   -191.29598630 </i>
    <i name="e_0_energy">   -191.40503621 </i>
   </energy>
  </scstep>
  <scstep>
   <time name="diag">    1.67    1.68</time>
   <time name="diis">    5.33    5.35</time>
   <time name="orth">    0.38    0.38</time>
   <time name="total">    7.66    7.69</time>
   <dipole>
    <v name="dipole">      0.00000000       0.00000000       0.08465521 </v>
    <i name="Tr[quadrupol]"> -10238.98187568 </i>
    <i name="Echarged">      0.00000000 </i>
    <i name="Edipol_quadrupol">      0.00000000 </i>
    <i name="Eion">      0.00000000 </i>
   </dipole>
   <energy>
    <i name="e_fr_energy">   -191.43910788 </i>
    <i name="e_wo_entrp">   -191.20105431 </i>
    <i name="e_0_energy">   -191.32008109 </i>
   </energy>
  </scstep>
  <scstep>
   <time name="diag">    1.65    1.66</time>
   <time name="diis">    5.36    5.37</time>
   <time name="orth">    0.38    0.38</time>
   <time name="total">    7.67    7.69</time>
   <dipole>
    <v name="dipole">      0.00000000       0.00000000      -0.01083693 </v>
    <i name="Tr[quadrupol]"> -10238.77139624 </i>
    <i name="Echarged">      0.00000000 </i>
    <i name="Edipol_quadrupol">      0.00000000 </i>
    <i name="Eion">      0.00000000 </i>
   </dipole>
   <energy>
    <i name="e_fr_energy">   -191.22063352 </i>
    <i name="e_wo_entrp">   -191.02228666 </i>
    <i name="e_0_energy">   -191.12146009 </i>
   </energy>
  </scstep>
  <scstep>
   <time name="diag">    1.68    1.69</time>
   <time name="diis">    5.36    5.40</time>
   <time name="orth">    0.37    0.38</time>
   <time name="total">    7.69    7.75</time>
   <dipole>
    <v name="dipole">      0.00000000       0.00000000       0.00103581 </v>
    <i name="Tr[quadrupol]"> -10238.72991148 </i>
    <i name="Echarged">      0.00000000 </i>
    <i name="Edipol_quadrupol">      0.00000000 </i>
    <i name="Eion">      0.00000000 </i>
   </dipole>
   <energy>
    <i name="e_fr_energy">   -191.18916159 </i>
    <i name="e_wo_entrp">   -190.96736642 </i>
    <i name="e_0_energy">   -191.07826401 </i>
   </energy>
  </scstep>
  <scstep>
   <time name="diag">    1.65    1.66</time>
   <time name="diis">    5.32    5.33</time>
   <time name="orth">    0.38    0.38</time>
   <time name="total">    7.63    7.66</time>
   <dipole>
    <v name="dipole">      0.00000000       0.00000000      -0.00309474 </v>
    <i name="Tr[quadrupol]"> -10238.65482123 </i>
    <i name="Echarged">      0.00000000 </i>
    <i name="Edipol_quadrupol">      0.00000000 </i>
    <i name="Eion">      0.00000000 </i>
   </dipole>
   <energy>
    <i name="e_fr_energy">   -191.17867483 </i>
    <i name="e_wo_entrp">   -190.96327704 </i>
    <i name="e_0_energy">   -191.07097593 </i>
   </energy>
  </scstep>
  <scstep>
   <time name="diag">    1.68    1.68</time>
   <time name="diis">    5.24    5.35</time>
   <time name="orth">    0.38    0.38</time>
   <time name="total">    7.58    7.70</time>
   <dipole>
    <v name="dipole">      0.00000000       0.00000000      -0.00313560 </v>
    <i name="Tr[quadrupol]"> -10238.66962864 </i>
    <i name="Echarged">      0.00000000 </i>
    <i name="Edipol_quadrupol">      0.00000000 </i>
    <i name="Eion">      0.00000000 </i>
   </dipole>
   <energy>
    <i name="e_fr_energy">   -191.17671077 </i>
    <i name="e_wo_entrp">   -190.95531337 </i>
    <i name="e_0_energy">   -191.06601207 </i>
   </energy>
  </scstep>
  <scstep>
   <time name="diag">    1.66    1.67</time>
   <time name="diis">    5.42    5.43</time>
   <time name="orth">    0.38    0.38</time>
   <time name="total">    7.74    7.77</time>
   <dipole>
    <v name="dipole">      0.00000000       0.00000000      -0.00471138 </v>
    <i name="Tr[quadrupol]"> -10238.66177982 </i>
    <i name="Echarged">      0.00000000 </i>
    <i name="Edipol_quadrupol">      0.00000000 </i>
    <i name="Eion">      0.00000000 </i>
[...]
       <r>    2.2591    0.0000 </r>
       <r>    2.3036    0.0000 </r>
       <r>    2.3882    0.0000 </r>
       <r>    2.5964    0.0000 </r>
       <r>    2.6787    0.0000 </r>
       <r>    2.9751    0.0000 </r>
       <r>    3.1831    0.0000 </r>
       <r>    3.2796    0.0000 </r>
       <r>    3.4427    0.0000 </r>
       <r>    3.6408    0.0000 </r>
       <r>    3.7148    0.0000 </r>
       <r>    3.9732    0.0000 </r>
       <r>    4.0694    0.0000 </r>
       <r>    4.1690    0.0000 </r>
       <r>    4.4359    0.0000 </r>
       <r>    4.5215    0.0000 </r>
       <r>    4.6157    0.0000 </r>
       <r>    4.6280    0.0000 </r>
       <r>    4.7882    0.0000 </r>
       <r>    4.8068    0.0000 </r>
       <r>    4.8730    0.0000 </r>
       <r>    4.9336    0.0000 </r>
       <r>    4.9632    0.0000 </r>
       <r>    5.0577    0.0000 </r>
       <r>    5.0803    0.0000 </r>
       <r>    5.0954    0.0000 </r>
       <r>    5.2056    0.0000 </r>
       <r>    5.2581    0.0000 </r>
      </set>
     </set>
    </set>
   </array>
  </eigenvalues>
  <separator name="orbital magnetization" >
   <v name="MAGDIPOLOUT">      0.00000000      0.00000000      0.00000000</v>
  </separator>
  <dos>
   <i name="efermi">     -1.10422761 </i>
   <total>
    <array>
     <dimension dim="1">gridpoints</dimension>
     <dimension dim="2">spin</dimension>
     <field>energy</field>
     <field>total</field>
     <field>integrated</field>
     <set>
      <set comment="spin 1">
       <r>    -9.8806     0.0000     0.0000 </r>
       <r>    -9.8265     0.0000     0.0000 </r>
       <r>    -9.7723     0.0000     0.0000 </r>
       <r>    -9.7181     0.0000     0.0000 </r>
       <r>    -9.6640     0.0000     0.0000 </r>
       <r>    -9.6098     0.0000     0.0000 </r>
       <r>    -9.5557     0.0000     0.0000 </r>
       <r>    -9.5015     0.0000     0.0000 </r>
       <r>    -9.4473     0.0000     0.0000 </r>
       <r>    -9.3932     0.0000     0.0000 </r>
       <r>    -9.3390     0.0000     0.0000 </r>
       <r>    -9.2849     0.0000     0.0000 </r>
       <r>    -9.2307     0.0000     0.0000 </r>
       <r>    -9.1766     0.0002     0.0000 </r>
       <r>    -9.1224     0.0049     0.0003 </r>
       <r>    -9.0682     0.0616     0.0036 </r>
       <r>    -9.0141     0.4391     0.0274 </r>
       <r>    -8.9599     1.7852     0.1241 </r>
       <r>    -8.9058     4.1514     0.3489 </r>
       <r>    -8.8516     5.5850     0.6514 </r>
       <r>    -8.7974     4.7166     0.9068 </r>
       <r>    -8.7433     3.8412     1.1149 </r>
       <r>    -8.6891     4.8479     1.3774 </r>
       <r>    -8.6350     5.5422     1.6776 </r>
       <r>    -8.5808     3.9197     1.8899 </r>
       <r>    -8.5267     1.6041     1.9767 </r>
       <r>    -8.4725     0.3878     1.9977 </r>
       <r>    -8.4183     0.1732     2.0071 </r>
       <r>    -8.3642     0.7264     2.0465 </r>
       <r>    -8.3100     2.4418     2.1787 </r>
       <r>    -8.2559     4.7563     2.4363 </r>
       <r>    -8.2017     5.3875     2.7281 </r>
       <r>    -8.1475     3.8481     2.9365 </r>
       <r>    -8.0934     3.1065     3.1047 </r>
       <r>    -8.0392     5.4557     3.4002 </r>
       <r>    -7.9851     9.1748     3.8971 </r>
       <r>    -7.9309    10.0265     4.4401 </r>
       <r>    -7.8768     6.8845     4.8130 </r>
       <r>    -7.8226     3.4707     5.0009 </r>
       <r>    -7.7684     3.1106     5.1694 </r>
       <r>    -7.7143     5.5125     5.4679 </r>
       <r>    -7.6601     8.1776     5.9108 </r>
       <r>    -7.6060     9.0882     6.4030 </r>
       <r>    -7.5518     8.4948     6.8631 </r>
       <r>    -7.4976     8.2442     7.3096 </r>
       <r>    -7.4435     9.3117     7.8139 </r>
       <r>    -7.3893    11.4099     8.4318 </r>
       <r>    -7.3352    14.1171     9.1964 </r>
       <r>    -7.2810    16.4101    10.0851 </r>
       <r>    -7.2269    17.7964    11.0490 </r>
       <r>    -7.1727    18.9944    12.0777 </r>
       <r>    -7.1185    20.1251    13.1676 </r>
       <r>    -7.0644    21.1487    14.3130 </r>
       <r>    -7.0102    22.7367    15.5444 </r>
       <r>    -6.9561    25.0199    16.8994 </r>
       <r>    -6.9019    27.3325    18.3797 </r>
       <r>    -6.8477    29.9155    19.9999 </r>
       <r>    -6.7936    33.6808    21.8240 </r>
       <r>    -6.7394    38.3694    23.9020 </r>
       <r>    -6.6853    41.7771    26.1646 </r>
       <r>    -6.6311    43.3319    28.5114 </r>
       <r>    -6.5770    45.2625    30.9627 </r>
       <r>    -6.5228    47.4596    33.5331 </r>
       <r>    -6.4686    49.2410    36.1999 </r>
       <r>    -6.4145    53.4158    39.0928 </r>
       <r>    -6.3603    61.5537    42.4264 </r>
       <r>    -6.3062    70.6817    46.2544 </r>
       <r>    -6.2520    77.5324    50.4535 </r>
       <r>    -6.1978    81.1242    54.8470 </r>
       <r>    -6.1437    82.1578    59.2966 </r>
       <r>    -6.0895    82.7661    63.7790 </r>
       <r>    -6.0354    84.4227    68.3512 </r>
       <r>    -5.9812    85.5830    72.9863 </r>
       <r>    -5.9271    83.8404    77.5269 </r>
       <r>    -5.8729    79.9135    81.8549 </r>
       <r>    -5.8187    76.4141    85.9934 </r>
       <r>    -5.7646    73.8083    89.9907 </r>
       <r>    -5.7104    70.3745    93.8021 </r>
       <r>    -5.6563    64.9916    97.3219 </r>
       <r>    -5.6021    58.9592   100.5151 </r>
       <r>    -5.5479    55.0751   103.4978 </r>
       <r>    -5.4938    55.1784   106.4862 </r>
       <r>    -5.4396    59.5152   109.7095 </r>
       <r>    -5.3855    66.1143   113.2901 </r>
       <r>    -5.3313    72.4111   117.2118 </r>
       <r>    -5.2772    78.0229   121.4374 </r>
       <r>    -5.2230    83.4297   125.9558 </r>
       <r>    -5.1688    87.2362   130.6804 </r>
       <r>    -5.1147    88.5210   135.4745 </r>
       <r>    -5.0605    89.6835   140.3316 </r>
       <r>    -5.0064    91.8927   145.3084 </r>
       <r>    -4.9522    93.1085   150.3510 </r>
       <r>    -4.8980    92.1199   155.3401 </r>
       <r>    -4.8439    89.5910   160.1922 </r>
       <r>    -4.7897    86.7955   164.8929 </r>
       <r>    -4.7356    85.1644   169.5052 </r>
       <r>    -4.6814    84.5999   174.0870 </r>
       <r>    -4.6272    83.0812   178.5866 </r>
       <r>    -4.5731    81.2957   182.9894 </r>
       <r>    -4.5189    81.8867   187.4243 </r>
       <r>    -4.4648    83.5803   191.9509 </r>
       <r>    -4.4106    83.9280   196.4963 </r>
       <r>    -4.3565    83.3168   201.0086 </r>
       <r>    -4.3023    83.2006   205.5146 </r>
       <r>    -4.2481    84.5225   210.0922 </r>
       <r>    -4.1940    87.3146   214.8210 </r>
       <r>    -4.1398    90.6225   219.7290 </r>
       <r>    -4.0857    92.1345   224.7188 </r>
       <r>    -4.0315    90.3636   229.6128 </r>
       <r>    -3.9773    87.5118   234.3523 </r>
       <r>    -3.9232    86.1201   239.0164 </r>
       <r>    -3.8690    85.9246   243.6699 </r>
       <r>    -3.8149    86.6449   248.3625 </r>
       <r>    -3.7607    89.5301   253.2113 </r>
       <r>    -3.7066    94.0079   258.3026 </r>
       <r>    -3.6524    97.5677   263.5867 </r>
       <r>    -3.5982    99.4740   268.9741 </r>
       <r>    -3.5441   100.6430   274.4247 </r>
       <r>    -3.4899   101.2926   279.9106 </r>
       <r>    -3.4358   101.4777   285.4064 </r>
       <r>    -3.3816   101.5232   290.9048 </r>
       <r>    -3.3274   101.4874   296.4012 </r>
       <r>    -3.2733   102.0070   301.9257 </r>
       <r>    -3.2191   101.4577   307.4205 </r>
       <r>    -3.1650    96.6853   312.6568 </r>
       <r>    -3.1108    89.6686   317.5131 </r>
       <r>    -3.0567    84.8224   322.1070 </r>
       <r>    -3.0025    83.4496   326.6265 </r>
       <r>    -2.9483    85.4459   331.2541 </r>
       <r>    -2.8942    89.5008   336.1013 </r>
       <r>    -2.8400    93.0608   341.1413 </r>
       <r>    -2.7859    95.3204   346.3037 </r>
       <r>    -2.7317    97.8645   351.6039 </r>
       <r>    -2.6775   101.8342   357.1191 </r>
       <r>    -2.6234   105.2307   362.8182 </r>
       <r>    -2.5692   105.1220   368.5114 </r>
       <r>    -2.5151   102.3725   374.0558 </r>
       <r>    -2.4609    99.6818   379.4544 </r>
       <r>    -2.4068    97.4077   384.7298 </r>
       <r>    -2.3526    94.3167   389.8379 </r>
       <r>    -2.2984    90.4748   394.7378 </r>
       <r>    -2.2443    87.6213   399.4833 </r>
       <r>    -2.1901    87.7658   404.2365 </r>
       <r>    -2.1360    90.9691   409.1633 </r>
       <r>    -2.0818    95.6362   414.3428 </r>
       <r>    -2.0276   100.8737   419.8059 </r>
       <r>    -1.9735   104.8533   425.4846 </r>
       <r>    -1.9193   105.3281   431.1890 </r>
       <r>    -1.8652   103.8346   436.8125 </r>
       <r>    -1.8110   102.9236   442.3867 </r>
       <r>    -1.7569   101.8775   447.9042 </r>
       <r>    -1.7027    99.5667   453.2966 </r>
       <r>    -1.6485    96.6525   458.5311 </r>
       <r>    -1.5944    94.4568   463.6468 </r>
       <r>    -1.5402    93.3775   468.7039 </r>
       <r>    -1.4861    93.3720   473.7608 </r>
       <r>    -1.4319    94.7189   478.8906 </r>
       <r>    -1.3777    95.2555   484.0495 </r>
       <r>    -1.3236    91.9683   489.0304 </r>
       <r>    -1.2694    85.3122   493.6507 </r>
       <r>    -1.2153    76.2618   497.7810 </r>
       <r>    -1.1611    63.6818   501.2299 </r>
       <r>    -1.1070    49.0320   503.8854 </r>
       <r>    -1.0528    37.2832   505.9046 </r>
       <r>    -0.9986    29.2678   507.4897 </r>
       <r>    -0.9445    21.4374   508.6507 </r>
       <r>    -0.8903    14.0454   509.4113 </r>
       <r>    -0.8362    10.1293   509.9599 </r>
       <r>    -0.7820     9.5307   510.4761 </r>
       <r>    -0.7278    10.1913   511.0280 </r>
       <r>    -0.6737    11.0936   511.6289 </r>
       <r>    -0.6195    12.9067   512.3279 </r>
       <r>    -0.5654    16.9063   513.2435 </r>
       <r>    -0.5112    21.7696   514.4225 </r>
       <r>    -0.4571    23.9211   515.7180 </r>
       <r>    -0.4029    21.9991   516.9095 </r>
       <r>    -0.3487    19.0855   517.9431 </r>
       <r>    -0.2946    19.5227   519.0004 </r>
       <r>    -0.2404    22.2185   520.2037 </r>
       <r>    -0.1863    21.4469   521.3653 </r>
       <r>    -0.1321    16.7824   522.2742 </r>
       <r>    -0.0779    12.7770   522.9661 </r>
       <r>    -0.0238    10.2978   523.5239 </r>
       <r>     0.0304     8.5198   523.9853 </r>
       <r>     0.0845     9.4838   524.4989 </r>
       <r>     0.1387    13.0685   525.2067 </r>
       <r>     0.1928    15.2043   526.0301 </r>
       <r>     0.2470    15.0528   526.8453 </r>
       <r>     0.3012    15.2773   527.6727 </r>
       <r>     0.3553    16.4068   528.5613 </r>
       <r>     0.4095    18.0543   529.5391 </r>
       <r>     0.4636    20.2992   530.6385 </r>
       <r>     0.5178    22.1662   531.8390 </r>
       <r>     0.5720    23.2242   533.0967 </r>
       <r>     0.6261    24.1156   534.4028 </r>
       <r>     0.6803    24.7921   535.7455 </r>
       <r>     0.7344    24.2910   537.0611 </r>
       <r>     0.7886    21.8305   538.2434 </r>
       <r>     0.8427    17.7501   539.2047 </r>
       <r>     0.8969    13.9253   539.9589 </r>
       <r>     0.9511    11.6275   540.5886 </r>
       <r>     1.0052    10.1989   541.1409 </r>
       <r>     1.0594     9.1646   541.6373 </r>
       <r>     1.1135     8.3819   542.0912 </r>
       <r>     1.1677     7.5884   542.5022 </r>
       <r>     1.2219     6.9792   542.8802 </r>
       <r>     1.2760     6.8783   543.2527 </r>
       <r>     1.3302     7.0832   543.6363 </r>
       <r>     1.3843     7.6524   544.0508 </r>
       <r>     1.4385     9.6865   544.5754 </r>
       <r>     1.4926    13.2190   545.2913 </r>
       <r>     1.5468    16.0863   546.1625 </r>
       <r>     1.6010    16.4112   547.0513 </r>
       <r>     1.6551    14.6314   547.8437 </r>
       <r>     1.7093    12.9536   548.5453 </r>
       <r>     1.7634    13.2974   549.2654 </r>
       <r>     1.8176    14.8812   550.0714 </r>
       <r>     1.8718    14.7962   550.8727 </r>
       <r>     1.9259    13.1278   551.5837 </r>
       <r>     1.9801    12.5923   552.2657 </r>
       <r>     2.0342    13.3666   552.9896 </r>
       <r>     2.0884    14.4201   553.7705 </r>
       <r>     2.1425    16.6951   554.6747 </r>
       <r>     2.1967    20.5616   555.7883 </r>
       <r>     2.2509    23.4970   557.0609 </r>
       <r>     2.3050    24.0872   558.3654 </r>
       <r>     2.3592    23.4153   559.6335 </r>
       <r>     2.4133    21.8659   560.8178 </r>
       <r>     2.4675    19.8339   561.8919 </r>
       <r>     2.5217    18.8127   562.9108 </r>
       <r>     2.5758    19.8347   563.9850 </r>
       <r>     2.6300    21.6450   565.1573 </r>
       <r>     2.6841    21.8984   566.3432 </r>
       <r>     2.7383    19.8022   567.4157 </r>
       <r>     2.7925    15.4718   568.2536 </r>
       <r>     2.8466     9.9646   568.7933 </r>
       <r>     2.9008     6.3867   569.1392 </r>
       <r>     2.9549     5.8912   569.4582 </r>
       <r>     3.0091     5.5603   569.7594 </r>
       <r>     3.0632     4.2027   569.9870 </r>
       <r>     3.1174     4.2583   570.2176 </r>
       <r>     3.1716     6.5019   570.5698 </r>
       <r>     3.2257     8.9786   571.0560 </r>
       <r>     3.2799    10.6645   571.6336 </r>
       <r>     3.3340    11.5513   572.2592 </r>
       <r>     3.3882    12.1920   572.9195 </r>
       <r>     3.4424    13.6400   573.6582 </r>
       <r>     3.4965    14.7781   574.4586 </r>
       <r>     3.5507    15.1716   575.2802 </r>
       <r>     3.6048    17.1038   576.2066 </r>
       <r>     3.6590    19.9753   577.2884 </r>
       <r>     3.7131    20.7679   578.4131 </r>
       <r>     3.7673    18.3796   579.4086 </r>
       <r>     3.8215    14.1471   580.1747 </r>
       <r>     3.8756    10.7126   580.7549 </r>
       <r>     3.9298    10.4031   581.3183 </r>
       <r>     3.9839    13.3494   582.0413 </r>
       <r>     4.0381    15.6043   582.8864 </r>
       <r>     4.0923    14.0950   583.6498 </r>
       <r>     4.1464    11.8621   584.2922 </r>
       <r>     4.2006    11.6515   584.9232 </r>
       <r>     4.2547    10.7403   585.5049 </r>
       <r>     4.3089     8.1690   585.9473 </r>
       <r>     4.3630     7.9585   586.3784 </r>
       <r>     4.4172    11.4636   586.9992 </r>
       <r>     4.4714    15.3133   587.8286 </r>
       <r>     4.5255    18.2333   588.8160 </r>
       <r>     4.5797    21.9397   590.0043 </r>
       <r>     4.6338    25.4374   591.3819 </r>
       <r>     4.6880    25.8108   592.7798 </r>
       <r>     4.7422    24.1957   594.0902 </r>
       <r>     4.7963    23.8386   595.3812 </r>
       <r>     4.8505    25.0647   596.7387 </r>
       <r>     4.9046    27.5712   598.2319 </r>
       <r>     4.9588    31.0254   599.9122 </r>
       <r>     5.0129    33.7193   601.7384 </r>
       <r>     5.0671    34.9651   603.6320 </r>
       <r>     5.1213    34.2269   605.4857 </r>
       <r>     5.1754    31.8439   607.2103 </r>
       <r>     5.2296    29.5778   608.8122 </r>
       <r>     5.2837    25.7988   610.2094 </r>
       <r>     5.3379    18.2842   611.1997 </r>
       <r>     5.3921     9.6950   611.7247 </r>
       <r>     5.4462     3.7794   611.9294 </r>
       <r>     5.5004     1.0673   611.9872 </r>
       <r>     5.5545     0.2077   611.9985 </r>
       <r>     5.6087     0.0260   611.9999 </r>
       <r>     5.6628     0.0020   612.0000 </r>
       <r>     5.7170     0.0001   612.0000 </r>
       <r>     5.7712     0.0000   612.0000 </r>
       <r>     5.8253     0.0000   612.0000 </r>
       <r>     5.8795     0.0000   612.0000 </r>
       <r>     5.9336     0.0000   612.0000 </r>
       <r>     5.9878     0.0000   612.0000 </r>
       <r>     6.0420     0.0000   612.0000 </r>
       <r>     6.0961     0.0000   612.0000 </r>
       <r>     6.1503     0.0000   612.0000 </r>
       <r>     6.2044     0.0000   612.0000 </r>
       <r>     6.2586     0.0000   612.0000 </r>
       <r>     6.3127     0.0000   612.0000 </r>
       <r>     6.3669     0.0000   612.0000 </r>
      </set>
     </set>
    </array>
   </total>
  </dos>
 </calculation>
 <structure name="finalpos" >
  <crystal>
   <varray name="basis" >
    <v>      11.00258152       0.00000000       0.00000000 </v>
    <v>       5.50129076       9.52851510       0.00000000 </v>
    <v>       0.00000000       0.00000000      24.49178509 </v>
   </varray>
   <i name="volume">   2567.67623402 </i>
   <varray name="rec_basis" >
    <v>       0.09088776      -0.05247407       0.00000000 </v>
    <v>       0.00000000       0.10494815       0.00000000 </v>
    <v>       0.00000000       0.00000000       0.04083002 </v>
   </varray>
  </crystal>
  <varray name="positions" >
   <v>       0.25046339       0.74921906       0.60465237 </v>
   <v>       0.49906711       0.25078106       0.60469409 </v>
   <v>       0.41680669       0.41739617       0.49893215 </v>
   <v>       0.58712035       0.32933963       0.39432763 </v>
   <v>       0.41800754       0.16474127       0.49923494 </v>
   <v>       0.41656979       0.91588946       0.50082654 </v>
   <v>       0.50121203       0.75040695       0.60644473 </v>
   <v>       0.66855133       0.16617225       0.50019694 </v>
   <v>       0.33224963       0.58524583       0.39477129 </v>
   <v>       0.16544164       0.41802427       0.49891687 </v>
   <v>       0.58444410       0.58401322       0.39401930 </v>
   <v>       0.83362168       0.58541323       0.39386833 </v>
   <v>       0.16502791       0.16455159       0.50030982 </v>
   <v>       0.41488851       0.66697187       0.49999281 </v>
   <v>      -0.00218042       0.74997692       0.60325538 </v>
   <v>       0.91798590       0.91492543       0.50218525 </v>
   <v>       0.66785167       0.66655019       0.49905521 </v>
   <v>      -0.00179064       0.50085204       0.60161129 </v>
   <v>      -0.00296514       0.00288492       0.60552227 </v>
   <v>       0.08502670       0.33043903       0.39328521 </v>
   <v>       0.33624110       0.08067784       0.39286870 </v>
   <v>       0.08289751       0.58659449       0.39771341 </v>
   <v>      -0.00171166       0.25085212       0.60449047 </v>
   <v>       0.91462186       0.41549222       0.49838386 </v>
   <v>       0.83226166       0.83673437       0.40427396 </v>
   <v>       0.58453034       0.83434572       0.40257071 </v>
   <v>       0.83672471       0.08182127       0.40426558 </v>
   <v>       0.74676139       0.00053096       0.59881163 </v>
   <v>       0.83571231       0.33040992       0.40180340 </v>
   <v>       0.66685960       0.41572836       0.49696895 </v>
   <v>       0.74729750       0.50044669       0.59582813 </v>
   <v>       0.74722729       0.25274852       0.59654631 </v>
   <v>       0.08401918       0.08181559       0.40449914 </v>
   <v>       0.49975980       0.00039102       0.59829990 </v>
   <v>       0.58554247       0.08146854       0.40247824 </v>
   <v>       0.66777431       0.91574046       0.50067254 </v>
   <v>       0.16500740       0.91611435       0.50375834 </v>
   <v>       0.33213091       0.83461501       0.40396925 </v>
   <v>       0.24998486       0.49981153       0.59735597 </v>
   <v>       0.16588590       0.66703805       0.50090424 </v>
   <v>       0.25055754       0.24912148       0.59722866 </v>
   <v>       0.33571348       0.33176857       0.40036138 </v>
   <v>       0.25069098       0.00109468       0.59953646 </v>
   <v>       0.08385047       0.83588600       0.40614397 </v>
   <v>       0.91671839       0.66697873       0.49944988 </v>
   <v>       0.91710660       0.16579976       0.50166087 </v>
   <v>       0.50065056       0.49981985       0.59642806 </v>
   <v>       0.74778374       0.75235954       0.59662558 </v>
  </varray>
 </structure>
</modeling>
