unknown system                          
           1
    11.002582    0.000000    0.000000
     5.501291    9.528515    0.000000
     0.000000    0.000000   24.491785
   Au   Pd
  24  24
Direct configuration=     1
   0.25000000  0.75000000  0.59169983
   0.50000000  0.25000000  0.59169983
   0.41666667  0.41666667  0.50000000
   0.58333333  0.33333333  0.40830017
   0.41666667  0.16666667  0.50000000
   0.41666667  0.91666667  0.50000000
   0.50000000  0.75000000  0.59169983
   0.66666667  0.16666667  0.50000000
   0.33333333  0.58333333  0.40830017
   0.16666667  0.41666667  0.50000000
   0.58333333  0.58333333  0.40830017
   0.83333333  0.58333333  0.40830017
   0.16666667  0.16666667  0.50000000
   0.41666667  0.66666667  0.50000000
   0.00000000  0.75000000  0.59169983
   0.91666667  0.91666667  0.50000000
   0.66666667  0.66666667  0.50000000
   0.00000000  0.50000000  0.59169983
   0.00000000  0.00000000  0.59169983
   0.08333333  0.33333333  0.40830017
   0.33333333  0.08333333  0.40830017
   0.08333333  0.58333333  0.40830017
   0.00000000  0.25000000  0.59169983
   0.91666667  0.41666667  0.50000000
   0.83333333  0.83333333  0.40830017
   0.58333333  0.83333333  0.40830017
   0.83333333  0.08333333  0.40830017
   0.75000000  0.00000000  0.59169983
   0.83333333  0.33333333  0.40830017
   0.66666667  0.41666667  0.50000000
   0.75000000  0.50000000  0.59169983
   0.75000000  0.25000000  0.59169983
   0.08333333  0.08333333  0.40830017
   0.50000000  0.00000000  0.59169983
   0.58333333  0.08333333  0.40830017
   0.66666667  0.91666667  0.50000000
   0.16666667  0.91666667  0.50000000
   0.33333333  0.83333333  0.40830017
   0.25000000  0.50000000  0.59169983
   0.16666667  0.66666667  0.50000000
   0.25000000  0.25000000  0.59169983
   0.33333333  0.33333333  0.40830017
   0.25000000  0.00000000  0.59169983
   0.08333333  0.83333333  0.40830017
   0.91666667  0.66666667  0.50000000
   0.91666667  0.16666667  0.50000000
   0.50000000  0.50000000  0.59169983
   0.75000000  0.75000000  0.59169983
Direct configuration=     2
   0.25020500  0.74949575  0.59363072
   0.50010085  0.24996971  0.59409276
   0.41602924  0.41777434  0.50043279
   0.58451816  0.33200353  0.40610600
   0.41768680  0.16564384  0.50006108
   0.41666276  0.91675401  0.49998703
   0.50072759  0.75000073  0.59413588
   0.66873422  0.16552432  0.49994543
   0.33200845  0.58442993  0.40606069
   0.16735138  0.41772048  0.50041707
   0.58361817  0.58349893  0.40604602
   0.83284856  0.58443407  0.40604439
   0.16617337  0.16487457  0.50034393
   0.41565626  0.66681595  0.50003130
  -0.00042532  0.74946076  0.59357716
   0.91671903  0.91632758  0.49924865
   0.66792210  0.66708678  0.50035716
  -0.00024501  0.50062968  0.59383400
  -0.00040803  0.00095578  0.59357886
   0.08328942  0.33247026  0.40575478
   0.33410094  0.08256778  0.40579781
   0.08298965  0.58465598  0.40639665
  -0.00034186  0.24966846  0.59384915
   0.91449156  0.41652861  0.50007736
   0.83259006  0.83419581  0.40743032
   0.58368686  0.83395271  0.40710604
   0.83410429  0.08299946  0.40731095
   0.74925107 -0.00033113  0.59282255
   0.83364127  0.33218119  0.40726503
   0.66789586  0.41565019  0.50047264
   0.74939532  0.49975262  0.59288279
   0.74972577  0.25065727  0.59267583
   0.08256449  0.08287616  0.40733008
   0.50050840 -0.00030197  0.59290434
   0.58393194  0.08245145  0.40712125
   0.66733107  0.91610097  0.50000408
   0.16606442  0.91701216  0.49945900
   0.33241750  0.83392791  0.40709864
   0.25016417  0.50000797  0.59294307
   0.16602928  0.66732196  0.49990649
   0.25053039  0.24944514  0.59314533
   0.33389938  0.33284217  0.40676969
   0.25026289  0.00038982  0.59290920
   0.08315155  0.83419958  0.40750049
   0.91587465  0.66827646  0.50002240
   0.91625146  0.16676943  0.49952095
   0.50078816  0.49939126  0.59291936
   0.74952643  0.75093960  0.59267282
Direct configuration=     3
   0.25082002  0.74798300  0.59942341
   0.50040339  0.24987883  0.60127157
   0.41411695  0.42109737  0.50173115
   0.58807265  0.32801410  0.39952348
   0.42074720  0.16257536  0.50024434
   0.41665102  0.91701603  0.49994811
   0.50291038  0.75000291  0.60144405
   0.67493689  0.16209728  0.49978173
   0.32803382  0.58771972  0.39934226
   0.16940551  0.42088192  0.50166829
   0.58447269  0.58399573  0.39928359
   0.83139424  0.58773627  0.39927705
   0.16469349  0.15949829  0.50137572
   0.41262502  0.66726379  0.50012518
  -0.00170129  0.74784305  0.59920913
   0.91687613  0.91531030  0.49699459
   0.67168839  0.66834710  0.50142865
  -0.00098004  0.50251871  0.60023651
  -0.00163210  0.00382310  0.59921597
   0.08315768  0.32988103  0.39811861
   0.33640377  0.08027113  0.39829074
   0.08195861  0.58862392  0.40068608
  -0.00136743  0.24867384  0.60029712
   0.90796623  0.41611445  0.50030945
   0.83036025  0.83678323  0.40482077
   0.58474742  0.83581085  0.40352364
   0.83641717  0.08199785  0.40434327
   0.74700427 -0.00132454  0.59619071
   0.83456509  0.32872477  0.40415961
   0.67158344  0.41260077  0.50189055
   0.74758127  0.49901048  0.59643166
   0.74890307  0.25262908  0.59560381
   0.08025795  0.08150463  0.40441983
   0.50203361 -0.00120787  0.59651786
   0.58572777  0.07980581  0.40358448
   0.66932430  0.91440388  0.50001631
   0.16425768  0.91804864  0.49783598
   0.32967002  0.83571163  0.40349406
   0.25065669  0.50003187  0.59667279
   0.16411713  0.66928784  0.49962597
   0.25212158  0.24778057  0.59748182
   0.33559752  0.33136870  0.40217826
   0.25105157  0.00155927  0.59653730
   0.08260619  0.83679831  0.40510144
   0.91349859  0.67310583  0.50008960
   0.91500585  0.16707772  0.49808380
   0.50315263  0.49756505  0.59657793
   0.74810574  0.75375838  0.59559177
Direct configuration=     4
   0.25065532  0.74890488  0.60068733
   0.50064158  0.24967681  0.60278090
   0.41772407  0.41829891  0.50116833
   0.58673243  0.32900893  0.39836616
   0.42018112  0.16426136  0.50011224
   0.41769743  0.91491443  0.49987196
   0.50217870  0.75000710  0.60305727
   0.67098180  0.16451995  0.49998250
   0.33018714  0.58634487  0.39778056
   0.16598553  0.41911902  0.50117243
   0.58380152  0.58400132  0.39823449
   0.83255651  0.58652387  0.39781750
   0.16373173  0.16395233  0.50108396
   0.41477678  0.66768037  0.49998854
  -0.00172782  0.74990809  0.60042657
   0.91871956  0.91471223  0.49819576
   0.66852344  0.66842852  0.50107570
  -0.00138772  0.50075693  0.60139269
  -0.00190454  0.00199925  0.60015450
   0.08339226  0.33031527  0.39710885
   0.33551513  0.08081957  0.39663753
   0.08114601  0.58752240  0.39951050
  -0.00120749  0.25036312  0.60186904
   0.91361690  0.41562677  0.50009012
   0.83034210  0.83705860  0.40351838
   0.58417316  0.83527929  0.40281167
   0.83597505  0.08165877  0.40279141
   0.74787536 -0.00100251  0.59691123
   0.83432751  0.32996348  0.40310188
   0.66701525  0.41466831  0.50108399
   0.74810117  0.49961856  0.59773104
   0.74866419  0.25161219  0.59655890
   0.08134541  0.08208501  0.40320392
   0.50145650 -0.00078726  0.59746434
   0.58564249  0.08058291  0.40282833
   0.66809371  0.91592622  0.50005191
   0.16407424  0.91652597  0.49872788
   0.33067073  0.83542898  0.40262721
   0.25105321  0.49972392  0.59799659
   0.16340269  0.67037513  0.49984141
   0.25178010  0.24806852  0.59811360
   0.33546049  0.33159704  0.40166078
   0.25197194  0.00028765  0.59756035
   0.08234176  0.83685585  0.40379388
   0.91619964  0.66968443  0.50000526
   0.91660392  0.16559937  0.49871653
   0.50266130  0.49827330  0.59756969
   0.74825064  0.75324997  0.59676441
Direct configuration=     5
   0.25060694  0.74917568  0.60105861
   0.50071155  0.24961746  0.60322427
   0.41878367  0.41747685  0.50100300
   0.58633874  0.32930116  0.39802619
   0.42001484  0.16475662  0.50007343
   0.41800482  0.91429708  0.49984960
   0.50196377  0.75000833  0.60353116
   0.66981999  0.16523162  0.50004148
   0.33081968  0.58594101  0.39732181
   0.16498091  0.41860117  0.50102678
   0.58360436  0.58400296  0.39792632
   0.83289793  0.58616772  0.39738876
   0.16344922  0.16526072  0.50099826
   0.41540886  0.66780274  0.49994840
  -0.00173561  0.75051470  0.60078419
   0.91926108  0.91453655  0.49854861
   0.66759373  0.66845244  0.50097202
  -0.00150747  0.50023941  0.60173232
  -0.00198457  0.00146349  0.60043019
   0.08346117  0.33044283  0.39681223
   0.33525410  0.08098068  0.39615189
   0.08090731  0.58719882  0.39916517
  -0.00116051  0.25085936  0.60233079
   0.91527680  0.41548351  0.50002569
   0.83033677  0.83713949  0.40313580
   0.58400447  0.83512314  0.40260253
   0.83584518  0.08155916  0.40233555
   0.74813124 -0.00090792  0.59712289
   0.83425772  0.33032735  0.40279117
   0.66567334  0.41527566  0.50084706
   0.74825389  0.49979718  0.59811274
   0.74859402  0.25131347  0.59683945
   0.08166485  0.08225550  0.40284675
   0.50128697 -0.00066371  0.59774237
   0.58561744  0.08081118  0.40260621
   0.66773223  0.91637341  0.50006237
   0.16402035  0.91607868  0.49898987
   0.33096470  0.83534595  0.40237257
   0.25116969  0.49963346  0.59838545
   0.16319282  0.67069452  0.49990469
   0.25167979  0.24815310  0.59829919
   0.33542024  0.33166411  0.40150876
   0.25224230 -0.00008589  0.59786087
   0.08226409  0.83687276  0.40340978
   0.91699308  0.66867938  0.49998048
   0.91707336  0.16516510  0.49890239
   0.50251698  0.49848135  0.59786102
   0.74829321  0.75310062  0.59710888
Direct configuration=     6
   0.25092857  0.74930555  0.60159687
   0.50054189  0.24961600  0.60397623
   0.41715786  0.41780302  0.50069524
   0.58577464  0.32997929  0.39746018
   0.41834165  0.16542478  0.50000064
   0.41651433  0.91605757  0.49987584
   0.50164929  0.74992714  0.60436926
   0.66949081  0.16542233  0.50002908
   0.33137453  0.58523790  0.39675441
   0.16557768  0.41826274  0.50072130
   0.58370185  0.58390188  0.39748030
   0.83279491  0.58550068  0.39682146
   0.16507056  0.16495085  0.50076557
   0.41538541  0.66739088  0.49989849
  -0.00148000  0.75018188  0.60132310
   0.91795091  0.91532399  0.49916567
   0.66839399  0.66663721  0.50074993
  -0.00143604  0.50045792  0.60223185
  -0.00183921  0.00165908  0.60088508
   0.08377851  0.33077561  0.39634276
   0.33481782  0.08143996  0.39548353
   0.08151162  0.58641404  0.39877466
  -0.00103568  0.25042771  0.60305405
   0.91461922  0.41644522  0.49984723
   0.83060909  0.83710487  0.40270509
   0.58382650  0.83459736  0.40238434
   0.83545599  0.08168641  0.40186298
   0.74826202 -0.00047411  0.59735903
   0.83393770  0.33128011  0.40257686
   0.66642601  0.41613536  0.50020828
   0.74840193  0.50006223  0.59835908
   0.74880462  0.25095283  0.59708893
   0.08248856  0.08251882  0.40245746
   0.50073829 -0.00029297  0.59802968
   0.58518621  0.08142014  0.40234640
   0.66805071  0.91625128  0.50010404
   0.16510830  0.91621176  0.49966331
   0.33147290  0.83505496  0.40210459
   0.25101912  0.49948354  0.59858580
   0.16533496  0.66825570  0.50001372
   0.25168772  0.24831758  0.59839212
   0.33482745  0.33214059  0.40157551
   0.25203933 -0.00018383  0.59805334
   0.08243596  0.83630595  0.40278029
   0.91699904  0.66746212  0.49995887
   0.91683259  0.16558459  0.49939553
   0.50184064  0.49912967  0.59825023
   0.74862924  0.75245181  0.59744176
Direct configuration=     7
   0.25101323  0.74933973  0.60173854
   0.50049724  0.24961562  0.60417416
   0.41672992  0.41788888  0.50061423
   0.58562616  0.33015779  0.39731120
   0.41790124  0.16560065  0.49998148
   0.41612202  0.91652095  0.49988275
   0.50156652  0.74990577  0.60458985
   0.66940416  0.16547253  0.50002582
   0.33152057  0.58505284  0.39660507
   0.16573476  0.41817366  0.50064089
   0.58372751  0.58387527  0.39736291
   0.83276780  0.58532511  0.39667214
   0.16549731  0.16486929  0.50070432
   0.41537924  0.66728247  0.49988535
  -0.00141272  0.75009427  0.60146494
   0.91760605  0.91553126  0.49932809
   0.66860464  0.66615941  0.50069147
  -0.00141724  0.50051544  0.60236333
  -0.00180095  0.00171057  0.60100482
   0.08386204  0.33086320  0.39621919
   0.33470298  0.08156085  0.39530761
   0.08167068  0.58620747  0.39867187
  -0.00100282  0.25031410  0.60324442
   0.91444614  0.41669835  0.49980026
   0.83068076  0.83709575  0.40259172
   0.58377966  0.83445896  0.40232691
   0.83535354  0.08171991  0.40173859
   0.74829645 -0.00035993  0.59742118
   0.83385347  0.33153088  0.40252045
   0.66662412  0.41636164  0.50004014
   0.74844089  0.50013200  0.59842392
   0.74886006  0.25085791  0.59715460
   0.08270537  0.08258813  0.40235500
   0.50059387 -0.00019539  0.59810530
   0.58507270  0.08158042  0.40227802
   0.66813454  0.91621914  0.50011501
   0.16539467  0.91624679  0.49984057
   0.33160666  0.83497837  0.40203406
   0.25097949  0.49944408  0.59863853
   0.16589880  0.66761377  0.50004241
   0.25168981  0.24836088  0.59841658
   0.33467141  0.33226601  0.40159308
   0.25198591 -0.00020960  0.59810401
   0.08248120  0.83615676  0.40261460
   0.91700061  0.66714172  0.49995318
   0.91676921  0.16569501  0.49952534
   0.50166262  0.49930031  0.59835268
   0.74871769  0.75228103  0.59752938
Direct configuration=     8
   0.25103673  0.74915728  0.60203472
   0.50036376  0.24983387  0.60454490
   0.41646152  0.41796830  0.50059389
   0.58569788  0.33018993  0.39701348
   0.41809654  0.16528828  0.49996268
   0.41655868  0.91646451  0.49990387
   0.50177423  0.74996237  0.60501208
   0.66903268  0.16611416  0.49993768
   0.33138881  0.58511066  0.39627581
   0.16583205  0.41847998  0.50056528
   0.58370216  0.58397132  0.39701812
   0.83259522  0.58542851  0.39629380
   0.16503993  0.16482416  0.50054583
   0.41523465  0.66720164  0.49989056
  -0.00117797  0.74957502  0.60167737
   0.91796881  0.91495195  0.49938440
   0.66827853  0.66678053  0.50065240
  -0.00110506  0.50063712  0.60259051
  -0.00149371  0.00188939  0.60132568
   0.08385869  0.33106380  0.39589171
   0.33500183  0.08154070  0.39486103
   0.08193733  0.58625538  0.39852324
  -0.00089180  0.25000749  0.60357026
   0.91433037  0.41607103  0.49979236
   0.83095723  0.83681389  0.40257857
   0.58377435  0.83438187  0.40237971
   0.83547394  0.08193340  0.40178061
   0.74807630 -0.00024673  0.59757062
   0.83401094  0.33141797  0.40252488
   0.66730349  0.41604136  0.49975699
   0.74835828  0.50001152  0.59837382
   0.74862883  0.25131435  0.59711000
   0.08272297  0.08253123  0.40243496
   0.50051758 -0.00022853  0.59812130
   0.58463190  0.08180618  0.40226483
   0.66801163  0.91555668  0.50013202
   0.16535354  0.91639023  0.50010272
   0.33163162  0.83475628  0.40204445
   0.25083641  0.49941248  0.59859587
   0.16608770  0.66728800  0.50002805
   0.25152223  0.24850588  0.59840542
   0.33450991  0.33235132  0.40161585
   0.25163507  0.00014898  0.59817623
   0.08264243  0.83597519  0.40269740
   0.91677584  0.66740793  0.49990694
   0.91687791  0.16626975  0.49970317
   0.50153236  0.49920915  0.59831701
   0.74860570  0.75218424  0.59751694
Direct configuration=     9
   0.25105165  0.74904151  0.60222266
   0.50027906  0.24997237  0.60478017
   0.41629120  0.41801870  0.50058098
   0.58574339  0.33021033  0.39682456
   0.41822047  0.16509005  0.49995075
   0.41683578  0.91642869  0.49991728
   0.50190604  0.74999829  0.60528002
   0.66879694  0.16652133  0.49988175
   0.33130520  0.58514734  0.39606688
   0.16589378  0.41867437  0.50051730
   0.58368608  0.58403228  0.39679932
   0.83248570  0.58549413  0.39605372
   0.16474968  0.16479552  0.50044525
   0.41514290  0.66715035  0.49989386
  -0.00102900  0.74924551  0.60181217
   0.91819900  0.91458434  0.49942013
   0.66807160  0.66717468  0.50062761
  -0.00090696  0.50071433  0.60273467
  -0.00129875  0.00200287  0.60152929
   0.08385657  0.33119110  0.39568389
   0.33519146  0.08152792  0.39457764
   0.08210654  0.58628578  0.39842893
  -0.00082135  0.24981292  0.60377703
   0.91425691  0.41567295  0.49978735
   0.83113267  0.83663502  0.40257023
   0.58377098  0.83433294  0.40241321
   0.83555033  0.08206888  0.40180727
   0.74793660 -0.00017490  0.59766545
   0.83411087  0.33134632  0.40252768
   0.66773461  0.41583812  0.49957731
   0.74830586  0.49993506  0.59834203
   0.74848210  0.25160400  0.59708170
   0.08273413  0.08249513  0.40248570
   0.50046917 -0.00024956  0.59813144
   0.58435218  0.08194944  0.40225646
   0.66793363  0.91513630  0.50014281
   0.16532744  0.91648125  0.50026908
   0.33164747  0.83461535  0.40205104
   0.25074561  0.49939242  0.59856880
   0.16620757  0.66708127  0.50001893
   0.25141588  0.24859790  0.59839833
   0.33440743  0.33240546  0.40163029
   0.25141244  0.00037653  0.59822206
   0.08274474  0.83585997  0.40274995
   0.91663320  0.66757685  0.49987760
   0.91694689  0.16663446  0.49981602
   0.50144970  0.49915130  0.59829437
   0.74853463  0.75212283  0.59750905
Direct configuration=    10
   0.25115015  0.74886482  0.60253726
   0.50014866  0.25008680  0.60512894
   0.41678272  0.41793004  0.50058637
   0.58580202  0.33020712  0.39648885
   0.41849220  0.16478936  0.49998314
   0.41682066  0.91623521  0.49996197
   0.50193409  0.75007939  0.60571641
   0.66900543  0.16638828  0.49979826
   0.33139675  0.58518552  0.39568630
   0.16539647  0.41873014  0.50046779
   0.58358497  0.58407798  0.39638435
   0.83253835  0.58560668  0.39565800
   0.16464229  0.16485031  0.50027631
   0.41522276  0.66710486  0.49993437
  -0.00109735  0.74937103  0.60198883
   0.91831949  0.91461122  0.49948204
   0.66793418  0.66721075  0.50061260
  -0.00086478  0.50044675  0.60287981
  -0.00138446  0.00184354  0.60186235
   0.08379127  0.33132283  0.39531933
   0.33539893  0.08133965  0.39406386
   0.08204879  0.58644789  0.39828190
  -0.00083395  0.25009540  0.60413361
   0.91441324  0.41579461  0.49985645
   0.83121784  0.83655446  0.40265813
   0.58379287  0.83440553  0.40245626
   0.83573766  0.08212149  0.40207062
   0.74792304 -0.00018689  0.59770769
   0.83437348  0.33113440  0.40249026
   0.66750264  0.41594205  0.49928232
   0.74833102  0.49980408  0.59817024
   0.74817239  0.25200534  0.59695101
   0.08281738  0.08231275  0.40267861
   0.50039435 -0.00016594  0.59812646
   0.58435483  0.08190018  0.40232149
   0.66801369  0.91521010  0.50016685
   0.16517362  0.91642610  0.50052519
   0.33154283  0.83458564  0.40219276
   0.25081452  0.49928636  0.59851427
   0.16594582  0.66743375  0.49999409
   0.25122450  0.24870822  0.59828353
   0.33440163  0.33243350  0.40162405
   0.25144798  0.00053535  0.59826880
   0.08285101  0.83595574  0.40305037
   0.91651755  0.66749762  0.49980474
   0.91688587  0.16627973  0.50001661
   0.50139532  0.49913276  0.59810299
   0.74852532  0.75206748  0.59745354
Direct configuration=    11
   0.25127255  0.74864527  0.60292818
   0.49998662  0.25022899  0.60556232
   0.41739349  0.41781988  0.50059308
   0.58587487  0.33020312  0.39607170
   0.41882985  0.16441573  0.50002339
   0.41680187  0.91599478  0.50001751
   0.50196893  0.75018017  0.60625867
   0.66926449  0.16622296  0.49969451
   0.33151050  0.58523296  0.39521340
   0.16477852  0.41879945  0.50040626
   0.58345934  0.58413478  0.39586870
   0.83260376  0.58574654  0.39516628
   0.16450884  0.16491840  0.50006639
   0.41532199  0.66704834  0.49998472
  -0.00118227  0.74952701  0.60220835
   0.91846921  0.91464463  0.49955897
   0.66776342  0.66725556  0.50059395
  -0.00081237  0.50011425  0.60306017
  -0.00149097  0.00164557  0.60227621
   0.08371013  0.33148653  0.39486632
   0.33565673  0.08110571  0.39342543
   0.08197704  0.58664933  0.39809922
  -0.00084960  0.25044641  0.60457671
   0.91460749  0.41594578  0.49994231
   0.83132367  0.83645436  0.40276736
   0.58382007  0.83449573  0.40250974
   0.83597043  0.08218687  0.40239786
   0.74790618 -0.00020180  0.59776018
   0.83469981  0.33087107  0.40244377
   0.66721438  0.41607119  0.49891576
   0.74836228  0.49964133  0.59795678
   0.74778755  0.25250404  0.59678861
   0.08292083  0.08208613  0.40291833
   0.50030137 -0.00006202  0.59812027
   0.58435813  0.08183896  0.40240230
   0.66811316  0.91530179  0.50019672
   0.16498248  0.91635756  0.50084344
   0.33141280  0.83454873  0.40236887
   0.25090014  0.49915458  0.59844650
   0.16562058  0.66787174  0.49996323
   0.25098668  0.24884531  0.59814087
   0.33439443  0.33246833  0.40161630
   0.25149214  0.00073270  0.59832687
   0.08298306  0.83607473  0.40342368
   0.91637384  0.66739916  0.49971420
   0.91681005  0.16583893  0.50026586
   0.50132775  0.49910972  0.59786518
   0.74851375  0.75199872  0.59738456
Direct configuration=    12
   0.25140153  0.74869515  0.60328416
   0.49996804  0.25005382  0.60584617
   0.41705084  0.41756785  0.50047299
   0.58588905  0.33010959  0.39566425
   0.41852331  0.16485033  0.50004086
   0.41627110  0.91606447  0.50009718
   0.50182498  0.75017944  0.60672009
   0.66933006  0.16580767  0.49971327
   0.33157891  0.58515994  0.39485678
   0.16533939  0.41854673  0.50027798
   0.58365955  0.58416373  0.39541280
   0.83257342  0.58567240  0.39477963
   0.16489304  0.16478787  0.49991679
   0.41516020  0.66724224  0.50001233
  -0.00137197  0.74955161  0.60231803
   0.91807907  0.91475516  0.49985198
   0.66793849  0.66671437  0.50050172
  -0.00109293  0.50034811  0.60315528
  -0.00185982  0.00194920  0.60264976
   0.08388915  0.33118795  0.39445907
   0.33544169  0.08110861  0.39288222
   0.08197349  0.58676513  0.39796988
  -0.00099913  0.25033556  0.60490509
   0.91424450  0.41617357  0.49991766
   0.83124604  0.83670704  0.40293358
   0.58387367  0.83441438  0.40255831
   0.83596105  0.08212369  0.40271199
   0.74781256 -0.00001895  0.59771498
   0.83489345  0.33094378  0.40245546
   0.66715464  0.41629037  0.49849654
   0.74814855  0.49988196  0.59767244
   0.74785299  0.25230721  0.59658525
   0.08324488  0.08213276  0.40316888
   0.50037010  0.00005945  0.59812902
   0.58472376  0.08173474  0.40248349
   0.66839649  0.91562216  0.50026346
   0.16521076  0.91620697  0.50128421
   0.33144406  0.83466712  0.40264714
   0.25079550  0.49920772  0.59827335
   0.16579594  0.66753607  0.49999862
   0.25109357  0.24876249  0.59791927
   0.33449545  0.33247176  0.40168909
   0.25152514  0.00067822  0.59833419
   0.08315466  0.83601078  0.40377757
   0.91628906  0.66739941  0.49964419
   0.91686629  0.16574382  0.50062853
   0.50130164  0.49940722  0.59762993
   0.74864380  0.75191933  0.59729455
Direct configuration=    13
   0.25141713  0.74870119  0.60332721
   0.49996580  0.25003263  0.60588049
   0.41700940  0.41753737  0.50045847
   0.58589076  0.33009828  0.39561498
   0.41848624  0.16490289  0.50004298
   0.41620691  0.91607289  0.50010682
   0.50180757  0.75017935  0.60677590
   0.66933799  0.16575744  0.49971553
   0.33158718  0.58515111  0.39481365
   0.16540722  0.41851617  0.50026246
   0.58368376  0.58416723  0.39535767
   0.83256975  0.58566343  0.39473287
   0.16493950  0.16477208  0.49989870
   0.41514063  0.66726569  0.50001567
  -0.00139492  0.74955459  0.60233129
   0.91803188  0.91476853  0.49988742
   0.66795966  0.66664892  0.50049057
  -0.00112687  0.50037639  0.60316678
  -0.00190442  0.00198592  0.60269494
   0.08391080  0.33115184  0.39440982
   0.33541569  0.08110896  0.39281653
   0.08197306  0.58677914  0.39795424
  -0.00101722  0.25032215  0.60494480
   0.91420060  0.41620112  0.49991467
   0.83123666  0.83673760  0.40295368
   0.58388015  0.83440455  0.40256419
   0.83595992  0.08211605  0.40274998
   0.74780124  0.00000316  0.59770952
   0.83491687  0.33095257  0.40245687
   0.66714742  0.41631687  0.49844584
   0.74812270  0.49991106  0.59763805
   0.74786090  0.25228340  0.59656066
   0.08328407  0.08213840  0.40319918
   0.50037841  0.00007414  0.59813007
   0.58476798  0.08172214  0.40249331
   0.66843075  0.91566090  0.50027153
   0.16523837  0.91618876  0.50133751
   0.33144784  0.83468144  0.40268079
   0.25078285  0.49921415  0.59825240
   0.16581715  0.66749548  0.50000290
   0.25110650  0.24875247  0.59789247
   0.33450766  0.33247217  0.40169790
   0.25152913  0.00067163  0.59833507
   0.08317541  0.83600305  0.40382037
   0.91627881  0.66739944  0.49963572
   0.91687309  0.16573232  0.50067239
   0.50129848  0.49944320  0.59760148
   0.74865953  0.75190973  0.59728366
Direct configuration=    14
   0.25115103  0.74898934  0.60357651
   0.50002108  0.25001390  0.60597368
   0.41693381  0.41745006  0.50028237
   0.58598401  0.33002679  0.39536111
   0.41833832  0.16491860  0.49998406
   0.41648603  0.91620038  0.50018578
   0.50176807  0.75026345  0.60700054
   0.66886807  0.16616178  0.49980255
   0.33166112  0.58514040  0.39467266
   0.16551871  0.41847039  0.50010084
   0.58380708  0.58413190  0.39506720
   0.83272438  0.58554190  0.39454611
   0.16490397  0.16501566  0.49986678
   0.41501225  0.66708033  0.49998542
  -0.00137101  0.74954118  0.60233554
   0.91827160  0.91453065  0.50025426
   0.66775610  0.66691366  0.50033036
  -0.00133824  0.50057363  0.60311874
  -0.00204331  0.00217991  0.60298193
   0.08411074  0.33094628  0.39415754
   0.33539906  0.08115010  0.39253914
   0.08195297  0.58671581  0.39790951
  -0.00106885  0.25015434  0.60504445
   0.91450840  0.41583581  0.49979411
   0.83121702  0.83689105  0.40309988
   0.58386238  0.83440054  0.40266405
   0.83598057  0.08212208  0.40296984
   0.74769476  0.00014431  0.59771652
   0.83497772  0.33105073  0.40249289
   0.66689250  0.41615843  0.49810140
   0.74787695  0.50014950  0.59742080
   0.74783913  0.25209810  0.59640967
   0.08339709  0.08224236  0.40342345
   0.50049703 -0.00008583  0.59811630
   0.58484705  0.08169966  0.40252255
   0.66804526  0.91563750  0.50032352
   0.16514203  0.91612339  0.50175457
   0.33165830  0.83466568  0.40290778
   0.25061965  0.49939979  0.59809941
   0.16594748  0.66719102  0.50008223
   0.25117699  0.24863543  0.59773534
   0.33466051  0.33231231  0.40168751
   0.25147405  0.00056852  0.59836513
   0.08329088  0.83592640  0.40412691
   0.91649420  0.66722445  0.49957689
   0.91715965  0.16596994  0.50095009
   0.50136231  0.49950506  0.59739667
   0.74853108  0.75202336  0.59718540
Direct configuration=    15
   0.25107420  0.74907255  0.60364850
   0.50003704  0.25000849  0.60600059
   0.41691199  0.41742484  0.50023152
   0.58601094  0.33000614  0.39528781
   0.41829561  0.16492313  0.49996705
   0.41656663  0.91623719  0.50020858
   0.50175666  0.75028773  0.60706540
   0.66873239  0.16627853  0.49982768
   0.33168247  0.58513731  0.39463195
   0.16555091  0.41845718  0.50005417
   0.58384269  0.58412169  0.39498334
   0.83276903  0.58550680  0.39449218
   0.16489372  0.16508599  0.49985756
   0.41497518  0.66702681  0.49997669
  -0.00136410  0.74953731  0.60233676
   0.91834081  0.91446196  0.50036017
   0.66769733  0.66699010  0.50028410
  -0.00139927  0.50063058  0.60310488
  -0.00208341  0.00223593  0.60306479
   0.08416847  0.33088693  0.39408470
   0.33539426  0.08116198  0.39245905
   0.08194717  0.58669753  0.39789660
  -0.00108375  0.25010588  0.60507323
   0.91459728  0.41573033  0.49975930
   0.83121135  0.83693535  0.40314209
   0.58385725  0.83439938  0.40269288
   0.83598654  0.08212383  0.40303332
   0.74766402  0.00018507  0.59771855
   0.83499529  0.33107907  0.40250329
   0.66681890  0.41611268  0.49800195
   0.74780599  0.50021835  0.59735807
   0.74783285  0.25204460  0.59636607
   0.08342973  0.08227237  0.40348821
   0.50053128 -0.00013202  0.59811233
   0.58486987  0.08169317  0.40253100
   0.66793395  0.91563074  0.50033853
   0.16511421  0.91610451  0.50187499
   0.33171906  0.83466112  0.40297332
   0.25057252  0.49945339  0.59805523
   0.16598511  0.66710311  0.50010514
   0.25119735  0.24860163  0.59768997
   0.33470464  0.33226615  0.40168451
   0.25145814  0.00053875  0.59837381
   0.08332422  0.83590427  0.40421542
   0.91655639  0.66717392  0.49955990
   0.91724239  0.16603855  0.50103027
   0.50138074  0.49952292  0.59733754
   0.74849399  0.75205617  0.59715703
Direct configuration=    16
   0.25097055  0.74911083  0.60378959
   0.49988855  0.25023655  0.60595759
   0.41694923  0.41755372  0.50007586
   0.58618491  0.32994742  0.39514751
   0.41831907  0.16473886  0.49985954
   0.41655632  0.91625357  0.50029766
   0.50167516  0.75036096  0.60708553
   0.66880421  0.16629062  0.49984868
   0.33169612  0.58519479  0.39463188
   0.16522835  0.41855532  0.49992197
   0.58383970  0.58411161  0.39483838
   0.83294641  0.58550904  0.39444687
   0.16500964  0.16496230  0.49991732
   0.41497860  0.66700757  0.49993919
  -0.00136971  0.74961342  0.60233691
   0.91826353  0.91464916  0.50060812
   0.66771639  0.66688449  0.50011984
  -0.00142482  0.50047813  0.60294454
  -0.00211464  0.00219066  0.60331594
   0.08429360  0.33090594  0.39393316
   0.33566964  0.08106532  0.39239936
   0.08203150  0.58659124  0.39790102
  -0.00113640  0.25037309  0.60502728
   0.91458433  0.41584915  0.49964766
   0.83132191  0.83687539  0.40330310
   0.58388419  0.83445624  0.40272544
   0.83611077  0.08217794  0.40326478
   0.74762834  0.00012572  0.59777988
   0.83501678  0.33099738  0.40250814
   0.66680558  0.41602417  0.49781566
   0.74776658  0.50014766  0.59715130
   0.74767368  0.25222730  0.59633514
   0.08339814  0.08215558  0.40366848
   0.50045977 -0.00016337  0.59813677
   0.58474972  0.08172925  0.40253528
   0.66781159  0.91560187  0.50037289
   0.16514033  0.91615051  0.50211366
   0.33177655  0.83465615  0.40313415
   0.25060521  0.49947212  0.59796288
   0.16604993  0.66699236  0.50018584
   0.25107571  0.24868105  0.59763421
   0.33482889  0.33213077  0.40155271
   0.25144722  0.00054775  0.59842995
   0.08337176  0.83589831  0.40448316
   0.91664483  0.66696730  0.49950653
   0.91722457  0.16601942  0.50112915
   0.50131881  0.49950435  0.59720447
   0.74832892  0.75219102  0.59707503
Direct configuration=    17
   0.25091371  0.74913182  0.60386697
   0.49980712  0.25036163  0.60593401
   0.41696965  0.41762440  0.49999050
   0.58628032  0.32991521  0.39507056