 vasp.5.4.1 24Jun15 (build Mar 14 2019 10:18:33) complex                        
  
 executed on INTEL-19.0.2+OPENMPI date 2022.07.15  14:49:35
 running on   36 total cores
 distrk:  each k-point on   36 cores,    1 groups
 distr:  one band on NCORES_PER_BAND=   6 cores,    6 groups


--------------------------------------------------------------------------------------------------------


 INCAR:
 POTCAR:    PAW_PBE Au 04Oct2007                  
 POTCAR:    PAW_PBE Pd 04Jan2005                  
 POTCAR:    PAW_PBE Au 04Oct2007                  
  local pseudopotential read in
  partial core-charges read in
  partial kinetic energy density read in
  atomic valenz-charges read in
  non local Contribution for L=           2  read in
    real space projection operators read in
  non local Contribution for L=           2  read in
    real space projection operators read in
  non local Contribution for L=           0  read in
    real space projection operators read in
  non local Contribution for L=           0  read in
    real space projection operators read in
  non local Contribution for L=           1  read in
    real space projection operators read in
  non local Contribution for L=           1  read in
    real space projection operators read in
    PAW grid and wavefunctions read in
 
   number of l-projection  operators is LMAX  =           6
   number of lm-projection operators is LMMAX =          18
 
 POTCAR:    PAW_PBE Pd 04Jan2005                  
  local pseudopotential read in
  partial core-charges read in
  partial kinetic energy density read in
  atomic valenz-charges read in
  non local Contribution for L=           2  read in
    real space projection operators read in
  non local Contribution for L=           2  read in
    real space projection operators read in
  non local Contribution for L=           0  read in
    real space projection operators read in
  non local Contribution for L=           0  read in
    real space projection operators read in
  non local Contribution for L=           1  read in
    real space projection operators read in
  non local Contribution for L=           1  read in
    real space projection operators read in
    PAW grid and wavefunctions read in
 
   number of l-projection  operators is LMAX  =           6
   number of lm-projection operators is LMMAX =          18
 
 Optimization of the real space projectors (new method)

 maximal supplied QI-value         = 15.12
 optimisation between [QCUT,QGAM] = [ 10.13, 20.41] = [ 28.73,116.64] Ry 
 Optimized for a Real-space Cutoff    1.51 Angstroem

   l    n(q)    QCUT    max X(q) W(low)/X(q) W(high)/X(q)  e(spline) 
   2      8    10.129    60.898    0.46E-03    0.46E-03    0.14E-06
   2      8    10.129    58.894    0.47E-03    0.47E-03    0.14E-06
   0      9    10.129   109.617    0.16E-03    0.11E-03    0.54E-07
   0      9    10.129    75.026    0.15E-03    0.11E-03    0.52E-07
   1      9    10.129    16.344    0.96E-04    0.15E-03    0.14E-06
   1      9    10.129    10.160    0.81E-04    0.12E-03    0.11E-06
 Optimization of the real space projectors (new method)

 maximal supplied QI-value         = 14.36
 optimisation between [QCUT,QGAM] = [ 10.20, 20.39] = [ 29.12,116.47] Ry 
 Optimized for a Real-space Cutoff    1.51 Angstroem

   l    n(q)    QCUT    max X(q) W(low)/X(q) W(high)/X(q)  e(spline) 
   2      8    10.197    59.108    0.26E-03    0.14E-03    0.96E-07
   2      8    10.197    58.101    0.27E-03    0.14E-03    0.98E-07
   0      9    10.197   102.235    0.54E-04    0.60E-05    0.72E-07
   0      9    10.197    58.388    0.52E-04    0.60E-05    0.68E-07
   1      9    10.197    22.191    0.18E-03    0.25E-03    0.79E-07
   1      9    10.197    15.590    0.15E-03    0.21E-03    0.69E-07
  PAW_PBE Au 04Oct2007                  :
 energy of atom  1       EATOM= -926.0867
 kinetic energy error for atom=    0.0062 (will be added to EATOM!!)
  PAW_PBE Pd 04Jan2005                  :
 energy of atom  2       EATOM= -809.7530
 kinetic energy error for atom=    0.0091 (will be added to EATOM!!)
 
 
 POSCAR: Au Pd                                   
  positions in cartesian coordinates
  No initial velocities read in
 exchange correlation table for  LEXCH =        8
   RHO(1)=    0.500       N(1)  =     2000
   RHO(2)=  100.500       N(2)  =     4000

 VTST: version 3.2, (02/03/18)

 CHAIN: initializing optimizer
 
 OPT: Using VASP Conjugate-Gradient optimizer
 CHAIN: Read ICHAIN            0
 
 POSCAR: Au Pd                                   
  positions in cartesian coordinates
  No initial velocities read in
 


--------------------------------------------------------------------------------------------------------


 ion  position               nearest neighbor table
   1  0.750  0.750  0.592-   5 2.75  36 2.75  16 2.75  25 2.75  29 2.75   2 2.75  27 2.75  38 2.75
                            20 2.75
   2  0.500  0.000  0.592-  46 2.75   5 2.75   9 2.75  24 2.75  27 2.75   1 2.75  40 2.75  25 2.75
                             8 2.75
   3  0.417  0.667  0.500-  42 2.75   4 2.75  48 2.75  15 2.75   6 2.75  47 2.75   8 2.75  20 2.75
                            43 2.75  44 2.75  27 2.75  11 2.75
   4  0.500  0.500  0.592-   3 2.75  15 2.75  17 2.75  24 2.75  27 2.75  48 2.75  29 2.75   7 2.75
                            47 2.75
   5  0.667  0.917  0.500-  28 2.75   1 2.75   2 2.75  20 2.75  13 2.75  36 2.75  46 2.75   8 2.75
                            14 2.75  45 2.75  21 2.75  25 2.75
   6  0.167  0.917  0.500-  37 2.75  48 2.75  32 2.75  22 2.75  39 2.75  43 2.75   3 2.75   8 2.75
                            14 2.75  30 2.75  44 2.75  40 2.75
   7  0.250  0.500  0.592-  43 2.75  47 2.75  38 2.75   9 2.75  24 2.75  48 2.75  16 2.75   4 2.75
                            41 2.75
   8  0.417  0.917  0.500-  44 2.75  27 2.75  40 2.75  39 2.75  20 2.75   3 2.75  46 2.75   5 2.75
                             6 2.75  12 2.75   2 2.75  28 2.75
   9  0.250  0.250  0.592-  41 2.75  46 2.75  16 2.75  40 2.75   2 2.75   7 2.75  35 2.75  24 2.75
                            39 2.75
  10  0.333  0.333  0.408-  47 2.75  18 2.75  42 2.75  45 2.75  12 2.75  33 2.75  31 2.75  46 2.75
                            41 2.75
  11  0.583  0.583  0.408-  20 2.75  23 2.75  28 2.75  31 2.75  44 2.75  42 2.75  19 2.75  15 2.75
                             3 2.75
  12  0.333  0.083  0.408-  46 2.75  28 2.75  33 2.75  44 2.75  10 2.75  45 2.75  30 2.75   8 2.75
                            39 2.75
  13  0.667  0.167  0.500-  45 2.75  25 2.75  24 2.75   5 2.75  14 2.75  15 2.75  47 2.75  46 2.75
                            22 2.75  31 2.75  17 2.75  26 2.75
  14  0.917  0.917  0.500-  21 2.75  38 2.75  25 2.75  13 2.75  36 2.75  22 2.75  43 2.75   6 2.75
                             5 2.75  26 2.75  32 2.75  37 2.75
  15  0.667  0.417  0.500-  31 2.75  17 2.75   4 2.75   3 2.75  20 2.75  22 2.75  13 2.75  34 2.75
                            47 2.75  11 2.75  29 2.75  23 2.75
  16  0.000  0.500  0.592-  36 2.75  41 2.75  35 2.75   1 2.75  38 2.75   9 2.75   7 2.75  29 2.75
                            34 2.75
  17  0.750  0.250  0.592-  15 2.75  22 2.75   4 2.75  25 2.75  29 2.75  32 2.75  24 2.75  35 2.75
                            13 2.75
  18  0.083  0.583  0.408-  43 2.75  21 2.75  33 2.75  37 2.75  10 2.75  42 2.75  19 2.75  41 2.75
                            36 2.75
  19  0.833  0.583  0.408-  36 2.75  23 2.75  28 2.75  33 2.75  21 2.75  18 2.75  11 2.75  34 2.75
                            20 2.75
  20  0.667  0.667  0.500-  11 2.75  29 2.75  27 2.75  15 2.75   8 2.75   5 2.75  34 2.75   3 2.75
                            36 2.75  28 2.75  19 2.75   1 2.75
  21  0.833  0.833  0.408-  14 2.75  18 2.75  19 2.75  26 2.75  45 2.75  37 2.75  28 2.75  36 2.75
                             5 2.75
  22  0.917  0.167  0.500-  26 2.75  32 2.75  17 2.75   6 2.75  14 2.75  15 2.75  34 2.75  13 2.75
                            39 2.75  23 2.75  35 2.75  30 2.75
  23  0.833  0.333  0.408-  34 2.75  19 2.75  26 2.75  30 2.75  11 2.75  33 2.75  31 2.75  22 2.75
                            15 2.75
  24  0.500  0.250  0.592-  47 2.75  13 2.75   7 2.75   2 2.75  25 2.75   4 2.75   9 2.75  17 2.75
                            46 2.75
  25  0.750  0.000  0.592-  13 2.75  14 2.75   1 2.75  17 2.75  24 2.75  38 2.75  32 2.75   2 2.75
                             5 2.75
  26  0.833  0.083  0.408-  22 2.75  21 2.75  23 2.75  31 2.75  37 2.75  30 2.75  45 2.75  14 2.75
                            13 2.75
  27  0.500  0.750  0.592-   8 2.75  20 2.75   2 2.75   4 2.75  29 2.75  40 2.75   1 2.75  48 2.75
                             3 2.75
  28  0.583  0.833  0.408-   5 2.75  11 2.75  12 2.75  19 2.75  45 2.75  44 2.75  21 2.75  20 2.75
                             8 2.75
  29  0.750  0.500  0.592-  20 2.75  34 2.75   1 2.75  27 2.75  17 2.75  35 2.75  16 2.75   4 2.75
                            15 2.75
  30  0.083  0.083  0.408-  39 2.75  33 2.75  37 2.75  23 2.75  44 2.75  12 2.75  26 2.75   6 2.75
                            22 2.75
  31  0.583  0.333  0.408-  15 2.75  11 2.75  26 2.75  42 2.75  45 2.75  23 2.75  10 2.75  13 2.75
                            47 2.75
  32  0.000  0.000  0.592-  22 2.75   6 2.75  17 2.75  35 2.75  38 2.75  48 2.75  40 2.75  25 2.75
                            14 2.75
  33  0.083  0.333  0.408-  41 2.75  18 2.75  19 2.75  30 2.75  12 2.75  10 2.75  23 2.75  39 2.75
                            34 2.75
  34  0.917  0.417  0.500-  23 2.75  35 2.75  29 2.75  22 2.75  20 2.75  36 2.75  39 2.75  15 2.75
                            41 2.75  19 2.75  16 2.75  33 2.75
  35  0.000  0.250  0.592-  34 2.75  39 2.75  32 2.75  16 2.75  29 2.75  40 2.75  17 2.75   9 2.75
                            22 2.75
  36  0.917  0.667  0.500-  19 2.75  16 2.75   1 2.75   5 2.75  14 2.75  34 2.75  41 2.75  20 2.75
                            43 2.75  21 2.75  18 2.75  38 2.75
  37  0.083  0.833  0.408-   6 2.75  18 2.75  26 2.75  30 2.75  42 2.75  21 2.75  44 2.75  43 2.75
                            14 2.75
  38  0.000  0.750  0.592-  14 2.75  43 2.75  16 2.75  25 2.75  32 2.75   7 2.75   1 2.75  48 2.75
                            36 2.75
  39  0.167  0.167  0.500-  30 2.75  40 2.75  35 2.75  34 2.75   8 2.75   6 2.75  41 2.75  22 2.75
                            46 2.75  33 2.75   9 2.75  12 2.75
  40  0.250  0.000  0.592-  39 2.75   8 2.75  27 2.75  35 2.75   9 2.75  48 2.75  32 2.75   2 2.75
                             6 2.75
  41  0.167  0.417  0.500-  33 2.75   9 2.75  16 2.75  36 2.75  39 2.75  43 2.75  46 2.75  34 2.75
                            47 2.75  18 2.75  10 2.75   7 2.75
  42  0.333  0.583  0.408-   3 2.75  10 2.75  31 2.75  37 2.75  44 2.75  18 2.75  11 2.75  47 2.75
                            43 2.75
  43  0.167  0.667  0.500-  18 2.75   7 2.75  38 2.75   6 2.75  14 2.75  41 2.75  47 2.75  36 2.75
                             3 2.75  37 2.75  42 2.75  48 2.75
  44  0.333  0.833  0.408-   8 2.75  11 2.75  12 2.75  30 2.75  42 2.75  37 2.75  28 2.75   3 2.75
                             6 2.75
  45  0.583  0.083  0.408-  13 2.75  10 2.75  21 2.75  28 2.75  31 2.75  12 2.75  26 2.75   5 2.75
                            46 2.75
  46  0.417  0.167  0.500-  12 2.75   2 2.75   9 2.75   5 2.75   8 2.75  41 2.75  47 2.75  13 2.75
                            39 2.75  10 2.75  45 2.75  24 2.75
  47  0.417  0.417  0.500-  10 2.75  24 2.75   7 2.75  13 2.75   3 2.75  43 2.75  46 2.75  15 2.75
                            41 2.75  42 2.75   4 2.75  31 2.75
  48  0.250  0.750  0.592-   6 2.75   3 2.75   4 2.75   7 2.75  32 2.75  40 2.75  38 2.75  27 2.75
                            43 2.75
 
  LATTYP: Found a hexagonal cell.
 ALAT       =    11.0025815153
 C/A-ratio  =     2.2260035120
  
  Lattice vectors:
  
 A1 = (   5.5012907576,  -9.5285150994,   0.0000000000)
 A2 = ( -11.0025815153,   0.0000000000,   0.0000000000)
 A3 = (   0.0000000000,   0.0000000000, -24.4917850943)


Analysis of symmetry for initial positions (statically):
=====================================================================
 Subroutine PRICEL returns:
 Original cell was already a primitive cell.
 

 Routine SETGRP: Setting up the symmetry group for a 
 hexagonal supercell.


 Subroutine GETGRP returns: Found  1 space group operations
 (whereof  1 operations were pure point group operations)
 out of a pool of 24 trial point group operations.


The static configuration has the point symmetry C_1 .


Analysis of symmetry for dynamics (positions and initial velocities):
=====================================================================
 Subroutine PRICEL returns:
 Original cell was already a primitive cell.
 

 Routine SETGRP: Setting up the symmetry group for a 
 hexagonal supercell.


 Subroutine GETGRP returns: Found  1 space group operations
 (whereof  1 operations were pure point group operations)
 out of a pool of 24 trial point group operations.


The dynamic configuration has the point symmetry C_1 .
 
 
 KPOINTS: Automatic mesh                          

Automatic generation of k-mesh.
Space group operators:
 irot       det(A)        alpha          n_x          n_y          n_z        tau_x        tau_y        tau_z
    1     1.000000     0.000000     1.000000     0.000000     0.000000     0.000000     0.000000     0.000000
 
 Subroutine IBZKPT returns following result:
 ===========================================
 
 Found      6 irreducible k-points:
 
 Following reciprocal coordinates:
            Coordinates               Weight
  0.250000  0.250000  0.000000     16.000000
  0.000000  0.250000  0.000000     16.000000
 -0.250000  0.000000  0.000000     16.000000
 -0.250000  0.250000  0.000000     16.000000
  0.500000 -0.250000  0.000000     16.000000
 -0.250000  0.500000  0.000000     16.000000
 
 Following cartesian coordinates:
            Coordinates               Weight
  0.022722  0.013119  0.000000     16.000000
  0.000000  0.026237  0.000000     16.000000
 -0.022722  0.013119  0.000000     16.000000
 -0.022722  0.039356  0.000000     16.000000
  0.045444 -0.052474  0.000000     16.000000
 -0.022722  0.065593  0.000000     16.000000
 


--------------------------------------------------------------------------------------------------------




 Dimension of arrays:
   k-points           NKPTS =      6   k-points in BZ     NKDIM =      6   number of bands    NBANDS=    306
   number of dos      NEDOS =    301   number of ions     NIONS =     48
   non local maximal  LDIM  =      6   non local SUM 2l+1 LMDIM =     18
   total plane-waves  NPLWV = 349920
   max r-space proj   IRMAX =   2009   max aug-charges    IRDMAX=   8532
   dimension x,y,z NGX =    54 NGY =   54 NGZ =  120
   dimension x,y,z NGXF=   108 NGYF=  108 NGZF=  240
   support grid    NGXF=   108 NGYF=  108 NGZF=  240
   ions per type =              24  24
 NGX,Y,Z   is equivalent  to a cutoff of   8.16,  8.16,  8.15 a.u.
 NGXF,Y,Z  is equivalent  to a cutoff of  16.32, 16.32, 16.29 a.u.


 I would recommend the setting:
   dimension x,y,z NGX =    54 NGY =   54 NGZ =  120
 SYSTEM =  unknown system                          
 POSCAR =  Au Pd                                   

 Startparameter for this run:
   NWRITE =      1    write-flag & timer
   PREC   = normal    normal or accurate (medium, high low for compatibility)
   ISTART =      0    job   : 0-new  1-cont  2-samecut
   ICHARG =      2    charge: 1-file 2-atom 10-const
   ISPIN  =      1    spin polarized calculation?
   LNONCOLLINEAR =      F non collinear calculations
   LSORBIT =      F    spin-orbit coupling
   INIWAV =      1    electr: 0-lowe 1-rand  2-diag
   LASPH  =      F    aspherical Exc in radial PAW
   METAGGA=      F    non-selfconsistent MetaGGA calc.

 Electronic Relaxation 1
   ENCUT  =  400.0 eV  29.40 Ry    5.42 a.u.  17.94 17.94 39.94*2*pi/ulx,y,z
   ENINI  =  400.0     initial cutoff
   ENAUG  =  416.2 eV  augmentation charge cutoff
   NELM   =    500;   NELMIN=  2; NELMDL= -5     # of ELM steps 
   EDIFF  = 0.1E-05   stopping-criterion for ELM
   LREAL  =      T    real-space projection
   NLSPLINE    = F    spline interpolate recip. space projectors
   LCOMPAT=      F    compatible to vasp.4.4
   GGA_COMPAT  = T    GGA compatible to vasp.4.4-vasp.4.6
   LMAXPAW     = -100 max onsite density
   LMAXMIX     =    2 max onsite mixed and CHGCAR
   VOSKOWN=      1    Vosko Wilk Nusair interpolation
   ROPT   =   -0.00050  -0.00050
 Ionic relaxation
   EDIFFG = -.2E-01   stopping-criterion for IOM
   NSW    =    500    number of steps for IOM
   NBLOCK =      1;   KBLOCK =    500    inner block; outer block 
   IBRION =      2    ionic relax: 0-MD 1-quasi-New 2-CG
   NFREE  =      2    steps in history (QN), initial steepest desc. (CG)
   ISIF   =      0    stress and relaxation
   IWAVPR =     11    prediction:  0-non 1-charg 2-wave 3-comb
   ISYM   =      2    0-nonsym 1-usesym 2-fastsym
   LCORR  =      T    Harris-Foulkes like correction to forces

   POTIM  = 0.3500    time-step for ionic-motion
   TEIN   =    0.0    initial temperature
   TEBEG  =    0.0;   TEEND  =   0.0 temperature during run
   SMASS  =  -3.00    Nose mass-parameter (am)
   estimated Nose-frequenzy (Omega)   =  0.10E-29 period in steps =****** mass=  -0.277E-26a.u.
   SCALEE = 1.0000    scale energy and forces
   NPACO  =    256;   APACO  = 16.0  distance and # of slots for P.C.
   PSTRESS=    0.0 pullay stress

  Mass of Ions in am
   POMASS = 196.97106.42
  Ionic Valenz
   ZVAL   =  11.00 10.00
  Atomic Wigner-Seitz radii
   RWIGS  =  -1.00 -1.00
  virtual crystal weights 
   VCA    =   1.00  1.00
   NELECT =     504.0000    total number of electrons
   NUPDOWN=      -1.0000    fix difference up-down

 DOS related values:
   EMIN   =  10.00;   EMAX   =-10.00  energy-range for DOS
   EFERMI =   0.00
   ISMEAR =     0;   SIGMA  =   0.10  broadening in eV -4-tet -1-fermi 0-gaus

 Electronic relaxation 2 (details)
   IALGO  =     68    algorithm
   LDIAG  =      T    sub-space diagonalisation (order eigenvalues)
   LSUBROT=      F    optimize rotation matrix (better conditioning)
   TURBO    =      0    0=normal 1=particle mesh
   IRESTART =      0    0=no restart 2=restart with 2 vectors
   NREBOOT  =      0    no. of reboots
   NMIN     =      0    reboot dimension
   EREF     =   0.00    reference energy to select bands
   IMIX   =      4    mixing-type and parameters
     AMIX     =   0.40;   BMIX     =  1.00
     AMIX_MAG =   1.60;   BMIX_MAG =  1.00
     AMIN     =   0.10
     WC   =   100.;   INIMIX=   1;  MIXPRE=   1;  MAXMIX= -45

 Intra band minimization:
   WEIMIN = 0.0010     energy-eigenvalue tresh-hold
   EBREAK =  0.82E-09  absolut break condition
   DEPER  =   0.30     relativ break condition  

   TIME   =   0.40     timestep for ELM

  volume/ion in A,a.u.               =      53.49       360.99
  Fermi-wavevector in a.u.,A,eV,Ry     =   0.951418  1.797920 12.315955  0.905197
  Thomas-Fermi vector in A             =   2.079887
 
 Write flags
   LWAVE  =      F    write WAVECAR
   LCHARG =      F    write CHGCAR
   LVTOT  =      F    write LOCPOT, total local potential
   LVHAR  =      F    write LOCPOT, Hartree potential only
   LELF   =      F    write electronic localiz. function (ELF)
   LORBIT =      0    0 simple, 1 ext, 2 COOP (PROOUT)


 Dipole corrections
   LMONO  =      F    monopole corrections only (constant potential shift)
   LDIPOL =      T    correct potential (dipole corrections)
   IDIPOL =      3    1-x, 2-y, 3-z, 4-all directions 
   EPSILON=  1.0000000 bulk dielectric constant

 Exchange correlation treatment:
   GGA     =    PE    GGA type
   LEXCH   =     8    internal setting for exchange type
   VOSKOWN=      1    Vosko Wilk Nusair interpolation
   LHFCALC =     F    Hartree Fock is set to
   LHFONE  =     F    Hartree Fock one center treatment
   AEXX    =    0.0000 exact exchange contribution

 Linear response parameters
   LEPSILON=     F    determine dielectric tensor
   LRPA    =     F    only Hartree local field effects (RPA)
   LNABLA  =     F    use nabla operator in PAW spheres
   LVEL    =     F    velocity operator in full k-point grid
   LINTERFAST=   F  fast interpolation
   KINTER  =     0    interpolate to denser k-point grid
   CSHIFT  =0.1000    complex shift for real part using Kramers Kronig
   OMEGAMAX=  -1.0    maximum frequency
   DEG_THRESHOLD= 0.2000000E-02 threshold for treating states as degnerate
   RTIME   =    0.100 relaxation time in fs

 Orbital magnetization related:
   ORBITALMAG=     F  switch on orbital magnetization
   LCHIMAG   =     F  perturbation theory with respect to B field
   DQ        =  0.001000  dq finite difference perturbation B field



--------------------------------------------------------------------------------------------------------


 conjugate gradient relaxation of ions
 charge density and potential will be updated during run
 non-spin polarized calculation
 RMM-DIIS sequential band-by-band and
  variant of blocked Davidson during initial phase
 perform sub-space diagonalisation
    before iterative eigenvector-optimisation
 modified Broyden-mixing scheme, WC =      100.0
 initial mixing is a Kerker type mixing with AMIX =  0.4000 and BMIX =      1.0000
 Hartree-type preconditioning will be used
 using additional bands           54
 real space projection scheme for non local part
 use partial core corrections
 calculate Harris-corrections to forces 
   (improved forces if not selfconsistent)
 use gradient corrections 
 use of overlap-Matrix (Vanderbilt PP)
 Gauss-broadening in eV      SIGMA  =   0.10


--------------------------------------------------------------------------------------------------------


  energy-cutoff  :      400.00
  volume of cell :     2567.68
      direct lattice vectors                 reciprocal lattice vectors
    11.002581515  0.000000000  0.000000000     0.090887761 -0.052474073  0.000000000
     5.501290758  9.528515099  0.000000000     0.000000000  0.104948147  0.000000000
     0.000000000  0.000000000 24.491785094     0.000000000  0.000000000  0.040830017

  length of vectors
    11.002581515 11.002581515 24.491785094     0.104948147  0.104948147  0.040830017


 
 k-points in units of 2pi/SCALE and weight: Automatic mesh                          
   0.02272194  0.01311852  0.00000000       0.167
   0.00000000  0.02623704  0.00000000       0.167
  -0.02272194  0.01311852  0.00000000       0.167
  -0.02272194  0.03935555  0.00000000       0.167
   0.04544388 -0.05247407  0.00000000       0.167
  -0.02272194  0.06559259  0.00000000       0.167
 
 k-points in reciprocal lattice and weights: Automatic mesh                          
   0.25000000  0.25000000  0.00000000       0.167
   0.00000000  0.25000000  0.00000000       0.167
  -0.25000000  0.00000000  0.00000000       0.167
  -0.25000000  0.25000000  0.00000000       0.167
   0.50000000 -0.25000000  0.00000000       0.167
  -0.25000000  0.50000000  0.00000000       0.167
 
 position of ions in fractional coordinates (direct lattice) 
   0.75000000  0.75000000  0.59169983
   0.50000000  0.00000000  0.59169983
   0.41666667  0.66666667  0.50000000
   0.50000000  0.50000000  0.59169983
   0.66666667  0.91666667  0.50000000
   0.16666667  0.91666667  0.50000000
   0.25000000  0.50000000  0.59169983
   0.41666667  0.91666667  0.50000000
   0.25000000  0.25000000  0.59169983
   0.33333333  0.33333333  0.40830017
   0.58333333  0.58333333  0.40830017
   0.33333333  0.08333333  0.40830017
   0.66666667  0.16666667  0.50000000
   0.91666667  0.91666667  0.50000000
   0.66666667  0.41666667  0.50000000
   0.00000000  0.50000000  0.59169983
   0.75000000  0.25000000  0.59169983
   0.08333333  0.58333333  0.40830017
   0.83333333  0.58333333  0.40830017
   0.66666667  0.66666667  0.50000000
   0.83333333  0.83333333  0.40830017
   0.91666667  0.16666667  0.50000000
   0.83333333  0.33333333  0.40830017
   0.50000000  0.25000000  0.59169983
   0.75000000  0.00000000  0.59169983
   0.83333333  0.08333333  0.40830017
   0.50000000  0.75000000  0.59169983
   0.58333333  0.83333333  0.40830017
   0.75000000  0.50000000  0.59169983
   0.08333333  0.08333333  0.40830017
   0.58333333  0.33333333  0.40830017
   0.00000000  0.00000000  0.59169983
   0.08333333  0.33333333  0.40830017
   0.91666667  0.41666667  0.50000000
   0.00000000  0.25000000  0.59169983
   0.91666667  0.66666667  0.50000000
   0.08333333  0.83333333  0.40830017
   0.00000000  0.75000000  0.59169983
   0.16666667  0.16666667  0.50000000
   0.25000000  0.00000000  0.59169983
   0.16666667  0.41666667  0.50000000
   0.33333333  0.58333333  0.40830017
   0.16666667  0.66666667  0.50000000
   0.33333333  0.83333333  0.40830017
   0.58333333  0.08333333  0.40830017
   0.41666667  0.16666667  0.50000000
   0.41666667  0.41666667  0.50000000
   0.25000000  0.75000000  0.59169983
 
 position of ions in cartesian coordinates  (Angst):
  12.37790420  7.14638632 14.49178509
   5.50129076  0.00000000 14.49178509
   8.25193614  6.35234340 12.24589255
   8.25193614  4.76425755 14.49178509
  12.37790420  8.73447217 12.24589255
   6.87661345  8.73447217 12.24589255
   5.50129076  4.76425755 14.49178509
   9.62725883  8.73447217 12.24589255
   4.12596807  2.38212877 14.49178509
   5.50129076  3.17617170 10.00000000
   9.62725883  5.55830047 10.00000000
   4.12596807  0.79404292 10.00000000
   8.25193614  1.58808585 12.24589255
  15.12854958  8.73447217 12.24589255
   9.62725883  3.97021462 12.24589255
   2.75064538  4.76425755 14.49178509
   9.62725883  2.38212877 14.49178509
   4.12596807  5.55830047 10.00000000
  12.37790420  5.55830047 10.00000000
  11.00258152  6.35234340 12.24589255
  13.75322689  7.94042925 10.00000000
  11.00258152  1.58808585 12.24589255
  11.00258152  3.17617170 10.00000000
   6.87661345  2.38212877 14.49178509
   8.25193614  0.00000000 14.49178509
   9.62725883  0.79404292 10.00000000
   9.62725883  7.14638632 14.49178509
  11.00258152  7.94042925 10.00000000
  11.00258152  4.76425755 14.49178509
   1.37532269  0.79404292 10.00000000
   8.25193614  3.17617170 10.00000000
   0.00000000  0.00000000 14.49178509
   2.75064538  3.17617170 10.00000000
  12.37790420  3.97021462 12.24589255
   1.37532269  2.38212877 14.49178509
  13.75322689  6.35234340 12.24589255
   5.50129076  7.94042925 10.00000000
   4.12596807  7.14638632 14.49178509
   2.75064538  1.58808585 12.24589255
   2.75064538  0.00000000 14.49178509
   4.12596807  3.97021462 12.24589255
   6.87661345  5.55830047 10.00000000
   5.50129076  6.35234340 12.24589255
   8.25193614  7.94042925 10.00000000
   6.87661345  0.79404292 10.00000000
   5.50129076  1.58808585 12.24589255
   6.87661345  3.97021462 12.24589255
   6.87661345  7.14638632 14.49178509
 


--------------------------------------------------------------------------------------------------------


 k-point  1 :   0.2500 0.2500 0.0000  plane waves:   46635
 k-point  2 :   0.0000 0.2500 0.0000  plane waves:   46635
 k-point  3 :  -0.2500 0.0000 0.0000  plane waves:   46635
 k-point  4 :  -0.2500 0.2500 0.0000  plane waves:   46644
 k-point  5 :   0.5000-0.2500 0.0000  plane waves:   46644
 k-point  6 :  -0.2500 0.5000 0.0000  plane waves:   46644

 maximum and minimum number of plane-waves per node :      7818     7732

 maximum number of plane-waves:     46644
 maximum index in each direction: 
   IXMAX=   18   IYMAX=   18   IZMAX=   39
   IXMIN=  -18   IYMIN=  -18   IZMIN=  -39

 WARNING: aliasing errors must be expected set NGX to  74 to avoid them
 WARNING: aliasing errors must be expected set NGY to  74 to avoid them
 WARNING: aliasing errors must be expected set NGZ to 158 to avoid them
 aliasing errors are usually negligible using standard VASP settings
 and one can safely disregard these warnings

 real space projection operators:
  total allocation   :      12803.06 KBytes
  max/ min on nodes  :       2145.66       2127.94


 parallel 3D FFT for wavefunctions:
    minimum data exchange during FFTs selected (reduces bandwidth)
 parallel 3D FFT for charge:
    minimum data exchange during FFTs selected (reduces bandwidth)


 total amount of memory used by VASP on root node    84353. kBytes
========================================================================

   base      :      30000. kBytes
   nonlr-proj:       4285. kBytes
   fftplans  :       4447. kBytes
   grid      :       6721. kBytes
   one-center:        124. kBytes
   wavefun   :      38776. kBytes
 
     INWAV:  cpu time    0.0000: real time    0.0000
 Broyden mixing: mesh for mixing (old mesh)
   NGX = 35   NGY = 35   NGZ = 79
  (NGX  =108   NGY  =108   NGZ  =240)
  gives a total of  96775 points

 initial charge density was supplied:
 charge density of overlapping atoms calculated
 number of electron     504.0000000 magnetization 
 keeping initial charge density in first step


--------------------------------------------------------------------------------------------------------


 Maximum index for non-local projection operator          355
 Maximum index for augmentation-charges          437 (set IRDMAX)


--------------------------------------------------------------------------------------------------------


 First call to EWALD:  gamma=   0.129
 Maximum number of real-space cells 4x 4x 2
 Maximum number of reciprocal cells 2x 2x 5

 FEWALD executed in parallel
    FEWALD:  cpu time    0.0024: real time    0.0024


----------------------------------------- Iteration    1(   1)  ---------------------------------------


    POTLOK:  cpu time    0.0473: real time    0.0475
    SETDIJ:  cpu time    0.0060: real time    0.0060
     EDDAV:  cpu time    6.8873: real time    6.9058
       DOS:  cpu time    0.0014: real time    0.0014
    --------------------------------------------
      LOOP:  cpu time    6.9448: real time    6.9668

 eigenvalue-minimisations  :  3672
 total energy-change (2. order) : 0.3201097E+04  (-0.1898050E+05)
 number of electron     504.0000000 magnetization 
 augmentation part      504.0000000 magnetization 

 DIPCOR: dipole corrections for dipol
 direction  3 min pos     1,
 dipolmoment           0.000000      0.000000     -0.000001 electrons x Angstroem
 Tr[quadrupol]    -10334.487823

 energy correction for charged system         0.000000 eV
 dipol+quadrupol energy correction           -0.000000 eV
 added-field ion interaction          0.000000 eV  (added to PSCEN)


 Free energy of the ion-electron system (eV)
  ---------------------------------------------------
  alpha Z        PSCENC =       805.86936440
  Ewald energy   TEWEN  =    200396.54261420
  -Hartree energ DENC   =   -242811.67654380
  -exchange      EXHF   =         0.00000000
  -V(xc)+E(xc)   XCENC  =      -327.56034984
  PAW double counting   =     40340.05962942   -38292.62782345
  entropy T*S    EENTRO =        -0.13564664
  eigenvalues    EBANDS =      1430.84025688
  atomic energy  EATOM  =     41659.78587232
  Solvation  Ediel_sol  =         0.00000000
  ---------------------------------------------------
  free energy    TOTEN  =      3201.09737348 eV

  energy without entropy =     3201.23302012  energy(sigma->0) =     3201.16519680


--------------------------------------------------------------------------------------------------------




----------------------------------------- Iteration    1(   2)  ---------------------------------------


     EDDAV:  cpu time    8.0963: real time    8.1180
       DOS:  cpu time    0.0015: real time    0.0015
    --------------------------------------------
      LOOP:  cpu time    8.0987: real time    8.1240

 eigenvalue-minimisations  :  4356
 total energy-change (2. order) :-0.3184905E+04  (-0.2926833E+04)
 number of electron     504.0000000 magnetization 
 augmentation part      504.0000000 magnetization 

 DIPCOR: dipole corrections for dipol
 direction  3 min pos     1,
 dipolmoment           0.000000      0.000000     -0.000001 electrons x Angstroem
 Tr[quadrupol]    -10334.487823

 energy correction for charged system         0.000000 eV
 dipol+quadrupol energy correction           -0.000000 eV
 added-field ion interaction          0.000000 eV  (added to PSCEN)


 Free energy of the ion-electron system (eV)
  ---------------------------------------------------
  alpha Z        PSCENC =       805.86936440
  Ewald energy   TEWEN  =    200396.54261420
  -Hartree energ DENC   =   -242811.67654380
  -exchange      EXHF   =         0.00000000
  -V(xc)+E(xc)   XCENC  =      -327.56034984
  PAW double counting   =     40340.05962942   -38292.62782345
  entropy T*S    EENTRO =        -0.11816435
  eigenvalues    EBANDS =     -1754.08214144
  atomic energy  EATOM  =     41659.78587232
  Solvation  Ediel_sol  =         0.00000000
  ---------------------------------------------------
  free energy    TOTEN  =        16.19245746 eV

  energy without entropy =       16.31062181  energy(sigma->0) =       16.25153963


--------------------------------------------------------------------------------------------------------




----------------------------------------- Iteration    1(   3)  ---------------------------------------


     EDDAV:  cpu time    7.9952: real time    8.0229
       DOS:  cpu time    0.0016: real time    0.0016
    --------------------------------------------
      LOOP:  cpu time    7.9980: real time    8.0288

 eigenvalue-minimisations  :  4152
 total energy-change (2. order) :-0.2161644E+03  (-0.2009382E+03)
 number of electron     504.0000000 magnetization 
 augmentation part      504.0000000 magnetization 

 DIPCOR: dipole corrections for dipol
 direction  3 min pos     1,
 dipolmoment           0.000000      0.000000     -0.000001 electrons x Angstroem
 Tr[quadrupol]    -10334.487823

 energy correction for charged system         0.000000 eV
 dipol+quadrupol energy correction           -0.000000 eV
 added-field ion interaction          0.000000 eV  (added to PSCEN)


 Free energy of the ion-electron system (eV)
  ---------------------------------------------------
  alpha Z        PSCENC =       805.86936440
  Ewald energy   TEWEN  =    200396.54261420
  -Hartree energ DENC   =   -242811.67654380
  -exchange      EXHF   =         0.00000000
  -V(xc)+E(xc)   XCENC  =      -327.56034984
  PAW double counting   =     40340.05962942   -38292.62782345
  entropy T*S    EENTRO =        -0.20830996
  eigenvalues    EBANDS =     -1970.15641402
  atomic energy  EATOM  =     41659.78587232
  Solvation  Ediel_sol  =         0.00000000
  ---------------------------------------------------
  free energy    TOTEN  =      -199.97196072 eV

  energy without entropy =     -199.76365077  energy(sigma->0) =     -199.86780574


--------------------------------------------------------------------------------------------------------




----------------------------------------- Iteration    1(   4)  ---------------------------------------


     EDDAV:  cpu time    8.1559: real time    8.2577
       DOS:  cpu time    0.0016: real time    0.0016
    --------------------------------------------
      LOOP:  cpu time    8.1585: real time    8.2643

 eigenvalue-minimisations  :  4260
 total energy-change (2. order) :-0.5884998E+01  (-0.5808560E+01)
 number of electron     504.0000000 magnetization 
 augmentation part      504.0000000 magnetization 

 DIPCOR: dipole corrections for dipol
 direction  3 min pos     1,
 dipolmoment           0.000000      0.000000     -0.000001 electrons x Angstroem
 Tr[quadrupol]    -10334.487823

 energy correction for charged system         0.000000 eV
 dipol+quadrupol energy correction           -0.000000 eV
 added-field ion interaction          0.000000 eV  (added to PSCEN)


 Free energy of the ion-electron system (eV)
  ---------------------------------------------------
  alpha Z        PSCENC =       805.86936440
  Ewald energy   TEWEN  =    200396.54261420
  -Hartree energ DENC   =   -242811.67654380
  -exchange      EXHF   =         0.00000000
  -V(xc)+E(xc)   XCENC  =      -327.56034984
  PAW double counting   =     40340.05962942   -38292.62782345
  entropy T*S    EENTRO =        -0.21912523
  eigenvalues    EBANDS =     -1976.03059661
  atomic energy  EATOM  =     41659.78587232
  Solvation  Ediel_sol  =         0.00000000
  ---------------------------------------------------
  free energy    TOTEN  =      -205.85695859 eV

  energy without entropy =     -205.63783336  energy(sigma->0) =     -205.74739598


--------------------------------------------------------------------------------------------------------




----------------------------------------- Iteration    1(   5)  ---------------------------------------


     EDDAV:  cpu time    8.3434: real time    8.3699
       DOS:  cpu time    0.0016: real time    0.0016
    CHARGE:  cpu time    0.2396: real time    0.2402
    MIXING:  cpu time    0.0021: real time    0.0023
    --------------------------------------------
      LOOP:  cpu time    8.5878: real time    8.6182

 eigenvalue-minimisations  :  4392
 total energy-change (2. order) :-0.1821199E+00  (-0.1814585E+00)
 number of electron     503.9998406 magnetization 
 augmentation part      191.3378782 magnetization 

 DIPCOR: dipole corrections for dipol
 direction  3 min pos     1,
 dipolmoment           0.000000      0.000000     -0.000001 electrons x Angstroem
 Tr[quadrupol]    -10334.487823

 energy correction for charged system         0.000000 eV
 dipol+quadrupol energy correction           -0.000000 eV
 added-field ion interaction          0.000000 eV  (added to PSCEN)


 Broyden mixing:
  rms(total) = 0.62528E+01    rms(broyden)= 0.62527E+01
  rms(prec ) = 0.63689E+01
  weight for this iteration     100.00

 Free energy of the ion-electron system (eV)
  ---------------------------------------------------
  alpha Z        PSCENC =       805.86936440
  Ewald energy   TEWEN  =    200396.54261420
  -Hartree energ DENC   =   -242811.67654380
  -exchange      EXHF   =         0.00000000
  -V(xc)+E(xc)   XCENC  =      -327.56034984
  PAW double counting   =     40340.05962942   -38292.62782345
  entropy T*S    EENTRO =        -0.21927470
  eigenvalues    EBANDS =     -1976.21256701
  atomic energy  EATOM  =     41659.78587232
  Solvation  Ediel_sol  =         0.00000000
  ---------------------------------------------------
  free energy    TOTEN  =      -206.03907846 eV

  energy without entropy =     -205.81980376  energy(sigma->0) =     -205.92944111


--------------------------------------------------------------------------------------------------------




----------------------------------------- Iteration    1(   6)  ---------------------------------------


    POTLOK:  cpu time    0.0422: real time    0.0423
    SETDIJ:  cpu time    0.0058: real time    0.0059
    EDDIAG:  cpu time    1.2336: real time    1.2387
  RMM-DIIS:  cpu time    3.4209: real time    3.4294
    ORTHCH:  cpu time    0.2955: real time    0.2962
       DOS:  cpu time    0.0014: real time    0.0014
    CHARGE:  cpu time    0.2388: real time    0.2394
    MIXING:  cpu time    0.0019: real time    0.0020
    --------------------------------------------
      LOOP:  cpu time    5.2408: real time    5.2591

 eigenvalue-minimisations  :  3679
 total energy-change (2. order) : 0.7720651E+01  (-0.9292814E+01)
 number of electron     503.9998421 magnetization 
 augmentation part      192.2705937 magnetization 

 DIPCOR: dipole corrections for dipol
 direction  3 min pos     1,
 dipolmoment           0.000000      0.000000     -0.344230 electrons x Angstroem
 Tr[quadrupol]    -10335.199024

 energy correction for charged system         0.000000 eV
 dipol+quadrupol energy correction           -0.004175 eV
 added-field ion interaction          0.054484 eV  (added to PSCEN)


 Broyden mixing:
  rms(total) = 0.53511E+01    rms(broyden)= 0.53509E+01
  rms(prec ) = 0.54977E+01
  weight for this iteration     100.00

 eigenvalues of (default mixing * dielectric matrix)
  average eigenvalue GAMMA=   0.8037
  0.8037

 Free energy of the ion-electron system (eV)
  ---------------------------------------------------
  alpha Z        PSCENC =       805.91967312
  Ewald energy   TEWEN  =    200396.54261420
  -Hartree energ DENC   =   -242539.73395821
  -exchange      EXHF   =         0.00000000
  -V(xc)+E(xc)   XCENC  =      -340.00239911
  PAW double counting   =     43929.61444309   -41941.32098670
  entropy T*S    EENTRO =        -0.24501338
  eigenvalues    EBANDS =     -2168.87867318
  atomic energy  EATOM  =     41659.78587232
  Solvation  Ediel_sol  =         0.00000000
  ---------------------------------------------------
  free energy    TOTEN  =      -198.31842786 eV

  energy without entropy =     -198.07341448  energy(sigma->0) =     -198.19592117


--------------------------------------------------------------------------------------------------------




----------------------------------------- Iteration    1(   7)  ---------------------------------------


    POTLOK:  cpu time    0.0426: real time    0.0428
    SETDIJ:  cpu time    0.0053: real time    0.0053
    EDDIAG:  cpu time    1.2353: real time    1.2405
  RMM-DIIS:  cpu time    3.3744: real time    3.3827
    ORTHCH:  cpu time    0.2982: real time    0.2998
       DOS:  cpu time    0.0015: real time    0.0015
    CHARGE:  cpu time    0.2352: real time    0.2358
    MIXING:  cpu time    0.0020: real time    0.0020
    --------------------------------------------
      LOOP:  cpu time    5.1952: real time    5.2141

 eigenvalue-minimisations  :  3684
 total energy-change (2. order) :-0.2352095E+01  (-0.5009260E+01)
 number of electron     503.9998363 magnetization 
 augmentation part      196.9462382 magnetization 

 DIPCOR: dipole corrections for dipol
 direction  3 min pos     1,
 dipolmoment           0.000000      0.000000      0.582908 electrons x Angstroem
 Tr[quadrupol]    -10334.174973

 energy correction for charged system         0.000000 eV
 dipol+quadrupol energy correction           -0.011973 eV
 added-field ion interaction         -0.092262 eV  (added to PSCEN)


 Broyden mixing:
  rms(total) = 0.37997E+01    rms(broyden)= 0.37994E+01
  rms(prec ) = 0.41861E+01
  weight for this iteration     100.00

 eigenvalues of (default mixing * dielectric matrix)
  average eigenvalue GAMMA=   1.0753
  1.7211  0.4295

 Free energy of the ion-electron system (eV)
  ---------------------------------------------------
  alpha Z        PSCENC =       805.76512940
  Ewald energy   TEWEN  =    200396.54261420
  -Hartree energ DENC   =   -242397.03674505
  -exchange      EXHF   =         0.00000000
  -V(xc)+E(xc)   XCENC  =      -342.38390491
  PAW double counting   =     45553.74614342   -43592.87275806
  entropy T*S    EENTRO =        -0.18167929
  eigenvalues    EBANDS =     -2284.03519509
  atomic energy  EATOM  =     41659.78587232
  Solvation  Ediel_sol  =         0.00000000
  ---------------------------------------------------
  free energy    TOTEN  =      -200.67052307 eV

  energy without entropy =     -200.48884378  energy(sigma->0) =     -200.57968342


--------------------------------------------------------------------------------------------------------




----------------------------------------- Iteration    1(   8)  ---------------------------------------


    POTLOK:  cpu time    0.0418: real time    0.0420
    SETDIJ:  cpu time    0.0060: real time    0.0060
    EDDIAG:  cpu time    1.2453: real time    1.2498
  RMM-DIIS:  cpu time    3.3938: real time    3.4082
    ORTHCH:  cpu time    0.2967: real time    0.2974
       DOS:  cpu time    0.0015: real time    0.0015
    CHARGE:  cpu time    0.2375: real time    0.2381
    MIXING:  cpu time    0.0021: real time    0.0021
    --------------------------------------------
      LOOP:  cpu time    5.2252: real time    5.2491

 eigenvalue-minimisations  :  3676
 total energy-change (2. order) :-0.2396421E+02  (-0.8206415E+01)
 number of electron     503.9998372 magnetization 
 augmentation part      195.2921039 magnetization 

 DIPCOR: dipole corrections for dipol
 direction  3 min pos     1,
 dipolmoment           0.000000      0.000000     -1.941844 electrons x Angstroem
 Tr[quadrupol]    -10336.774903

 energy correction for charged system         0.000000 eV
 dipol+quadrupol energy correction           -0.132871 eV
 added-field ion interaction          0.307352 eV  (added to PSCEN)


 Broyden mixing:
  rms(total) = 0.43007E+01    rms(broyden)= 0.43004E+01
  rms(prec ) = 0.53369E+01
  weight for this iteration     100.00

 eigenvalues of (default mixing * dielectric matrix)
  average eigenvalue GAMMA=   0.9794
  2.1691  0.4840  0.2850

 Free energy of the ion-electron system (eV)
  ---------------------------------------------------
  alpha Z        PSCENC =       806.04384501
  Ewald energy   TEWEN  =    200396.54261420
  -Hartree energ DENC   =   -242428.29233787
  -exchange      EXHF   =         0.00000000
  -V(xc)+E(xc)   XCENC  =      -344.41613382
  PAW double counting   =     47738.05945136   -45805.84672389
  entropy T*S    EENTRO =        -0.33646695
  eigenvalues    EBANDS =     -2246.17485662
  atomic energy  EATOM  =     41659.78587232
  Solvation  Ediel_sol  =         0.00000000
  ---------------------------------------------------
  free energy    TOTEN  =      -224.63473628 eV

  energy without entropy =     -224.29826932  energy(sigma->0) =     -224.46650280


--------------------------------------------------------------------------------------------------------




----------------------------------------- Iteration    1(   9)  ---------------------------------------


    POTLOK:  cpu time    0.0415: real time    0.0416
    SETDIJ:  cpu time    0.0056: real time    0.0056
    EDDIAG:  cpu time    1.2333: real time    1.2382
  RMM-DIIS:  cpu time    3.3905: real time    3.3987
    ORTHCH:  cpu time    0.2966: real time    0.2973
       DOS:  cpu time    0.0015: real time    0.0015
    CHARGE:  cpu time    0.2406: real time    0.2412
    MIXING:  cpu time    0.0021: real time    0.0021
    --------------------------------------------
      LOOP:  cpu time    5.2124: real time    5.2305

 eigenvalue-minimisations  :  3678
 total energy-change (2. order) : 0.1556787E+02  (-0.3800276E+01)
 number of electron     503.9998348 magnetization 
 augmentation part      197.6346845 magnetization 

 DIPCOR: dipole corrections for dipol
 direction  3 min pos     1,
 dipolmoment           0.000000      0.000000      0.787384 electrons x Angstroem
 Tr[quadrupol]    -10337.792728

 energy correction for charged system         0.000000 eV
 dipol+quadrupol energy correction           -0.021846 eV
 added-field ion interaction         -0.124626 eV  (added to PSCEN)


 Broyden mixing:
  rms(total) = 0.33731E+01    rms(broyden)= 0.33728E+01
  rms(prec ) = 0.38635E+01
  weight for this iteration     100.00

 eigenvalues of (default mixing * dielectric matrix)
  average eigenvalue GAMMA=   0.8457
  2.2873  0.5027  0.2964  0.2964

 Free energy of the ion-electron system (eV)
  ---------------------------------------------------
  alpha Z        PSCENC =       805.72289202
  Ewald energy   TEWEN  =    200396.54261420
  -Hartree energ DENC   =   -242430.01637117
  -exchange      EXHF   =         0.00000000
  -V(xc)+E(xc)   XCENC  =      -345.78752951
  PAW double counting   =     48838.98028559   -46923.74098073
  entropy T*S    EENTRO =        -0.23628661
  eigenvalues    EBANDS =     -2210.31736236
  atomic energy  EATOM  =     41659.78587232
  Solvation  Ediel_sol  =         0.00000000
  ---------------------------------------------------
  free energy    TOTEN  =      -209.06686626 eV

  energy without entropy =     -208.83057965  energy(sigma->0) =     -208.94872295


--------------------------------------------------------------------------------------------------------




----------------------------------------- Iteration    1(  10)  ---------------------------------------


    POTLOK:  cpu time    0.0416: real time    0.0451
    SETDIJ:  cpu time    0.0049: real time    0.0055
    EDDIAG:  cpu time    1.2309: real time    1.2347
  RMM-DIIS:  cpu time    3.4422: real time    3.4538
    ORTHCH:  cpu time    0.2969: real time    0.2976
       DOS:  cpu time    0.0014: real time    0.0015
    CHARGE:  cpu time    0.2348: real time    0.2354
    MIXING:  cpu time    0.0023: real time    0.0023
    --------------------------------------------
      LOOP:  cpu time    5.2558: real time    5.2783

 eigenvalue-minimisations  :  3681
 total energy-change (2. order) : 0.1591402E+02  (-0.1725038E+01)
 number of electron     503.9998340 magnetization 
 augmentation part      199.3282824 magnetization 

 DIPCOR: dipole corrections for dipol
 direction  3 min pos     1,
 dipolmoment           0.000000      0.000000     -0.260200 electrons x Angstroem
 Tr[quadrupol]    -10336.287200

 energy correction for charged system         0.000000 eV
 dipol+quadrupol energy correction           -0.002386 eV
 added-field ion interaction          0.041184 eV  (added to PSCEN)


 Broyden mixing:
  rms(total) = 0.14077E+01    rms(broyden)= 0.14074E+01
  rms(prec ) = 0.16377E+01
  weight for this iteration     100.00

 eigenvalues of (default mixing * dielectric matrix)
  average eigenvalue GAMMA=   0.8158
  2.2492  0.6383  0.6383  0.3140  0.2393

 Free energy of the ion-electron system (eV)
  ---------------------------------------------------
  alpha Z        PSCENC =       805.90816269
  Ewald energy   TEWEN  =    200396.54261420
  -Hartree energ DENC   =   -242387.22354094
  -exchange      EXHF   =         0.00000000
  -V(xc)+E(xc)   XCENC  =      -345.58248283
  PAW double counting   =     49225.63422280   -47314.71443023
  entropy T*S    EENTRO =        -0.17543634
  eigenvalues    EBANDS =     -2233.32783027
  atomic energy  EATOM  =     41659.78587232
  Solvation  Ediel_sol  =         0.00000000
  ---------------------------------------------------
  free energy    TOTEN  =      -193.15284862 eV

  energy without entropy =     -192.97741228  energy(sigma->0) =     -193.06513045


--------------------------------------------------------------------------------------------------------




----------------------------------------- Iteration    1(  11)  ---------------------------------------


    POTLOK:  cpu time    0.0419: real time    0.0429
    SETDIJ:  cpu time    0.0053: real time    0.0053
    EDDIAG:  cpu time    1.2089: real time    1.2872
  RMM-DIIS:  cpu time    3.4164: real time    3.4264
    ORTHCH:  cpu time    0.2954: real time    0.2961
       DOS:  cpu time    0.0016: real time    0.0016
    CHARGE:  cpu time    0.2339: real time    0.2345
    MIXING:  cpu time    0.0023: real time    0.0023
    --------------------------------------------
      LOOP:  cpu time    5.2063: real time    5.3001

 eigenvalue-minimisations  :  3679
 total energy-change (2. order) : 0.3768555E+01  (-0.1001891E+01)
 number of electron     503.9998359 magnetization 
 augmentation part      197.6836136 magnetization 

 DIPCOR: dipole corrections for dipol
 direction  3 min pos     1,
 dipolmoment           0.000000      0.000000     -0.096828 electrons x Angstroem
 Tr[quadrupol]    -10337.096670

 energy correction for charged system         0.000000 eV
 dipol+quadrupol energy correction           -0.000330 eV
 added-field ion interaction          0.015326 eV  (added to PSCEN)


 Broyden mixing:
  rms(total) = 0.10454E+01    rms(broyden)= 0.10452E+01
  rms(prec ) = 0.11867E+01
  weight for this iteration     100.00

 eigenvalues of (default mixing * dielectric matrix)
  average eigenvalue GAMMA=   0.7448
  2.2536  0.5756  0.5756  0.5254  0.2694  0.2694

 Free energy of the ion-electron system (eV)
  ---------------------------------------------------
  alpha Z        PSCENC =       805.88435976
  Ewald energy   TEWEN  =    200396.54261420
  -Hartree energ DENC   =   -242459.14051448
  -exchange      EXHF   =         0.00000000
  -V(xc)+E(xc)   XCENC  =      -344.45564141
  PAW double counting   =     49296.60363465   -47380.30837263
  entropy T*S    EENTRO =        -0.21047136
  eigenvalues    EBANDS =     -2164.08577478
  atomic energy  EATOM  =     41659.78587232
  Solvation  Ediel_sol  =         0.00000000
  ---------------------------------------------------
  free energy    TOTEN  =      -189.38429375 eV

  energy without entropy =     -189.17382239  energy(sigma->0) =     -189.27905807


--------------------------------------------------------------------------------------------------------




----------------------------------------- Iteration    1(  12)  ---------------------------------------


    POTLOK:  cpu time    0.0416: real time    0.0418
    SETDIJ:  cpu time    0.0054: real time    0.0055
    EDDIAG:  cpu time    1.2308: real time    1.2351
  RMM-DIIS:  cpu time    3.4611: real time    3.4732
    ORTHCH:  cpu time    0.2973: real time    0.2981
       DOS:  cpu time    0.0015: real time    0.0015
    CHARGE:  cpu time    0.2359: real time    0.2365
    MIXING:  cpu time    0.0025: real time    0.0025
    --------------------------------------------
      LOOP:  cpu time    5.2769: real time    5.2975

 eigenvalue-minimisations  :  3679
 total energy-change (2. order) : 0.5938538E+00  (-0.3004749E+00)
 number of electron     503.9998364 magnetization 
 augmentation part      197.2716725 magnetization 

 DIPCOR: dipole corrections for dipol
 direction  3 min pos     1,
 dipolmoment           0.000000      0.000000     -0.044936 electrons x Angstroem
 Tr[quadrupol]    -10337.373162

 energy correction for charged system         0.000000 eV
 dipol+quadrupol energy correction           -0.000071 eV
 added-field ion interaction          0.007112 eV  (added to PSCEN)


 Broyden mixing:
  rms(total) = 0.69665E+00    rms(broyden)= 0.69645E+00
  rms(prec ) = 0.74083E+00
  weight for this iteration     100.00

 eigenvalues of (default mixing * dielectric matrix)
  average eigenvalue GAMMA=   0.7514
  2.2939  0.8250  0.6613  0.6613  0.3055  0.2563  0.2563

 Free energy of the ion-electron system (eV)
  ---------------------------------------------------
  alpha Z        PSCENC =       805.87640547
  Ewald energy   TEWEN  =    200396.54261420
  -Hartree energ DENC   =   -242480.24780467
  -exchange      EXHF   =         0.00000000
  -V(xc)+E(xc)   XCENC  =      -344.10701381
  PAW double counting   =     49338.99997821   -47421.38180067
  entropy T*S    EENTRO =        -0.25025530
  eigenvalues    EBANDS =     -2144.00843572
  atomic energy  EATOM  =     41659.78587232
  Solvation  Ediel_sol  =         0.00000000
  ---------------------------------------------------
  free energy    TOTEN  =      -188.79043998 eV

  energy without entropy =     -188.54018468  energy(sigma->0) =     -188.66531233


--------------------------------------------------------------------------------------------------------




----------------------------------------- Iteration    1(  13)  ---------------------------------------


    POTLOK:  cpu time    0.0412: real time    0.0414
    SETDIJ:  cpu time    0.0054: real time    0.0054
    EDDIAG:  cpu time    1.2324: real time    1.2378
  RMM-DIIS:  cpu time    3.4168: real time    3.4251
    ORTHCH:  cpu time    0.2961: real time    0.2969
       DOS:  cpu time    0.0015: real time    0.0015
    CHARGE:  cpu time    0.2390: real time    0.2396
    MIXING:  cpu time    0.0028: real time    0.0028
    --------------------------------------------
      LOOP:  cpu time    5.2359: real time    5.2536

 eigenvalue-minimisations  :  3681
 total energy-change (2. order) : 0.5872221E-02  (-0.1017874E+00)
 number of electron     503.9998359 magnetization 
 augmentation part      197.5253085 magnetization 

 DIPCOR: dipole corrections for dipol
 direction  3 min pos     1,
 dipolmoment           0.000000      0.000000      0.016417 electrons x Angstroem
 Tr[quadrupol]    -10337.600029

 energy correction for charged system         0.000000 eV
 dipol+quadrupol energy correction           -0.000009 eV
 added-field ion interaction         -0.002598 eV  (added to PSCEN)


 Broyden mixing:
  rms(total) = 0.57452E+00    rms(broyden)= 0.57444E+00
  rms(prec ) = 0.63445E+00
  weight for this iteration     100.00

 eigenvalues of (default mixing * dielectric matrix)
  average eigenvalue GAMMA=   0.7341
  2.2889  0.7934  0.7934  0.8556  0.3106  0.3106  0.2602  0.2602

 Free energy of the ion-electron system (eV)
  ---------------------------------------------------
  alpha Z        PSCENC =       805.86675631
  Ewald energy   TEWEN  =    200396.54261420
  -Hartree energ DENC   =   -242485.30490830
  -exchange      EXHF   =         0.00000000
  -V(xc)+E(xc)   XCENC  =      -344.12712472
  PAW double counting   =     49380.96370080   -47463.74221293
  entropy T*S    EENTRO =        -0.27013228
  eigenvalues    EBANDS =     -2138.49913315
  atomic energy  EATOM  =     41659.78587232
  Solvation  Ediel_sol  =         0.00000000
  ---------------------------------------------------
  free energy    TOTEN  =      -188.78456776 eV

  energy without entropy =     -188.51443547  energy(sigma->0) =     -188.64950162


--------------------------------------------------------------------------------------------------------




----------------------------------------- Iteration    1(  14)  ---------------------------------------


    POTLOK:  cpu time    0.0423: real time    0.0425
    SETDIJ:  cpu time    0.0058: real time    0.0058
    EDDIAG:  cpu time    1.2306: real time    1.2357
  RMM-DIIS:  cpu time    3.4441: real time    3.4558
    ORTHCH:  cpu time    0.2969: real time    0.2976
       DOS:  cpu time    0.0015: real time    0.0015
    CHARGE:  cpu time    0.2362: real time    0.2368
    MIXING:  cpu time    0.0029: real time    0.0029
    --------------------------------------------
      LOOP:  cpu time    5.2609: real time    5.2823

 eigenvalue-minimisations  :  3680
 total energy-change (2. order) : 0.1012362E+00  (-0.3131796E-01)
 number of electron     503.9998358 magnetization 
 augmentation part      197.5677989 magnetization 

 DIPCOR: dipole corrections for dipol
 direction  3 min pos     1,
 dipolmoment           0.000000      0.000000      0.025734 electrons x Angstroem
 Tr[quadrupol]    -10337.730927

 energy correction for charged system         0.000000 eV
 dipol+quadrupol energy correction           -0.000023 eV
 added-field ion interaction         -0.004073 eV  (added to PSCEN)


 Broyden mixing:
  rms(total) = 0.54369E+00    rms(broyden)= 0.54362E+00
  rms(prec ) = 0.61080E+00
  weight for this iteration     100.00

 eigenvalues of (default mixing * dielectric matrix)
  average eigenvalue GAMMA=   0.7102
  2.2775  0.9345  0.9345  0.7907  0.3681  0.3681  0.2535  0.2535  0.2114

 Free energy of the ion-electron system (eV)
  ---------------------------------------------------
  alpha Z        PSCENC =       805.86526780
  Ewald energy   TEWEN  =    200396.54261420
  -Hartree energ DENC   =   -242492.21252251
  -exchange      EXHF   =         0.00000000
  -V(xc)+E(xc)   XCENC  =      -344.02022511
  PAW double counting   =     49384.39231920   -47466.53958288
  entropy T*S    EENTRO =        -0.25674880
  eigenvalues    EBANDS =     -2132.24032575
  atomic energy  EATOM  =     41659.78587232
  Solvation  Ediel_sol  =         0.00000000
  ---------------------------------------------------
  free energy    TOTEN  =      -188.68333154 eV

  energy without entropy =     -188.42658274  energy(sigma->0) =     -188.55495714


--------------------------------------------------------------------------------------------------------




----------------------------------------- Iteration    1(  15)  ---------------------------------------


    POTLOK:  cpu time    0.0418: real time    0.0419
    SETDIJ:  cpu time    0.0056: real time    0.0056
    EDDIAG:  cpu time    1.2310: real time    1.2339
  RMM-DIIS:  cpu time    3.4196: real time    3.4616
    ORTHCH:  cpu time    0.2928: real time    0.2962
       DOS:  cpu time    0.0016: real time    0.0016
    CHARGE:  cpu time    0.2307: real time    0.2331
    MIXING:  cpu time    0.0032: real time    0.0032
    --------------------------------------------
      LOOP:  cpu time    5.2269: real time    5.2808

 eigenvalue-minimisations  :  3680
 total energy-change (2. order) : 0.1300305E+00  (-0.1701664E-01)
 number of electron     503.9998359 magnetization 
 augmentation part      197.5223511 magnetization 

 DIPCOR: dipole corrections for dipol
 direction  3 min pos     1,
 dipolmoment           0.000000      0.000000      0.012642 electrons x Angstroem
 Tr[quadrupol]    -10337.896200

 energy correction for charged system         0.000000 eV
 dipol+quadrupol energy correction           -0.000006 eV
 added-field ion interaction         -0.002001 eV  (added to PSCEN)


 Broyden mixing:
  rms(total) = 0.36925E+00    rms(broyden)= 0.36919E+00
  rms(prec ) = 0.41353E+00
  weight for this iteration     100.00

 eigenvalues of (default mixing * dielectric matrix)
  average eigenvalue GAMMA=   0.7383
  2.2205  1.2996  1.2996  0.5541  0.5541  0.4493  0.2819  0.2819  0.2653  0.1766

 Free energy of the ion-electron system (eV)
  ---------------------------------------------------
  alpha Z        PSCENC =       805.86735766
  Ewald energy   TEWEN  =    200396.54261420
  -Hartree energ DENC   =   -242501.13346972
  -exchange      EXHF   =         0.00000000
  -V(xc)+E(xc)   XCENC  =      -343.89828693
  PAW double counting   =     49384.54710247   -47465.88692605
  entropy T*S    EENTRO =        -0.26689260
  eigenvalues    EBANDS =     -2124.11067241
  atomic energy  EATOM  =     41659.78587232
  Solvation  Ediel_sol  =         0.00000000
  ---------------------------------------------------
  free energy    TOTEN  =      -188.55330107 eV

  energy without entropy =     -188.28640847  energy(sigma->0) =     -188.41985477


--------------------------------------------------------------------------------------------------------




----------------------------------------- Iteration    1(  16)  ---------------------------------------


    POTLOK:  cpu time    0.0415: real time    0.0416
    SETDIJ:  cpu time    0.0055: real time    0.0055
    EDDIAG:  cpu time    1.2302: real time    1.2332
  RMM-DIIS:  cpu time    3.4527: real time    3.4612
    ORTHCH:  cpu time    0.2967: real time    0.2974
       DOS:  cpu time    0.0016: real time    0.0016
    CHARGE:  cpu time    0.2347: real time    0.2354
    MIXING:  cpu time    0.0029: real time    0.0030
    --------------------------------------------
      LOOP:  cpu time    5.2666: real time    5.2812

 eigenvalue-minimisations  :  3680
 total energy-change (2. order) : 0.1244549E+00  (-0.1580615E-01)
 number of electron     503.9998362 magnetization 
 augmentation part      197.3438762 magnetization 

 DIPCOR: dipole corrections for dipol
 direction  3 min pos     1,
 dipolmoment           0.000000      0.000000     -0.016522 electrons x Angstroem
 Tr[quadrupol]    -10338.214346

 energy correction for charged system         0.000000 eV
 dipol+quadrupol energy correction           -0.000010 eV
 added-field ion interaction          0.002615 eV  (added to PSCEN)


 Broyden mixing:
  rms(total) = 0.24020E+00    rms(broyden)= 0.24015E+00
  rms(prec ) = 0.27676E+00
  weight for this iteration     100.00

 eigenvalues of (default mixing * dielectric matrix)
  average eigenvalue GAMMA=   0.7600
  2.2039  1.4979  1.4979  0.6469  0.5783  0.5783  0.3327  0.3327  0.2583  0.2583
  0.1751

 Free energy of the ion-electron system (eV)
  ---------------------------------------------------
  alpha Z        PSCENC =       805.87196978
  Ewald energy   TEWEN  =    200396.54261420
  -Hartree energ DENC   =   -242519.56670970
  -exchange      EXHF   =         0.00000000
  -V(xc)+E(xc)   XCENC  =      -343.64542272
  PAW double counting   =     49381.98837273   -47461.59169427
  entropy T*S    EENTRO =        -0.25372625
  eigenvalues    EBANDS =     -2107.56012223
  atomic energy  EATOM  =     41659.78587232
  Solvation  Ediel_sol  =         0.00000000
  ---------------------------------------------------
  free energy    TOTEN  =      -188.42884614 eV

  energy without entropy =     -188.17511989  energy(sigma->0) =     -188.30198302


--------------------------------------------------------------------------------------------------------




----------------------------------------- Iteration    1(  17)  ---------------------------------------


    POTLOK:  cpu time    0.0414: real time    0.0415
    SETDIJ:  cpu time    0.0055: real time    0.0055
    EDDIAG:  cpu time    1.2323: real time    1.2353
  RMM-DIIS:  cpu time    3.4552: real time    3.4666
    ORTHCH:  cpu time    0.2960: real time    0.2967
       DOS:  cpu time    0.0014: real time    0.0015
    CHARGE:  cpu time    0.2386: real time    0.2392
    MIXING:  cpu time    0.0032: real time    0.0032
    --------------------------------------------
      LOOP:  cpu time    5.2742: real time    5.2917

 eigenvalue-minimisations  :  3679
 total energy-change (2. order) : 0.5451840E-01  (-0.7766984E-02)
 number of electron     503.9998363 magnetization 
 augmentation part      197.2555449 magnetization 

 DIPCOR: dipole corrections for dipol
 direction  3 min pos     1,
 dipolmoment           0.000000      0.000000     -0.027188 electrons x Angstroem
 Tr[quadrupol]    -10338.490488

 energy correction for charged system         0.000000 eV
 dipol+quadrupol energy correction           -0.000026 eV
 added-field ion interaction          0.004303 eV  (added to PSCEN)


 Broyden mixing:
  rms(total) = 0.14706E+00    rms(broyden)= 0.14703E+00
  rms(prec ) = 0.16676E+00
  weight for this iteration     100.00

 eigenvalues of (default mixing * dielectric matrix)
  average eigenvalue GAMMA=   0.7557
  2.2712  1.5713  1.5713  0.7086  0.6200  0.6200  0.3637  0.3637  0.2652  0.2652
  0.2731  0.1749

 Free energy of the ion-electron system (eV)
  ---------------------------------------------------
  alpha Z        PSCENC =       805.87364153
  Ewald energy   TEWEN  =    200396.54261420
  -Hartree energ DENC   =   -242532.41742855
  -exchange      EXHF   =         0.00000000
  -V(xc)+E(xc)   XCENC  =      -343.50593680
  PAW double counting   =     49393.35409152   -47472.09151401
  entropy T*S    EENTRO =        -0.25966890
  eigenvalues    EBANDS =     -2095.65599906
  atomic energy  EATOM  =     41659.78587232
  Solvation  Ediel_sol  =         0.00000000
  ---------------------------------------------------
  free energy    TOTEN  =      -188.37432774 eV

  energy without entropy =     -188.11465884  energy(sigma->0) =     -188.24449329


--------------------------------------------------------------------------------------------------------




----------------------------------------- Iteration    1(  18)  ---------------------------------------


    POTLOK:  cpu time    0.0414: real time    0.0424
    SETDIJ:  cpu time    0.0054: real time    0.0063
    EDDIAG:  cpu time    1.2317: real time    1.2357
  RMM-DIIS:  cpu time    3.3754: real time    3.4725
    ORTHCH:  cpu time    0.2965: real time    0.2972
       DOS:  cpu time    0.0015: real time    0.0015
    CHARGE:  cpu time    0.2356: real time    0.2362
    MIXING:  cpu time    0.0034: real time    0.0034
    --------------------------------------------
      LOOP:  cpu time    5.1916: real time    5.2995

 eigenvalue-minimisations  :  3678
 total energy-change (2. order) : 0.1662478E-01  (-0.2566634E-02)
 number of electron     503.9998363 magnetization 
 augmentation part      197.2289895 magnetization 

 DIPCOR: dipole corrections for dipol
 direction  3 min pos     1,
 dipolmoment           0.000000      0.000000     -0.017493 electrons x Angstroem
 Tr[quadrupol]    -10338.643111

 energy correction for charged system         0.000000 eV
 dipol+quadrupol energy correction           -0.000011 eV
 added-field ion interaction          0.002769 eV  (added to PSCEN)


 Broyden mixing:
  rms(total) = 0.88276E-01    rms(broyden)= 0.88252E-01
  rms(prec ) = 0.10004E+00
  weight for this iteration     100.00

 eigenvalues of (default mixing * dielectric matrix)
  average eigenvalue GAMMA=   0.7490
  2.2634  1.6339  1.6339  0.6707  0.6707  0.7042  0.4386  0.4386  0.3155  0.2628
  0.2628  0.2664  0.1748

 Free energy of the ion-electron system (eV)
  ---------------------------------------------------
  alpha Z        PSCENC =       805.87212220
  Ewald energy   TEWEN  =    200396.54261420
  -Hartree energ DENC   =   -242538.72481587
  -exchange      EXHF   =         0.00000000
  -V(xc)+E(xc)   XCENC  =      -343.46747205
  PAW double counting   =     49402.63021710   -47481.15435376
  entropy T*S    EENTRO =        -0.26547928
  eigenvalues    EBANDS =     -2089.57640783
  atomic energy  EATOM  =     41659.78587232
  Solvation  Ediel_sol  =         0.00000000
  ---------------------------------------------------
  free energy    TOTEN  =      -188.35770297 eV

  energy without entropy =     -188.09222369  energy(sigma->0) =     -188.22496333


--------------------------------------------------------------------------------------------------------




----------------------------------------- Iteration    1(  19)  ---------------------------------------


    POTLOK:  cpu time    0.0422: real time    0.0424
    SETDIJ:  cpu time    0.0055: real time    0.0056
    EDDIAG:  cpu time    1.2269: real time    1.2321
  RMM-DIIS:  cpu time    3.4079: real time    3.4178
    ORTHCH:  cpu time    0.2967: real time    0.2975
       DOS:  cpu time    0.0015: real time    0.0015
    CHARGE:  cpu time    0.2338: real time    0.2344
    MIXING:  cpu time    0.0036: real time    0.0036
    --------------------------------------------
      LOOP:  cpu time    5.2189: real time    5.2382

 eigenvalue-minimisations  :  3681
 total energy-change (2. order) : 0.9431081E-02  (-0.1186766E-02)
 number of electron     503.9998364 magnetization 
 augmentation part      197.1708088 magnetization 

 DIPCOR: dipole corrections for dipol
 direction  3 min pos     1,
 dipolmoment           0.000000      0.000000     -0.009756 electrons x Angstroem
 Tr[quadrupol]    -10338.768293

 energy correction for charged system         0.000000 eV
 dipol+quadrupol energy correction           -0.000003 eV
 added-field ion interaction          0.001544 eV  (added to PSCEN)


 Broyden mixing:
  rms(total) = 0.53645E-01    rms(broyden)= 0.53628E-01
  rms(prec ) = 0.59790E-01
  weight for this iteration     100.00

 eigenvalues of (default mixing * dielectric matrix)
  average eigenvalue GAMMA=   0.7518
  2.2374  1.9049  1.4853  0.7933  0.7933  0.6621  0.6621  0.3992  0.3491  0.2984
  0.2615  0.2615  0.1747  0.2427

 Free energy of the ion-electron system (eV)
  ---------------------------------------------------
  alpha Z        PSCENC =       805.87090514
  Ewald energy   TEWEN  =    200396.54261420
  -Hartree energ DENC   =   -242544.96897371
  -exchange      EXHF   =         0.00000000
  -V(xc)+E(xc)   XCENC  =      -343.40451214
  PAW double counting   =     49406.02382364   -47484.20754890
  entropy T*S    EENTRO =        -0.26529537
  eigenvalues    EBANDS =     -2083.72515706
  atomic energy  EATOM  =     41659.78587232
  Solvation  Ediel_sol  =         0.00000000
  ---------------------------------------------------
  free energy    TOTEN  =      -188.34827189 eV

  energy without entropy =     -188.08297651  energy(sigma->0) =     -188.21562420


--------------------------------------------------------------------------------------------------------




----------------------------------------- Iteration    1(  20)  ---------------------------------------


    POTLOK:  cpu time    0.0415: real time    0.0418
    SETDIJ:  cpu time    0.0054: real time    0.0054
    EDDIAG:  cpu time    1.2293: real time    1.2341
  RMM-DIIS:  cpu time    3.4337: real time    3.4424
    ORTHCH:  cpu time    0.2972: real time    0.2979
       DOS:  cpu time    0.0014: real time    0.0014
    CHARGE:  cpu time    0.2353: real time    0.2358
    MIXING:  cpu time    0.0038: real time    0.0038
    --------------------------------------------
      LOOP:  cpu time    5.2483: real time    5.2661

 eigenvalue-minimisations  :  3680
 total energy-change (2. order) : 0.2703790E-02  (-0.6637156E-03)
 number of electron     503.9998365 magnetization 
 augmentation part      197.1221023 magnetization 

 DIPCOR: dipole corrections for dipol
 direction  3 min pos     1,
 dipolmoment           0.000000      0.000000     -0.014832 electrons x Angstroem
 Tr[quadrupol]    -10338.916756

 energy correction for charged system         0.000000 eV
 dipol+quadrupol energy correction           -0.000008 eV
 added-field ion interaction          0.002348 eV  (added to PSCEN)


 Broyden mixing:
  rms(total) = 0.38137E-01    rms(broyden)= 0.38129E-01
  rms(prec ) = 0.44218E-01
  weight for this iteration     100.00

 eigenvalues of (default mixing * dielectric matrix)
  average eigenvalue GAMMA=   0.7514
  2.2934  1.9458  1.4866  0.9046  0.9046  0.6359  0.6359  0.5374  0.3609  0.3609
  0.1747  0.2662  0.2662  0.2634  0.2345

 Free energy of the ion-electron system (eV)
  ---------------------------------------------------
  alpha Z        PSCENC =       805.87170412
  Ewald energy   TEWEN  =    200396.54261420
  -Hartree energ DENC   =   -242551.68897241
  -exchange      EXHF   =         0.00000000
  -V(xc)+E(xc)   XCENC  =      -343.35083056
  PAW double counting   =     49409.33516369   -47487.24562395
  entropy T*S    EENTRO =        -0.26367316
  eigenvalues    EBANDS =     -2077.33182236
  atomic energy  EATOM  =     41659.78587232
  Solvation  Ediel_sol  =         0.00000000
  ---------------------------------------------------
  free energy    TOTEN  =      -188.34556810 eV

  energy without entropy =     -188.08189494  energy(sigma->0) =     -188.21373152


--------------------------------------------------------------------------------------------------------




----------------------------------------- Iteration    1(  21)  ---------------------------------------


    POTLOK:  cpu time    0.0417: real time    0.0418
    SETDIJ:  cpu time    0.0054: real time    0.0054
    EDDIAG:  cpu time    1.2306: real time    1.2336
  RMM-DIIS:  cpu time    3.4241: real time    3.4324
    ORTHCH:  cpu time    0.2961: real time    0.2968
       DOS:  cpu time    0.0015: real time    0.0015
    CHARGE:  cpu time    0.2388: real time    0.2394
    MIXING:  cpu time    0.0040: real time    0.0040
    --------------------------------------------
      LOOP:  cpu time    5.2428: real time    5.2592

 eigenvalue-minimisations  :  3683
 total energy-change (2. order) : 0.1290227E-02  (-0.2118293E-03)
 number of electron     503.9998365 magnetization 
 augmentation part      197.1000615 magnetization 

 DIPCOR: dipole corrections for dipol
 direction  3 min pos     1,
 dipolmoment           0.000000      0.000000     -0.015788 electrons x Angstroem
 Tr[quadrupol]    -10339.025031

 energy correction for charged system         0.000000 eV
 dipol+quadrupol energy correction           -0.000009 eV
 added-field ion interaction          0.002499 eV  (added to PSCEN)


 Broyden mixing:
  rms(total) = 0.22935E-01    rms(broyden)= 0.22931E-01
  rms(prec ) = 0.25430E-01
  weight for this iteration     100.00

 eigenvalues of (default mixing * dielectric matrix)
  average eigenvalue GAMMA=   0.7808
  2.3804  1.9521  1.9521  1.1624  0.7633  0.7633  0.6176  0.6176  0.3867  0.3867
  0.3154  0.2645  0.2645  0.2677  0.1747  0.2244

 Free energy of the ion-electron system (eV)
  ---------------------------------------------------
  alpha Z        PSCENC =       805.87185439
  Ewald energy   TEWEN  =    200396.54261420
  -Hartree energ DENC   =   -242556.23143673
  -exchange      EXHF   =         0.00000000
  -V(xc)+E(xc)   XCENC  =      -343.32072138
  PAW double counting   =     49412.30916278   -47490.11271098
  entropy T*S    EENTRO =        -0.26398370
  eigenvalues    EBANDS =     -2072.92492877
  atomic energy  EATOM  =     41659.78587232
  Solvation  Ediel_sol  =         0.00000000
  ---------------------------------------------------
  free energy    TOTEN  =      -188.34427787 eV

  energy without entropy =     -188.08029417  energy(sigma->0) =     -188.21228602


--------------------------------------------------------------------------------------------------------




----------------------------------------- Iteration    1(  22)  ---------------------------------------


    POTLOK:  cpu time    0.0416: real time    0.0417
    SETDIJ:  cpu time    0.0055: real time    0.0055
    EDDIAG:  cpu time    1.2325: real time    1.2366
  RMM-DIIS:  cpu time    3.4401: real time    3.4491
    ORTHCH:  cpu time    0.2961: real time    0.2968
       DOS:  cpu time    0.0014: real time    0.0014
    CHARGE:  cpu time    0.2354: real time    0.2360
    MIXING:  cpu time    0.0041: real time    0.0041
    --------------------------------------------
      LOOP:  cpu time    5.2574: real time    5.2743

 eigenvalue-minimisations  :  3682
 total energy-change (2. order) :-0.8408908E-04  (-0.9448803E-04)
 number of electron     503.9998365 magnetization 
 augmentation part      197.1091507 magnetization 

 DIPCOR: dipole corrections for dipol
 direction  3 min pos     1,
 dipolmoment           0.000000      0.000000     -0.018167 electrons x Angstroem
 Tr[quadrupol]    -10339.125558

 energy correction for charged system         0.000000 eV
 dipol+quadrupol energy correction           -0.000012 eV
 added-field ion interaction          0.002875 eV  (added to PSCEN)


 Broyden mixing:
  rms(total) = 0.17975E-01    rms(broyden)= 0.17972E-01
  rms(prec ) = 0.21489E-01
  weight for this iteration     100.00

 eigenvalues of (default mixing * dielectric matrix)
  average eigenvalue GAMMA=   0.8059
  2.3387  2.2445  2.2445  1.2564  0.8022  0.8022  0.6343  0.6343  0.5188  0.3939
  0.3249  0.3249  0.1747  0.2629  0.2629  0.2561  0.2243

 Free energy of the ion-electron system (eV)
  ---------------------------------------------------
  alpha Z        PSCENC =       805.87222813
  Ewald energy   TEWEN  =    200396.54261420
  -Hartree energ DENC   =   -242559.68699778
  -exchange      EXHF   =         0.00000000
  -V(xc)+E(xc)   XCENC  =      -343.31656734
  PAW double counting   =     49414.39653102   -47492.25464254
  entropy T*S    EENTRO =        -0.26489295
  eigenvalues    EBANDS =     -2069.41850701
  atomic energy  EATOM  =     41659.78587232
  Solvation  Ediel_sol  =         0.00000000
  ---------------------------------------------------
  free energy    TOTEN  =      -188.34436196 eV

  energy without entropy =     -188.07946901  energy(sigma->0) =     -188.21191548


--------------------------------------------------------------------------------------------------------




----------------------------------------- Iteration    1(  23)  ---------------------------------------


    POTLOK:  cpu time    0.0423: real time    0.0424
    SETDIJ:  cpu time    0.0055: real time    0.0055
    EDDIAG:  cpu time    1.2301: real time    1.2356
  RMM-DIIS:  cpu time    3.4180: real time    3.4264
    ORTHCH:  cpu time    0.2955: real time    0.2962
       DOS:  cpu time    0.0014: real time    0.0015
    CHARGE:  cpu time    0.2346: real time    0.2352
    MIXING:  cpu time    0.0042: real time    0.0042
    --------------------------------------------
      LOOP:  cpu time    5.2322: real time    5.2505

 eigenvalue-minimisations  :  3680
 total energy-change (2. order) : 0.5201956E-04  (-0.7039875E-04)
 number of electron     503.9998365 magnetization 
 augmentation part      197.1026883 magnetization 

 DIPCOR: dipole corrections for dipol
 direction  3 min pos     1,
 dipolmoment           0.000000      0.000000     -0.015388 electrons x Angstroem
 Tr[quadrupol]    -10339.250472

 energy correction for charged system         0.000000 eV
 dipol+quadrupol energy correction           -0.000008 eV
[...]
    275       1.7683      0.00000
    276       1.7965      0.00000
    277       2.1633      0.00000
    278       2.2495      0.00000
    279       2.2855      0.00000
    280       2.3498      0.00000
    281       2.4111      0.00000
    282       2.4597      0.00000
    283       2.6964      0.00000
    284       2.9395      0.00000
    285       3.1705      0.00000
    286       3.2613      0.00000
    287       3.5179      0.00000
    288       3.6153      0.00000
    289       3.7266      0.00000
    290       3.9420      0.00000
    291       4.0801      0.00000
    292       4.2004      0.00000
    293       4.4406      0.00000
    294       4.5741      0.00000
    295       4.6107      0.00000
    296       4.6378      0.00000
    297       4.7493      0.00000
    298       4.7887      0.00000
    299       4.8822      0.00000
    300       4.9206      0.00000
    301       4.9856      0.00000
    302       5.0458      0.00000
    303       5.0592      0.00000
    304       5.0891      0.00000
    305       5.1470      0.00000
    306       5.2414      0.00000


--------------------------------------------------------------------------------------------------------


 soft charge-density along one line, spin component           1
         0         1         2         3         4         5         6         7         8         9
 total charge-density along one line
 
 pseudopotential strength for first ion, spin component:           1
 -8.027   0.002  -0.006  -0.003  -0.000  -8.174   0.002  -0.006
  0.002  -7.951   0.001   0.004  -0.000   0.002  -8.099   0.001
 -0.006   0.001  -7.941   0.000  -0.004  -0.006   0.001  -8.090
 -0.003   0.004   0.000  -7.942   0.001  -0.003   0.004   0.000
 -0.000  -0.000  -0.004   0.001  -8.025  -0.000  -0.000  -0.004
 -8.174   0.002  -0.006  -0.003  -0.000  -8.305   0.002  -0.006
  0.002  -8.099   0.001   0.004  -0.000   0.002  -8.232   0.001
 -0.006   0.001  -8.090   0.000  -0.004  -0.006   0.001  -8.223
 -0.003   0.004   0.000  -8.091   0.001  -0.003   0.004   0.000
 -0.000  -0.000  -0.004   0.001  -8.173  -0.000  -0.000  -0.004
 -0.003   0.001  -0.026  -0.001  -0.003  -0.003   0.001  -0.026
 -0.005   0.001  -0.037  -0.001  -0.004  -0.005   0.001  -0.037
 -0.001   0.003   0.000   0.000   0.000  -0.001   0.003   0.000
  0.000  -0.000   0.005  -0.001   0.000   0.000  -0.000   0.005
 -0.000   0.000   0.000   0.003  -0.001  -0.000   0.000   0.000
 -0.001   0.003   0.000  -0.000   0.000  -0.001   0.002   0.000
 -0.000  -0.000   0.006  -0.002   0.000  -0.000  -0.000   0.005
 -0.000  -0.000   0.001   0.003  -0.001  -0.000  -0.000   0.001
 total augmentation occupancy for first ion, spin component:           1
  4.291   0.010   0.211   0.041   0.224  -2.493   0.005  -0.230  -0.077  -0.221   0.213  -0.090  -0.000   0.017   0.017  -0.001
  0.010   4.088  -0.009   0.057   0.050   0.004  -1.830   0.027  -0.045  -0.060  -0.022  -0.006   0.160  -0.006   0.020  -0.005
  0.211  -0.009   4.303   0.084   0.149  -0.230   0.027  -2.190  -0.083  -0.152   0.986  -0.092  -0.003   0.209   0.007   0.000
  0.041   0.057   0.084   4.106   0.010  -0.076  -0.045  -0.083  -1.809  -0.009   0.008   0.023   0.021   0.020   0.171  -0.000
  0.224   0.050   0.149   0.010   4.063  -0.221  -0.060  -0.152  -0.009  -2.252   0.168  -0.062   0.008   0.006  -0.004  -0.000
 -2.493   0.004  -0.230  -0.076  -0.221   2.571  -0.015   0.242   0.103   0.218  -0.194   0.087   0.003  -0.017  -0.014   0.000
  0.005  -1.830   0.027  -0.045  -0.060  -0.015   1.542  -0.042   0.034   0.067   0.021   0.003  -0.149   0.008  -0.019   0.006
 -0.230   0.027  -2.190  -0.083  -0.152   0.242  -0.042   2.021   0.082   0.155  -0.924   0.114   0.003  -0.212  -0.007  -0.000
 -0.077  -0.045  -0.083  -1.809  -0.009   0.103   0.034   0.082   1.491   0.009  -0.005  -0.020  -0.020  -0.015  -0.160   0.000
 -0.221  -0.060  -0.152  -0.009  -2.252   0.218   0.067   0.155   0.009   2.323  -0.152   0.061  -0.009  -0.006   0.003   0.001
  0.213  -0.022   0.986   0.008   0.168  -0.194   0.021  -0.924  -0.005  -0.152   2.366  -0.480   0.004  -0.115   0.002  -0.000
 -0.090  -0.006  -0.092   0.023  -0.062   0.087   0.003   0.114  -0.020   0.061  -0.480   0.138   0.000   0.056   0.003   0.000
 -0.000   0.160  -0.003   0.021   0.008   0.003  -0.149   0.003  -0.020  -0.009   0.004   0.000   0.195   0.003  -0.010  -0.006
  0.017  -0.006   0.209   0.020   0.006  -0.017   0.008  -0.212  -0.015  -0.006  -0.115   0.056   0.003   0.087  -0.002  -0.000
  0.017   0.020   0.007   0.171  -0.004  -0.014  -0.019  -0.007  -0.160   0.003   0.002   0.003  -0.010  -0.002   0.180   0.001
 -0.001  -0.005   0.000  -0.000  -0.000   0.000   0.006  -0.000   0.000   0.001  -0.000   0.000  -0.006  -0.000   0.001   0.000
 -0.000   0.000  -0.002  -0.003   0.000   0.000  -0.000   0.006   0.001  -0.000   0.007  -0.003  -0.000  -0.003  -0.000  -0.000
 -0.001  -0.000  -0.000  -0.005  -0.001   0.001   0.000   0.001   0.006   0.000  -0.000  -0.000   0.001  -0.000  -0.005  -0.000


------------------------ aborting loop because EDIFF is reached ----------------------------------------


    CHARGE:  cpu time    0.2283: real time    0.2297
    FORLOC:  cpu time    0.0164: real time    0.0165
    FORNL :  cpu time    1.3121: real time    1.3161
    FORCOR:  cpu time    0.0578: real time    0.0579
    FORHAR:  cpu time    0.0254: real time    0.0255
    MIXING:  cpu time    0.0033: real time    0.0034
    OFIELD:  cpu time    0.0000: real time    0.0000

 VOLUME and BASIS-vectors are now :
 -----------------------------------------------------------------------------
  energy-cutoff  :      400.00
  volume of cell :     2567.68
      direct lattice vectors                 reciprocal lattice vectors
    11.002581515  0.000000000  0.000000000     0.090887761 -0.052474073  0.000000000
     5.501290758  9.528515099  0.000000000     0.000000000  0.104948147  0.000000000
     0.000000000  0.000000000 24.491785094     0.000000000  0.000000000  0.040830017

  length of vectors
    11.002581515 11.002581515 24.491785094     0.104948147  0.104948147  0.040830017


 FORCES acting on ions
    electron-ion (+dipol)            ewald-force                    non-local-force                 convergence-correction
 -----------------------------------------------------------------------------------------------
   -.714E+01 0.123E+02 -.227E+04   0.739E+01 -.122E+02 0.227E+04   -.249E+00 -.139E+00 -.123E+00   -.588E-03 0.167E-02 0.123E-02
   0.874E+01 0.816E+01 -.230E+04   -.894E+01 -.852E+01 0.230E+04   0.205E+00 0.350E+00 -.792E-01   0.906E-03 0.200E-02 -.154E-02
   -.919E+01 0.153E+02 0.104E+02   0.819E+01 -.156E+02 -.104E+02   0.990E+00 0.280E+00 0.549E-01   0.106E-02 -.259E-02 0.223E-02
   -.731E+01 -.159E+02 -.229E+04   0.768E+01 0.168E+02 0.229E+04   -.360E+00 -.881E+00 -.827E-01   -.792E-03 -.176E-02 -.784E-03
   0.200E+01 0.697E+01 -.121E+02   -.203E+01 -.669E+01 0.115E+02   0.186E-01 -.285E+00 0.647E+00   -.143E-02 0.416E-02 0.224E-02
   -.671E+00 -.411E+00 0.189E+02   0.663E+00 0.363E+00 -.189E+02   0.516E-02 0.470E-01 0.225E-01   0.237E-02 0.124E-02 0.476E-02
   0.121E+02 -.143E+02 -.223E+04   -.120E+02 0.152E+02 0.223E+04   -.114E+00 -.910E+00 0.785E+00   0.156E-02 -.272E-02 -.101E-03
   -.108E+02 -.669E+01 -.695E+01   0.107E+02 0.727E+01 0.702E+01   0.121E+00 -.577E+00 -.707E-01   0.193E-02 0.282E-02 0.306E-02
   0.176E+02 -.414E+01 -.222E+04   -.184E+02 0.351E+01 0.222E+04   0.811E+00 0.642E+00 0.765E+00   0.282E-02 -.128E-02 -.257E-02
   -.554E+01 0.349E+01 0.220E+04   0.612E+01 -.351E+01 -.220E+04   -.579E+00 0.222E-01 -.591E+00   0.248E-02 -.215E-02 0.309E-02
   0.155E+02 -.224E+01 0.235E+04   -.164E+02 0.279E+01 -.235E+04   0.902E+00 -.548E+00 0.239E+00   -.755E-03 -.196E-02 0.653E-03
   -.540E+01 -.480E+01 0.226E+04   0.505E+01 0.459E+01 -.226E+04   0.346E+00 0.216E+00 -.386E+00   0.377E-02 0.137E-02 0.262E-02
   -.608E+00 -.953E+01 -.353E+02   -.257E+00 0.992E+01 0.342E+02   0.870E+00 -.385E+00 0.104E+01   -.427E-02 0.169E-02 0.129E-02
   0.914E+01 0.377E+01 0.422E+02   -.898E+01 -.469E+01 -.416E+02   -.147E+00 0.911E+00 -.610E+00   -.312E-02 0.329E-02 0.283E-02
   -.155E+00 -.155E+01 0.149E+02   0.119E+00 0.155E+01 -.149E+02   0.354E-01 0.252E-02 -.344E-01   -.335E-02 -.758E-03 0.147E-02
   0.570E+01 -.120E+01 -.220E+04   -.628E+01 0.125E+01 0.220E+04   0.579E+00 -.572E-01 0.436E+00   0.745E-03 -.475E-03 0.205E-02
   -.215E+02 0.563E+01 -.233E+04   0.223E+02 -.617E+01 0.233E+04   -.784E+00 0.548E+00 -.217E+00   -.223E-02 -.309E-03 0.562E-03
   -.122E+02 0.877E+01 0.223E+04   0.128E+02 -.877E+01 -.223E+04   -.657E+00 0.783E-02 -.684E+00   -.573E-03 -.244E-02 0.139E-02
   -.705E+01 0.818E+00 0.226E+04   0.725E+01 -.974E+00 -.226E+04   -.193E+00 0.159E+00 -.398E+00   -.578E-03 -.112E-03 0.209E-02
   -.381E+01 0.597E+01 0.295E+02   0.445E+01 -.642E+01 -.290E+02   -.637E+00 0.463E+00 -.512E+00   -.869E-03 0.491E-03 0.242E-02
   0.600E-01 -.125E+02 0.231E+04   -.122E-01 0.133E+02 -.231E+04   -.437E-01 -.850E+00 0.279E-01   -.258E-02 0.166E-02 0.883E-03
   0.868E+01 -.139E+02 0.195E+02   -.763E+01 0.143E+02 -.194E+02   -.104E+01 -.313E+00 -.150E-01   -.191E-02 0.105E-02 0.345E-02
   0.227E+01 0.137E+02 0.231E+04   -.205E+01 -.145E+02 -.231E+04   -.218E+00 0.839E+00 0.711E-01   -.251E-02 0.147E-02 0.103E-02
   0.362E+01 0.408E-01 -.226E+04   -.340E+01 -.408E+00 0.226E+04   -.225E+00 0.370E+00 0.244E+00   -.380E-03 -.778E-03 -.361E-02
   -.160E+02 0.135E+02 -.200E+04   0.163E+02 -.137E+02 0.199E+04   -.319E+00 0.191E+00 0.134E+01   -.177E-02 0.207E-02 0.151E-03
   0.715E+01 -.271E+01 0.201E+04   -.699E+01 0.263E+01 -.201E+04   -.152E+00 0.779E-01 -.126E+01   -.425E-02 0.229E-02 0.170E-02
   0.400E+01 0.122E+01 -.199E+04   -.440E+01 -.127E+01 0.199E+04   0.406E+00 0.504E-01 0.110E+01   0.335E-03 0.682E-03 0.279E-03
   0.357E+01 -.146E+02 0.199E+04   -.362E+01 0.148E+02 -.199E+04   0.494E-01 -.174E+00 -.139E+01   0.998E-03 0.161E-02 0.198E-02
   -.106E+02 0.294E+00 -.196E+04   0.107E+02 -.433E+00 0.196E+04   -.663E-01 0.138E+00 0.157E+01   -.903E-03 0.259E-03 0.688E-03
   -.495E+01 0.247E+01 0.202E+04   0.491E+01 -.266E+01 -.202E+04   0.371E-01 0.191E+00 -.147E+01   0.994E-03 0.182E-02 0.152E-02
   0.161E+02 0.589E+01 0.197E+04   -.163E+02 -.601E+01 -.197E+04   0.199E+00 0.118E+00 -.164E+01   -.143E-02 -.975E-03 0.289E-02
   -.650E+01 0.772E+01 -.200E+04   0.670E+01 -.795E+01 0.200E+04   -.191E+00 0.225E+00 0.122E+01   -.732E-03 0.909E-03 0.118E-02
   -.123E+02 0.569E+01 0.196E+04   0.119E+02 -.594E+01 -.196E+04   0.360E+00 0.248E+00 -.195E+01   0.134E-02 0.396E-03 0.106E-02
   0.126E+01 -.585E+01 0.350E+02   -.691E+00 0.564E+01 -.347E+02   -.564E+00 0.211E+00 -.364E+00   -.997E-03 -.309E-03 0.179E-02
   -.272E+01 0.786E+00 -.197E+04   0.257E+01 -.978E+00 0.197E+04   0.142E+00 0.193E+00 0.164E+01   0.420E-03 -.713E-03 0.697E-03
   0.556E+01 0.201E+01 0.360E+02   -.511E+01 -.247E+01 -.356E+02   -.452E+00 0.460E+00 -.439E+00   -.185E-02 0.476E-03 0.137E-02
   -.556E+01 0.399E+01 0.203E+04   0.597E+01 -.377E+01 -.203E+04   -.414E+00 -.223E+00 -.165E+01   -.871E-03 -.652E-03 0.275E-03
   -.382E+01 -.223E+01 -.196E+04   0.415E+01 0.254E+01 0.196E+04   -.331E+00 -.311E+00 0.185E+01   -.843E-03 0.497E-03 0.229E-02
   -.796E+01 -.456E+01 0.105E+02   0.791E+01 0.521E+01 -.105E+02   0.473E-01 -.648E+00 -.447E-01   0.348E-02 -.813E-03 0.342E-02
   0.156E+02 0.122E+01 -.200E+04   -.159E+02 -.132E+01 0.200E+04   0.318E+00 0.950E-01 0.170E+01   0.173E-02 0.535E-03 0.151E-03
   -.266E+01 -.999E+00 -.552E+01   0.245E+01 0.900E+00 0.510E+01   0.207E+00 0.102E+00 0.415E+00   0.331E-02 -.357E-02 0.231E-02
   0.560E+01 0.612E+01 0.198E+04   -.552E+01 -.584E+01 -.198E+04   -.722E-01 -.279E+00 -.175E+01   0.136E-02 -.370E-02 0.148E-02
   0.480E+01 0.848E+01 0.869E+01   -.496E+01 -.878E+01 -.866E+01   0.160E+00 0.301E+00 -.349E-01   0.184E-02 -.318E-02 0.271E-02
   0.327E+01 -.402E+01 0.201E+04   -.365E+01 0.394E+01 -.201E+04   0.383E+00 0.835E-01 -.116E+01   0.235E-02 -.118E-02 0.143E-02
   0.202E+01 -.948E+01 0.198E+04   -.197E+01 0.954E+01 -.198E+04   -.496E-01 -.597E-01 -.136E+01   -.303E-03 0.202E-02 0.305E-02
   0.169E+01 -.280E+01 -.306E+02   -.177E+01 0.325E+01 0.302E+02   0.764E-01 -.453E+00 0.427E+00   0.188E-02 0.418E-03 0.221E-02
   0.108E+01 0.349E+01 -.364E+02   -.144E+01 -.340E+01 0.355E+02   0.355E+00 -.766E-01 0.884E+00   0.576E-03 -.374E-02 0.177E-02
   0.750E+01 -.132E+02 -.200E+04   -.762E+01 0.136E+02 0.200E+04   0.111E+00 -.414E+00 0.147E+01   0.105E-02 -.459E-03 0.138E-02
 -----------------------------------------------------------------------------------------------
   0.143E+00 0.367E-01 0.323E+00   -.888E-14 -.242E-12 0.523E-11   -.124E+00 -.385E-01 -.360E+00   -.588E-03 0.267E-03 0.685E-01
 
 
 POSITION                                       TOTAL-FORCE (eV/Angst)
 -----------------------------------------------------------------------------------
     12.37403      7.13951     14.78305        -0.000856     -0.001341      0.004477
      5.48088     -0.01905     14.83953         0.002177     -0.006878      0.000208
      8.22706      6.33445     12.24215        -0.006771     -0.002241      0.003916
      8.26105      4.78574     14.82809         0.007257     -0.000775      0.002746
     12.37746      8.73649     12.25827        -0.004105     -0.004302     -0.001525
      6.87361      8.73168     12.22744        -0.000797      0.000618      0.002202
      5.49435      4.80047     14.72340        -0.012824     -0.004320     -0.000680
      9.62302      8.76379     12.25762         0.001972      0.004246     -0.000001
      4.08804      2.36044     14.71023        -0.005403      0.009832      0.008780
      5.52955      3.17801      9.83405         0.001848     -0.001898     -0.002808
      9.60286      5.57622      9.58638         0.001921     -0.007453      0.006570
      4.12590      0.78877      9.76249         0.003730      0.000522     -0.002026
      8.23728      1.60249     12.27752         0.000094      0.000243     -0.004091
     15.12821      8.70381     12.20763         0.007069     -0.005715      0.002902
      9.62722      3.97005     12.23512        -0.004559      0.000712     -0.001485
      2.72300      4.76437     14.67215         0.002574     -0.000309      0.003147
      9.65280      2.35719     14.87586        -0.000608      0.007183     -0.003082
      4.15641      5.56903      9.78273         0.003916      0.001098     -0.012729
     12.38634      5.55725      9.70896        -0.001643      0.003221     -0.011258
     11.01802      6.33878     12.22524         0.004257      0.006468      0.002218
     13.76783      7.97249      9.66499         0.001061     -0.001629      0.001123
     11.03019      1.60538     12.22337         0.010047     -0.004347     -0.003124
     11.01197      3.15675      9.65135        -0.001752      0.003601     -0.000581
      6.87943      2.37190     14.80144        -0.005074      0.001959      0.006914
      8.26381     -0.01601     14.66507        -0.007207     -0.004347     -0.000533
      9.63631      0.80190      9.83579         0.002168      0.000802      0.001952
      9.60672      7.14618     14.64077         0.000426     -0.001230     -0.000760
     11.00583      7.94945      9.84057        -0.000040      0.003402      0.000956
     10.99112      4.75191     14.60913        -0.005550     -0.000436      0.000933
      1.38055      0.78403      9.82925         0.002283      0.000443      0.000730
      8.26199      3.17401      9.88214        -0.002333      0.001940     -0.001533
     -0.00516     -0.01653     14.62691         0.003975      0.000046     -0.000926
      2.75053      3.16246      9.89057         0.008417      0.001574      0.000897
     12.40115      3.97035     12.21142         0.005996     -0.003292      0.000570
      1.35536      2.36207     14.60040        -0.000445      0.000725     -0.007389
     13.75976      6.32777     12.20615         0.004011     -0.001818      0.002557
      5.53977      7.96115      9.81479        -0.002758     -0.001740      0.004215
      4.12799      7.16940     14.58315        -0.002475     -0.003697      0.001458
      2.76913      1.61481     12.23957        -0.002531      0.003034     -0.000042
      2.71610     -0.01299     14.64125        -0.007254     -0.002313      0.002126
      4.12472      3.96941     12.25751         0.001085     -0.001091      0.000969
      6.89099      5.57043      9.87891         0.003869     -0.004456     -0.000176
      5.48140      6.31770     12.24189        -0.000967     -0.004116     -0.001053
      8.25009      7.94109      9.83190         0.005063      0.004026      0.000841
      6.88935      0.80219      9.88912        -0.003747      0.005389      0.003773
      5.49028      1.61316     12.28751         0.000848      0.000871     -0.003354
      6.85123      3.97041     12.28798        -0.001485      0.004450     -0.008355
      6.86965      7.16695     14.63202        -0.004880      0.003339      0.000333
 -----------------------------------------------------------------------------------
    total drift:                                0.018032     -0.001582      0.030582


--------------------------------------------------------------------------------------------------------



  FREE ENERGIE OF THE ION-ELECTRON SYSTEM (eV)
  ---------------------------------------------------
  free  energy   TOTEN  =      -191.98192705 eV

  energy  without entropy=     -191.73923800  energy(sigma->0) =     -191.86058253
 
 d Force = 0.3451654E-03[ 0.104E-03, 0.586E-03]  d Energy = 0.3495520E-03-0.439E-05
 d Force = 0.1482019E+02[ 0.148E+02, 0.148E+02]  d Ewald  = 0.1482019E+02-0.269E-05


--------------------------------------------------------------------------------------------------------


    POTLOK:  cpu time    0.0485: real time    0.0487


--------------------------------------------------------------------------------------------------------


 stress matrix after NEB project (eV)
      0.00000      0.00000      0.00000
      0.00000      0.00000      0.00000
      0.00000      0.00000      0.00000
  FORCES: max atom, RMS     0.014246    0.007070
  FORCE total and by dimension    0.048979    0.012824
  Stress total and by dimension    0.000000    0.000000
 Conjugate gradient step on ions:
 trial-energy change:   -0.000350  1 .order   -0.000345   -0.000586   -0.000104
  (g-gl).g = 0.187E-03      g.g   = 0.195E-03  gl.gl    = 0.392E-03
 g(Force)  = 0.195E-03   g(Stress)= 0.000E+00 ortho     = 0.166E-04
 gamma     =   0.47584
 trial     =   2.88999
 opt step  =   3.47619  (harmonic =   3.51469) maximal distance =0.00409316
 next E    =  -191.981938   (d E  =  -0.00036)


--------------------------------------------------------------------------------------------------------


  
 reached required accuracy - stopping structural energy minimisation
     LOOP+:  cpu time   60.5428: real time   60.9124
    4ORBIT:  cpu time    0.0000: real time    0.0000

 total amount of memory used by VASP on root node    84353. kBytes
========================================================================

   base      :      30000. kBytes
   nonlr-proj:       4285. kBytes
   fftplans  :       4447. kBytes
   grid      :       6721. kBytes
   one-center:        124. kBytes
   wavefun   :      38776. kBytes
 
  
  
 General timing and accounting informations for this job:
 ========================================================
  
                  Total CPU time used (sec):     1923.546
                            User time (sec):     1832.211
                          System time (sec):       91.335
                         Elapsed time (sec):     1935.664
  
                   Maximum memory used (kb):      999660.
                   Average memory used (kb):           0.
  
                          Minor page faults:       974510
                          Major page faults:            0
                 Voluntary context switches:        12434
