<?xml version="1.0" encoding="ISO-8859-1"?>
<modeling>
 <generator>
  <i name="program" type="string">vasp </i>
  <i name="version" type="string">5.4.1  </i>
  <i name="subversion" type="string">24Jun15 (build Mar 14 2019 10:18:33) complex                          parallel </i>
  <i name="platform" type="string">INTEL-19.0.2+OPENMPI-3.1.3 </i>
  <i name="date" type="string">2022 07 15 </i>
  <i name="time" type="string">14:49:35 </i>
 </generator>
 <incar>
  <i type="int" name="ISTART">     0</i>
  <i type="string" name="PREC">normal</i>
  <i type="string" name="ALGO"> Fast</i>
  <i type="int" name="NELM">   500</i>
  <i type="int" name="IBRION">     2</i>
  <i type="int" name="NFREE">     2</i>
  <i name="EDIFF">      0.00000100</i>
  <i name="EDIFFG">     -0.02000000</i>
  <i type="int" name="NSW">   500</i>
  <i type="int" name="ISIF">     0</i>
  <i type="int" name="ISYM">     2</i>
  <i name="ENCUT">    400.00000000</i>
  <i name="POTIM">      0.35000000</i>
  <i type="string" name="LREAL"> Auto</i>
  <i type="logical" name="LPLANE"> T  </i>
  <i type="int" name="ISMEAR">     0</i>
  <i name="SIGMA">      0.10000000</i>
  <i type="int" name="NWRITE">     1</i>
  <i type="logical" name="LWAVE"> F  </i>
  <i type="logical" name="LCHARG"> F  </i>
  <i type="logical" name="LVTOT"> F  </i>
  <i type="logical" name="LORBIT"> F  </i>
  <i type="logical" name="LAECHG"> F  </i>
  <v type="int" name="KPOINT_BSE">    -1     0     0     0</v>
  <i type="int" name="NELM">   500</i>
  <i type="string" name="GGA"> PE          ! optPBE-vdW XC-functional</i>
  <i type="int" name="VOSKOWN">     1</i>
  <i type="logical" name="LDIPOL"> T  </i>
  <i type="logical" name="LMONO"> F  </i>
  <i type="int" name="IDIPOL">     3</i>
  <v name="DIPOL">      0.00000000      0.00000000      0.50000000</v>
 </incar>
 <kpoints>
  <generation param="Monkhorst-Pack">
   <v type="int" name="divisions">       2        2        1 </v>
   <v name="usershift">      0.00000000       0.00000000       0.00000000 </v>
   <v name="genvec1">      0.50000000      -0.00000000       0.00000000 </v>
   <v name="genvec2">      0.00000000       0.50000000       0.00000000 </v>
   <v name="genvec3">      0.00000000       0.00000000       1.00000000 </v>
   <v name="shift">      0.50000000       0.50000000       0.00000000 </v>
  </generation>
  <varray name="kpointlist" >
   <v>       0.25000000       0.25000000       0.00000000 </v>
   <v>       0.00000000       0.25000000       0.00000000 </v>
   <v>      -0.25000000       0.00000000       0.00000000 </v>
   <v>      -0.25000000       0.25000000       0.00000000 </v>
   <v>       0.50000000      -0.25000000       0.00000000 </v>
   <v>      -0.25000000       0.50000000       0.00000000 </v>
  </varray>
  <varray name="weights" >
   <v>       0.16666667 </v>
   <v>       0.16666667 </v>
   <v>       0.16666667 </v>
   <v>       0.16666667 </v>
   <v>       0.16666667 </v>
   <v>       0.16666667 </v>
  </varray>
 </kpoints>
 <parameters>
  <separator name="general" >
   <i type="string" name="SYSTEM">unknown system</i>
   <i type="logical" name="LCOMPAT"> F  </i>
  </separator>
  <separator name="electronic" >
   <i type="string" name="PREC">normal</i>
   <i name="ENMAX">    400.00000000</i>
   <i name="ENAUG">    416.23000000</i>
   <i name="EDIFF">      0.00000100</i>
   <i type="int" name="IALGO">    68</i>
   <i type="int" name="IWAVPR">    11</i>
   <i type="int" name="NBANDS">   306</i>
   <i name="NELECT">    504.00000000</i>
   <i type="int" name="TURBO">     0</i>
   <i type="int" name="IRESTART">     0</i>
   <i type="int" name="NREBOOT">     0</i>
   <i type="int" name="NMIN">     0</i>
   <i name="EREF">      0.00000000</i>
   <separator name="electronic smearing" >
    <i type="int" name="ISMEAR">     0</i>
    <i name="SIGMA">      0.10000000</i>
    <i name="KSPACING">      0.50000000</i>
    <i type="logical" name="KGAMMA"> T  </i>
   </separator>
   <separator name="electronic projectors" >
    <i type="logical" name="LREAL"> T  </i>
    <v name="ROPT">     -0.00050000     -0.00050000</v>
    <i type="int" name="LMAXPAW">  -100</i>
    <i type="int" name="LMAXMIX">     2</i>
    <i type="logical" name="NLSPLINE"> F  </i>
   </separator>
   <separator name="electronic startup" >
    <i type="int" name="ISTART">     0</i>
    <i type="int" name="ICHARG">     2</i>
    <i type="int" name="INIWAV">     1</i>
   </separator>
   <separator name="electronic spin" >
    <i type="int" name="ISPIN">     1</i>
    <i type="logical" name="LNONCOLLINEAR"> F  </i>
    <v name="MAGMOM">      1.00000000      1.00000000      1.00000000      1.00000000      1.00000000      1.00000000      1.00000000      1.00000000      1.00000000      1.00000000      1.00000000      1.00000000      1.00000000      1.00000000      1.00000000      1.00000000      1.00000000      1.00000000      1.00000000      1.00000000
      1.00000000      1.00000000      1.00000000      1.00000000      1.00000000      1.00000000      1.00000000      1.00000000      1.00000000      1.00000000      1.00000000      1.00000000      1.00000000      1.00000000      1.00000000      1.00000000      1.00000000      1.00000000      1.00000000      1.00000000
      1.00000000      1.00000000      1.00000000      1.00000000      1.00000000      1.00000000      1.00000000      1.00000000</v>
    <i name="NUPDOWN">     -1.00000000</i>
    <i type="logical" name="LSORBIT"> F  </i>
    <v name="SAXIS">      0.00000000      0.00000000      1.00000000</v>
    <i type="logical" name="LSPIRAL"> F  </i>
    <v name="QSPIRAL">      0.00000000      0.00000000      0.00000000</v>
    <i type="logical" name="LZEROZ"> F  </i>
   </separator>
   <separator name="electronic exchange-correlation" >
    <i type="logical" name="LASPH"> F  </i>
    <i type="logical" name="LMETAGGA"> F  </i>
   </separator>
   <separator name="electronic convergence" >
    <i type="int" name="NELM">   500</i>
    <i type="int" name="NELMDL">    -5</i>
    <i type="int" name="NELMIN">     2</i>
    <i name="ENINI">    400.00000000</i>
    <separator name="electronic convergence detail" >
     <i type="logical" name="LDIAG"> T  </i>
     <i type="logical" name="LSUBROT"> F  </i>
     <i name="WEIMIN">      0.00100000</i>
     <i name="EBREAK">      0.00000000</i>
     <i name="DEPER">      0.30000000</i>
     <i type="int" name="NRMM">     4</i>
     <i name="TIME">      0.40000000</i>
    </separator>
   </separator>
   <separator name="electronic mixer" >
    <i name="AMIX">      0.40000000</i>
    <i name="BMIX">      1.00000000</i>
    <i name="AMIN">      0.10000000</i>
    <i name="AMIX_MAG">      1.60000000</i>
    <i name="BMIX_MAG">      1.00000000</i>
    <separator name="electronic mixer details" >
     <i type="int" name="IMIX">     4</i>
     <i type="logical" name="MIXFIRST"> F  </i>
     <i type="int" name="MAXMIX">   -45</i>
     <i name="WC">    100.00000000</i>
     <i type="int" name="INIMIX">     1</i>
     <i type="int" name="MIXPRE">     1</i>
     <i type="int" name="MREMOVE">     5</i>
    </separator>
   </separator>
   <separator name="electronic dipolcorrection" >
    <i type="logical" name="LDIPOL"> T  </i>
    <i type="logical" name="LMONO"> F  </i>
    <i type="int" name="IDIPOL">     3</i>
    <i name="EPSILON">      1.00000000</i>
    <v name="DIPOL">      0.00000000      0.00000000      0.50000000</v>
    <i name="EFIELD">      0.00000000</i>
   </separator>
  </separator>
  <separator name="grids" >
   <i type="int" name="NGX">    54</i>
   <i type="int" name="NGY">    54</i>
   <i type="int" name="NGZ">   120</i>
   <i type="int" name="NGXF">   108</i>
   <i type="int" name="NGYF">   108</i>
   <i type="int" name="NGZF">   240</i>
   <i type="logical" name="ADDGRID"> F  </i>
  </separator>
  <separator name="ionic" >
   <i type="int" name="NSW">   500</i>
   <i type="int" name="IBRION">     2</i>
   <i type="int" name="ISIF">     0</i>
   <i name="PSTRESS">      0.00000000</i>
   <i name="EDIFFG">     -0.02000000</i>
   <i type="int" name="NFREE">     2</i>
   <i name="POTIM">      0.35000000</i>
   <i name="SMASS">     -3.00000000</i>
   <i name="SCALEE">      1.00000000</i>
  </separator>
  <separator name="ionic md" >
   <i name="TEBEG">      0.00010000</i>
   <i name="TEEND">      0.00010000</i>
   <i type="int" name="NBLOCK">     1</i>
   <i type="int" name="KBLOCK">   500</i>
   <i type="int" name="NPACO">   256</i>
   <i name="APACO">     16.00000000</i>
  </separator>
  <separator name="symmetry" >
   <i type="int" name="ISYM">     2</i>
   <i name="SYMPREC">      0.00001000</i>
  </separator>
  <separator name="dos" >
   <i type="logical" name="LORBIT"> F  </i>
   <v name="RWIGS">     -1.00000000     -1.00000000</v>
   <i type="int" name="NEDOS">   301</i>
   <i name="EMIN">     10.00000000</i>
   <i name="EMAX">    -10.00000000</i>
   <i name="EFERMI">      0.00000000</i>
  </separator>
  <separator name="writing" >
   <i type="int" name="NWRITE">     1</i>
   <i type="logical" name="LWAVE"> F  </i>
   <i type="logical" name="LCHARG"> F  </i>
   <i type="logical" name="LPARD"> F  </i>
   <i type="logical" name="LVTOT"> F  </i>
   <i type="logical" name="LVHAR"> F  </i>
   <i type="logical" name="LELF"> F  </i>
   <i type="logical" name="LOPTICS"> F  </i>
   <v name="STM">      0.00000000      0.00000000      0.00000000      0.00000000      0.00000000      0.00000000      0.00000000</v>
  </separator>
  <separator name="performance" >
   <i type="int" name="NPAR">     6</i>
   <i type="int" name="NSIM">     4</i>
   <i type="int" name="NBLK">    -1</i>
   <i type="logical" name="LPLANE"> T  </i>
   <i type="logical" name="LSCALAPACK"> T  </i>
   <i type="logical" name="LSCAAWARE"> F  </i>
   <i type="logical" name="LSCALU"> F  </i>
   <i type="logical" name="LASYNC"> F  </i>
   <i type="logical" name="LORBITALREAL"> F  </i>
  </separator>
  <separator name="miscellaneous" >
   <i type="int" name="IDIOT">     3</i>
   <i type="logical" name="LMUSIC"> F  </i>
   <v name="POMASS">    196.96600000    106.42000000</v>
   <v name="DARWINR">      0.00000000      0.00000000</v>
   <v name="DARWINV">      1.00000000      1.00000000</v>
   <i type="logical" name="LCORR"> T  </i>
  </separator>
  <i type="logical" name="GGA_COMPAT"> T  </i>
  <i type="logical" name="LBERRY"> F  </i>
  <i type="int" name="ICORELEVEL">     0</i>
  <i type="logical" name="LDAU"> F  </i>
  <i type="int" name="I_CONSTRAINED_M">     0</i>
  <separator name="electronic exchange-correlation" >
   <i type="string" name="GGA">PE</i>
   <i type="int" name="VOSKOWN">     1</i>
   <i type="logical" name="LHFCALC"> F  </i>
   <i type="string" name="PRECFOCK"></i>
   <i type="logical" name="LSYMGRAD"> F  </i>
   <i type="logical" name="LHFONE"> F  </i>
   <i type="logical" name="LRHFCALC"> F  </i>
   <i type="logical" name="LTHOMAS"> F  </i>
   <i type="logical" name="LMODELHF"> F  </i>
   <i name="ENCUT4O">     -1.00000000</i>
   <i type="int" name="EXXOEP">     0</i>
   <i type="int" name="FOURORBIT">     0</i>
   <i name="AEXX">      0.00000000</i>
   <i name="HFALPHA">      0.00000000</i>
   <i name="MCALPHA">      0.00000000</i>
   <i name="ALDAX">      1.00000000</i>
   <i name="AGGAX">      1.00000000</i>
   <i name="ALDAC">      1.00000000</i>
   <i name="AGGAC">      1.00000000</i>
   <i type="int" name="NKREDX">     1</i>
   <i type="int" name="NKREDY">     1</i>
   <i type="int" name="NKREDZ">     1</i>
   <i type="logical" name="SHIFTRED"> F  </i>
   <i type="logical" name="ODDONLY"> F  </i>
   <i type="logical" name="EVENONLY"> F  </i>
   <i type="int" name="LMAXFOCK">     0</i>
   <i type="int" name="NMAXFOCKAE">     0</i>
   <i type="logical" name="LFOCKAEDFT"> F  </i>
   <i name="HFSCREEN">      0.00000000</i>
   <i name="HFSCREENC">      0.00000000</i>
   <i type="int" name="NBANDSGWLOW">     0</i>
  </separator>
  <separator name="vdW DFT" >
   <i type="logical" name="LUSE_VDW"> F  </i>
   <i name="Zab_VDW">     -0.84910000</i>
   <i name="PARAM1">      0.12340000</i>
   <i name="PARAM2">      1.00000000</i>
   <i name="PARAM3">      0.00000000</i>
  </separator>
  <separator name="model GW" >
   <i type="int" name="MODEL_GW">     0</i>
   <i name="MODEL_EPS0">     32.09595293</i>
   <i name="MODEL_ALPHA">      1.00000000</i>
  </separator>
  <separator name="linear response parameters" >
   <i type="logical" name="LEPSILON"> F  </i>
   <i type="logical" name="LRPA"> F  </i>
   <i type="logical" name="LNABLA"> F  </i>
   <i type="logical" name="LVEL"> F  </i>
   <i type="int" name="KINTER">     0</i>
   <i name="CSHIFT">      0.10000000</i>
   <i name="OMEGAMAX">     -1.00000000</i>
   <i name="DEG_THRESHOLD">      0.00200000</i>
  </separator>
  <separator name="orbital magnetization" >
   <i type="logical" name="NUCIND"> F  </i>
   <v name="MAGPOS">      0.00000000      0.00000000      0.00000000</v>
   <i type="logical" name="LNICSALL"> T  </i>
   <i type="logical" name="ORBITALMAG"> F  </i>
   <i type="logical" name="LMAGBLOCH"> F  </i>
   <i type="logical" name="LCHIMAG"> F  </i>
   <i type="logical" name="LGAUGE"> T  </i>
   <i type="int" name="MAGATOM">     0</i>
   <v name="MAGDIPOL">      0.00000000      0.00000000      0.00000000</v>
   <v name="AVECCONST">      0.00000000      0.00000000      0.00000000</v>
  </separator>
  <separator name="response functions" >
   <i type="logical" name="LADDER"> F  </i>
   <i type="logical" name="LFXC"> F  </i>
   <i type="logical" name="LHARTREE"> T  </i>
   <i type="int" name="IBSE">     0</i>
   <v type="int" name="KPOINT">    -1     0     0     0</v>
   <i type="logical" name="LTCTE"> F  </i>
   <i type="logical" name="LTETE"> F  </i>
   <i type="logical" name="LTRIPLET"> F  </i>
   <i type="logical" name="LFXCEPS"> F  </i>
   <i type="logical" name="LFXHEG"> F  </i>
   <i type="int" name="NATURALO">     0</i>
   <i type="logical" name="L2ORDER"> F  </i>
   <i type="logical" name="LUSEW"> F  </i>
   <i name="ENCUTGW">     -2.00000000</i>
   <i name="ENCUTGWSOFT">     -2.00000000</i>
   <i name="ENCUTLF">     -1.00000000</i>
   <i type="int" name="LMAXMP2">    -1</i>
   <i name="SCISSOR">      0.00000000</i>
   <i type="int" name="NOMEGA">     0</i>
   <i type="int" name="NOMEGAR">     0</i>
   <i type="int" name="NBANDSGW">    -1</i>
   <i type="int" name="NBANDSO">    -1</i>
   <i type="int" name="NBANDSV">    -1</i>
   <i type="int" name="NELM">   500</i>
   <i type="int" name="NELMHF">     1</i>
   <i type="int" name="DIM">     3</i>
   <i type="int" name="ANTIRES">     0</i>
   <i name="OMEGAMAX">    -30.00000000</i>
   <i name="OMEGAMIN">    -30.00000000</i>
   <i name="OMEGATL">   -200.00000000</i>
   <i type="int" name="OMEGAGRID">     0</i>
   <i name="CSHIFT">     -0.10000000</i>
   <i type="logical" name="SELFENERGY"> F  </i>
   <i type="logical" name="LSPECTRAL"> F  </i>
   <i type="logical" name="LSPECTRALGW"> F  </i>
   <i type="logical" name="LSINGLES"> F  </i>
   <i type="logical" name="LFERMIGW"> F  </i>
   <i type="logical" name="ODDONLYGW"> F  </i>
   <i type="logical" name="EVENONLYGW"> F  </i>
   <i type="int" name="NKREDLFX">     1</i>
   <i type="int" name="NKREDLFY">     1</i>
   <i type="int" name="NKREDLFZ">     1</i>
   <i type="int" name="MAXMEM">  1800</i>
   <i type="int" name="TELESCOPE">     0</i>
   <i type="int" name="TAUPAR">     1</i>
   <i type="int" name="OMEGAPAR">    -1</i>
   <i name="LAMBDA">      1.00000000</i>
  </separator>
  <separator name="External order field" >
   <i name="OFIELD_KAPPA">      0.00000000</i>
   <v name="OFIELD_K">      0.00000000      0.00000000      0.00000000</v>
   <i name="OFIELD_Q6_NEAR">      0.00000000</i>
   <i name="OFIELD_Q6_FAR">      0.00000000</i>
   <i name="OFIELD_A">      0.00000000</i>
  </separator>
 </parameters>
 <atominfo>
  <atoms>      48 </atoms>
  <types>       2 </types>
  <array name="atoms" >
   <dimension dim="1">ion</dimension>
   <field type="string">element</field>
   <field type="int">atomtype</field>
   <set>
    <rc><c>Au</c><c>   1</c></rc>
    <rc><c>Au</c><c>   1</c></rc>
    <rc><c>Au</c><c>   1</c></rc>
    <rc><c>Au</c><c>   1</c></rc>
    <rc><c>Au</c><c>   1</c></rc>
    <rc><c>Au</c><c>   1</c></rc>
    <rc><c>Au</c><c>   1</c></rc>
    <rc><c>Au</c><c>   1</c></rc>
    <rc><c>Au</c><c>   1</c></rc>
    <rc><c>Au</c><c>   1</c></rc>
    <rc><c>Au</c><c>   1</c></rc>
    <rc><c>Au</c><c>   1</c></rc>
    <rc><c>Au</c><c>   1</c></rc>
    <rc><c>Au</c><c>   1</c></rc>
    <rc><c>Au</c><c>   1</c></rc>
    <rc><c>Au</c><c>   1</c></rc>
    <rc><c>Au</c><c>   1</c></rc>
    <rc><c>Au</c><c>   1</c></rc>
    <rc><c>Au</c><c>   1</c></rc>
    <rc><c>Au</c><c>   1</c></rc>
    <rc><c>Au</c><c>   1</c></rc>
    <rc><c>Au</c><c>   1</c></rc>
    <rc><c>Au</c><c>   1</c></rc>
    <rc><c>Au</c><c>   1</c></rc>
    <rc><c>Pd</c><c>   2</c></rc>
    <rc><c>Pd</c><c>   2</c></rc>
    <rc><c>Pd</c><c>   2</c></rc>
    <rc><c>Pd</c><c>   2</c></rc>
    <rc><c>Pd</c><c>   2</c></rc>
    <rc><c>Pd</c><c>   2</c></rc>
    <rc><c>Pd</c><c>   2</c></rc>
    <rc><c>Pd</c><c>   2</c></rc>
    <rc><c>Pd</c><c>   2</c></rc>
    <rc><c>Pd</c><c>   2</c></rc>
    <rc><c>Pd</c><c>   2</c></rc>
    <rc><c>Pd</c><c>   2</c></rc>
    <rc><c>Pd</c><c>   2</c></rc>
    <rc><c>Pd</c><c>   2</c></rc>
    <rc><c>Pd</c><c>   2</c></rc>
    <rc><c>Pd</c><c>   2</c></rc>
    <rc><c>Pd</c><c>   2</c></rc>
    <rc><c>Pd</c><c>   2</c></rc>
    <rc><c>Pd</c><c>   2</c></rc>
    <rc><c>Pd</c><c>   2</c></rc>
    <rc><c>Pd</c><c>   2</c></rc>
    <rc><c>Pd</c><c>   2</c></rc>
    <rc><c>Pd</c><c>   2</c></rc>
    <rc><c>Pd</c><c>   2</c></rc>
   </set>
  </array>
  <array name="atomtypes" >
   <dimension dim="1">type</dimension>
   <field type="int">atomspertype</field>
   <field type="string">element</field>
   <field>mass</field>
   <field>valence</field>
   <field type="string">pseudopotential</field>
   <set>
    <rc><c>  24</c><c>Au</c><c>    196.96600000</c><c>     11.00000000</c><c>  PAW_PBE Au 04Oct2007                  </c></rc>
    <rc><c>  24</c><c>Pd</c><c>    106.42000000</c><c>     10.00000000</c><c>  PAW_PBE Pd 04Jan2005                  </c></rc>
   </set>
  </array>
 </atominfo>
 <structure name="initialpos" >
  <crystal>
   <varray name="basis" >
    <v>      11.00258152       0.00000000       0.00000000 </v>
    <v>       5.50129076       9.52851510       0.00000000 </v>
    <v>       0.00000000       0.00000000      24.49178509 </v>
   </varray>
   <i name="volume">   2567.67623402 </i>
   <varray name="rec_basis" >
    <v>       0.09088776      -0.05247407       0.00000000 </v>
    <v>       0.00000000       0.10494815       0.00000000 </v>
    <v>       0.00000000       0.00000000       0.04083002 </v>
   </varray>
  </crystal>
  <varray name="positions" >
   <v>       0.75000000       0.75000000       0.59169983 </v>
   <v>       0.50000000       0.00000000       0.59169983 </v>
   <v>       0.41666667       0.66666667       0.50000000 </v>
   <v>       0.50000000       0.50000000       0.59169983 </v>
   <v>       0.66666667       0.91666667       0.50000000 </v>
   <v>       0.16666667       0.91666667       0.50000000 </v>
   <v>       0.25000000       0.50000000       0.59169983 </v>
   <v>       0.41666667       0.91666667       0.50000000 </v>
   <v>       0.25000000       0.25000000       0.59169983 </v>
   <v>       0.33333333       0.33333333       0.40830017 </v>
   <v>       0.58333333       0.58333333       0.40830017 </v>
   <v>       0.33333333       0.08333333       0.40830017 </v>
   <v>       0.66666667       0.16666667       0.50000000 </v>
   <v>       0.91666667       0.91666667       0.50000000 </v>
   <v>       0.66666667       0.41666667       0.50000000 </v>
   <v>       0.00000000       0.50000000       0.59169983 </v>
   <v>       0.75000000       0.25000000       0.59169983 </v>
   <v>       0.08333333       0.58333333       0.40830017 </v>
   <v>       0.83333333       0.58333333       0.40830017 </v>
   <v>       0.66666667       0.66666667       0.50000000 </v>
   <v>       0.83333333       0.83333333       0.40830017 </v>
   <v>       0.91666667       0.16666667       0.50000000 </v>
   <v>       0.83333333       0.33333333       0.40830017 </v>
   <v>       0.50000000       0.25000000       0.59169983 </v>
   <v>       0.75000000       0.00000000       0.59169983 </v>
   <v>       0.83333333       0.08333333       0.40830017 </v>
   <v>       0.50000000       0.75000000       0.59169983 </v>
   <v>       0.58333333       0.83333333       0.40830017 </v>
   <v>       0.75000000       0.50000000       0.59169983 </v>
   <v>       0.08333333       0.08333333       0.40830017 </v>
   <v>       0.58333333       0.33333333       0.40830017 </v>
   <v>       0.00000000       0.00000000       0.59169983 </v>
   <v>       0.08333333       0.33333333       0.40830017 </v>
   <v>       0.91666667       0.41666667       0.50000000 </v>
   <v>       0.00000000       0.25000000       0.59169983 </v>
   <v>       0.91666667       0.66666667       0.50000000 </v>
   <v>       0.08333333       0.83333333       0.40830017 </v>
   <v>       0.00000000       0.75000000       0.59169983 </v>
   <v>       0.16666667       0.16666667       0.50000000 </v>
   <v>       0.25000000       0.00000000       0.59169983 </v>
   <v>       0.16666667       0.41666667       0.50000000 </v>
   <v>       0.33333333       0.58333333       0.40830017 </v>
   <v>       0.16666667       0.66666667       0.50000000 </v>
   <v>       0.33333333       0.83333333       0.40830017 </v>
   <v>       0.58333333       0.08333333       0.40830017 </v>
   <v>       0.41666667       0.16666667       0.50000000 </v>
   <v>       0.41666667       0.41666667       0.50000000 </v>
   <v>       0.25000000       0.75000000       0.59169983 </v>
  </varray>
 </structure>
 <calculation>
  <scstep>
   <time name="dav">    6.89    6.91</time>
   <time name="total">    6.94    6.97</time>
   <dipole>
    <v name="dipole">      0.00000000       0.00000000      -0.00000074 </v>
    <i name="Tr[quadrupol]"> -10334.48782332 </i>
    <i name="Echarged">      0.00000000 </i>
    <i name="Edipol_quadrupol">      0.00000000 </i>
    <i name="Eion">      0.00000000 </i>
   </dipole>
   <energy>
    <i name="alphaZ">    805.86936440 </i>
    <i name="ewald"> 200396.54261420 </i>
    <i name="hartreedc">-242811.67654380 </i>
    <i name="XCdc">   -327.56034984 </i>
    <i name="pawpsdc">  40340.05962942 </i>
    <i name="pawaedc"> -38292.62782345 </i>
    <i name="eentropy">     -0.13564664 </i>
    <i name="bandstr">   1430.84025688 </i>
    <i name="atom">  41659.78587232 </i>
    <i name="e_fr_energy">   3201.09737348 </i>
    <i name="e_wo_entrp">   3201.23302012 </i>
    <i name="e_0_energy">   3201.16519680 </i>
   </energy>
  </scstep>
  <scstep>
   <time name="dav">    8.10    8.12</time>
   <time name="total">    8.10    8.12</time>
   <dipole>
    <v name="dipole">      0.00000000       0.00000000      -0.00000074 </v>
    <i name="Tr[quadrupol]"> -10334.48782332 </i>
    <i name="Echarged">      0.00000000 </i>
    <i name="Edipol_quadrupol">      0.00000000 </i>
    <i name="Eion">      0.00000000 </i>
   </dipole>
   <energy>
    <i name="e_fr_energy">     16.19245746 </i>
    <i name="e_wo_entrp">     16.31062181 </i>
    <i name="e_0_energy">     16.25153963 </i>
   </energy>
  </scstep>
  <scstep>
   <time name="dav">    8.00    8.02</time>
   <time name="total">    8.00    8.03</time>
   <dipole>
    <v name="dipole">      0.00000000       0.00000000      -0.00000074 </v>
    <i name="Tr[quadrupol]"> -10334.48782332 </i>
    <i name="Echarged">      0.00000000 </i>
    <i name="Edipol_quadrupol">      0.00000000 </i>
    <i name="Eion">      0.00000000 </i>
   </dipole>
   <energy>
    <i name="e_fr_energy">   -199.97196072 </i>
    <i name="e_wo_entrp">   -199.76365077 </i>
    <i name="e_0_energy">   -199.86780574 </i>
   </energy>
  </scstep>
  <scstep>
   <time name="dav">    8.16    8.26</time>
   <time name="total">    8.16    8.26</time>
   <dipole>
    <v name="dipole">      0.00000000       0.00000000      -0.00000074 </v>
    <i name="Tr[quadrupol]"> -10334.48782332 </i>
    <i name="Echarged">      0.00000000 </i>
    <i name="Edipol_quadrupol">      0.00000000 </i>
    <i name="Eion">      0.00000000 </i>
   </dipole>
   <energy>
    <i name="e_fr_energy">   -205.85695859 </i>
    <i name="e_wo_entrp">   -205.63783336 </i>
    <i name="e_0_energy">   -205.74739598 </i>
   </energy>
  </scstep>
  <scstep>
   <time name="dav">    8.34    8.37</time>
   <time name="total">    8.59    8.62</time>
   <dipole>
    <v name="dipole">      0.00000000       0.00000000      -0.00000074 </v>
    <i name="Tr[quadrupol]"> -10334.48782332 </i>
    <i name="Echarged">      0.00000000 </i>
    <i name="Edipol_quadrupol">      0.00000000 </i>
    <i name="Eion">      0.00000000 </i>
   </dipole>
   <energy>
    <i name="e_fr_energy">   -206.03907846 </i>
    <i name="e_wo_entrp">   -205.81980376 </i>
    <i name="e_0_energy">   -205.92944111 </i>
   </energy>
  </scstep>
  <scstep>
   <time name="diag">    1.23    1.24</time>
   <time name="diis">    3.42    3.43</time>
   <time name="orth">    0.30    0.30</time>
   <time name="total">    5.24    5.26</time>
   <dipole>
    <v name="dipole">      0.00000000       0.00000000      -0.34423037 </v>
    <i name="Tr[quadrupol]"> -10335.19902409 </i>
    <i name="Echarged">      0.00000000 </i>
    <i name="Edipol_quadrupol">      0.00000000 </i>
    <i name="Eion">      0.00000000 </i>
   </dipole>
   <energy>
    <i name="e_fr_energy">   -198.31842786 </i>
    <i name="e_wo_entrp">   -198.07341448 </i>
    <i name="e_0_energy">   -198.19592117 </i>
   </energy>
  </scstep>
  <scstep>
   <time name="diag">    1.24    1.24</time>
   <time name="diis">    3.37    3.38</time>
   <time name="orth">    0.30    0.30</time>
   <time name="total">    5.20    5.21</time>
   <dipole>
    <v name="dipole">      0.00000000       0.00000000       0.58290843 </v>
    <i name="Tr[quadrupol]"> -10334.17497343 </i>
    <i name="Echarged">      0.00000000 </i>
    <i name="Edipol_quadrupol">      0.00000000 </i>
    <i name="Eion">      0.00000000 </i>
   </dipole>
   <energy>
    <i name="e_fr_energy">   -200.67052307 </i>
    <i name="e_wo_entrp">   -200.48884378 </i>
    <i name="e_0_energy">   -200.57968342 </i>
   </energy>
  </scstep>
  <scstep>
   <time name="diag">    1.25    1.25</time>
   <time name="diis">    3.39    3.41</time>
   <time name="orth">    0.30    0.30</time>
   <time name="total">    5.23    5.25</time>
   <dipole>
    <v name="dipole">      0.00000000       0.00000000      -1.94184432 </v>
    <i name="Tr[quadrupol]"> -10336.77490272 </i>
    <i name="Echarged">      0.00000000 </i>
    <i name="Edipol_quadrupol">      0.00000000 </i>
    <i name="Eion">      0.00000000 </i>
   </dipole>
   <energy>
    <i name="e_fr_energy">   -224.63473628 </i>
    <i name="e_wo_entrp">   -224.29826932 </i>
    <i name="e_0_energy">   -224.46650280 </i>
   </energy>
  </scstep>
  <scstep>
   <time name="diag">    1.23    1.24</time>
   <time name="diis">    3.39    3.40</time>
   <time name="orth">    0.30    0.30</time>
   <time name="total">    5.21    5.23</time>
   <dipole>
    <v name="dipole">      0.00000000       0.00000000       0.78738447 </v>
    <i name="Tr[quadrupol]"> -10337.79272823 </i>
    <i name="Echarged">      0.00000000 </i>
    <i name="Edipol_quadrupol">      0.00000000 </i>
    <i name="Eion">      0.00000000 </i>
   </dipole>
   <energy>
    <i name="e_fr_energy">   -209.06686626 </i>
    <i name="e_wo_entrp">   -208.83057965 </i>
    <i name="e_0_energy">   -208.94872295 </i>
   </energy>
  </scstep>
  <scstep>
   <time name="diag">    1.23    1.23</time>
   <time name="diis">    3.44    3.45</time>
   <time name="orth">    0.30    0.30</time>
   <time name="total">    5.26    5.28</time>
   <dipole>
    <v name="dipole">      0.00000000       0.00000000      -0.26020031 </v>
    <i name="Tr[quadrupol]"> -10336.28720026 </i>
    <i name="Echarged">      0.00000000 </i>
    <i name="Edipol_quadrupol">      0.00000000 </i>
    <i name="Eion">      0.00000000 </i>
   </dipole>
   <energy>
    <i name="e_fr_energy">   -193.15284862 </i>
    <i name="e_wo_entrp">   -192.97741228 </i>
    <i name="e_0_energy">   -193.06513045 </i>
   </energy>
  </scstep>
  <scstep>
   <time name="diag">    1.21    1.29</time>
   <time name="diis">    3.42    3.43</time>
   <time name="orth">    0.30    0.30</time>
   <time name="total">    5.21    5.30</time>
   <dipole>
    <v name="dipole">      0.00000000       0.00000000      -0.09682834 </v>
    <i name="Tr[quadrupol]"> -10337.09666972 </i>
    <i name="Echarged">      0.00000000 </i>
    <i name="Edipol_quadrupol">      0.00000000 </i>
    <i name="Eion">      0.00000000 </i>
   </dipole>
   <energy>
    <i name="e_fr_energy">   -189.38429375 </i>
    <i name="e_wo_entrp">   -189.17382239 </i>
    <i name="e_0_energy">   -189.27905807 </i>
   </energy>
  </scstep>
  <scstep>
   <time name="diag">    1.23    1.24</time>
   <time name="diis">    3.46    3.47</time>
   <time name="orth">    0.30    0.30</time>
   <time name="total">    5.28    5.30</time>
   <dipole>
    <v name="dipole">      0.00000000       0.00000000      -0.04493554 </v>
    <i name="Tr[quadrupol]"> -10337.37316210 </i>
    <i name="Echarged">      0.00000000 </i>
    <i name="Edipol_quadrupol">      0.00000000 </i>
    <i name="Eion">      0.00000000 </i>
   </dipole>
   <energy>
    <i name="e_fr_energy">   -188.79043998 </i>
    <i name="e_wo_entrp">   -188.54018468 </i>
    <i name="e_0_energy">   -188.66531233 </i>
   </energy>
  </scstep>
  <scstep>
   <time name="diag">    1.23    1.24</time>
   <time name="diis">    3.42    3.43</time>
   <time name="orth">    0.30    0.30</time>
   <time name="total">    5.24    5.25</time>
   <dipole>
    <v name="dipole">      0.00000000       0.00000000       0.01641711 </v>
    <i name="Tr[quadrupol]"> -10337.60002872 </i>
    <i name="Echarged">      0.00000000 </i>
    <i name="Edipol_quadrupol">      0.00000000 </i>
    <i name="Eion">      0.00000000 </i>
   </dipole>
   <energy>
    <i name="e_fr_energy">   -188.78456776 </i>
    <i name="e_wo_entrp">   -188.51443547 </i>
    <i name="e_0_energy">   -188.64950162 </i>
   </energy>
  </scstep>
  <scstep>
   <time name="diag">    1.23    1.24</time>
   <time name="diis">    3.44    3.46</time>
   <time name="orth">    0.30    0.30</time>
   <time name="total">    5.26    5.28</time>
   <dipole>
    <v name="dipole">      0.00000000       0.00000000       0.02573409 </v>
    <i name="Tr[quadrupol]"> -10337.73092734 </i>
    <i name="Echarged">      0.00000000 </i>
    <i name="Edipol_quadrupol">      0.00000000 </i>
    <i name="Eion">      0.00000000 </i>
   </dipole>
   <energy>
    <i name="e_fr_energy">   -188.68333154 </i>
    <i name="e_wo_entrp">   -188.42658274 </i>
    <i name="e_0_energy">   -188.55495714 </i>
   </energy>
  </scstep>
  <scstep>
   <time name="diag">    1.23    1.23</time>
   <time name="diis">    3.42    3.46</time>
   <time name="orth">    0.29    0.30</time>
   <time name="total">    5.23    5.28</time>
   <dipole>
    <v name="dipole">      0.00000000       0.00000000       0.01264222 </v>
    <i name="Tr[quadrupol]"> -10337.89620044 </i>
    <i name="Echarged">      0.00000000 </i>
    <i name="Edipol_quadrupol">      0.00000000 </i>
    <i name="Eion">      0.00000000 </i>
   </dipole>
   <energy>
    <i name="e_fr_energy">   -188.55330107 </i>
    <i name="e_wo_entrp">   -188.28640847 </i>
    <i name="e_0_energy">   -188.41985477 </i>
   </energy>
  </scstep>
  <scstep>
   <time name="diag">    1.23    1.23</time>
   <time name="diis">    3.45    3.46</time>
   <time name="orth">    0.30    0.30</time>
   <time name="total">    5.27    5.28</time>
   <dipole>
    <v name="dipole">      0.00000000       0.00000000      -0.01652221 </v>
    <i name="Tr[quadrupol]"> -10338.21434639 </i>
    <i name="Echarged">      0.00000000 </i>
    <i name="Edipol_quadrupol">      0.00000000 </i>
    <i name="Eion">      0.00000000 </i>
   </dipole>
   <energy>
    <i name="e_fr_energy">   -188.42884614 </i>
    <i name="e_wo_entrp">   -188.17511989 </i>
    <i name="e_0_energy">   -188.30198302 </i>
   </energy>
  </scstep>
  <scstep>
   <time name="diag">    1.23    1.24</time>
   <time name="diis">    3.46    3.47</time>
   <time name="orth">    0.30    0.30</time>
   <time name="total">    5.27    5.29</time>
   <dipole>
    <v name="dipole">      0.00000000       0.00000000      -0.02718812 </v>
    <i name="Tr[quadrupol]"> -10338.49048837 </i>
    <i name="Echarged">      0.00000000 </i>
    <i name="Edipol_quadrupol">      0.00000000 </i>
    <i name="Eion">      0.00000000 </i>
   </dipole>
   <energy>
    <i name="e_fr_energy">   -188.37432774 </i>
    <i name="e_wo_entrp">   -188.11465884 </i>
    <i name="e_0_energy">   -188.24449329 </i>
   </energy>
  </scstep>
  <scstep>
   <time name="diag">    1.23    1.24</time>
   <time name="diis">    3.38    3.47</time>
   <time name="orth">    0.30    0.30</time>
   <time name="total">    5.19    5.30</time>
   <dipole>
    <v name="dipole">      0.00000000       0.00000000      -0.01749259 </v>
    <i name="Tr[quadrupol]"> -10338.64311111 </i>
    <i name="Echarged">      0.00000000 </i>
    <i name="Edipol_quadrupol">      0.00000000 </i>
    <i name="Eion">      0.00000000 </i>
   </dipole>
   <energy>
    <i name="e_fr_energy">   -188.35770297 </i>
    <i name="e_wo_entrp">   -188.09222369 </i>
    <i name="e_0_energy">   -188.22496333 </i>
   </energy>
  </scstep>
  <scstep>
   <time name="diag">    1.23    1.23</time>
   <time name="diis">    3.41    3.42</time>
   <time name="orth">    0.30    0.30</time>
   <time name="total">    5.22    5.24</time>
   <dipole>
    <v name="dipole">      0.00000000       0.00000000      -0.00975627 </v>
    <i name="Tr[quadrupol]"> -10338.76829347 </i>
    <i name="Echarged">      0.00000000 </i>
    <i name="Edipol_quadrupol">      0.00000000 </i>
    <i name="Eion">      0.00000000 </i>
   </dipole>
   <energy>
    <i name="e_fr_energy">   -188.34827189 </i>
    <i name="e_wo_entrp">   -188.08297651 </i>
    <i name="e_0_energy">   -188.21562420 </i>
   </energy>
  </scstep>
  <scstep>
   <time name="diag">    1.23    1.23</time>
   <time name="diis">    3.43    3.44</time>
   <time name="orth">    0.30    0.30</time>
   <time name="total">    5.25    5.27</time>
   <dipole>
    <v name="dipole">      0.00000000       0.00000000      -0.01483199 </v>
    <i name="Tr[quadrupol]"> -10338.91675594 </i>
    <i name="Echarged">      0.00000000 </i>
    <i name="Edipol_quadrupol">      0.00000000 </i>
    <i name="Eion">      0.00000000 </i>
   </dipole>
   <energy>
    <i name="e_fr_energy">   -188.34556810 </i>
    <i name="e_wo_entrp">   -188.08189494 </i>
    <i name="e_0_energy">   -188.21373152 </i>
   </energy>
  </scstep>
  <scstep>
   <time name="diag">    1.23    1.23</time>
   <time name="diis">    3.42    3.43</time>
   <time name="orth">    0.30    0.30</time>
   <time name="total">    5.24    5.26</time>
   <dipole>
    <v name="dipole">      0.00000000       0.00000000      -0.01578793 </v>
    <i name="Tr[quadrupol]"> -10339.02503120 </i>
    <i name="Echarged">      0.00000000 </i>
    <i name="Edipol_quadrupol">      0.00000000 </i>
    <i name="Eion">      0.00000000 </i>
   </dipole>
   <energy>
    <i name="e_fr_energy">   -188.34427787 </i>
    <i name="e_wo_entrp">   -188.08029417 </i>
    <i name="e_0_energy">   -188.21228602 </i>
   </energy>
  </scstep>
  <scstep>
   <time name="diag">    1.23    1.24</time>
   <time name="diis">    3.44    3.45</time>
   <time name="orth">    0.30    0.30</time>
   <time name="total">    5.26    5.27</time>
   <dipole>
    <v name="dipole">      0.00000000       0.00000000      -0.01816719 </v>
    <i name="Tr[quadrupol]"> -10339.12555815 </i>
    <i name="Echarged">      0.00000000 </i>
    <i name="Edipol_quadrupol">      0.00000000 </i>
    <i name="Eion">      0.00000000 </i>
   </dipole>
   <energy>
    <i name="e_fr_energy">   -188.34436196 </i>
    <i name="e_wo_entrp">   -188.07946901 </i>
    <i name="e_0_energy">   -188.21191548 </i>
   </energy>
  </scstep>
  <scstep>
   <time name="diag">    1.23    1.24</time>
   <time name="diis">    3.42    3.43</time>
   <time name="orth">    0.30    0.30</time>
   <time name="total">    5.23    5.25</time>
   <dipole>
    <v name="dipole">      0.00000000       0.00000000      -0.01538834 </v>
    <i name="Tr[quadrupol]"> -10339.25047211 </i>
    <i name="Echarged">      0.00000000 </i>
    <i name="Edipol_quadrupol">      0.00000000 </i>
    <i name="Eion">      0.00000000 </i>
   </dipole>
   <energy>
    <i name="e_fr_energy">   -188.34430994 </i>
    <i name="e_wo_entrp">   -188.07974575 </i>
    <i name="e_0_energy">   -188.21202784 </i>
   </energy>
  </scstep>
  <scstep>
   <time name="diag">    1.24    1.25</time>
   <time name="diis">    3.46    3.47</time>
   <time name="orth">    0.30    0.30</time>
   <time name="total">    5.29    5.31</time>
   <dipole>
    <v name="dipole">      0.00000000       0.00000000      -0.01552349 </v>
    <i name="Tr[quadrupol]"> -10339.31470373 </i>
    <i name="Echarged">      0.00000000 </i>
    <i name="Edipol_quadrupol">      0.00000000 </i>
    <i name="Eion">      0.00000000 </i>
   </dipole>
   <energy>
    <i name="e_fr_energy">   -188.34434823 </i>
    <i name="e_wo_entrp">   -188.07975254 </i>
    <i name="e_0_energy">   -188.21205039 </i>
   </energy>
  </scstep>
  <scstep>
   <time name="diag">    1.24    1.24</time>
   <time name="diis">    3.43    3.43</time>
   <time name="orth">    0.29    0.29</time>
   <time name="total">    5.26    5.27</time>
   <dipole>
    <v name="dipole">      0.00000000       0.00000000      -0.01433833 </v>
    <i name="Tr[quadrupol]"> -10339.40091949 </i>
    <i name="Echarged">      0.00000000 </i>
    <i name="Edipol_quadrupol">      0.00000000 </i>
    <i name="Eion">      0.00000000 </i>
   </dipole>
   <energy>
    <i name="e_fr_energy">   -188.34471178 </i>
    <i name="e_wo_entrp">   -188.08011156 </i>
    <i name="e_0_energy">   -188.21241167 </i>
   </energy>
  </scstep>
  <scstep>
   <time name="diag">    1.22    1.26</time>
   <time name="diis">    3.37    3.43</time>
   <time name="orth">    0.30    0.30</time>
   <time name="total">    5.17    5.27</time>
   <dipole>
    <v name="dipole">      0.00000000       0.00000000      -0.01403064 </v>
    <i name="Tr[quadrupol]"> -10339.46150224 </i>
    <i name="Echarged">      0.00000000 </i>
    <i name="Edipol_quadrupol">      0.00000000 </i>
    <i name="Eion">      0.00000000 </i>
   </dipole>
   <energy>
    <i name="e_fr_energy">   -188.34505899 </i>
    <i name="e_wo_entrp">   -188.08049735 </i>
    <i name="e_0_energy">   -188.21277817 </i>
   </energy>
  </scstep>
  <scstep>
   <time name="diag">    1.23    1.24</time>
   <time name="diis">    3.47    3.48</time>
   <time name="orth">    0.29    0.30</time>
   <time name="total">    5.29    5.31</time>
   <dipole>
    <v name="dipole">      0.00000000       0.00000000      -0.01344609 </v>
    <i name="Tr[quadrupol]"> -10339.54890750 </i>
    <i name="Echarged">      0.00000000 </i>
    <i name="Edipol_quadrupol">      0.00000000 </i>
    <i name="Eion">      0.00000000 </i>
   </dipole>
   <energy>
    <i name="e_fr_energy">   -188.34579787 </i>
    <i name="e_wo_entrp">   -188.08130414 </i>
    <i name="e_0_energy">   -188.21355101 </i>
   </energy>
  </scstep>
  <scstep>
   <time name="diag">    1.23    1.23</time>
   <time name="diis">    3.36    3.37</time>
   <time name="orth">    0.30    0.30</time>
   <time name="total">    5.18    5.19</time>
   <dipole>
    <v name="dipole">      0.00000000       0.00000000      -0.01264189 </v>
    <i name="Tr[quadrupol]"> -10339.59271137 </i>
    <i name="Echarged">      0.00000000 </i>
    <i name="Edipol_quadrupol">      0.00000000 </i>
    <i name="Eion">      0.00000000 </i>
   </dipole>
   <energy>
    <i name="e_fr_energy">   -188.34621558 </i>
    <i name="e_wo_entrp">   -188.08174315 </i>
    <i name="e_0_energy">   -188.21397937 </i>
   </energy>
  </scstep>
  <scstep>
   <time name="diag">    1.23    1.23</time>
   <time name="diis">    3.53    3.54</time>
   <time name="orth">    0.30    0.30</time>
   <time name="total">    5.35    5.36</time>
   <dipole>
    <v name="dipole">      0.00000000       0.00000000      -0.01167166 </v>
    <i name="Tr[quadrupol]"> -10339.67298761 </i>
    <i name="Echarged">      0.00000000 </i>
    <i name="Edipol_quadrupol">      0.00000000 </i>
    <i name="Eion">      0.00000000 </i>
   </dipole>
   <energy>
    <i name="e_fr_energy">   -188.34701951 </i>
    <i name="e_wo_entrp">   -188.08253872 </i>
    <i name="e_0_energy">   -188.21477911 </i>
   </energy>
  </scstep>
  <scstep>
   <time name="diag">    1.23    1.23</time>
   <time name="diis">    3.17    3.18</time>
   <time name="orth">    0.29    0.29</time>
   <time name="total">    4.98    5.00</time>
   <dipole>
    <v name="dipole">      0.00000000       0.00000000      -0.01097210 </v>
    <i name="Tr[quadrupol]"> -10339.71912617 </i>
    <i name="Echarged">      0.00000000 </i>
    <i name="Edipol_quadrupol">      0.00000000 </i>
    <i name="Eion">      0.00000000 </i>
   </dipole>
   <energy>
    <i name="e_fr_energy">   -188.34739813 </i>
    <i name="e_wo_entrp">   -188.08284944 </i>
    <i name="e_0_energy">   -188.21512378 </i>
   </energy>
  </scstep>
  <scstep>
   <time name="diag">    1.23    1.23</time>
   <time name="diis">    2.82    2.82</time>
   <time name="orth">    0.29    0.30</time>
   <time name="total">    4.63    4.64</time>
   <dipole>
    <v name="dipole">      0.00000000       0.00000000      -0.01071170 </v>
    <i name="Tr[quadrupol]"> -10339.74956976 </i>
    <i name="Echarged">      0.00000000 </i>
    <i name="Edipol_quadrupol">      0.00000000 </i>
    <i name="Eion">      0.00000000 </i>
   </dipole>
   <energy>
    <i name="e_fr_energy">   -188.34760499 </i>
    <i name="e_wo_entrp">   -188.08310478 </i>
    <i name="e_0_energy">   -188.21535489 </i>
   </energy>
  </scstep>
  <scstep>
   <time name="diag">    1.23    1.23</time>
   <time name="diis">    2.29    2.30</time>
   <time name="orth">    0.30    0.30</time>
   <time name="total">    4.11    4.12</time>
   <dipole>
    <v name="dipole">      0.00000000       0.00000000      -0.01056508 </v>
    <i name="Tr[quadrupol]"> -10339.75623049 </i>
    <i name="Echarged">      0.00000000 </i>
    <i name="Edipol_quadrupol">      0.00000000 </i>
    <i name="Eion">      0.00000000 </i>
   </dipole>
   <energy>
    <i name="e_fr_energy">   -188.34766153 </i>
    <i name="e_wo_entrp">   -188.08314938 </i>
    <i name="e_0_energy">   -188.21540545 </i>
   </energy>
  </scstep>
  <scstep>
   <time name="diag">    1.23    1.23</time>
   <time name="diis">    2.30    2.31</time>
   <time name="orth">    0.29    0.30</time>
   <time name="total">    4.12    4.14</time>
   <dipole>
    <v name="dipole">      0.00000000       0.00000000      -0.01037599 </v>
    <i name="Tr[quadrupol]"> -10339.76853777 </i>
    <i name="Echarged">      0.00000000 </i>
    <i name="Edipol_quadrupol">      0.00000000 </i>
    <i name="Eion">      0.00000000 </i>
   </dipole>
   <energy>
    <i name="e_fr_energy">   -188.34775858 </i>
    <i name="e_wo_entrp">   -188.08325693 </i>
    <i name="e_0_energy">   -188.21550776 </i>
   </energy>
  </scstep>
  <scstep>
   <time name="diag">    1.23    1.23</time>
   <time name="diis">    2.06    2.14</time>
   <time name="orth">    0.29    0.29</time>
   <time name="total">    3.87    3.96</time>
   <dipole>
    <v name="dipole">      0.00000000       0.00000000      -0.01021982 </v>
    <i name="Tr[quadrupol]"> -10339.77565441 </i>
    <i name="Echarged">      0.00000000 </i>
    <i name="Edipol_quadrupol">      0.00000000 </i>
    <i name="Eion">      0.00000000 </i>
   </dipole>
   <energy>
    <i name="e_fr_energy">   -188.34781446 </i>
    <i name="e_wo_entrp">   -188.08332226 </i>
    <i name="e_0_energy">   -188.21556836 </i>
   </energy>
  </scstep>
  <scstep>
   <time name="diag">    1.23    1.24</time>
   <time name="diis">    2.12    2.12</time>
   <time name="orth">    0.29    0.29</time>
   <time name="total">    3.93    3.95</time>
   <dipole>
    <v name="dipole">      0.00000000       0.00000000      -0.01005068 </v>
    <i name="Tr[quadrupol]"> -10339.78328139 </i>
    <i name="Echarged">      0.00000000 </i>
    <i name="Edipol_quadrupol">      0.00000000 </i>
    <i name="Eion">      0.00000000 </i>
   </dipole>
   <energy>
    <i name="e_fr_energy">   -188.34785690 </i>
    <i name="e_wo_entrp">   -188.08335466 </i>
    <i name="e_0_energy">   -188.21560578 </i>
   </energy>
  </scstep>
  <scstep>
   <time name="diag">    1.23    1.23</time>
   <time name="diis">    2.08    2.08</time>
   <time name="orth">    0.29    0.29</time>
   <time name="total">    3.89    3.90</time>
   <dipole>
    <v name="dipole">      0.00000000       0.00000000      -0.00997425 </v>
    <i name="Tr[quadrupol]"> -10339.78728060 </i>
    <i name="Echarged">      0.00000000 </i>
    <i name="Edipol_quadrupol">      0.00000000 </i>
    <i name="Eion">      0.00000000 </i>
   </dipole>
   <energy>
    <i name="e_fr_energy">   -188.34787131 </i>
    <i name="e_wo_entrp">   -188.08336936 </i>
    <i name="e_0_energy">   -188.21562033 </i>
   </energy>
  </scstep>
  <scstep>
   <time name="diag">    1.23    1.23</time>
   <time name="diis">    1.80    1.81</time>
   <time name="orth">    0.29    0.29</time>
   <time name="total">    3.62    3.63</time>
   <dipole>
    <v name="dipole">      0.00000000       0.00000000      -0.00991281 </v>
    <i name="Tr[quadrupol]"> -10339.79056361 </i>
    <i name="Echarged">      0.00000000 </i>
    <i name="Edipol_quadrupol">      0.00000000 </i>
    <i name="Eion">      0.00000000 </i>
   </dipole>
   <energy>
    <i name="e_fr_energy">   -188.34787841 </i>
    <i name="e_wo_entrp">   -188.08337545 </i>
    <i name="e_0_energy">   -188.21562693 </i>
   </energy>
  </scstep>
  <scstep>
   <time name="diag">    1.24    1.24</time>
   <time name="diis">    1.75    1.76</time>
   <time name="orth">    0.29    0.29</time>
   <time name="total">    3.58    3.59</time>
   <dipole>
    <v name="dipole">      0.00000000       0.00000000      -0.00985321 </v>
    <i name="Tr[quadrupol]"> -10339.79402795 </i>
    <i name="Echarged">      0.00000000 </i>
    <i name="Edipol_quadrupol">      0.00000000 </i>
    <i name="Eion">      0.00000000 </i>
   </dipole>
   <energy>
    <i name="e_fr_energy">   -188.34788180 </i>
    <i name="e_wo_entrp">   -188.08338272 </i>
    <i name="e_0_energy">   -188.21563226 </i>
   </energy>
  </scstep>
  <scstep>
   <time name="diag">    1.22    1.22</time>
   <time name="diis">    1.48    1.49</time>
   <time name="orth">    0.29    0.29</time>
   <time name="total">    3.04    3.05</time>
   <dipole>
    <v name="dipole">      0.00000000       0.00000000      -0.00982710 </v>
    <i name="Tr[quadrupol]"> -10339.79558980 </i>
    <i name="Echarged">      0.00000000 </i>
    <i name="Edipol_quadrupol">      0.00000000 </i>
    <i name="Eion">      0.00000000 </i>
   </dipole>
   <energy>
    <i name="alphaZ">    805.87091630 </i>
    <i name="ewald"> 200396.54261420 </i>
    <i name="hartreedc">-242583.19518011 </i>
    <i name="XCdc">   -343.24946466 </i>
    <i name="pawpsdc">  49409.18583899 </i>
    <i name="pawaedc"> -47486.96968893 </i>
    <i name="eentropy">     -0.26450000 </i>
    <i name="bandstr">  -2046.05429058 </i>
    <i name="atom">  41659.78587232 </i>
    <i name="e_fr_energy">   -188.34788247 </i>
    <i name="e_wo_entrp">   -188.08338248 </i>
    <i name="e_0_energy">   -188.21563247 </i>
   </energy>
  </scstep>
  <structure>
   <crystal>
    <varray name="basis" >
     <v>      11.00258152       0.00000000       0.00000000 </v>
     <v>       5.50129076       9.52851510       0.00000000 </v>
     <v>       0.00000000       0.00000000      24.49178509 </v>
    </varray>
    <i name="volume">   2567.67623402 </i>
    <varray name="rec_basis" >
     <v>       0.09088776      -0.05247407       0.00000000 </v>
     <v>       0.00000000       0.10494815       0.00000000 </v>
     <v>       0.00000000       0.00000000       0.04083002 </v>
    </varray>
   </crystal>
   <varray name="positions" >
    <v>       0.75000000       0.75000000       0.59169983 </v>
    <v>       0.50000000       0.00000000       0.59169983 </v>
    <v>       0.41666667       0.66666667       0.50000000 </v>
    <v>       0.50000000       0.50000000       0.59169983 </v>
    <v>       0.66666667       0.91666667       0.50000000 </v>
    <v>       0.16666667       0.91666667       0.50000000 </v>
    <v>       0.25000000       0.50000000       0.59169983 </v>
    <v>       0.41666667       0.91666667       0.50000000 </v>
    <v>       0.25000000       0.25000000       0.59169983 </v>
    <v>       0.33333333       0.33333333       0.40830017 </v>
    <v>       0.58333333       0.58333333       0.40830017 </v>
    <v>       0.33333333       0.08333333       0.40830017 </v>
    <v>       0.66666667       0.16666667       0.50000000 </v>
    <v>       0.91666667       0.91666667       0.50000000 </v>
    <v>       0.66666667       0.41666667       0.50000000 </v>
    <v>       0.00000000       0.50000000       0.59169983 </v>
    <v>       0.75000000       0.25000000       0.59169983 </v>
    <v>       0.08333333       0.58333333       0.40830017 </v>
    <v>       0.83333333       0.58333333       0.40830017 </v>
    <v>       0.66666667       0.66666667       0.50000000 </v>
    <v>       0.83333333       0.83333333       0.40830017 </v>
    <v>       0.91666667       0.16666667       0.50000000 </v>
    <v>       0.83333333       0.33333333       0.40830017 </v>
    <v>       0.50000000       0.25000000       0.59169983 </v>
    <v>       0.75000000       0.00000000       0.59169983 </v>
    <v>       0.83333333       0.08333333       0.40830017 </v>
    <v>       0.50000000       0.75000000       0.59169983 </v>
    <v>       0.58333333       0.83333333       0.40830017 </v>
    <v>       0.75000000       0.50000000       0.59169983 </v>
    <v>       0.08333333       0.08333333       0.40830017 </v>
    <v>       0.58333333       0.33333333       0.40830017 </v>
    <v>       0.00000000       0.00000000       0.59169983 </v>
    <v>       0.08333333       0.33333333       0.40830017 </v>
    <v>       0.91666667       0.41666667       0.50000000 </v>
    <v>       0.00000000       0.25000000       0.59169983 </v>
    <v>       0.91666667       0.66666667       0.50000000 </v>
    <v>       0.08333333       0.83333333       0.40830017 </v>
    <v>       0.00000000       0.75000000       0.59169983 </v>
    <v>       0.16666667       0.16666667       0.50000000 </v>
    <v>       0.25000000       0.00000000       0.59169983 </v>
    <v>       0.16666667       0.41666667       0.50000000 </v>
    <v>       0.33333333       0.58333333       0.40830017 </v>
    <v>       0.16666667       0.66666667       0.50000000 </v>
    <v>       0.33333333       0.83333333       0.40830017 </v>
    <v>       0.58333333       0.08333333       0.40830017 </v>
    <v>       0.41666667       0.16666667       0.50000000 </v>
    <v>       0.41666667       0.41666667       0.50000000 </v>
    <v>       0.25000000       0.75000000       0.59169983 </v>
   </varray>
  </structure>
  <varray name="forces" >
   <v>       0.13188831      -0.11092595       1.59042153 </v>
   <v>      -0.15172723      -0.05677473       1.61500241 </v>
   <v>      -0.63532975       0.09372324      -0.01373184 </v>
   <v>       0.08164841       0.36688491       1.61953413 </v>
   <v>       0.03579093       0.21902717      -0.26367950 </v>
   <v>      -0.02586780      -0.00466417       0.02617542 </v>
   <v>      -0.00782083       0.47137683       1.08445310 </v>
   <v>      -0.25159698       0.23100673      -0.02445808 </v>
   <v>      -0.39876522      -0.22003771       1.09620939 </v>
   <v>       0.23395509       0.02165327      -1.06157163 </v>
   <v>      -0.38676581       0.19142381      -1.84929657 </v>
   <v>      -0.11909008      -0.03956194      -1.31287374 </v>
   <v>      -0.43115377       0.03769174      -0.54774665 </v>
   <v>       0.23071135      -0.41158684       0.25010046 </v>
   <v>      -0.00588588      -0.00729099      -0.00212767 </v>
   <v>      -0.22712009       0.00092646       1.08185845 </v>
   <v>       0.39115109      -0.19907293       1.83016850 </v>
   <v>       0.26347353      -0.01187837      -1.08095314 </v>
   <v>       0.15728494      -0.08755023      -1.36603755 </v>
   <v>       0.24389129      -0.14535599       0.27298416 </v>
   <v>       0.03451875       0.24309366      -1.58314267 </v>
   <v>       0.65582778      -0.08871267      -0.00634492 </v>
   <v>       0.15216532      -0.35175537      -1.59491678 </v>
   <v>      -0.01464534      -0.12789692       1.38747786 </v>
   <v>       0.22988220      -0.17447680       1.07935347 </v>
   <v>       0.00013957       0.00167196      -1.05152117 </v>
   <v>      -0.16856461       0.00946537       1.05609331 </v>
   <v>      -0.07461120       0.16271466      -1.08085772 </v>
   <v>       0.10616139      -0.04953624       0.89747747 </v>
   <v>      -0.02325460      -0.09307176      -0.86480808 </v>
   <v>      -0.18155801      -0.13612043      -0.86697406 </v>
   <v>       0.08062714      -0.15142521       0.94085056 </v>
   <v>      -0.10796095      -0.20837759      -0.51893580 </v>
   <v>       0.40814504      -0.16668967       0.19052357 </v>
   <v>       0.01079556      -0.10491303       0.70321476 </v>
   <v>       0.33319059      -0.27887305       0.15517290 </v>
   <v>       0.28766853       0.10280735      -0.88844234 </v>
   <v>       0.21099589       0.20385885       0.65827154 </v>
   <v>      -0.05573474       0.34085138       0.01231966 </v>
   <v>      -0.22557891      -0.01851820       0.86131793 </v>
   <v>      -0.13201931      -0.04831845      -0.14855369 </v>
   <v>      -0.04152262       0.09958694      -0.70319174 </v>
   <v>      -0.07776388      -0.14960858       0.02759229 </v>
   <v>      -0.19399442       0.00202585      -0.98176620 </v>
   <v>       0.08804618       0.08903169      -0.85612504 </v>
   <v>      -0.07788134       0.27797724      -0.20584420 </v>
   <v>      -0.29608369       0.08552487      -0.40448211 </v>
   <v>      -0.05566186       0.19066985       0.84181002 </v>
  </varray>
  <energy>
   <i name="e_fr_energy">   -188.34788247 </i>
   <i name="e_wo_entrp">   -188.21563247 </i>
   <i name="e_0_energy">     -0.26450000 </i>
  </energy>
  <time name="totalsc">  207.84  209.00</time>
 </calculation>
 <calculation>
  <scstep>
   <time name="dav">    7.11    7.13</time>
   <time name="total">    7.40    7.42</time>
   <dipole>
    <v name="dipole">      0.00000000       0.00000000      -0.00980282 </v>
    <i name="Tr[quadrupol]"> -10320.67945399 </i>
    <i name="Echarged">      0.00000000 </i>
    <i name="Edipol_quadrupol">      0.00000000 </i>
    <i name="Eion">      0.00000000 </i>
   </dipole>
   <energy>
    <i name="alphaZ">    805.87093925 </i>
    <i name="ewald"> 197696.60099856 </i>
    <i name="hartreedc">-239899.51143004 </i>
    <i name="XCdc">   -345.47566499 </i>
    <i name="pawpsdc">  49409.18087440 </i>
    <i name="pawaedc"> -47486.96491325 </i>
    <i name="eentropy">     -0.25633186 </i>
    <i name="bandstr">  -2028.64607039 </i>
    <i name="atom">  41659.78587232 </i>
    <i name="e_fr_energy">   -189.41572600 </i>
    <i name="e_wo_entrp">   -189.15939415 </i>
    <i name="e_0_energy">   -189.28756007 </i>
   </energy>
  </scstep>
  <scstep>
   <time name="diag">    1.22    1.22</time>
   <time name="diis">    3.45    3.46</time>
   <time name="orth">    0.29    0.29</time>
   <time name="total">    5.25    5.27</time>
   <dipole>
    <v name="dipole">      0.00000000       0.00000000      -0.00600469 </v>
    <i name="Tr[quadrupol]"> -10320.42033376 </i>
    <i name="Echarged">      0.00000000 </i>
    <i name="Edipol_quadrupol">      0.00000000 </i>
    <i name="Eion">      0.00000000 </i>
   </dipole>
   <energy>
    <i name="e_fr_energy">   -189.78886827 </i>
    <i name="e_wo_entrp">   -189.53482035 </i>
    <i name="e_0_energy">   -189.66184431 </i>
   </energy>
  </scstep>
  <scstep>
   <time name="diag">    1.22    1.22</time>
   <time name="diis">    3.44    3.46</time>
   <time name="orth">    0.28    0.30</time>
   <time name="total">    5.24    5.30</time>
   <dipole>
    <v name="dipole">      0.00000000       0.00000000      -0.03300704 </v>
    <i name="Tr[quadrupol]"> -10320.86429626 </i>
    <i name="Echarged">      0.00000000 </i>
    <i name="Edipol_quadrupol">      0.00000000 </i>
    <i name="Eion">      0.00000000 </i>
   </dipole>
   <energy>
    <i name="e_fr_energy">   -189.90251467 </i>
    <i name="e_wo_entrp">   -189.64164156 </i>
    <i name="e_0_energy">   -189.77207811 </i>
   </energy>
  </scstep>
  <scstep>
   <time name="diag">    1.21    1.23</time>
   <time name="diis">    3.46    3.47</time>
   <time name="orth">    0.29    0.29</time>
   <time name="total">    5.25    5.28</time>
   <dipole>
    <v name="dipole">      0.00000000       0.00000000       0.00793461 </v>
    <i name="Tr[quadrupol]"> -10320.76003705 </i>
    <i name="Echarged">      0.00000000 </i>
    <i name="Edipol_quadrupol">      0.00000000 </i>
    <i name="Eion">      0.00000000 </i>
   </dipole>
   <energy>
    <i name="e_fr_energy">   -189.77431433 </i>
    <i name="e_wo_entrp">   -189.51855699 </i>
    <i name="e_0_energy">   -189.64643566 </i>
   </energy>
  </scstep>
  <scstep>
   <time name="diag">    1.22    1.22</time>
   <time name="diis">    3.40    3.42</time>
   <time name="orth">    0.29    0.29</time>
   <time name="total">    5.19    5.21</time>
   <dipole>
    <v name="dipole">      0.00000000       0.00000000      -0.08339629 </v>
    <i name="Tr[quadrupol]"> -10320.76734468 </i>
    <i name="Echarged">      0.00000000 </i>
    <i name="Edipol_quadrupol">      0.00000000 </i>
    <i name="Eion">      0.00000000 </i>
   </dipole>
   <energy>
    <i name="e_fr_energy">   -189.85729530 </i>
    <i name="e_wo_entrp">   -189.61725329 </i>
    <i name="e_0_energy">   -189.73727430 </i>
   </energy>
  </scstep>
  <scstep>
   <time name="diag">    1.22    1.22</time>
   <time name="diis">    3.52    3.53</time>
   <time name="orth">    0.29    0.29</time>
   <time name="total">    5.31    5.33</time>
   <dipole>
    <v name="dipole">      0.00000000       0.00000000       0.01475239 </v>
    <i name="Tr[quadrupol]"> -10320.77565924 </i>
    <i name="Echarged">      0.00000000 </i>
    <i name="Edipol_quadrupol">      0.00000000 </i>
    <i name="Eion">      0.00000000 </i>
   </dipole>
   <energy>
    <i name="e_fr_energy">   -189.77680803 </i>
    <i name="e_wo_entrp">   -189.51529401 </i>
    <i name="e_0_energy">   -189.64605102 </i>
   </energy>
  </scstep>
  <scstep>
   <time name="diag">    1.22    1.22</time>
   <time name="diis">    3.46    3.47</time>
   <time name="orth">    0.29    0.29</time>
   <time name="total">    5.26    5.28</time>
   <dipole>
    <v name="dipole">      0.00000000       0.00000000      -0.01092110 </v>
    <i name="Tr[quadrupol]"> -10320.73054064 </i>
    <i name="Echarged">      0.00000000 </i>
    <i name="Edipol_quadrupol">      0.00000000 </i>
    <i name="Eion">      0.00000000 </i>
   </dipole>
   <energy>
    <i name="e_fr_energy">   -189.76131153 </i>
    <i name="e_wo_entrp">   -189.50444650 </i>
    <i name="e_0_energy">   -189.63287902 </i>
   </energy>
  </scstep>
  <scstep>
   <time name="diag">    1.22    1.22</time>
   <time name="diis">    3.42    3.43</time>
   <time name="orth">    0.29    0.29</time>
   <time name="total">    5.21    5.23</time>
   <dipole>
    <v name="dipole">      0.00000000       0.00000000      -0.00991473 </v>
    <i name="Tr[quadrupol]"> -10320.71599029 </i>
    <i name="Echarged">      0.00000000 </i>
    <i name="Edipol_quadrupol">      0.00000000 </i>
    <i name="Eion">      0.00000000 </i>
   </dipole>
   <energy>
    <i name="e_fr_energy">   -189.75970787 </i>
    <i name="e_wo_entrp">   -189.49980359 </i>
    <i name="e_0_energy">   -189.62975573 </i>
   </energy>
  </scstep>
  <scstep>
   <time name="diag">    1.22    1.23</time>
   <time name="diis">    3.41    3.43</time>
   <time name="orth">    0.29    0.29</time>
   <time name="total">    5.21    5.24</time>
   <dipole>
    <v name="dipole">      0.00000000       0.00000000      -0.00863882 </v>
    <i name="Tr[quadrupol]"> -10320.70100053 </i>
    <i name="Echarged">      0.00000000 </i>
    <i name="Edipol_quadrupol">      0.00000000 </i>
    <i name="Eion">      0.00000000 </i>
   </dipole>
   <energy>
    <i name="e_fr_energy">   -189.75904553 </i>
    <i name="e_wo_entrp">   -189.50059032 </i>
    <i name="e_0_energy">   -189.62981792 </i>
   </energy>
  </scstep>
  <scstep>
   <time name="diag">    1.22    1.22</time>
   <time name="diis">    3.41    3.42</time>
   <time name="orth">    0.29    0.29</time>
   <time name="total">    5.21    5.22</time>
   <dipole>
    <v name="dipole">      0.00000000       0.00000000      -0.00856616 </v>
    <i name="Tr[quadrupol]"> -10320.69946737 </i>
    <i name="Echarged">      0.00000000 </i>
    <i name="Edipol_quadrupol">      0.00000000 </i>
    <i name="Eion">      0.00000000 </i>
   </dipole>
   <energy>
    <i name="e_fr_energy">   -189.75892816 </i>
    <i name="e_wo_entrp">   -189.50002805 </i>
    <i name="e_0_energy">   -189.62947811 </i>
   </energy>
  </scstep>
  <scstep>
   <time name="diag">    1.22    1.23</time>
   <time name="diis">    3.36    3.46</time>
   <time name="orth">    0.29    0.29</time>
   <time name="total">    5.16    5.27</time>
   <dipole>
    <v name="dipole">      0.00000000       0.00000000      -0.00832460 </v>
    <i name="Tr[quadrupol]"> -10320.70202045 </i>
    <i name="Echarged">      0.00000000 </i>
    <i name="Edipol_quadrupol">      0.00000000 </i>
    <i name="Eion">      0.00000000 </i>
   </dipole>
   <energy>
    <i name="e_fr_energy">   -189.75885447 </i>
    <i name="e_wo_entrp">   -189.49961236 </i>
    <i name="e_0_energy">   -189.62923341 </i>
   </energy>
  </scstep>
  <scstep>
   <time name="diag">    1.22    1.22</time>
   <time name="diis">    3.39    3.43</time>
   <time name="orth">    0.28    0.29</time>
   <time name="total">    5.19    5.23</time>
   <dipole>
    <v name="dipole">      0.00000000       0.00000000      -0.00853556 </v>
    <i name="Tr[quadrupol]"> -10320.70520697 </i>
    <i name="Echarged">      0.00000000 </i>
    <i name="Edipol_quadrupol">      0.00000000 </i>
    <i name="Eion">      0.00000000 </i>
   </dipole>
   <energy>
    <i name="e_fr_energy">   -189.75885123 </i>
    <i name="e_wo_entrp">   -189.49970222 </i>
    <i name="e_0_energy">   -189.62927672 </i>
   </energy>
  </scstep>
  <scstep>
   <time name="diag">    1.22    1.22</time>
   <time name="diis">    3.47    3.48</time>
   <time name="orth">    0.29    0.29</time>
   <time name="total">    5.26    5.28</time>
   <dipole>
    <v name="dipole">      0.00000000       0.00000000      -0.00865399 </v>
    <i name="Tr[quadrupol]"> -10320.71084036 </i>
    <i name="Echarged">      0.00000000 </i>
    <i name="Edipol_quadrupol">      0.00000000 </i>
    <i name="Eion">      0.00000000 </i>
   </dipole>
   <energy>
    <i name="e_fr_energy">   -189.75883675 </i>
    <i name="e_wo_entrp">   -189.49983035 </i>
    <i name="e_0_energy">   -189.62933355 </i>
   </energy>
  </scstep>
  <scstep>
   <time name="diag">    1.22    1.23</time>
   <time name="diis">    2.93    2.93</time>
   <time name="orth">    0.29    0.29</time>
   <time name="total">    4.49    4.50</time>
   <dipole>
    <v name="dipole">      0.00000000       0.00000000      -0.00859511 </v>
    <i name="Tr[quadrupol]"> -10320.71430736 </i>
    <i name="Echarged">      0.00000000 </i>
    <i name="Edipol_quadrupol">      0.00000000 </i>
    <i name="Eion">      0.00000000 </i>
   </dipole>
   <energy>
    <i name="alphaZ">    805.87074558 </i>
    <i name="ewald"> 197696.60099856 </i>
    <i name="hartreedc">-239901.37469727 </i>
    <i name="XCdc">   -345.40811122 </i>
    <i name="pawpsdc">  48963.84569881 </i>
    <i name="pawaedc"> -47038.39152170 </i>
    <i name="eentropy">     -0.25901718 </i>
    <i name="bandstr">  -2030.42880399 </i>
    <i name="atom">  41659.78587232 </i>
    <i name="e_fr_energy">   -189.75883608 </i>
    <i name="e_wo_entrp">   -189.49981891 </i>
    <i name="e_0_energy">   -189.62932749 </i>
   </energy>
  </scstep>
  <structure>
   <crystal>
    <varray name="basis" >
     <v>      11.00258152       0.00000000       0.00000000 </v>
     <v>       5.50129076       9.52851510       0.00000000 </v>
     <v>       0.00000000       0.00000000      24.49178509 </v>
    </varray>
    <i name="volume">   2567.67623402 </i>
    <varray name="rec_basis" >
     <v>       0.09088776      -0.05247407       0.00000000 </v>
     <v>       0.00000000       0.10494815       0.00000000 </v>
     <v>       0.00000000       0.00000000       0.04083002 </v>
    </varray>
   </crystal>
   <varray name="positions" >
    <v>       0.75060137       0.74960687       0.59389274 </v>
    <v>       0.49963492      -0.00020121       0.59392663 </v>
    <v>       0.41455059       0.66699883       0.49998107 </v>
    <v>       0.49960047       0.50130027       0.59393288 </v>
    <v>       0.66638839       0.91744292       0.49963643 </v>
    <v>       0.16659554       0.91665014       0.50003609 </v>
    <v>       0.24914070       0.50167060       0.59319510 </v>
    <v>       0.41548509       0.91748537       0.49996628 </v>
    <v>       0.24916600       0.24922017       0.59321131 </v>
    <v>       0.33401303       0.33341007       0.40683645 </v>
    <v>       0.58180703       0.58401176       0.40575032 </v>
    <v>       0.33303792       0.08319312       0.40648995 </v>
    <v>       0.66527655       0.16680025       0.49924475 </v>
    <v>       0.91810413       0.91520797       0.50034484 </v>
    <v>       0.66666152       0.41664083       0.49999707 </v>
    <v>      -0.00069873       0.50000328       0.59319152 </v>
    <v>       0.75155331       0.24929447       0.59422331 </v>
    <v>       0.08416305       0.58329124       0.40680973 </v>
    <v>       0.83397123       0.58302305       0.40641664 </v>
    <v>       0.66767281       0.66615151       0.50037640 </v>
    <v>       0.83300851       0.83419488       0.40611729 </v>
    <v>       0.91883678       0.16635226       0.49999125 </v>
    <v>       0.83442369       0.33208668       0.40610106 </v>
    <v>       0.50018169       0.24954672       0.59361292 </v>
    <v>       0.75101475      -0.00061836       0.59318807 </v>
    <v>       0.83333080       0.08333926       0.40685031 </v>
    <v>       0.49946586       0.75003355       0.59315600 </v>
    <v>       0.58281599       0.83391001       0.40680986 </v>
    <v>       0.75041362       0.49982444       0.59293729 </v>
    <v>       0.08342689       0.08300348       0.40710775 </v>
    <v>       0.58301729       0.33285091       0.40710476 </v>
    <v>       0.00051580      -0.00053666       0.59299710 </v>
    <v>       0.08337123       0.33259483       0.40758465 </v>
    <v>       0.91821475       0.41607590       0.50026270 </v>
    <v>       0.00021904       0.24962818       0.59266944 </v>
    <v>       0.91818349       0.66567832       0.50021396 </v>
    <v>       0.08403409       0.83369769       0.40707516 </v>
    <v>       0.00028636       0.75072249       0.59260747 </v>
    <v>       0.16589160       0.16787467       0.50001699 </v>
    <v>       0.24934045      -0.00006563       0.59288744 </v>
    <v>       0.16634709       0.41649542       0.49979517 </v>
    <v>       0.33302942       0.58368628       0.40733059 </v>
    <v>       0.16669310       0.66613644       0.50003804 </v>
    <v>       0.33273432       0.83334051       0.40694649 </v>
    <v>       0.58344580       0.08364887       0.40711972 </v>
    <v>       0.41593504       0.16765184       0.49971618 </v>
    <v>       0.41560635       0.41696977       0.49944229 </v>
    <v>       0.24949128       0.75067575       0.59286054 </v>
   </varray>
  </structure>
  <varray name="forces" >
   <v>       0.07724187       0.01039256       1.14386997 </v>
   <v>      -0.06809351      -0.08873661       1.11121401 </v>
   <v>      -0.23373415      -0.03753774      -0.00488442 </v>
   <v>       0.06379468       0.14848654       1.12380173 </v>
   <v>      -0.01359318       0.02344146      -0.05606794 </v>
   <v>       0.00030326       0.01465720       0.00385474 </v>
   <v>      -0.02147128       0.21718403       0.79876687 </v>
   <v>      -0.07256164       0.15075916       0.01199804 </v>
   <v>      -0.20436908      -0.08920940       0.81790839 </v>
   <v>       0.09777741      -0.00902945      -0.87829221 </v>
   <v>      -0.18528951       0.09975770      -1.26364696 </v>
   <v>      -0.07982099      -0.02867745      -0.99526820 </v>
   <v>      -0.05418205       0.07094611      -0.12309921 </v>
   <v>       0.05941116      -0.17201720       0.04241473 </v>
   <v>      -0.00296128      -0.03306910      -0.01325417 </v>
   <v>      -0.08040648      -0.00721566       0.86370878 </v>
   <v>       0.18099553      -0.14042962       1.21460379 </v>
   <v>       0.15636954       0.02531082      -0.83991835 </v>
   <v>       0.04368842      -0.04030477      -0.95017203 </v>
   <v>       0.10177332      -0.07009811       0.06194855 </v>
   <v>       0.06362428       0.12904576      -1.12172076 </v>
   <v>       0.18443162       0.01542291       0.00021287 </v>
   <v>       0.02750375      -0.15179821      -1.11978919 </v>
   <v>       0.03588894      -0.02934650       0.95050547 </v>
   <v>       0.13483595      -0.08130077       0.73840693 </v>
   <v>       0.03343957      -0.02361885      -0.73215084 </v>
   <v>      -0.09938816       0.03106552       0.74071938 </v>
   <v>      -0.06404290       0.06196474      -0.75049172 </v>
   <v>       0.02077299      -0.05223164       0.68900746 </v>
   <v>      -0.00563927      -0.11436781      -0.70697878 </v>
   <v>      -0.03219249      -0.04465019      -0.71066896 </v>
   <v>       0.06000333      -0.08415042       0.74442373 </v>
   <v>      -0.04014815      -0.13317729      -0.44084579 </v>
   <v>       0.18285247      -0.04150897       0.03078180 </v>
   <v>      -0.02490278      -0.08994727       0.61672455 </v>
   <v>       0.15162866      -0.13688782       0.02009423 </v>
   <v>       0.17488151       0.09465742      -0.69135613 </v>
   <v>       0.12007923       0.13358941       0.58311896 </v>
   <v>       0.08928478       0.17808229      -0.01681154 </v>
   <v>      -0.17237010      -0.04302751       0.67702474 </v>
   <v>      -0.02901653      -0.03268087      -0.02678418 </v>
   <v>      -0.01870193       0.08199548      -0.61561786 </v>
   <v>      -0.10802932      -0.16673031      -0.00185881 </v>
   <v>      -0.11510658       0.01837784      -0.75018239 </v>
   <v>       0.00845346       0.03849642      -0.75732379 </v>
   <v>      -0.14021684       0.17528445      -0.03839462 </v>
   <v>      -0.17733591       0.04690402      -0.07257988 </v>
   <v>      -0.02546162       0.17592772       0.69304900 </v>
  </varray>
  <energy>
   <i name="e_fr_energy">   -189.75883608 </i>
   <i name="e_wo_entrp">   -189.62932749 </i>
   <i name="e_0_energy">     -0.25901718 </i>
  </energy>
  <time name="totalsc">   77.09   77.53</time>
 </calculation>
 <calculation>
  <scstep>
   <time name="dav">    7.04    7.06</time>
   <time name="total">    7.33    7.35</time>
   <dipole>
    <v name="dipole">      0.00000000       0.00000000      -0.00861735 </v>
    <i name="Tr[quadrupol]"> -10264.25125821 </i>
    <i name="Echarged">      0.00000000 </i>
    <i name="Edipol_quadrupol">      0.00000000 </i>
    <i name="Eion">      0.00000000 </i>
   </dipole>
   <energy>
    <i name="alphaZ">    805.87081975 </i>
    <i name="ewald"> 189713.73883356 </i>
    <i name="hartreedc">-231961.34551917 </i>
    <i name="XCdc">   -351.07930416 </i>
    <i name="pawpsdc">  48963.70462608 </i>
    <i name="pawaedc"> -47038.25115531 </i>
    <i name="eentropy">     -0.24313170 </i>
    <i name="bandstr">  -1980.70391516 </i>
    <i name="atom">  41659.78587232 </i>
    <i name="e_fr_energy">   -188.52287380 </i>
    <i name="e_wo_entrp">   -188.27974210 </i>
    <i name="e_0_energy">   -188.40130795 </i>
   </energy>
  </scstep>
  <scstep>
   <time name="diag">    1.22    1.22</time>
   <time name="diis">    3.40    3.41</time>
   <time name="orth">    0.29    0.29</time>
   <time name="total">    5.20    5.21</time>
   <dipole>
    <v name="dipole">      0.00000000       0.00000000      -0.00984636 </v>
    <i name="Tr[quadrupol]"> -10263.43980583 </i>
    <i name="Echarged">      0.00000000 </i>
    <i name="Edipol_quadrupol">      0.00000000 </i>
    <i name="Eion">      0.00000000 </i>
   </dipole>
   <energy>
    <i name="e_fr_energy">   -191.77311402 </i>
    <i name="e_wo_entrp">   -191.54601797 </i>
    <i name="e_0_energy">   -191.65956600 </i>
   </energy>
  </scstep>
  <scstep>
   <time name="diag">    1.22    1.22</time>
   <time name="diis">    3.50    3.51</time>
   <time name="orth">    0.29    0.29</time>
   <time name="total">    5.29    5.31</time>
   <dipole>
    <v name="dipole">      0.00000000       0.00000000       0.01580884 </v>
    <i name="Tr[quadrupol]"> -10264.55656432 </i>
    <i name="Echarged">      0.00000000 </i>
    <i name="Edipol_quadrupol">      0.00000000 </i>
    <i name="Eion">      0.00000000 </i>
   </dipole>
   <energy>
    <i name="e_fr_energy">   -192.17630515 </i>
    <i name="e_wo_entrp">   -191.94128144 </i>
    <i name="e_0_energy">   -192.05879330 </i>
   </energy>
  </scstep>
  <scstep>
   <time name="diag">    1.22    1.22</time>
   <time name="diis">    3.36    3.45</time>
   <time name="orth">    0.29    0.29</time>
   <time name="total">    5.14    5.25</time>
   <dipole>
    <v name="dipole">      0.00000000       0.00000000      -0.02527367 </v>
    <i name="Tr[quadrupol]"> -10264.25864286 </i>
    <i name="Echarged">      0.00000000 </i>
    <i name="Edipol_quadrupol">      0.00000000 </i>
    <i name="Eion">      0.00000000 </i>
   </dipole>
   <energy>
    <i name="e_fr_energy">   -191.63143512 </i>
    <i name="e_wo_entrp">   -191.41509602 </i>
    <i name="e_0_energy">   -191.52326557 </i>
   </energy>
  </scstep>
  <scstep>
   <time name="diag">    1.22    1.23</time>
   <time name="diis">    3.38    3.39</time>
   <time name="orth">    0.28    0.28</time>
   <time name="total">    5.17    5.19</time>
   <dipole>
    <v name="dipole">      0.00000000       0.00000000       0.09934521 </v>
    <i name="Tr[quadrupol]"> -10264.50467055 </i>
    <i name="Echarged">      0.00000000 </i>
    <i name="Edipol_quadrupol">      0.00000000 </i>
    <i name="Eion">      0.00000000 </i>
   </dipole>
   <energy>
    <i name="e_fr_energy">   -191.85752259 </i>
    <i name="e_wo_entrp">   -191.61904671 </i>
    <i name="e_0_energy">   -191.73828465 </i>
   </energy>
  </scstep>
  <scstep>
   <time name="diag">    1.21    1.22</time>
   <time name="diis">    3.43    3.45</time>
   <time name="orth">    0.29    0.29</time>
   <time name="total">    5.22    5.24</time>
   <dipole>
    <v name="dipole">      0.00000000       0.00000000      -0.13407266 </v>
    <i name="Tr[quadrupol]"> -10264.46417300 </i>
    <i name="Echarged">      0.00000000 </i>
    <i name="Edipol_quadrupol">      0.00000000 </i>
    <i name="Eion">      0.00000000 </i>
   </dipole>
   <energy>
    <i name="e_fr_energy">   -191.79750308 </i>
    <i name="e_wo_entrp">   -191.57253349 </i>
    <i name="e_0_energy">   -191.68501829 </i>
   </energy>
  </scstep>
  <scstep>
   <time name="diag">    1.24    1.25</time>
   <time name="diis">    3.43    3.44</time>
   <time name="orth">    0.28    0.29</time>
   <time name="total">    5.24    5.26</time>
   <dipole>
    <v name="dipole">      0.00000000       0.00000000       0.02223714 </v>
    <i name="Tr[quadrupol]"> -10264.35175953 </i>
    <i name="Echarged">      0.00000000 </i>
    <i name="Edipol_quadrupol">      0.00000000 </i>
    <i name="Eion">      0.00000000 </i>
   </dipole>
   <energy>
    <i name="e_fr_energy">   -191.56228099 </i>
    <i name="e_wo_entrp">   -191.32580686 </i>
    <i name="e_0_energy">   -191.44404392 </i>
   </energy>
  </scstep>
  <scstep>
   <time name="diag">    1.22    1.22</time>
   <time name="diis">    3.44    3.45</time>
   <time name="orth">    0.28    0.29</time>
   <time name="total">    5.23    5.24</time>
   <dipole>
    <v name="dipole">      0.00000000       0.00000000      -0.01385193 </v>
    <i name="Tr[quadrupol]"> -10264.29181161 </i>
    <i name="Echarged">      0.00000000 </i>
    <i name="Edipol_quadrupol">      0.00000000 </i>
    <i name="Eion">      0.00000000 </i>
   </dipole>
   <energy>
    <i name="e_fr_energy">   -191.53200858 </i>
    <i name="e_wo_entrp">   -191.28510540 </i>
    <i name="e_0_energy">   -191.40855699 </i>
   </energy>
  </scstep>
  <scstep>
   <time name="diag">    1.22    1.22</time>
   <time name="diis">    3.38    3.42</time>
   <time name="orth">    0.28    0.28</time>
   <time name="total">    5.17    5.21</time>
   <dipole>
    <v name="dipole">      0.00000000       0.00000000      -0.00592027 </v>
    <i name="Tr[quadrupol]"> -10264.25508495 </i>
    <i name="Echarged">      0.00000000 </i>
    <i name="Edipol_quadrupol">      0.00000000 </i>
    <i name="Eion">      0.00000000 </i>
   </dipole>
   <energy>
    <i name="e_fr_energy">   -191.52366382 </i>
    <i name="e_wo_entrp">   -191.27877976 </i>
    <i name="e_0_energy">   -191.40122179 </i>
   </energy>
  </scstep>
  <scstep>
   <time name="diag">    1.21    1.22</time>
   <time name="diis">    3.41    3.42</time>
   <time name="orth">    0.28    0.29</time>
   <time name="total">    5.20    5.21</time>
   <dipole>
    <v name="dipole">      0.00000000       0.00000000      -0.00697654 </v>
    <i name="Tr[quadrupol]"> -10264.25224565 </i>
    <i name="Echarged">      0.00000000 </i>
    <i name="Edipol_quadrupol">      0.00000000 </i>
    <i name="Eion">      0.00000000 </i>
   </dipole>
   <energy>
    <i name="e_fr_energy">   -191.52232618 </i>
    <i name="e_wo_entrp">   -191.27633146 </i>
    <i name="e_0_energy">   -191.39932882 </i>
   </energy>
  </scstep>
  <scstep>
   <time name="diag">    1.22    1.23</time>
   <time name="diis">    3.42    3.43</time>
   <time name="orth">    0.28    0.28</time>
   <time name="total">    5.22    5.23</time>
   <dipole>
    <v name="dipole">      0.00000000       0.00000000      -0.00585540 </v>
    <i name="Tr[quadrupol]"> -10264.25955424 </i>
    <i name="Echarged">      0.00000000 </i>
    <i name="Edipol_quadrupol">      0.00000000 </i>
    <i name="Eion">      0.00000000 </i>
   </dipole>
   <energy>
    <i name="e_fr_energy">   -191.52189761 </i>
    <i name="e_wo_entrp">   -191.27514821 </i>
    <i name="e_0_energy">   -191.39852291 </i>
   </energy>
  </scstep>
  <scstep>
   <time name="diag">    1.20    1.28</time>
   <time name="diis">    3.45    3.46</time>
   <time name="orth">    0.28    0.28</time>
   <time name="total">    5.22    5.31</time>
   <dipole>
    <v name="dipole">      0.00000000       0.00000000      -0.00525634 </v>
    <i name="Tr[quadrupol]"> -10264.27065808 </i>
    <i name="Echarged">      0.00000000 </i>
    <i name="Edipol_quadrupol">      0.00000000 </i>
    <i name="Eion">      0.00000000 </i>
[...]
       <r>    2.2855    0.0000 </r>
       <r>    2.3498    0.0000 </r>
       <r>    2.4111    0.0000 </r>
       <r>    2.4597    0.0000 </r>
       <r>    2.6964    0.0000 </r>
       <r>    2.9395    0.0000 </r>
       <r>    3.1705    0.0000 </r>
       <r>    3.2613    0.0000 </r>
       <r>    3.5179    0.0000 </r>
       <r>    3.6153    0.0000 </r>
       <r>    3.7266    0.0000 </r>
       <r>    3.9420    0.0000 </r>
       <r>    4.0801    0.0000 </r>
       <r>    4.2004    0.0000 </r>
       <r>    4.4406    0.0000 </r>
       <r>    4.5741    0.0000 </r>
       <r>    4.6107    0.0000 </r>
       <r>    4.6378    0.0000 </r>
       <r>    4.7493    0.0000 </r>
       <r>    4.7887    0.0000 </r>
       <r>    4.8822    0.0000 </r>
       <r>    4.9206    0.0000 </r>
       <r>    4.9856    0.0000 </r>
       <r>    5.0458    0.0000 </r>
       <r>    5.0592    0.0000 </r>
       <r>    5.0891    0.0000 </r>
       <r>    5.1470    0.0000 </r>
       <r>    5.2414    0.0000 </r>
      </set>
     </set>
    </set>
   </array>
  </eigenvalues>
  <separator name="orbital magnetization" >
   <v name="MAGDIPOLOUT">      0.00000000      0.00000000      0.00000000</v>
  </separator>
  <dos>
   <i name="efermi">     -1.10303159 </i>
   <total>
    <array>
     <dimension dim="1">gridpoints</dimension>
     <dimension dim="2">spin</dimension>
     <field>energy</field>
     <field>total</field>
     <field>integrated</field>
     <set>
      <set comment="spin 1">
       <r>    -9.8764     0.0000     0.0000 </r>
       <r>    -9.8224     0.0000     0.0000 </r>
       <r>    -9.7684     0.0000     0.0000 </r>
       <r>    -9.7144     0.0000     0.0000 </r>
       <r>    -9.6605     0.0000     0.0000 </r>
       <r>    -9.6065     0.0000     0.0000 </r>
       <r>    -9.5525     0.0000     0.0000 </r>
       <r>    -9.4985     0.0000     0.0000 </r>
       <r>    -9.4446     0.0000     0.0000 </r>
       <r>    -9.3906     0.0000     0.0000 </r>
       <r>    -9.3366     0.0000     0.0000 </r>
       <r>    -9.2826     0.0000     0.0000 </r>
       <r>    -9.2286     0.0000     0.0000 </r>
       <r>    -9.1747     0.0001     0.0000 </r>
       <r>    -9.1207     0.0034     0.0002 </r>
       <r>    -9.0667     0.0455     0.0027 </r>
       <r>    -9.0127     0.3462     0.0213 </r>
       <r>    -8.9588     1.5097     0.1028 </r>
       <r>    -8.9048     3.7877     0.3073 </r>
       <r>    -8.8508     5.5162     0.6050 </r>
       <r>    -8.7968     4.9506     0.8723 </r>
       <r>    -8.7428     3.8343     1.0792 </r>
       <r>    -8.6889     4.4662     1.3203 </r>
       <r>    -8.6349     5.4003     1.6118 </r>
       <r>    -8.5809     4.3405     1.8461 </r>
       <r>    -8.5269     2.1263     1.9609 </r>
       <r>    -8.4729     0.7129     1.9993 </r>
       <r>    -8.4190     0.5753     2.0304 </r>
       <r>    -8.3650     1.4294     2.1076 </r>
       <r>    -8.3110     2.8721     2.2626 </r>
       <r>    -8.2570     4.2118     2.4899 </r>
       <r>    -8.2031     4.5208     2.7339 </r>
       <r>    -8.1491     3.5383     2.9249 </r>
       <r>    -8.0951     2.8463     3.0786 </r>
       <r>    -8.0411     3.9874     3.2938 </r>
       <r>    -7.9871     6.3589     3.6370 </r>
       <r>    -7.9332     8.4760     4.0946 </r>
       <r>    -7.8792     8.9453     4.5774 </r>
       <r>    -7.8252     7.7808     4.9974 </r>
       <r>    -7.7712     6.9662     5.3734 </r>
       <r>    -7.7173     6.6222     5.7309 </r>
       <r>    -7.6633     6.1018     6.0602 </r>
       <r>    -7.6093     6.9516     6.4355 </r>
       <r>    -7.5553     9.4771     6.9470 </r>
       <r>    -7.5013    11.9408     7.5916 </r>
       <r>    -7.4474    12.5142     8.2670 </r>
       <r>    -7.3934    10.8815     8.8544 </r>
       <r>    -7.3394    10.1796     9.4039 </r>
       <r>    -7.2854    12.2493    10.0651 </r>
       <r>    -7.2315    15.3649    10.8944 </r>
       <r>    -7.1775    18.8456    11.9117 </r>
       <r>    -7.1235    21.2728    13.0599 </r>
       <r>    -7.0695    21.5424    14.2227 </r>
       <r>    -7.0155    22.4309    15.4335 </r>
       <r>    -6.9616    25.2456    16.7962 </r>
       <r>    -6.9076    28.5217    18.3357 </r>
       <r>    -6.8536    31.3007    20.0253 </r>
       <r>    -6.7996    34.0914    21.8655 </r>
       <r>    -6.7457    38.9341    23.9670 </r>
       <r>    -6.6917    45.4950    26.4228 </r>
       <r>    -6.6377    49.7004    29.1055 </r>
       <r>    -6.5837    50.2180    31.8162 </r>
       <r>    -6.5297    50.5397    34.5442 </r>
       <r>    -6.4758    52.6174    37.3843 </r>
       <r>    -6.4218    55.8853    40.4009 </r>
       <r>    -6.3678    60.1241    43.6463 </r>
       <r>    -6.3138    63.1058    47.0526 </r>
       <r>    -6.2599    64.1182    50.5136 </r>
       <r>    -6.2059    67.3081    54.1467 </r>
       <r>    -6.1519    73.2195    58.0989 </r>
       <r>    -6.0979    77.1775    62.2648 </r>
       <r>    -6.0439    78.4319    66.4984 </r>
       <r>    -5.9900    79.8634    70.8092 </r>
       <r>    -5.9360    80.8727    75.1746 </r>
       <r>    -5.8820    78.8913    79.4330 </r>
       <r>    -5.8280    74.8778    83.4747 </r>
       <r>    -5.7741    71.4371    87.3307 </r>
       <r>    -5.7201    69.0391    91.0573 </r>
       <r>    -5.6661    67.5069    94.7012 </r>
       <r>    -5.6121    67.6917    98.3550 </r>
       <r>    -5.5581    69.5795   102.1108 </r>
       <r>    -5.5042    70.9023   105.9379 </r>
       <r>    -5.4502    71.0616   109.7737 </r>
       <r>    -5.3962    72.0755   113.6642 </r>
       <r>    -5.3422    74.4628   117.6835 </r>
       <r>    -5.2883    77.4488   121.8640 </r>
       <r>    -5.2343    80.5879   126.2140 </r>
       <r>    -5.1803    83.3604   130.7136 </r>
       <r>    -5.1263    85.6824   135.3385 </r>
       <r>    -5.0723    87.8229   140.0790 </r>
       <r>    -5.0184    88.9407   144.8799 </r>
       <r>    -4.9644    88.1855   149.6399 </r>
       <r>    -4.9104    86.6987   154.3197 </r>
       <r>    -4.8564    86.0507   158.9646 </r>
       <r>    -4.8025    85.6305   163.5867 </r>
       <r>    -4.7485    84.1559   168.1293 </r>
       <r>    -4.6945    81.9650   172.5535 </r>
       <r>    -4.6405    80.7167   176.9105 </r>
       <r>    -4.5865    81.8772   181.3300 </r>
       <r>    -4.5326    84.6614   185.8999 </r>
       <r>    -4.4786    86.7309   190.5814 </r>
       <r>    -4.4246    88.2966   195.3475 </r>
       <r>    -4.3706    90.4143   200.2278 </r>
       <r>    -4.3167    91.4524   205.1642 </r>
       <r>    -4.2627    91.1514   210.0844 </r>
       <r>    -4.2087    91.3144   215.0133 </r>
       <r>    -4.1547    92.2938   219.9951 </r>
       <r>    -4.1007    93.6381   225.0495 </r>
       <r>    -4.0468    94.0427   230.1257 </r>
       <r>    -3.9928    92.1686   235.1008 </r>
       <r>    -3.9388    89.8447   239.9504 </r>
       <r>    -3.8848    90.0788   244.8127 </r>
       <r>    -3.8309    93.0252   249.8340 </r>
       <r>    -3.7769    96.2681   255.0303 </r>
       <r>    -3.7229    97.7837   260.3085 </r>
       <r>    -3.6689    97.3897   265.5654 </r>
       <r>    -3.6149    95.4914   270.7198 </r>
       <r>    -3.5610    93.0494   275.7424 </r>
       <r>    -3.5070    91.5448   280.6838 </r>
       <r>    -3.4530    92.2238   285.6618 </r>
       <r>    -3.3990    95.3360   290.8078 </r>
       <r>    -3.3451    98.8172   296.1418 </r>
       <r>    -3.2911    99.5912   301.5175 </r>
       <r>    -3.2371    96.5042   306.7266 </r>
       <r>    -3.1831    91.4550   311.6631 </r>
       <r>    -3.1291    87.1648   316.3681 </r>
       <r>    -3.0752    84.7665   320.9436 </r>
       <r>    -3.0212    84.6414   325.5124 </r>
       <r>    -2.9672    86.3908   330.1756 </r>
       <r>    -2.9132    88.4053   334.9475 </r>
       <r>    -2.8593    90.0149   339.8063 </r>
       <r>    -2.8053    91.8080   344.7619 </r>
       <r>    -2.7513    94.0976   349.8411 </r>
       <r>    -2.6973    96.9995   355.0769 </r>
       <r>    -2.6433   100.0017   360.4748 </r>
       <r>    -2.5894   101.3766   365.9469 </r>
       <r>    -2.5354    99.8079   371.3343 </r>
       <r>    -2.4814    96.3876   376.5371 </r>
       <r>    -2.4274    92.9717   381.5555 </r>
       <r>    -2.3735    90.5916   386.4454 </r>
       <r>    -2.3195    89.5613   391.2797 </r>
       <r>    -2.2655    89.2299   396.0962 </r>
       <r>    -2.2115    89.3062   400.9167 </r>
       <r>    -2.1575    89.9686   405.7730 </r>
       <r>    -2.1036    90.9985   410.6849 </r>
       <r>    -2.0496    92.6828   415.6878 </r>
       <r>    -1.9956    95.5986   420.8480 </r>
       <r>    -1.9416    99.0580   426.1949 </r>
       <r>    -1.8877   101.1451   431.6545 </r>
       <r>    -1.8337   101.3470   437.1250 </r>
       <r>    -1.7797   102.4388   442.6544 </r>
       <r>    -1.7257   106.5940   448.4081 </r>
       <r>    -1.6717   110.4043   454.3675 </r>
       <r>    -1.6178   109.9693   460.3034 </r>
       <r>    -1.5638   106.3477   466.0438 </r>
       <r>    -1.5098   101.8979   471.5440 </r>
       <r>    -1.4558    97.2539   476.7936 </r>
       <r>    -1.4019    92.8137   481.8035 </r>
       <r>    -1.3479    88.5404   486.5827 </r>
       <r>    -1.2939    83.7307   491.1023 </r>
       <r>    -1.2399    78.5791   495.3438 </r>
       <r>    -1.1859    71.6276   499.2101 </r>
       <r>    -1.1320    61.0107   502.5034 </r>
       <r>    -1.0780    48.9827   505.1473 </r>
       <r>    -1.0240    36.9240   507.1404 </r>
       <r>    -0.9700    24.0772   508.4401 </r>
       <r>    -0.9161    13.8317   509.1867 </r>
       <r>    -0.8621     9.1753   509.6819 </r>
       <r>    -0.8081     8.4571   510.1384 </r>
       <r>    -0.7541     9.7681   510.6657 </r>
       <r>    -0.7001    11.3170   511.2766 </r>
       <r>    -0.6462    11.9393   511.9210 </r>
       <r>    -0.5922    13.1388   512.6302 </r>
       <r>    -0.5382    16.6146   513.5270 </r>
       <r>    -0.4842    21.6247   514.6943 </r>
       <r>    -0.4303    24.5176   516.0177 </r>
       <r>    -0.3763    22.5699   517.2360 </r>
       <r>    -0.3223    19.0352   518.2634 </r>
       <r>    -0.2683    18.1298   519.2421 </r>
       <r>    -0.2143    18.9760   520.2663 </r>
       <r>    -0.1604    18.0072   521.2383 </r>
       <r>    -0.1064    14.0678   521.9977 </r>
       <r>    -0.0524    10.2440   522.5506 </r>
       <r>     0.0016     9.0602   523.0397 </r>
       <r>     0.0555    10.5172   523.6074 </r>
       <r>     0.1095    14.2584   524.3770 </r>
       <r>     0.1635    17.3605   525.3141 </r>
       <r>     0.2175    17.0629   526.2351 </r>
       <r>     0.2715    15.6650   527.0807 </r>
       <r>     0.3254    15.9692   527.9427 </r>
       <r>     0.3794    17.9364   528.9108 </r>
       <r>     0.4334    20.8318   530.0353 </r>
       <r>     0.4874    23.4804   531.3027 </r>
       <r>     0.5413    24.6186   532.6316 </r>
       <r>     0.5953    24.3694   533.9470 </r>
       <r>     0.6493    23.5772   535.2196 </r>
       <r>     0.7033    22.3737   536.4273 </r>
       <r>     0.7573    20.4124   537.5291 </r>
       <r>     0.8112    17.4576   538.4714 </r>
       <r>     0.8652    14.1611   539.2358 </r>
       <r>     0.9192    11.9372   539.8802 </r>
       <r>     0.9732    10.8968   540.4684 </r>
       <r>     1.0271    10.0260   541.0095 </r>
       <r>     1.0811     8.9348   541.4918 </r>
       <r>     1.1351     8.2451   541.9369 </r>
       <r>     1.1891     8.4081   542.3907 </r>
       <r>     1.2431     8.5207   542.8506 </r>
       <r>     1.2970     7.9881   543.2818 </r>
       <r>     1.3510     7.9484   543.7109 </r>
       <r>     1.4050     9.3711   544.2167 </r>
       <r>     1.4590    12.0522   544.8672 </r>
       <r>     1.5129    14.8524   545.6689 </r>
       <r>     1.5669    15.4837   546.5047 </r>
       <r>     1.6209    13.8848   547.2542 </r>
       <r>     1.6749    12.8795   547.9494 </r>
       <r>     1.7289    13.7485   548.6915 </r>
       <r>     1.7828    15.2918   549.5169 </r>
       <r>     1.8368    15.3825   550.3473 </r>
       <r>     1.8908    13.7684   551.0904 </r>
       <r>     1.9448    12.2855   551.7536 </r>
       <r>     1.9987    11.4254   552.3703 </r>
       <r>     2.0527    10.8477   552.9558 </r>
       <r>     2.1067    11.7184   553.5884 </r>
       <r>     2.1607    14.8260   554.3886 </r>
       <r>     2.2147    18.8150   555.4042 </r>
       <r>     2.2686    22.4756   556.6174 </r>
       <r>     2.3226    25.6090   557.9997 </r>
       <r>     2.3766    27.5149   559.4849 </r>
       <r>     2.4306    27.0059   560.9427 </r>
       <r>     2.4845    24.0309   562.2398 </r>
       <r>     2.5385    20.0758   563.3234 </r>
       <r>     2.5925    17.5590   564.2712 </r>
       <r>     2.6465    18.5439   565.2722 </r>
       <r>     2.7005    21.4740   566.4313 </r>
       <r>     2.7544    21.3001   567.5810 </r>
       <r>     2.8084    16.0147   568.4455 </r>
       <r>     2.8624     9.9290   568.9814 </r>
       <r>     2.9164     7.1093   569.3652 </r>
       <r>     2.9703     6.0639   569.6925 </r>
       <r>     3.0243     4.4635   569.9334 </r>
       <r>     3.0783     3.7637   570.1366 </r>
       <r>     3.1323     5.3676   570.4263 </r>
       <r>     3.1863     7.7663   570.8455 </r>
       <r>     3.2402     9.6386   571.3658 </r>
       <r>     3.2942    10.8320   571.9505 </r>
       <r>     3.3482    10.7913   572.5330 </r>
       <r>     3.4022    10.3243   573.0902 </r>
       <r>     3.4561    11.4363   573.7075 </r>
       <r>     3.5101    14.2430   574.4764 </r>
       <r>     3.5641    17.3555   575.4132 </r>
       <r>     3.6181    19.2893   576.4544 </r>
       <r>     3.6721    19.1506   577.4881 </r>
       <r>     3.7260    18.2608   578.4737 </r>
       <r>     3.7800    17.4622   579.4163 </r>
       <r>     3.8340    14.9735   580.2246 </r>
       <r>     3.8880    11.1345   580.8256 </r>
       <r>     3.9419     9.6846   581.3483 </r>
       <r>     3.9959    12.3820   582.0167 </r>
       <r>     4.0499    15.3628   582.8459 </r>
       <r>     4.1039    14.2653   583.6159 </r>
       <r>     4.1579    11.5730   584.2406 </r>
       <r>     4.2118    11.0884   584.8391 </r>
       <r>     4.2658    10.7387   585.4188 </r>
       <r>     4.3198     8.7704   585.8922 </r>
       <r>     4.3738     8.3362   586.3422 </r>
       <r>     4.4278    11.3022   586.9522 </r>
       <r>     4.4817    15.2854   587.7773 </r>
       <r>     4.5357    18.9013   588.7976 </r>
       <r>     4.5897    22.8252   590.0296 </r>
       <r>     4.6437    25.8288   591.4238 </r>
       <r>     4.6976    26.0040   592.8275 </r>
       <r>     4.7516    24.6456   594.1578 </r>
       <r>     4.8056    24.3632   595.4728 </r>
       <r>     4.8596    25.7737   596.8640 </r>
       <r>     4.9136    27.7514   598.3620 </r>
       <r>     4.9675    30.3829   600.0020 </r>
       <r>     5.0215    34.8443   601.8828 </r>
       <r>     5.0755    38.3491   603.9528 </r>
       <r>     5.1295    36.4053   605.9179 </r>
       <r>     5.1834    31.2675   607.6057 </r>
       <r>     5.2374    28.0190   609.1181 </r>
       <r>     5.2914    24.7413   610.4535 </r>
       <r>     5.3454    17.3109   611.3880 </r>
       <r>     5.3994     8.2801   611.8349 </r>
       <r>     5.4533     2.5266   611.9713 </r>
       <r>     5.5073     0.4747   611.9969 </r>
       <r>     5.5613     0.0537   611.9998 </r>
       <r>     5.6153     0.0036   612.0000 </r>
       <r>     5.6692     0.0001   612.0000 </r>
       <r>     5.7232     0.0000   612.0000 </r>
       <r>     5.7772     0.0000   612.0000 </r>
       <r>     5.8312     0.0000   612.0000 </r>
       <r>     5.8852     0.0000   612.0000 </r>
       <r>     5.9391     0.0000   612.0000 </r>
       <r>     5.9931     0.0000   612.0000 </r>
       <r>     6.0471     0.0000   612.0000 </r>
       <r>     6.1011     0.0000   612.0000 </r>
       <r>     6.1550     0.0000   612.0000 </r>
       <r>     6.2090     0.0000   612.0000 </r>
       <r>     6.2630     0.0000   612.0000 </r>
       <r>     6.3170     0.0000   612.0000 </r>
      </set>
     </set>
    </array>
   </total>
  </dos>
 </calculation>
 <structure name="finalpos" >
  <crystal>
   <varray name="basis" >
    <v>      11.00258152       0.00000000       0.00000000 </v>
    <v>       5.50129076       9.52851510       0.00000000 </v>
    <v>       0.00000000       0.00000000      24.49178509 </v>
   </varray>
   <i name="volume">   2567.67623402 </i>
   <varray name="rec_basis" >
    <v>       0.09088776      -0.05247407       0.00000000 </v>
    <v>       0.00000000       0.10494815       0.00000000 </v>
    <v>       0.00000000       0.00000000       0.04083002 </v>
   </varray>
  </crystal>
  <varray name="positions" >
   <v>       0.75000876       0.74927783       0.60359224 </v>
   <v>       0.49914431      -0.00199901       0.60589836 </v>
   <v>       0.41534509       0.66478861       0.49984728 </v>
   <v>       0.49970109       0.50225444       0.60543121 </v>
   <v>       0.66652057       0.91687836       0.50050529 </v>
   <v>       0.16654007       0.91637366       0.49924678 </v>
   <v>       0.24746920       0.50380073       0.60115662 </v>
   <v>       0.41474280       0.91974315       0.50047882 </v>
   <v>       0.24769120       0.24772349       0.60061875 </v>
   <v>       0.33580535       0.33352669       0.40152457 </v>
   <v>       0.58017485       0.58521445       0.39141211 </v>
   <v>       0.33360415       0.08277996       0.39860264 </v>
   <v>       0.66457901       0.16817830       0.50129120 </v>
   <v>       0.91824473       0.91344864       0.49843777 </v>
   <v>       0.66667194       0.41664963       0.49956011 </v>
   <v>      -0.00251882       0.50001215       0.59906420 </v>
   <v>       0.75363001       0.24738284       0.60738142 </v>
   <v>       0.08553689       0.58445917       0.39942898 </v>
   <v>       0.83415559       0.58322304       0.39641702 </v>
   <v>       0.66878134       0.66524306       0.49915694 </v>
   <v>       0.83297790       0.83669808       0.39462160 </v>
   <v>       0.91826875       0.16848125       0.49908059 </v>
   <v>       0.83520570       0.33129467       0.39406492 </v>
   <v>       0.50079291       0.24892636       0.60434291 </v>
   <v>       0.75191956      -0.00168009       0.59877487 </v>
   <v>       0.83374389       0.08415819       0.40159566 </v>
   <v>       0.49814378       0.74997836       0.59778290 </v>
   <v>       0.58315545       0.83427997       0.40179082 </v>
   <v>       0.74960587       0.49870429       0.59649123 </v>
   <v>       0.08433332       0.08228300       0.40132849 </v>
   <v>       0.58436029       0.33310692       0.40348808 </v>
   <v>       0.00039870      -0.00173454       0.59721692 </v>
   <v>       0.08404277       0.33189411       0.40383195 </v>
   <v>       0.91877184       0.41668129       0.49859256 </v>
   <v>      -0.00076157       0.24789476       0.59613457 </v>
   <v>       0.91854961       0.66408805       0.49837746 </v>
   <v>       0.08574341       0.83550835       0.40073812 </v>
   <v>      -0.00102397       0.75241493       0.59543022 </v>
   <v>       0.16694416       0.16947167       0.49974172 </v>
   <v>       0.24754183      -0.00136350       0.59780237 </v>
   <v>       0.16659523       0.41658181       0.50047434 </v>
   <v>       0.33400288       0.58460681       0.40335603 </v>
   <v>       0.16667665       0.66303106       0.49983661 </v>
   <v>       0.33313100       0.83340299       0.40143653 </v>
   <v>       0.58406332       0.08418877       0.40377276 </v>
   <v>       0.41435035       0.16929789       0.50169941 </v>
   <v>       0.41434998       0.41668682       0.50171826 </v>
   <v>       0.24828828       0.75215854       0.59742578 </v>
  </varray>
 </structure>
</modeling>
