  48  48   0   0
  0.5349325E+02  0.1100258E-08  0.1100258E-08  0.2449179E-08  0.3500000E-15
  1.000000000000000E-004
  CAR 
 unknown system                          
      6.39311877     -9.76831739  301     -1.10108821      1.00000000
     -9.768  0.0000E+00  0.0000E+00
     -9.714  0.0000E+00  0.0000E+00
     -9.661  0.0000E+00  0.0000E+00
     -9.607  0.0000E+00  0.0000E+00
     -9.553  0.0000E+00  0.0000E+00
     -9.499  0.0000E+00  0.0000E+00
     -9.445  0.0000E+00  0.0000E+00
     -9.391  0.0000E+00  0.0000E+00
     -9.337  0.1168E-16  0.6291E-18
     -9.283  0.4410E-14  0.2382E-15
     -9.230  0.9627E-12  0.5210E-13
     -9.176  0.1190E-09  0.6464E-11
     -9.122  0.8351E-08  0.4563E-09
     -9.068  0.3332E-06  0.1841E-07
     -9.014  0.7578E-05  0.4266E-06
     -8.960  0.9849E-04  0.5732E-05
     -8.906  0.7334E-03  0.4524E-04
     -8.853  0.3138E-02  0.2143E-03
     -8.799  0.7760E-02  0.6324E-03
     -8.745  0.1133E-01  0.1243E-02
     -8.691  0.1093E-01  0.1831E-02
     -8.637  0.1007E-01  0.2374E-02
     -8.583  0.1124E-01  0.2979E-02
     -8.529  0.1038E-01  0.3539E-02
     -8.475  0.6033E-02  0.3864E-02
     -8.422  0.2070E-02  0.3975E-02
     -8.368  0.4270E-03  0.3998E-02
     -8.314  0.1941E-03  0.4009E-02
     -8.260  0.8867E-03  0.4056E-02
     -8.206  0.3119E-02  0.4224E-02
     -8.152  0.6600E-02  0.4580E-02
     -8.098  0.8967E-02  0.5063E-02
     -8.044  0.9356E-02  0.5567E-02
     -7.991  0.1007E-01  0.6110E-02
     -7.937  0.1261E-01  0.6789E-02
     -7.883  0.1556E-01  0.7627E-02
     -7.829  0.1666E-01  0.8525E-02
     -7.775  0.1600E-01  0.9387E-02
     -7.721  0.1566E-01  0.1023E-01
     -7.667  0.1643E-01  0.1112E-01
     -7.613  0.1706E-01  0.1203E-01
     -7.560  0.1795E-01  0.1300E-01
     -7.506  0.2018E-01  0.1409E-01
     -7.452  0.2062E-01  0.1520E-01
     -7.398  0.1730E-01  0.1613E-01
     -7.344  0.1481E-01  0.1693E-01
     -7.290  0.1763E-01  0.1788E-01
     -7.236  0.2394E-01  0.1917E-01
     -7.182  0.2769E-01  0.2066E-01
     -7.129  0.2814E-01  0.2218E-01
     -7.075  0.3303E-01  0.2396E-01
     -7.021  0.4426E-01  0.2634E-01
     -6.967  0.5610E-01  0.2936E-01
     -6.913  0.6685E-01  0.3296E-01
     -6.859  0.7505E-01  0.3701E-01
     -6.805  0.7783E-01  0.4120E-01
     -6.752  0.7835E-01  0.4542E-01
     -6.698  0.8116E-01  0.4979E-01
     -6.644  0.8506E-01  0.5438E-01
     -6.590  0.8844E-01  0.5914E-01
     -6.536  0.9493E-01  0.6425E-01
     -6.482  0.1046E+00  0.6989E-01
     -6.428  0.1117E+00  0.7590E-01
     -6.374  0.1180E+00  0.8226E-01
     -6.321  0.1291E+00  0.8922E-01
     -6.267  0.1414E+00  0.9684E-01
     -6.213  0.1491E+00  0.1049E+00
     -6.159  0.1513E+00  0.1130E+00
     -6.105  0.1497E+00  0.1211E+00
     -6.051  0.1481E+00  0.1291E+00
     -5.997  0.1533E+00  0.1373E+00
     -5.943  0.1639E+00  0.1462E+00
     -5.890  0.1682E+00  0.1552E+00
     -5.836  0.1619E+00  0.1639E+00
     -5.782  0.1530E+00  0.1722E+00
     -5.728  0.1484E+00  0.1802E+00
     -5.674  0.1458E+00  0.1880E+00
     -5.620  0.1411E+00  0.1956E+00
     -5.566  0.1349E+00  0.2029E+00
     -5.512  0.1317E+00  0.2100E+00
     -5.459  0.1341E+00  0.2172E+00
     -5.405  0.1412E+00  0.2248E+00
     -5.351  0.1504E+00  0.2329E+00
     -5.297  0.1578E+00  0.2414E+00
     -5.243  0.1640E+00  0.2503E+00
     -5.189  0.1718E+00  0.2595E+00
     -5.135  0.1789E+00  0.2691E+00
     -5.082  0.1812E+00  0.2789E+00
     -5.028  0.1796E+00  0.2886E+00
     -4.974  0.1783E+00  0.2982E+00
     -4.920  0.1786E+00  0.3078E+00
     -4.866  0.1773E+00  0.3174E+00
     -4.812  0.1741E+00  0.3267E+00
     -4.758  0.1718E+00  0.3360E+00
     -4.704  0.1709E+00  0.3452E+00
     -4.651  0.1700E+00  0.3544E+00
     -4.597  0.1704E+00  0.3635E+00
     -4.543  0.1734E+00  0.3729E+00
     -4.489  0.1767E+00  0.3824E+00
     -4.435  0.1768E+00  0.3919E+00
     -4.381  0.1751E+00  0.4014E+00
     -4.327  0.1725E+00  0.4107E+00
     -4.273  0.1686E+00  0.4197E+00
     -4.220  0.1656E+00  0.4287E+00
     -4.166  0.1650E+00  0.4375E+00
     -4.112  0.1653E+00  0.4465E+00
     -4.058  0.1674E+00  0.4555E+00
     -4.004  0.1720E+00  0.4647E+00
     -3.950  0.1764E+00  0.4742E+00
     -3.896  0.1784E+00  0.4839E+00
     -3.842  0.1802E+00  0.4936E+00
     -3.789  0.1849E+00  0.5035E+00
     -3.735  0.1930E+00  0.5139E+00
     -3.681  0.2040E+00  0.5249E+00
     -3.627  0.2132E+00  0.5364E+00
     -3.573  0.2160E+00  0.5480E+00
     -3.519  0.2145E+00  0.5596E+00
     -3.465  0.2100E+00  0.5709E+00
     -3.411  0.2040E+00  0.5819E+00
     -3.358  0.2002E+00  0.5927E+00
     -3.304  0.1983E+00  0.6034E+00
     -3.250  0.1939E+00  0.6138E+00
     -3.196  0.1870E+00  0.6239E+00
     -3.142  0.1815E+00  0.6336E+00
     -3.088  0.1773E+00  0.6432E+00
     -3.034  0.1754E+00  0.6527E+00
     -2.981  0.1798E+00  0.6623E+00
     -2.927  0.1873E+00  0.6724E+00
     -2.873  0.1902E+00  0.6827E+00
     -2.819  0.1891E+00  0.6929E+00
     -2.765  0.1891E+00  0.7031E+00
     -2.711  0.1913E+00  0.7134E+00
     -2.657  0.1925E+00  0.7237E+00
     -2.603  0.1896E+00  0.7339E+00
     -2.550  0.1834E+00  0.7438E+00
     -2.496  0.1778E+00  0.7534E+00
     -2.442  0.1763E+00  0.7629E+00
     -2.388  0.1779E+00  0.7725E+00
     -2.334  0.1794E+00  0.7821E+00
     -2.280  0.1808E+00  0.7919E+00
     -2.226  0.1831E+00  0.8017E+00
     -2.172  0.1849E+00  0.8117E+00
     -2.119  0.1850E+00  0.8217E+00
     -2.065  0.1854E+00  0.8317E+00
     -2.011  0.1877E+00  0.8418E+00
     -1.957  0.1905E+00  0.8520E+00
     -1.903  0.1930E+00  0.8624E+00
     -1.849  0.1961E+00  0.8730E+00
     -1.795  0.1983E+00  0.8837E+00
     -1.741  0.1990E+00  0.8944E+00
     -1.688  0.2001E+00  0.9052E+00
     -1.634  0.2031E+00  0.9161E+00
     -1.580  0.2067E+00  0.9273E+00
     -1.526  0.2063E+00  0.9384E+00
     -1.472  0.1998E+00  0.9491E+00
     -1.418  0.1900E+00  0.9594E+00
     -1.364  0.1812E+00  0.9691E+00
     -1.310  0.1746E+00  0.9785E+00
     -1.257  0.1660E+00  0.9875E+00
     -1.203  0.1516E+00  0.9956E+00
     -1.149  0.1316E+00  0.1003E+01
     -1.095  0.1089E+00  0.1009E+01
     -1.041  0.8506E-01  0.1013E+01
     -0.987  0.5893E-01  0.1016E+01
     -0.933  0.3579E-01  0.1018E+01
     -0.880  0.2307E-01  0.1020E+01
     -0.826  0.1869E-01  0.1021E+01
     -0.772  0.1768E-01  0.1021E+01
     -0.718  0.1853E-01  0.1022E+01
     -0.664  0.2176E-01  0.1024E+01
     -0.610  0.2804E-01  0.1025E+01
     -0.556  0.3712E-01  0.1027E+01
     -0.502  0.4502E-01  0.1030E+01
     -0.449  0.4571E-01  0.1032E+01
     -0.395  0.3827E-01  0.1034E+01
     -0.341  0.2946E-01  0.1036E+01
     -0.287  0.2931E-01  0.1037E+01
     -0.233  0.3882E-01  0.1039E+01
     -0.179  0.4460E-01  0.1042E+01
     -0.125  0.3748E-01  0.1044E+01
     -0.071  0.2570E-01  0.1045E+01
     -0.018  0.2035E-01  0.1046E+01
      0.036  0.2303E-01  0.1048E+01
      0.090  0.2918E-01  0.1049E+01
      0.144  0.3357E-01  0.1051E+01
      0.198  0.3419E-01  0.1053E+01
      0.252  0.3325E-01  0.1055E+01
      0.306  0.3387E-01  0.1056E+01
      0.360  0.3607E-01  0.1058E+01
      0.413  0.3873E-01  0.1060E+01
      0.467  0.4102E-01  0.1063E+01
      0.521  0.4213E-01  0.1065E+01
      0.575  0.4336E-01  0.1067E+01
      0.629  0.4569E-01  0.1070E+01
      0.683  0.4665E-01  0.1072E+01
      0.737  0.4358E-01  0.1075E+01
      0.790  0.3551E-01  0.1076E+01
      0.844  0.2548E-01  0.1078E+01
      0.898  0.1971E-01  0.1079E+01
      0.952  0.1908E-01  0.1080E+01
      1.006  0.1935E-01  0.1081E+01
      1.060  0.1905E-01  0.1082E+01
      1.114  0.2030E-01  0.1083E+01
      1.168  0.2260E-01  0.1084E+01
      1.221  0.2182E-01  0.1085E+01
      1.275  0.1746E-01  0.1086E+01
      1.329  0.1343E-01  0.1087E+01
      1.383  0.1229E-01  0.1088E+01
      1.437  0.1526E-01  0.1089E+01
      1.491  0.2292E-01  0.1090E+01
      1.545  0.3217E-01  0.1092E+01
      1.599  0.3659E-01  0.1094E+01
      1.652  0.3430E-01  0.1095E+01
      1.706  0.3133E-01  0.1097E+01
      1.760  0.3253E-01  0.1099E+01
      1.814  0.3483E-01  0.1101E+01
      1.868  0.3206E-01  0.1102E+01
      1.922  0.2448E-01  0.1104E+01
      1.976  0.1884E-01  0.1105E+01
      2.030  0.1802E-01  0.1106E+01
      2.083  0.2106E-01  0.1107E+01
      2.137  0.2747E-01  0.1108E+01
      2.191  0.3401E-01  0.1110E+01
      2.245  0.3854E-01  0.1112E+01
      2.299  0.4352E-01  0.1115E+01
      2.353  0.4821E-01  0.1117E+01
      2.407  0.4783E-01  0.1120E+01
      2.461  0.4219E-01  0.1122E+01
      2.514  0.3790E-01  0.1124E+01
      2.568  0.3966E-01  0.1126E+01
      2.622  0.4435E-01  0.1129E+01
      2.676  0.4804E-01  0.1131E+01
      2.730  0.4784E-01  0.1134E+01
      2.784  0.3981E-01  0.1136E+01
      2.838  0.2629E-01  0.1137E+01
      2.891  0.1591E-01  0.1138E+01
      2.945  0.1244E-01  0.1139E+01
      2.999  0.1151E-01  0.1139E+01
      3.053  0.1040E-01  0.1140E+01
      3.107  0.1187E-01  0.1141E+01
      3.161  0.1672E-01  0.1142E+01
      3.215  0.2219E-01  0.1143E+01
      3.269  0.2475E-01  0.1144E+01
      3.322  0.2198E-01  0.1145E+01
      3.376  0.1807E-01  0.1146E+01
      3.430  0.1911E-01  0.1147E+01
      3.484  0.2310E-01  0.1149E+01
      3.538  0.2654E-01  0.1150E+01
      3.592  0.3114E-01  0.1152E+01
      3.646  0.3597E-01  0.1154E+01
      3.700  0.3760E-01  0.1156E+01
      3.753  0.3691E-01  0.1158E+01
      3.807  0.3371E-01  0.1159E+01
      3.861  0.2730E-01  0.1161E+01
      3.915  0.2253E-01  0.1162E+01
      3.969  0.2351E-01  0.1163E+01
      4.023  0.2723E-01  0.1165E+01
      4.077  0.2829E-01  0.1166E+01
      4.131  0.2677E-01  0.1168E+01
      4.184  0.2530E-01  0.1169E+01
      4.238  0.2299E-01  0.1170E+01
      4.292  0.1874E-01  0.1171E+01
      4.346  0.1628E-01  0.1172E+01
      4.400  0.1979E-01  0.1173E+01
      4.454  0.2639E-01  0.1175E+01
      4.508  0.3369E-01  0.1177E+01
      4.561  0.4481E-01  0.1179E+01
      4.615  0.5503E-01  0.1182E+01
      4.669  0.5509E-01  0.1185E+01
      4.723  0.4812E-01  0.1188E+01
      4.777  0.4279E-01  0.1190E+01
      4.831  0.4287E-01  0.1192E+01
      4.885  0.4770E-01  0.1195E+01
      4.939  0.5362E-01  0.1198E+01
      4.992  0.6057E-01  0.1201E+01
      5.046  0.6963E-01  0.1205E+01
      5.100  0.7415E-01  0.1209E+01
      5.154  0.6869E-01  0.1212E+01
      5.208  0.6061E-01  0.1216E+01
      5.262  0.5441E-01  0.1219E+01
      5.316  0.4379E-01  0.1221E+01
      5.370  0.2921E-01  0.1222E+01
      5.423  0.1696E-01  0.1223E+01
      5.477  0.8233E-02  0.1224E+01
      5.531  0.2844E-02  0.1224E+01
      5.585  0.6182E-03  0.1224E+01
      5.639  0.8000E-04  0.1224E+01
      5.693  0.6028E-05  0.1224E+01
      5.747  0.2618E-06  0.1224E+01
      5.801  0.6517E-08  0.1224E+01
      5.854  0.9255E-10  0.1224E+01
      5.908  0.7474E-12  0.1224E+01
      5.962  0.3424E-14  0.1224E+01
      6.016  0.8243E-17  0.1224E+01
      6.070  0.0000E+00  0.1224E+01
      6.124  0.0000E+00  0.1224E+01
      6.178  0.0000E+00  0.1224E+01
      6.232  0.0000E+00  0.1224E+01
      6.285  0.0000E+00  0.1224E+01
      6.339  0.0000E+00  0.1224E+01
      6.393  0.0000E+00  0.1224E+01
