       N       E                     dE             d eps       ncg     rms          rms(c)
DAV:   1     0.320152615843E+04    0.32015E+04   -0.18982E+05  3672   0.112E+03
DAV:   2     0.142923654397E+02   -0.31872E+04   -0.29341E+04  4392   0.263E+02
DAV:   3    -0.200656209994E+03   -0.21495E+03   -0.20002E+03  4152   0.650E+01
DAV:   4    -0.206406814013E+03   -0.57506E+01   -0.56879E+01  4284   0.108E+01
DAV:   5    -0.206581012800E+03   -0.17420E+00   -0.17369E+00  4488   0.193E+00    0.623E+01
RMM:   6    -0.201874081034E+03    0.47069E+01   -0.93692E+01  3678   0.152E+01    0.553E+01
RMM:   7    -0.216412984164E+03   -0.14539E+02   -0.61126E+01  3681   0.127E+01    0.496E+01
RMM:   8    -0.222193148709E+03   -0.57802E+01   -0.90843E+01  3678   0.144E+01    0.447E+01
RMM:   9    -0.213156645196E+03    0.90365E+01   -0.59087E+01  3678   0.114E+01    0.377E+01
RMM:  10    -0.198317502340E+03    0.14839E+02   -0.19409E+01  3681   0.745E+00    0.215E+01
RMM:  11    -0.192194920336E+03    0.61226E+01   -0.13194E+01  3679   0.577E+00    0.132E+01
RMM:  12    -0.189622000189E+03    0.25729E+01   -0.62977E+00  3679   0.381E+00    0.995E+00
RMM:  13    -0.189168390320E+03    0.45361E+00   -0.16104E+00  3681   0.200E+00    0.697E+00
RMM:  14    -0.189293491493E+03   -0.12510E+00   -0.86263E-01  3678   0.143E+00    0.742E+00
RMM:  15    -0.189191134992E+03    0.10236E+00   -0.49621E-01  3680   0.111E+00    0.572E+00
RMM:  16    -0.188964206262E+03    0.22693E+00   -0.22123E-01  3678   0.741E-01    0.428E+00
RMM:  17    -0.188874614760E+03    0.89592E-01   -0.20836E-01  3680   0.706E-01    0.343E+00
RMM:  18    -0.188773026938E+03    0.10159E+00   -0.95162E-02  3679   0.467E-01    0.204E+00
RMM:  19    -0.188723520855E+03    0.49506E-01   -0.37095E-02  3678   0.283E-01    0.998E-01
RMM:  20    -0.188714207764E+03    0.93131E-02   -0.95831E-03  3679   0.135E-01    0.666E-01
RMM:  21    -0.188712416442E+03    0.17913E-02   -0.24140E-03  3683   0.722E-02    0.548E-01
RMM:  22    -0.188710477693E+03    0.19387E-02   -0.25294E-03  3680   0.748E-02    0.420E-01
RMM:  23    -0.188708561978E+03    0.19157E-02   -0.26251E-03  3678   0.736E-02    0.230E-01
RMM:  24    -0.188708234076E+03    0.32790E-03   -0.10637E-03  3678   0.472E-02    0.105E-01
RMM:  25    -0.188708297669E+03   -0.63592E-04   -0.24576E-04  3685   0.233E-02    0.639E-02
RMM:  26    -0.188708698186E+03   -0.40052E-03   -0.14369E-04  3679   0.168E-02    0.740E-02
RMM:  27    -0.188708961687E+03   -0.26350E-03   -0.77095E-05  3676   0.130E-02    0.489E-02
RMM:  28    -0.188709473203E+03   -0.51152E-03   -0.46968E-05  3672   0.983E-03    0.276E-02
RMM:  29    -0.188709866998E+03   -0.39379E-03   -0.27041E-05  3660   0.729E-03    0.194E-02
RMM:  30    -0.188710626822E+03   -0.75982E-03   -0.44106E-05  3672   0.909E-03    0.207E-02
RMM:  31    -0.188711166893E+03   -0.54007E-03   -0.37294E-05  3664   0.801E-03    0.160E-02
RMM:  32    -0.188711503923E+03   -0.33703E-03   -0.23097E-05  3227   0.594E-03    0.884E-03
RMM:  33    -0.188711592485E+03   -0.88562E-04   -0.48853E-06  2658   0.275E-03    0.634E-03
RMM:  34    -0.188711710472E+03   -0.11799E-03   -0.28184E-06  2449   0.228E-03    0.384E-03
RMM:  35    -0.188711776282E+03   -0.65810E-04   -0.14550E-06  2226   0.168E-03    0.258E-03
RMM:  36    -0.188711823215E+03   -0.46933E-04   -0.86281E-07  2165   0.124E-03    0.127E-03
RMM:  37    -0.188711849763E+03   -0.26548E-04   -0.53603E-07  2140   0.984E-04    0.161E-03
RMM:  38    -0.188711864536E+03   -0.14773E-04   -0.33069E-07  1988   0.805E-04    0.119E-03
RMM:  39    -0.188711870407E+03   -0.58708E-05   -0.15200E-07  1331   0.514E-04    0.825E-04
RMM:  40    -0.188711872517E+03   -0.21103E-05   -0.70813E-08  1213   0.446E-04    0.391E-04
RMM:  41    -0.188711873721E+03   -0.12039E-05   -0.50154E-08  1076   0.402E-04    0.287E-04
RMM:  42    -0.188711874298E+03   -0.57694E-06   -0.20194E-08   698   0.324E-04
   1 F= -.18871187E+03 E0= -.18858003E+03  d E =-.188712E+03
       N       E                     dE             d eps       ncg     rms          rms(c)
DAV:   1    -0.189811515092E+03   -0.10996E+01   -0.38183E+02  3672   0.300E+01    0.386E+00
RMM:   2    -0.190202438339E+03   -0.39092E+00   -0.39872E+00  3680   0.432E+00    0.240E+00
RMM:   3    -0.190346097513E+03   -0.14366E+00   -0.39979E-01  3702   0.110E+00    0.414E+00
RMM:   4    -0.190188159079E+03    0.15794E+00   -0.17805E-01  3687   0.703E-01    0.153E+00
RMM:   5    -0.190253580805E+03   -0.65422E-01   -0.94277E-02  3682   0.474E-01    0.277E+00
RMM:   6    -0.190187003283E+03    0.66578E-01   -0.58458E-02  3685   0.374E-01    0.119E+00
RMM:   7    -0.190174485288E+03    0.12518E-01   -0.16975E-02  3681   0.204E-01    0.643E-01
RMM:   8    -0.190171342461E+03    0.31428E-02   -0.61281E-03  3680   0.123E-01    0.382E-01
RMM:   9    -0.190169880738E+03    0.14617E-02   -0.25212E-03  3685   0.790E-02    0.173E-01
RMM:  10    -0.190169722532E+03    0.15821E-03   -0.90841E-04  3684   0.476E-02    0.122E-01
RMM:  11    -0.190169593766E+03    0.12877E-03   -0.25108E-04  3684   0.255E-02    0.576E-02
RMM:  12    -0.190169584963E+03    0.88031E-05   -0.73710E-05  3682   0.137E-02    0.444E-02
RMM:  13    -0.190169579361E+03    0.56020E-05   -0.33062E-05  3678   0.946E-03    0.298E-02
RMM:  14    -0.190169573563E+03    0.57976E-05   -0.16175E-05  3668   0.653E-03    0.152E-02
RMM:  15    -0.190169572870E+03    0.69268E-06   -0.44576E-06  2847   0.345E-03
   2 F= -.19016957E+03 E0= -.19003965E+03  d E =-.145770E+01
       N       E                     dE             d eps       ncg     rms          rms(c)
DAV:   1    -0.188640004275E+03    0.15296E+01   -0.35033E+03  3672   0.931E+01    0.908E+00
RMM:   2    -0.192015311253E+03   -0.33753E+01   -0.34545E+01  3681   0.128E+01    0.561E+00
RMM:   3    -0.192608449176E+03   -0.59314E+00   -0.24359E+00  3707   0.271E+00    0.917E+00
RMM:   4    -0.191821476218E+03    0.78697E+00   -0.87897E-01  3686   0.158E+00    0.357E+00
RMM:   5    -0.191919523768E+03   -0.98048E-01   -0.56281E-01  3685   0.120E+00    0.390E+00
RMM:   6    -0.191807650174E+03    0.11187E+00   -0.30063E-01  3685   0.885E-01    0.252E+00
RMM:   7    -0.191793575727E+03    0.14074E-01   -0.10450E-01  3682   0.500E-01    0.229E+00
RMM:   8    -0.191753882738E+03    0.39693E-01   -0.50210E-02  3682   0.340E-01    0.144E+00
RMM:   9    -0.191732544996E+03    0.21338E-01   -0.21216E-02  3684   0.226E-01    0.528E-01
RMM:  10    -0.191730817811E+03    0.17272E-02   -0.68275E-03  3684   0.129E-01    0.375E-01
RMM:  11    -0.191729834109E+03    0.98370E-03   -0.20571E-03  3686   0.724E-02    0.200E-01
RMM:  12    -0.191729782782E+03    0.51326E-04   -0.71400E-04  3684   0.429E-02    0.182E-01
RMM:  13    -0.191729626779E+03    0.15600E-03   -0.40376E-04  3684   0.331E-02    0.982E-02
RMM:  14    -0.191729579476E+03    0.47303E-04   -0.17178E-04  3679   0.212E-02    0.534E-02
RMM:  15    -0.191729558600E+03    0.20877E-04   -0.49576E-05  3679   0.113E-02    0.216E-02
RMM:  16    -0.191729564041E+03   -0.54416E-05   -0.11075E-05  3436   0.521E-03    0.153E-02
RMM:  17    -0.191729568218E+03   -0.41771E-05   -0.38414E-06  2697   0.324E-03    0.681E-03
RMM:  18    -0.191729577163E+03   -0.89449E-05   -0.14679E-06  2134   0.204E-03    0.639E-03
RMM:  19    -0.191729581882E+03   -0.47186E-05   -0.70122E-07  2075   0.154E-03    0.204E-03
RMM:  20    -0.191729587071E+03   -0.51887E-05   -0.23761E-07  1843   0.722E-04    0.173E-03
RMM:  21    -0.191729591852E+03   -0.47817E-05   -0.15936E-07  1639   0.607E-04    0.922E-04
RMM:  22    -0.191729598135E+03   -0.62829E-05   -0.19609E-07  1642   0.579E-04    0.112E-03
RMM:  23    -0.191729603981E+03   -0.58452E-05   -0.25212E-07  1595   0.601E-04    0.598E-04
RMM:  24    -0.191729607586E+03   -0.36054E-05   -0.21003E-07  1557   0.543E-04    0.635E-04
RMM:  25    -0.191729609122E+03   -0.15357E-05   -0.11232E-07  1120   0.416E-04    0.384E-04
RMM:  26    -0.191729610359E+03   -0.12376E-05   -0.12185E-07  1144   0.423E-04    0.259E-04
RMM:  27    -0.191729610646E+03   -0.28688E-06   -0.29461E-08   618   0.334E-04
   3 F= -.19172961E+03 E0= -.19160436E+03  d E =-.301774E+01
       N       E                     dE             d eps       ncg     rms          rms(c)
DAV:   1    -0.191858815683E+03   -0.12921E+00   -0.39216E+02  3672   0.307E+01    0.273E+00
RMM:   2    -0.192278382515E+03   -0.41957E+00   -0.43974E+00  3687   0.447E+00    0.178E+00
RMM:   3    -0.192380724210E+03   -0.10234E+00   -0.32363E-01  3710   0.984E-01    0.375E+00
RMM:   4    -0.192272510817E+03    0.10821E+00   -0.89528E-02  3687   0.503E-01    0.156E+00
RMM:   5    -0.192280866824E+03   -0.83560E-02   -0.38364E-02  3684   0.298E-01    0.183E+00
RMM:   6    -0.192262217317E+03    0.18650E-01   -0.56445E-02  3683   0.373E-01    0.108E+00
RMM:   7    -0.192250130186E+03    0.12087E-01   -0.21275E-02  3682   0.233E-01    0.398E-01
RMM:   8    -0.192248831771E+03    0.12984E-02   -0.55377E-03  3683   0.117E-01    0.333E-01
RMM:   9    -0.192247557789E+03    0.12740E-02   -0.20091E-03  3681   0.714E-02    0.155E-01
RMM:  10    -0.192247380293E+03    0.17750E-03   -0.54826E-04  3682   0.365E-02    0.875E-02
RMM:  11    -0.192247313942E+03    0.66351E-04   -0.16752E-04  3683   0.203E-02    0.449E-02
RMM:  12    -0.192247308171E+03    0.57709E-05   -0.63926E-05  3683   0.127E-02    0.343E-02
RMM:  13    -0.192247303352E+03    0.48191E-05   -0.25016E-05  3682   0.813E-03    0.210E-02
RMM:  14    -0.192247302035E+03    0.13174E-05   -0.74931E-06  3135   0.455E-03    0.126E-02
RMM:  15    -0.192247301764E+03    0.27053E-06   -0.20404E-06  2160   0.253E-03
   4 F= -.19224730E+03 E0= -.19212382E+03  d E =-.517691E+00
       N       E                     dE             d eps       ncg     rms          rms(c)
DAV:   1    -0.192238943028E+03    0.83590E-02   -0.35481E+01  3744   0.919E+00    0.727E-01
RMM:   2    -0.192277861675E+03   -0.38919E-01   -0.40562E-01  3686   0.136E+00    0.563E-01
RMM:   3    -0.192285688793E+03   -0.78271E-02   -0.30148E-02  3711   0.301E-01    0.107E+00
RMM:   4    -0.192277652690E+03    0.80361E-02   -0.72102E-03  3687   0.142E-01    0.544E-01
RMM:   5    -0.192275842628E+03    0.18101E-02   -0.23692E-03  3688   0.761E-02    0.356E-01
RMM:   6    -0.192275647044E+03    0.19558E-03   -0.51225E-03  3682   0.112E-01    0.287E-01
RMM:   7    -0.192274872996E+03    0.77405E-03   -0.20334E-03  3682   0.717E-02    0.127E-01
RMM:   8    -0.192274743460E+03    0.12954E-03   -0.46663E-04  3685   0.345E-02    0.101E-01
RMM:   9    -0.192274627088E+03    0.11637E-03   -0.18044E-04  3682   0.215E-02    0.486E-02
RMM:  10    -0.192274605802E+03    0.21286E-04   -0.56600E-05  3681   0.116E-02    0.266E-02
RMM:  11    -0.192274598979E+03    0.68227E-05   -0.19664E-05  3678   0.681E-03    0.135E-02
RMM:  12    -0.192274599105E+03   -0.12552E-06   -0.73556E-06  3584   0.424E-03
   5 F= -.19227460E+03 E0= -.19215162E+03  d E =-.544988E+00
       N       E                     dE             d eps       ncg     rms          rms(c)
DAV:   1    -0.192292215530E+03   -0.17617E-01   -0.58404E+01  3672   0.118E+01    0.102E+00
RMM:   2    -0.192354271513E+03   -0.62056E-01   -0.64344E-01  3685   0.171E+00    0.737E-01
RMM:   3    -0.192377813871E+03   -0.23542E-01   -0.49194E-02  3703   0.380E-01    0.168E+00
RMM:   4    -0.192355215761E+03    0.22598E-01   -0.15004E-02  3686   0.196E-01    0.767E-01
RMM:   5    -0.192351514438E+03    0.37013E-02   -0.64136E-03  3681   0.127E-01    0.483E-01
RMM:   6    -0.192351706639E+03   -0.19220E-03   -0.83033E-03  3683   0.144E-01    0.441E-01
RMM:   7    -0.192349701237E+03    0.20054E-02   -0.35228E-03  3681   0.950E-02    0.141E-01
RMM:   8    -0.192349591577E+03    0.10966E-03   -0.70654E-04  3684   0.425E-02    0.119E-01
RMM:   9    -0.192349406372E+03    0.18521E-03   -0.29037E-04  3680   0.273E-02    0.513E-02
RMM:  10    -0.192349381866E+03    0.24506E-04   -0.81011E-05  3681   0.140E-02    0.338E-02
RMM:  11    -0.192349369866E+03    0.12000E-04   -0.25585E-05  3679   0.790E-03    0.168E-02
RMM:  12    -0.192349369758E+03    0.10768E-06   -0.10996E-05  3672   0.516E-03    0.147E-02
RMM:  13    -0.192349368447E+03    0.13112E-05   -0.55213E-06  3305   0.379E-03    0.706E-03
RMM:  14    -0.192349368594E+03   -0.14676E-06   -0.11096E-06  1988   0.193E-03
   6 F= -.19234937E+03 E0= -.19222679E+03  d E =-.747695E-01
       N       E                     dE             d eps       ncg     rms          rms(c)
DAV:   1    -0.192349122111E+03    0.24634E-03   -0.26972E+00  3732   0.253E+00    0.212E-01
RMM:   2    -0.192351969083E+03   -0.28470E-02   -0.29759E-02  3685   0.369E-01    0.157E-01
RMM:   3    -0.192352916278E+03   -0.94719E-03   -0.22073E-03  3701   0.808E-02    0.342E-01
RMM:   4    -0.192351981312E+03    0.93497E-03   -0.64630E-04  3686   0.410E-02    0.163E-01
RMM:   5    -0.192351842103E+03    0.13921E-03   -0.27882E-04  3680   0.265E-02    0.104E-01
RMM:   6    -0.192351847395E+03   -0.52921E-05   -0.38533E-04  3683   0.310E-02    0.910E-02
RMM:   7    -0.192351763445E+03    0.83950E-04   -0.16544E-04  3681   0.206E-02    0.316E-02
RMM:   8    -0.192351758319E+03    0.51255E-05   -0.32235E-05  3678   0.912E-03    0.256E-02
RMM:   9    -0.192351750174E+03    0.81454E-05   -0.13280E-05  3672   0.586E-03    0.116E-02
RMM:  10    -0.192351748801E+03    0.13722E-05   -0.37973E-06  2666   0.311E-03    0.788E-03
RMM:  11    -0.192351748114E+03    0.68725E-06   -0.14675E-06  1973   0.217E-03
   7 F= -.19235175E+03 E0= -.19222923E+03  d E =-.771490E-01
       N       E                     dE             d eps       ncg     rms          rms(c)
DAV:   1    -0.192355977482E+03   -0.42287E-02   -0.63692E+00  3684   0.389E+00    0.264E-01
RMM:   2    -0.192362723420E+03   -0.67459E-02   -0.71768E-02  3683   0.571E-01    0.215E-01
RMM:   3    -0.192364110044E+03   -0.13866E-02   -0.46313E-03  3726   0.119E-01    0.397E-01
RMM:   4    -0.192362734930E+03    0.13751E-02   -0.11001E-03  3684   0.534E-02    0.200E-01
RMM:   5    -0.192362605308E+03    0.12962E-03   -0.60202E-04  3682   0.389E-02    0.176E-01
RMM:   6    -0.192362451957E+03    0.15335E-03   -0.75368E-04  3681   0.429E-02    0.126E-01
RMM:   7    -0.192362386757E+03    0.65200E-04   -0.46983E-04  3684   0.344E-02    0.778E-02
RMM:   8    -0.192362338546E+03    0.48211E-04   -0.97968E-05  3682   0.161E-02    0.379E-02
RMM:   9    -0.192362323539E+03    0.15008E-04   -0.31382E-05  3677   0.880E-03    0.270E-02
RMM:  10    -0.192362311593E+03    0.11945E-04   -0.23518E-05  3677   0.743E-03    0.135E-02
RMM:  11    -0.192362309820E+03    0.17729E-05   -0.55021E-06  3147   0.365E-03    0.847E-03
RMM:  12    -0.192362309181E+03    0.63915E-06   -0.39802E-06  2500   0.319E-03
   8 F= -.19236231E+03 E0= -.19223974E+03  d E =-.105611E-01
       N       E                     dE             d eps       ncg     rms          rms(c)
DAV:   1    -0.192361418388E+03    0.89143E-03   -0.32743E+00  3684   0.279E+00    0.187E-01
RMM:   2    -0.192364880832E+03   -0.34624E-02   -0.36880E-02  3683   0.410E-01    0.152E-01
RMM:   3    -0.192365597951E+03   -0.71712E-03   -0.23581E-03  3728   0.849E-02    0.286E-01
RMM:   4    -0.192364863054E+03    0.73490E-03   -0.54800E-04  3684   0.377E-02    0.137E-01
RMM:   5    -0.192364811457E+03    0.51598E-04   -0.30472E-04  3681   0.278E-02    0.123E-01
RMM:   6    -0.192364744151E+03    0.67305E-04   -0.38488E-04  3681   0.307E-02    0.927E-02
RMM:   7    -0.192364707358E+03    0.36793E-04   -0.24155E-04  3683   0.247E-02    0.544E-02
RMM:   8    -0.192364683698E+03    0.23659E-04   -0.49290E-05  3678   0.114E-02    0.258E-02
RMM:   9    -0.192364676887E+03    0.68114E-05   -0.15487E-05  3672   0.616E-03    0.202E-02
RMM:  10    -0.192364670451E+03    0.64361E-05   -0.11752E-05  3672   0.528E-03    0.932E-03
RMM:  11    -0.192364669594E+03    0.85695E-06   -0.26198E-06  2181   0.263E-03
   9 F= -.19236467E+03 E0= -.19224207E+03  d E =-.129215E-01
       N       E                     dE             d eps       ncg     rms          rms(c)
DAV:   1    -0.192366080944E+03   -0.14105E-02   -0.58997E+00  3672   0.373E+00    0.193E-01
RMM:   2    -0.192372628348E+03   -0.65474E-02   -0.65471E-02  3682   0.552E-01    0.260E-01
RMM:   3    -0.192372911248E+03   -0.28290E-03   -0.43736E-03  3804   0.116E-01    0.275E-01
RMM:   4    -0.192372326433E+03    0.58481E-03   -0.59159E-04  3679   0.402E-02    0.173E-01
RMM:   5    -0.192372169284E+03    0.15715E-03   -0.25818E-04  3685   0.262E-02    0.146E-01
RMM:   6    -0.192372068985E+03    0.10030E-03   -0.62173E-04  3682   0.383E-02    0.139E-01
RMM:   7    -0.192371992161E+03    0.76824E-04   -0.83658E-04  3682   0.448E-02    0.821E-02
RMM:   8    -0.192371972264E+03    0.19897E-04   -0.18398E-04  3682   0.215E-02    0.480E-02
RMM:   9    -0.192371953890E+03    0.18374E-04   -0.24983E-05  3676   0.815E-03    0.381E-02
RMM:  10    -0.192371933122E+03    0.20768E-04   -0.29162E-05  3675   0.823E-03    0.248E-02
RMM:  11    -0.192371925306E+03    0.78159E-05   -0.15633E-05  3674   0.595E-03    0.140E-02
RMM:  12    -0.192371922890E+03    0.24152E-05   -0.16475E-05  3676   0.599E-03    0.715E-03
RMM:  13    -0.192371922695E+03    0.19551E-06   -0.33197E-06  2336   0.293E-03
  10 F= -.19237192E+03 E0= -.19224908E+03  d E =-.725310E-02
       N       E                     dE             d eps       ncg     rms          rms(c)
DAV:   1    -0.192365937737E+03    0.59852E-02   -0.10751E+01  3672   0.504E+00    0.259E-01
RMM:   2    -0.192377890156E+03   -0.11952E-01   -0.11906E-01  3682   0.744E-01    0.354E-01
RMM:   3    -0.192378348479E+03   -0.45832E-03   -0.79549E-03  3800   0.157E-01    0.365E-01
RMM:   4    -0.192377325014E+03    0.10235E-02   -0.10596E-03  3679   0.538E-02    0.235E-01
RMM:   5    -0.192377018883E+03    0.30613E-03   -0.44661E-04  3686   0.345E-02    0.195E-01
RMM:   6    -0.192376835992E+03    0.18289E-03   -0.11446E-03  3682   0.519E-02    0.191E-01
RMM:   7    -0.192376670239E+03    0.16575E-03   -0.15398E-03  3682   0.608E-02    0.110E-01
RMM:   8    -0.192376637051E+03    0.33188E-04   -0.33921E-04  3682   0.292E-02    0.657E-02
RMM:   9    -0.192376602860E+03    0.34191E-04   -0.45564E-05  3681   0.110E-02    0.517E-02
RMM:  10    -0.192376564707E+03    0.38153E-04   -0.54645E-05  3676   0.113E-02    0.337E-02
RMM:  11    -0.192376550464E+03    0.14244E-04   -0.28157E-05  3680   0.797E-03    0.190E-02
RMM:  12    -0.192376546078E+03    0.43857E-05   -0.30321E-05  3679   0.812E-03    0.997E-03
RMM:  13    -0.192376545694E+03    0.38400E-06   -0.68519E-06  3408   0.399E-03
  11 F= -.19237655E+03 E0= -.19225338E+03  d E =-.118761E-01
       N       E                     dE             d eps       ncg     rms          rms(c)
DAV:   1    -0.192375977921E+03    0.56816E-03   -0.81960E-01  3744   0.139E+00    0.709E-02
RMM:   2    -0.192376879625E+03   -0.90170E-03   -0.90591E-03  3682   0.206E-01    0.985E-02
RMM:   3    -0.192376902820E+03   -0.23195E-04   -0.60479E-04  3809   0.433E-02    0.993E-02
RMM:   4    -0.192376828494E+03    0.74326E-04   -0.78332E-05  3679   0.147E-02    0.648E-02
RMM:   5    -0.192376808296E+03    0.20198E-04   -0.32470E-05  3685   0.932E-03    0.541E-02
RMM:   6    -0.192376798719E+03    0.95767E-05   -0.89007E-05  3682   0.145E-02    0.532E-02
RMM:   7    -0.192376789759E+03    0.89605E-05   -0.12297E-04  3680   0.172E-02    0.313E-02
RMM:   8    -0.192376787680E+03    0.20785E-05   -0.26681E-05  3672   0.818E-03    0.186E-02
RMM:   9    -0.192376785056E+03    0.26248E-05   -0.33491E-06  2605   0.306E-03    0.146E-02
RMM:  10    -0.192376781953E+03    0.31026E-05   -0.44473E-06  2997   0.335E-03    0.921E-03
RMM:  11    -0.192376780971E+03    0.98158E-06   -0.20817E-06  1960   0.247E-03
  12 F= -.19237678E+03 E0= -.19225351E+03  d E =-.121114E-01
       N       E                     dE             d eps       ncg     rms          rms(c)
DAV:   1    -0.192374108550E+03    0.26734E-02   -0.77573E+00  3672   0.429E+00    0.220E-01
RMM:   2    -0.192382650162E+03   -0.85416E-02   -0.86976E-02  3684   0.634E-01    0.272E-01
RMM:   3    -0.192383050475E+03   -0.40031E-03   -0.56598E-03  3750   0.132E-01    0.308E-01
RMM:   4    -0.192382355914E+03    0.69456E-03   -0.73304E-04  3676   0.451E-02    0.188E-01
RMM:   5    -0.192382184808E+03    0.17111E-03   -0.34253E-04  3686   0.298E-02    0.168E-01
RMM:   6    -0.192382034173E+03    0.15064E-03   -0.70501E-04  3682   0.408E-02    0.156E-01
RMM:   7    -0.192381922984E+03    0.11119E-03   -0.10468E-03  3680   0.500E-02    0.948E-02
RMM:   8    -0.192381909126E+03    0.13858E-04   -0.26481E-04  3680   0.257E-02    0.560E-02
RMM:   9    -0.192381885402E+03    0.23724E-04   -0.35357E-05  3684   0.968E-03    0.425E-02
RMM:  10    -0.192381859747E+03    0.25655E-04   -0.35702E-05  3677   0.916E-03    0.284E-02
RMM:  11    -0.192381849620E+03    0.10128E-04   -0.20281E-05  3674   0.677E-03    0.165E-02
RMM:  12    -0.192381846651E+03    0.29689E-05   -0.19077E-05  3676   0.646E-03    0.908E-03
RMM:  13    -0.192381846395E+03    0.25595E-06   -0.63472E-06  3346   0.381E-03
  13 F= -.19238185E+03 E0= -.19225829E+03  d E =-.506542E-02
       N       E                     dE             d eps       ncg     rms          rms(c)
DAV:   1    -0.192380609706E+03    0.12369E-02   -0.20078E+00  3684   0.218E+00    0.111E-01
RMM:   2    -0.192382803761E+03   -0.21941E-02   -0.22445E-02  3684   0.322E-01    0.139E-01
RMM:   3    -0.192382893519E+03   -0.89758E-04   -0.14598E-03  3754   0.673E-02    0.156E-01
RMM:   4    -0.192382712822E+03    0.18070E-03   -0.18445E-04  3676   0.227E-02    0.945E-02
RMM:   5    -0.192382675159E+03    0.37664E-04   -0.85517E-05  3686   0.149E-02    0.855E-02
RMM:   6    -0.192382642483E+03    0.32676E-04   -0.18886E-04  3682   0.211E-02    0.803E-02
RMM:   7    -0.192382618955E+03    0.23528E-04   -0.27815E-04  3681   0.258E-02    0.488E-02
RMM:   8    -0.192382616400E+03    0.25548E-05   -0.68876E-05  3681   0.131E-02    0.289E-02
RMM:   9    -0.192382610294E+03    0.61064E-05   -0.90182E-06  3317   0.492E-03    0.220E-02
RMM:  10    -0.192382603247E+03    0.70466E-05   -0.98675E-06  3672   0.483E-03    0.143E-02
RMM:  11    -0.192382600742E+03    0.25058E-05   -0.50574E-06  3038   0.345E-03    0.860E-03
RMM:  12    -0.192382599995E+03    0.74664E-06   -0.54709E-06  3340   0.360E-03
  14 F= -.19238260E+03 E0= -.19225888E+03  d E =-.581902E-02
       N       E                     dE             d eps       ncg     rms          rms(c)
DAV:   1    -0.192382010436E+03    0.59031E-03   -0.27513E+00  3672   0.256E+00    0.141E-01
RMM:   2    -0.192385074642E+03   -0.30642E-02   -0.30777E-02  3683   0.376E-01    0.173E-01
RMM:   3    -0.192385301378E+03   -0.22674E-03   -0.21084E-03  3730   0.796E-02    0.222E-01
RMM:   4    -0.192384900054E+03    0.40132E-03   -0.30014E-04  3682   0.288E-02    0.112E-01
RMM:   5    -0.192384838057E+03    0.61998E-04   -0.12449E-04  3685   0.181E-02    0.929E-02
RMM:   6    -0.192384816958E+03    0.21099E-04   -0.20663E-04  3682   0.224E-02    0.911E-02
RMM:   7    -0.192384766256E+03    0.50701E-04   -0.36719E-04  3681   0.296E-02    0.410E-02
RMM:   8    -0.192384765457E+03    0.79963E-06   -0.57474E-05  3676   0.121E-02    0.290E-02
RMM:   9    -0.192384758806E+03    0.66505E-05   -0.10475E-05  3591   0.529E-03    0.193E-02
RMM:  10    -0.192384753962E+03    0.48438E-05   -0.76853E-06  3658   0.432E-03    0.140E-02
RMM:  11    -0.192384751426E+03    0.25359E-05   -0.47124E-06  2956   0.337E-03    0.750E-03
RMM:  12    -0.192384750944E+03    0.48275E-06   -0.33359E-06  2238   0.303E-03
  15 F= -.19238475E+03 E0= -.19226080E+03  d E =-.215095E-02
       N       E                     dE             d eps       ncg     rms          rms(c)
DAV:   1    -0.192384644106E+03    0.10732E-03   -0.32842E-01  3744   0.885E-01    0.487E-02
RMM:   2    -0.192385010393E+03   -0.36629E-03   -0.36783E-03  3683   0.130E-01    0.622E-02
RMM:   3    -0.192385034600E+03   -0.24206E-04   -0.25367E-04  3730   0.276E-02    0.779E-02
RMM:   4    -0.192384983468E+03    0.51132E-04   -0.35740E-05  3682   0.995E-03    0.382E-02
RMM:   5    -0.192384978221E+03    0.52472E-05   -0.14557E-05  3677   0.624E-03    0.322E-02
RMM:   6    -0.192384977513E+03    0.70788E-06   -0.25158E-05  3680   0.783E-03    0.321E-02
RMM:   7    -0.192384972431E+03    0.50817E-05   -0.45301E-05  3680   0.104E-02    0.142E-02
RMM:   8    -0.192384972496E+03   -0.65054E-07   -0.67363E-06  3155   0.419E-03
  16 F= -.19238497E+03 E0= -.19226093E+03  d E =-.237250E-02
       N       E                     dE             d eps       ncg     rms          rms(c)
DAV:   1    -0.192384801132E+03    0.17130E-03   -0.16659E+00  3672   0.199E+00    0.963E-02
RMM:   2    -0.192386722556E+03   -0.19214E-02   -0.18573E-02  3680   0.293E-01    0.152E-01
RMM:   3    -0.192386771637E+03   -0.49081E-04   -0.12979E-03  3744   0.625E-02    0.158E-01
RMM:   4    -0.192386544527E+03    0.22711E-03   -0.16826E-04  3677   0.217E-02    0.764E-02
RMM:   5    -0.192386512093E+03    0.32433E-04   -0.45654E-05  3690   0.114E-02    0.612E-02
RMM:   6    -0.192386506552E+03    0.55412E-05   -0.90577E-05  3682   0.149E-02    0.688E-02
RMM:   7    -0.192386474685E+03    0.31867E-04   -0.25179E-04  3680   0.243E-02    0.266E-02
RMM:   8    -0.192386479227E+03   -0.45421E-05   -0.37359E-05  3673   0.960E-03    0.220E-02
RMM:   9    -0.192386475733E+03    0.34935E-05   -0.50399E-06  2889   0.378E-03    0.152E-02
RMM:  10    -0.192386473735E+03    0.19982E-05   -0.26106E-06  2260   0.272E-03    0.121E-02
RMM:  11    -0.192386471816E+03    0.19193E-05   -0.46670E-06  3014   0.351E-03    0.640E-03
RMM:  12    -0.192386471495E+03    0.32043E-06   -0.24658E-06  1993   0.267E-03
  17 F= -.19238647E+03 E0= -.19226232E+03  d E =-.149900E-02
       N       E                     dE             d eps       ncg     rms          rms(c)
DAV:   1    -0.192384291298E+03    0.21805E-02   -0.32019E+00  3672   0.276E+00    0.131E-01
RMM:   2    -0.192388001613E+03   -0.37103E-02   -0.35490E-02  3681   0.406E-01    0.217E-01
RMM:   3    -0.192388038344E+03   -0.36731E-04   -0.24614E-03  3748   0.862E-02    0.213E-01
RMM:   4    -0.192387625653E+03    0.41269E-03   -0.30571E-04  3676   0.293E-02    0.105E-01
RMM:   5    -0.192387562226E+03    0.63427E-04   -0.80165E-05  3690   0.152E-02    0.872E-02
RMM:   6    -0.192387546326E+03    0.15900E-04   -0.18488E-04  3682   0.212E-02    0.100E-01
RMM:   7    -0.192387468218E+03    0.78108E-04   -0.53765E-04  3680   0.355E-02    0.363E-02
RMM:   8    -0.192387475616E+03   -0.73981E-05   -0.69340E-05  3674   0.131E-02    0.299E-02
RMM:   9    -0.192387468691E+03    0.69245E-05   -0.94802E-06  3560   0.512E-03    0.208E-02
RMM:  10    -0.192387464874E+03    0.38177E-05   -0.56969E-06  3075   0.378E-03    0.165E-02
RMM:  11    -0.192387461418E+03    0.34552E-05   -0.87618E-06  3670   0.459E-03    0.881E-03
RMM:  12    -0.192387460873E+03    0.54516E-06   -0.45088E-06  2909   0.327E-03
  18 F= -.19238746E+03 E0= -.19226314E+03  d E =-.248838E-02
       N       E                     dE             d eps       ncg     rms          rms(c)
DAV:   1    -0.192387631303E+03   -0.16988E-03   -0.96748E-01  3684   0.152E+00    0.678E-02
RMM:   2    -0.192388759532E+03   -0.11282E-02   -0.10613E-02  3679   0.223E-01    0.127E-01
RMM:   3    -0.192388718700E+03    0.40832E-04   -0.72968E-04  3779   0.472E-02    0.103E-01
RMM:   4    -0.192388624674E+03    0.94026E-04   -0.83516E-05  3676   0.155E-02    0.579E-02
RMM:   5    -0.192388607473E+03    0.17201E-04   -0.19539E-05  3684   0.762E-03    0.491E-02
RMM:   6    -0.192388606515E+03    0.95820E-06   -0.12080E-04  3685   0.169E-02    0.614E-02
RMM:   7    -0.192388583854E+03    0.22661E-04   -0.12772E-04  3678   0.173E-02    0.226E-02
RMM:   8    -0.192388586445E+03   -0.25908E-05   -0.18168E-05  3672   0.673E-03    0.175E-02
RMM:   9    -0.192388584347E+03    0.20977E-05   -0.21283E-06  2210   0.254E-03    0.128E-02
RMM:  10    -0.192388582800E+03    0.15472E-05   -0.22221E-06  2062   0.255E-03    0.104E-02
RMM:  11    -0.192388581344E+03    0.14557E-05   -0.50260E-06  3084   0.361E-03    0.503E-03
RMM:  12    -0.192388581201E+03    0.14295E-06   -0.14225E-06  1946   0.207E-03
  19 F= -.19238858E+03 E0= -.19226423E+03  d E =-.112033E-02
       N       E                     dE             d eps       ncg     rms          rms(c)
DAV:   1    -0.192386206314E+03    0.23750E-02   -0.40493E+00  3672   0.310E+00    0.139E-01
RMM:   2    -0.192390923125E+03   -0.47168E-02   -0.44386E-02  3679   0.456E-01    0.254E-01
RMM:   3    -0.192390812388E+03    0.11074E-03   -0.30372E-03  3782   0.962E-02    0.211E-01
RMM:   4    -0.192390411390E+03    0.40100E-03   -0.34953E-04  3676   0.315E-02    0.118E-01
RMM:   5    -0.192390328521E+03    0.82869E-04   -0.83793E-05  3689   0.157E-02    0.100E-01
RMM:   6    -0.192390298785E+03    0.29736E-04   -0.52065E-04  3682   0.351E-02    0.124E-01
RMM:   7    -0.192390196205E+03    0.10258E-03   -0.51014E-04  3684   0.346E-02    0.465E-02
RMM:   8    -0.192390205883E+03   -0.96780E-05   -0.74938E-05  3684   0.137E-02    0.364E-02
RMM:   9    -0.192390196809E+03    0.90736E-05   -0.97378E-06  3584   0.522E-03    0.264E-02
RMM:  10    -0.192390190304E+03    0.65053E-05   -0.99836E-06  3668   0.489E-03    0.208E-02
RMM:  11    -0.192390184342E+03    0.59620E-05   -0.19265E-05  3676   0.658E-03    0.103E-02
RMM:  12    -0.192390183720E+03    0.62134E-06   -0.53813E-06  3117   0.354E-03
  20 F= -.19239018E+03 E0= -.19226577E+03  d E =-.272285E-02
       N       E                     dE             d eps       ncg     rms          rms(c)
DAV:   1    -0.192374627011E+03    0.15557E-01   -0.16201E+01  3672   0.621E+00    0.278E-01
RMM:   2    -0.192393639163E+03   -0.19012E-01   -0.17758E-01  3679   0.912E-01    0.512E-01
RMM:   3    -0.192393245684E+03    0.39348E-03   -0.12164E-02  3779   0.192E-01    0.422E-01
RMM:   4    -0.192391595478E+03    0.16502E-02   -0.14039E-03  3676   0.630E-02    0.236E-01
RMM:   5    -0.192391226898E+03    0.36858E-03   -0.33756E-04  3690   0.315E-02    0.200E-01
RMM:   6    -0.192391028825E+03    0.19807E-03   -0.22059E-03  3682   0.722E-02    0.247E-01
RMM:   7    -0.192390588455E+03    0.44037E-03   -0.19349E-03  3685   0.674E-02    0.912E-02
RMM:   8    -0.192390619866E+03   -0.31411E-04   -0.28681E-04  3685   0.268E-02    0.727E-02
RMM:   9    -0.192390581778E+03    0.38087E-04   -0.38605E-05  3686   0.104E-02    0.522E-02
RMM:  10    -0.192390556089E+03    0.25689E-04   -0.40623E-05  3680   0.984E-03    0.411E-02
RMM:  11    -0.192390532837E+03    0.23252E-04   -0.76875E-05  3678   0.132E-02    0.201E-02
RMM:  12    -0.192390530428E+03    0.24093E-05   -0.20741E-05  3673   0.685E-03    0.867E-03
RMM:  13    -0.192390530834E+03   -0.40641E-06   -0.45908E-06  2937   0.337E-03
  21 F= -.19239053E+03 E0= -.19226597E+03  d E =-.306996E-02
       N       E                     dE             d eps       ncg     rms          rms(c)
DAV:   1    -0.192387686448E+03    0.28440E-02   -0.32470E+00  3672   0.278E+00    0.125E-01
RMM:   2    -0.192391447428E+03   -0.37610E-02   -0.35708E-02  3679   0.409E-01    0.221E-01
RMM:   3    -0.192391398021E+03    0.49407E-04   -0.24467E-03  3779   0.863E-02    0.193E-01
RMM:   4    -0.192391068541E+03    0.32948E-03   -0.28956E-04  3676   0.286E-02    0.106E-01
RMM:   5    -0.192391000482E+03    0.68059E-04   -0.71957E-05  3689   0.145E-02    0.881E-02
RMM:   6    -0.192390970690E+03    0.29791E-04   -0.42388E-04  3682   0.316E-02    0.103E-01
RMM:   7    -0.192390907035E+03    0.63655E-04   -0.37069E-04  3684   0.295E-02    0.441E-02
RMM:   8    -0.192390912152E+03   -0.51171E-05   -0.57897E-05  3683   0.120E-02    0.323E-02
RMM:   9    -0.192390905032E+03    0.71201E-05   -0.76898E-06  3227   0.466E-03    0.232E-02
RMM:  10    -0.192390899779E+03    0.52530E-05   -0.87271E-06  3654   0.459E-03    0.180E-02
RMM:  11    -0.192390895546E+03    0.42334E-05   -0.14396E-05  3677   0.571E-03    0.896E-03
RMM:  12    -0.192390895049E+03    0.49742E-06   -0.38807E-06  2651   0.309E-03
  22 F= -.19239090E+03 E0= -.19226638E+03  d E =-.343418E-02
       N       E                     dE             d eps       ncg     rms          rms(c)
DAV:   1    -0.192389117105E+03    0.17784E-02   -0.29969E+00  3672   0.267E+00    0.116E-01
RMM:   2    -0.192392528374E+03   -0.34113E-02   -0.32835E-02  3679   0.392E-01    0.199E-01
RMM:   3    -0.192392527629E+03    0.74523E-06   -0.22234E-03  3773   0.824E-02    0.184E-01
RMM:   4    -0.192392227149E+03    0.30048E-03   -0.24986E-04  3673   0.266E-02    0.981E-02
RMM:   5    -0.192392177440E+03    0.49709E-04   -0.61838E-05  3689   0.134E-02    0.865E-02
RMM:   6    -0.192392162452E+03    0.14988E-04   -0.22583E-04  3682   0.233E-02    0.104E-01
RMM:   7    -0.192392080854E+03    0.81599E-04   -0.46981E-04  3683   0.332E-02    0.377E-02
RMM:   8    -0.192392090946E+03   -0.10092E-04   -0.70673E-05  3679   0.131E-02    0.303E-02
RMM:   9    -0.192392087699E+03    0.32473E-05   -0.69036E-06  3159   0.445E-03    0.232E-02
RMM:  10    -0.192392082938E+03    0.47608E-05   -0.59060E-06  3107   0.391E-03    0.186E-02
RMM:  11    -0.192392078153E+03    0.47849E-05   -0.16260E-05  3677   0.612E-03    0.889E-03
RMM:  12    -0.192392077603E+03    0.55035E-06   -0.45813E-06  2915   0.331E-03
  23 F= -.19239208E+03 E0= -.19226745E+03  d E =-.118255E-02
       N       E                     dE             d eps       ncg     rms          rms(c)
DAV:   1    -0.192389745142E+03    0.23330E-02   -0.29093E+00  3672   0.263E+00    0.114E-01
RMM:   2    -0.192393062948E+03   -0.33178E-02   -0.31823E-02  3679   0.386E-01    0.200E-01
RMM:   3    -0.192393036244E+03    0.26703E-04   -0.21499E-03  3773   0.811E-02    0.179E-01
RMM:   4    -0.192392753010E+03    0.28323E-03   -0.23571E-04  3673   0.259E-02    0.970E-02
RMM:   5    -0.192392705918E+03    0.47092E-04   -0.56522E-05  3688   0.129E-02    0.866E-02
RMM:   6    -0.192392690591E+03    0.15327E-04   -0.22716E-04  3681   0.234E-02    0.105E-01
RMM:   7    -0.192392608839E+03    0.81752E-04   -0.47923E-04  3682   0.335E-02    0.374E-02
RMM:   8    -0.192392618953E+03   -0.10114E-04   -0.70012E-05  3678   0.131E-02    0.300E-02
RMM:   9    -0.192392615690E+03    0.32629E-05   -0.66558E-06  3125   0.437E-03    0.233E-02
RMM:  10    -0.192392611128E+03    0.45623E-05   -0.55366E-06  3041   0.380E-03    0.190E-02
RMM:  11    -0.192392606074E+03    0.50540E-05   -0.16491E-05  3674   0.618E-03    0.872E-03
RMM:  12    -0.192392605553E+03    0.52100E-06   -0.50334E-06  3039   0.344E-03
  24 F= -.19239261E+03 E0= -.19226785E+03  d E =-.171050E-02
       N       E                     dE             d eps       ncg     rms          rms(c)
DAV:   1    -0.192392368704E+03    0.23737E-03   -0.27136E-01  3744   0.803E-01    0.343E-02
RMM:   2    -0.192392675440E+03   -0.30674E-03   -0.29599E-03  3680   0.118E-01    0.622E-02
RMM:   3    -0.192392667015E+03    0.84259E-05   -0.19921E-04  3776   0.247E-02    0.539E-02
RMM:   4    -0.192392642066E+03    0.24949E-04   -0.21074E-05  3673   0.777E-03    0.298E-02
RMM:   5    -0.192392639100E+03    0.29659E-05   -0.46537E-06  2823   0.378E-03    0.271E-02
RMM:   6    -0.192392639674E+03   -0.57420E-06   -0.22609E-05  3678   0.750E-03    0.328E-02
RMM:   7    -0.192392633934E+03    0.57403E-05   -0.48090E-05  3673   0.106E-02    0.117E-02
RMM:   8    -0.192392635033E+03   -0.10989E-05   -0.65627E-06  3199   0.405E-03    0.927E-03
RMM:   9    -0.192392634727E+03    0.30568E-06   -0.72984E-07  1955   0.159E-03
  25 F= -.19239263E+03 E0= -.19226783E+03  d E =-.173968E-02
       N       E                     dE             d eps       ncg     rms          rms(c)
DAV:   1    -0.192392076872E+03    0.55816E-03   -0.11916E+00  3672   0.169E+00    0.898E-02
RMM:   2    -0.192393404307E+03   -0.13274E-02   -0.13481E-02  3681   0.248E-01    0.105E-01
RMM:   3    -0.192393521102E+03   -0.11679E-03   -0.92428E-04  3734   0.525E-02    0.144E-01
RMM:   4    -0.192393341649E+03    0.17945E-03   -0.13467E-04  3680   0.191E-02    0.684E-02
RMM:   5    -0.192393317955E+03    0.23694E-04   -0.48503E-05  3685   0.115E-02    0.546E-02
RMM:   6    -0.192393317867E+03    0.87966E-07   -0.70483E-05  3680   0.131E-02    0.593E-02
RMM:   7    -0.192393300230E+03    0.17637E-04   -0.17255E-04  3678   0.202E-02    0.229E-02
RMM:   8    -0.192393301923E+03   -0.16928E-05   -0.22038E-05  3672   0.745E-03    0.192E-02
RMM:   9    -0.192393298639E+03    0.32844E-05   -0.35112E-06  2704   0.315E-03    0.122E-02
RMM:  10    -0.192393297164E+03    0.14748E-05   -0.18855E-06  2009   0.238E-03    0.897E-03
RMM:  11    -0.192393296124E+03    0.10395E-05   -0.34636E-06  2352   0.304E-03    0.521E-03
RMM:  12    -0.192393295904E+03    0.21992E-06   -0.16468E-06  1941   0.229E-03
  26 F= -.19239330E+03 E0= -.19226844E+03  d E =-.661177E-03
       N       E                     dE             d eps       ncg     rms          rms(c)
DAV:   1    -0.192393178875E+03    0.11725E-03   -0.22181E-01  3708   0.728E-01    0.378E-02
RMM:   2    -0.192393423767E+03   -0.24489E-03   -0.24903E-03  3681   0.107E-01    0.471E-02
RMM:   3    -0.192393438121E+03   -0.14354E-04   -0.16913E-04  3735   0.225E-02    0.592E-02
RMM:   4    -0.192393407926E+03    0.30195E-04   -0.23257E-05  3679   0.800E-03    0.294E-02
RMM:   5    -0.192393404692E+03    0.32339E-05   -0.84479E-06  3397   0.480E-03    0.244E-02
RMM:   6    -0.192393405263E+03   -0.57065E-06   -0.14227E-05  3672   0.596E-03    0.260E-02
RMM:   7    -0.192393403008E+03    0.22549E-05   -0.36129E-05  3679   0.925E-03    0.105E-02
RMM:   8    -0.192393403117E+03   -0.10904E-06   -0.41113E-06  2747   0.331E-03
  27 F= -.19239340E+03 E0= -.19226853E+03  d E =-.768390E-03
       N       E                     dE             d eps       ncg     rms          rms(c)
DAV:   1    -0.192392377098E+03    0.10259E-02   -0.88645E-01  3672   0.146E+00    0.782E-02
RMM:   2    -0.192393361704E+03   -0.98461E-03   -0.10060E-02  3681   0.214E-01    0.910E-02
RMM:   3    -0.192393448349E+03   -0.86645E-04   -0.69248E-04  3733   0.454E-02    0.124E-01
RMM:   4    -0.192393319183E+03    0.12917E-03   -0.10356E-04  3678   0.167E-02    0.607E-02
RMM:   5    -0.192393299817E+03    0.19365E-04   -0.39074E-05  3685   0.102E-02    0.476E-02
RMM:   6    -0.192393298024E+03    0.17930E-05   -0.50714E-05  3680   0.112E-02    0.475E-02
RMM:   7    -0.192393288699E+03    0.93252E-05   -0.12426E-04  3681   0.172E-02    0.205E-02
RMM:   8    -0.192393289622E+03   -0.92297E-06   -0.16505E-05  3672   0.644E-03    0.168E-02
RMM:   9    -0.192393287139E+03    0.24829E-05   -0.25819E-06  2316   0.275E-03    0.107E-02
RMM:  10    -0.192393286059E+03    0.10795E-05   -0.14135E-06  1961   0.211E-03    0.773E-03
RMM:  11    -0.192393285302E+03    0.75721E-06   -0.24096E-06  1962   0.258E-03
  28 F= -.19239329E+03 E0= -.19226837E+03  d E =-.650575E-03
       N       E                     dE             d eps       ncg     rms          rms(c)
DAV:   1    -0.192392907650E+03    0.37841E-03   -0.50231E-01  3672   0.110E+00    0.570E-02
RMM:   2    -0.192393458827E+03   -0.55118E-03   -0.56214E-03  3681   0.161E-01    0.679E-02
RMM:   3    -0.192393495699E+03   -0.36871E-04   -0.37974E-04  3733   0.337E-02    0.878E-02
RMM:   4    -0.192393431041E+03    0.64658E-04   -0.53139E-05  3679   0.121E-02    0.449E-02
RMM:   5    -0.192393421572E+03    0.94690E-05   -0.20023E-05  3676   0.734E-03    0.365E-02
RMM:   6    -0.192393421868E+03   -0.29602E-06   -0.30847E-05  3680   0.871E-03    0.381E-02
RMM:   7    -0.192393415603E+03    0.62647E-05   -0.78023E-05  3680   0.136E-02    0.147E-02
RMM:   8    -0.192393416313E+03   -0.70996E-06   -0.90762E-06  3457   0.481E-03
  29 F= -.19239342E+03 E0= -.19226853E+03  d E =-.781586E-03
       N       E                     dE             d eps       ncg     rms          rms(c)
DAV:   1    -0.192393067309E+03    0.34829E-03   -0.81752E-01  3672   0.140E+00    0.648E-02
RMM:   2    -0.192393944547E+03   -0.87724E-03   -0.88752E-03  3680   0.204E-01    0.809E-02
RMM:   3    -0.192393976077E+03   -0.31531E-04   -0.56235E-04  3749   0.416E-02    0.948E-02
RMM:   4    -0.192393901526E+03    0.74552E-04   -0.68773E-05  3674   0.139E-02    0.555E-02
RMM:   5    -0.192393884344E+03    0.17182E-04   -0.20141E-05  3683   0.754E-03    0.442E-02
RMM:   6    -0.192393888744E+03   -0.43999E-05   -0.76503E-05  3682   0.136E-02    0.582E-02
RMM:   7    -0.192393864628E+03    0.24116E-04   -0.12339E-04  3682   0.171E-02    0.183E-02
RMM:   8    -0.192393868347E+03   -0.37189E-05   -0.15064E-05  3672   0.616E-03    0.163E-02
RMM:   9    -0.192393865872E+03    0.24746E-05   -0.21481E-06  2224   0.254E-03    0.112E-02
RMM:  10    -0.192393864543E+03    0.13293E-05   -0.21955E-06  1993   0.252E-03    0.899E-03
RMM:  11    -0.192393863430E+03    0.11125E-05   -0.43901E-06  2788   0.342E-03    0.347E-03
RMM:  12    -0.192393863415E+03    0.14952E-07   -0.11100E-06  1931   0.190E-03
  30 F= -.19239386E+03 E0= -.19226897E+03  d E =-.447102E-03
