unknown system                          
           1
    11.002582    0.000000    0.000000
     5.501291    9.528515    0.000000
     0.000000    0.000000   24.491785
   Au   Pd
  24  24
Direct configuration=     1
   0.25000000  0.75000000  0.59169983
   0.16666667  0.91666667  0.50000000
   0.50000000  0.00000000  0.59169983
   0.58333333  0.33333333  0.40830017
   0.50000000  0.25000000  0.59169983
   0.58333333  0.58333333  0.40830017
   0.41666667  0.66666667  0.50000000
   0.33333333  0.58333333  0.40830017
   0.50000000  0.50000000  0.59169983
   0.66666667  0.16666667  0.50000000
   0.83333333  0.33333333  0.40830017
   0.66666667  0.41666667  0.50000000
   0.75000000  0.25000000  0.59169983
   0.66666667  0.66666667  0.50000000
   0.83333333  0.83333333  0.40830017
   0.83333333  0.08333333  0.40830017
   0.25000000  0.25000000  0.59169983
   0.75000000  0.75000000  0.59169983
   0.08333333  0.33333333  0.40830017
   0.91666667  0.41666667  0.50000000
   0.00000000  0.25000000  0.59169983
   0.16666667  0.16666667  0.50000000
   0.00000000  0.75000000  0.59169983
   0.16666667  0.41666667  0.50000000
   0.33333333  0.33333333  0.40830017
   0.91666667  0.16666667  0.50000000
   0.75000000  0.50000000  0.59169983
   0.00000000  0.00000000  0.59169983
   0.83333333  0.58333333  0.40830017
   0.75000000  0.00000000  0.59169983
   0.08333333  0.58333333  0.40830017
   0.91666667  0.66666667  0.50000000
   0.50000000  0.75000000  0.59169983
   0.41666667  0.91666667  0.50000000
   0.00000000  0.50000000  0.59169983
   0.08333333  0.83333333  0.40830017
   0.91666667  0.91666667  0.50000000
   0.41666667  0.41666667  0.50000000
   0.33333333  0.08333333  0.40830017
   0.41666667  0.16666667  0.50000000
   0.58333333  0.08333333  0.40830017
   0.66666667  0.91666667  0.50000000
   0.25000000  0.00000000  0.59169983
   0.33333333  0.83333333  0.40830017
   0.25000000  0.50000000  0.59169983
   0.16666667  0.66666667  0.50000000
   0.58333333  0.83333333  0.40830017
   0.08333333  0.08333333  0.40830017
Direct configuration=     2
   0.24955964  0.75055862  0.59382095
   0.16550630  0.91740309  0.49960923
   0.49988503 -0.00076093  0.59326092
   0.58199394  0.33277740  0.40606157
   0.49951003  0.25021122  0.59357125
   0.58322933  0.58502802  0.40570650
   0.41549985  0.66814329  0.50000102
   0.33161960  0.58374827  0.40639713
   0.49959924  0.50047052  0.59392460
   0.66664543  0.16445223  0.49998425
   0.83444153  0.33266284  0.40596268
   0.66707815  0.41629641  0.50043713
   0.75134888  0.24891530  0.59387501
   0.66663546  0.66852189  0.50001947
   0.83347851  0.83247781  0.40680340
   0.83457445  0.08230655  0.40640580
   0.24985899  0.25038237  0.59386209
   0.75024975  0.74964211  0.59352493
   0.08415035  0.33330965  0.40585848
   0.91600916  0.41829458  0.50035636
  -0.00033702  0.24971143  0.59390632
   0.16842892  0.16410425  0.49961443
  -0.00018218  0.75008459  0.59323631
   0.16758080  0.41868452  0.49994816
   0.33372181  0.33276031  0.40732400
   0.91760569  0.16497027  0.50005528
   0.75005512  0.50039689  0.59311382
  -0.00025137  0.00012841  0.59271355
   0.83334933  0.58410411  0.40706466
   0.75083318 -0.00045316  0.59257366
   0.08329135  0.58366817  0.40739752
   0.91715933  0.66724686  0.49970507
   0.49983589  0.75040546  0.59290002
   0.41713251  0.91720938  0.49969925
  -0.00011082  0.50029026  0.59288548
   0.08369233  0.83317348  0.40739523
   0.91687763  0.91625422  0.50015149
   0.41500452  0.41662377  0.49992301
   0.33451154  0.08249877  0.40744269
   0.41742765  0.16591424  0.49929900
   0.58182779  0.08339668  0.40742799
   0.66630479  0.91708492  0.49970304
   0.25040293 -0.00066095  0.59287897
   0.33294406  0.83435439  0.40717670
   0.24960822  0.50014488  0.59270232
   0.16581561  0.66642100  0.49972272
   0.58262522  0.83423807  0.40744494
   0.08397155  0.08240356  0.40715160
Direct configuration=     3
   0.24825332  0.75221573  0.60011318
   0.16206412  0.91958765  0.49845003
   0.49954399 -0.00301821  0.59789183
   0.57802066  0.33112822  0.39942083
   0.49805657  0.25083781  0.59912276
   0.58292081  0.59005524  0.39801247
   0.41203851  0.67252365  0.50000406
   0.32653588  0.58497917  0.40075183
   0.49841040  0.50186631  0.60052428
   0.66658242  0.15788320  0.49993752
   0.83772897  0.33067384  0.39902858
   0.66829882  0.41519806  0.50173386
   0.75535029  0.24569758  0.60032760
   0.66654289  0.67402533  0.50007724
   0.83390918  0.82993992  0.40236329
   0.83825616  0.07926065  0.40078620
   0.24944069  0.25151664  0.60027637
   0.75099062  0.74858042  0.59893904
   0.08657400  0.33323940  0.39861531
   0.91405869  0.42312373  0.50141348
  -0.00133679  0.24885540  0.60045179
   0.17365660  0.15650292  0.49847064
  -0.00072262  0.75033551  0.59779424
   0.17029254  0.42467042  0.49979439
   0.33487422  0.33106047  0.40442824
   0.92039127  0.15993797  0.50021926
   0.75021863  0.50157425  0.59730838
  -0.00099704  0.00050934  0.59572071
   0.83339678  0.58639060  0.40339956
   0.75330476 -0.00179743  0.59516582
   0.08316682  0.58466143  0.40471983
   0.91862081  0.66896797  0.49883018
   0.49934907  0.75160825  0.59646034
   0.41851442  0.91881930  0.49880710
  -0.00043956  0.50115131  0.59640266
   0.08475727  0.83269928  0.40471077
   0.91750344  0.91503073  0.50060088
   0.41007381  0.41649653  0.49969464
   0.33800664  0.08002306  0.40489899
   0.41968509  0.16368219  0.49721951
   0.57736166  0.08358460  0.40484072
   0.66523128  0.91832564  0.49882214
   0.25159822 -0.00262164  0.59637684
   0.33178928  0.83738332  0.40384395
   0.24844600  0.50057465  0.59567616
   0.16329098  0.66569226  0.49890017
   0.58052464  0.83692192  0.40490793
   0.08586480  0.07964541  0.40374440
Direct configuration=     4
   0.24783738  0.75240349  0.60171329
   0.16375798  0.91578169  0.49900548
   0.49973282 -0.00221315  0.59916734
   0.57956121  0.33190786  0.39811353
   0.49915984  0.25020424  0.60050528
   0.58270336  0.58883981  0.39623678
   0.41280616  0.67083353  0.49984847
   0.32830439  0.58502258  0.39916695
   0.49886321  0.50160469  0.60208698
   0.66688010  0.16127427  0.49984234
   0.83659352  0.33157304  0.39762611
   0.66676513  0.41467651  0.50134865
   0.75330285  0.24661959  0.60195273
   0.66579179  0.67316720  0.50008546
   0.83329145  0.83137827  0.40080180
   0.83689638  0.07954167  0.39924933
   0.24837485  0.25117195  0.60152815
   0.75110022  0.74882633  0.60052652
   0.08703244  0.33295457  0.39715408
   0.91719286  0.42017459  0.50107738
   0.00042507  0.24888301  0.60191182
   0.17122522  0.16252754  0.49887769
  -0.00029095  0.75004990  0.59925445
   0.16779820  0.41977350  0.49987688
   0.33351239  0.33113511  0.40318862
   0.91767296  0.16324676  0.50010226
   0.74958639  0.50159418  0.59846110
   0.00025743 -0.00050230  0.59673342
   0.83362874  0.58507486  0.40239792
   0.75239644 -0.00169659  0.59610189
   0.08262701  0.58406718  0.40331133
   0.91729870  0.67087470  0.49910054
   0.49948322  0.75064213  0.59733661
   0.41942054  0.91771902  0.49929180
  -0.00000381  0.50049291  0.59736369
   0.08467794  0.83262365  0.40359517
   0.91726688  0.91389309  0.50031725
   0.41483394  0.41634578  0.49972239
   0.33676873  0.08060722  0.40325331
   0.41769371  0.16491963  0.49823902
   0.57899327  0.08283382  0.40330789
   0.66653021  0.91669527  0.49919939
   0.25075840 -0.00197362  0.59721024
   0.33183477  0.83683872  0.40273236
   0.24836527  0.50134967  0.59686273
   0.16399926  0.66917542  0.49934895
   0.58096869  0.83675143  0.40363005
   0.08632346  0.08031528  0.40223456
Direct configuration=     5
   0.24771201  0.75246009  0.60219559
   0.16426854  0.91463451  0.49917290
   0.49978974 -0.00197050  0.59955180
   0.58002555  0.33214286  0.39771948
   0.49949238  0.25001327  0.60092199
   0.58263781  0.58847346  0.39570156
   0.41303754  0.67032410  0.49980158
   0.32883745  0.58503566  0.39868925
   0.49899970  0.50152583  0.60255801
   0.66696982  0.16229639  0.49981365
   0.83625128  0.33184407  0.39720338
   0.66630285  0.41451931  0.50123254
   0.75268572  0.24689749  0.60244257
   0.66556540  0.67290855  0.50008794
   0.83310525  0.83181181  0.40033114
   0.83648652  0.07962638  0.39878610
   0.24805359  0.25106805  0.60190546
   0.75113325  0.74890046  0.60100502
   0.08717062  0.33286872  0.39671364
   0.91813755  0.41928567  0.50097608
   0.00095612  0.24889134  0.60235190
   0.17049236  0.16434346  0.49900038
  -0.00016083  0.74996381  0.59969458
   0.16704637  0.41829750  0.49990174
   0.33310191  0.33115760  0.40281498
   0.91685362  0.16424409  0.50006700
   0.74939582  0.50160019  0.59880855
   0.00063554 -0.00080723  0.59703867
   0.83369865  0.58467828  0.40209600
   0.75212266 -0.00166619  0.59638403
   0.08246430  0.58388806  0.40288678
   0.91690019  0.67144941  0.49918203
   0.49952366  0.75035093  0.59760073
   0.41969365  0.91738738  0.49943790
   0.00012753  0.50029446  0.59765336
   0.08465403  0.83260086  0.40325891
   0.91719557  0.91355018  0.50023176
   0.41626872  0.41630034  0.49973076
   0.33639560  0.08078330  0.40275727
   0.41709348  0.16529262  0.49854632
   0.57948507  0.08260753  0.40284587
   0.66692173  0.91620384  0.49931310
   0.25050526 -0.00177830  0.59746145
   0.33184849  0.83667456  0.40239731
   0.24834093  0.50158327  0.59722038
   0.16421275  0.67022530  0.49948422
   0.58110254  0.83670003  0.40324488
   0.08646171  0.08051719  0.40177947
Direct configuration=     6
   0.24842179  0.75195880  0.60286471
   0.16450292  0.91684821  0.49949512
   0.49969569 -0.00141811  0.59993564
   0.58096155  0.33257373  0.39739758
   0.49940079  0.24996706  0.60129683
   0.58270163  0.58747378  0.39513407
   0.41501110  0.66821152  0.49969112
   0.32997335  0.58456701  0.39826590
   0.49907828  0.50138803  0.60303396
   0.66689710  0.16336118  0.49964559
   0.83554226  0.33235448  0.39693305
   0.66642003  0.41560551  0.50094106
   0.75235322  0.24744508  0.60294822
   0.66636464  0.66979870  0.50003765
   0.83284775  0.83221734  0.39970547
   0.83562683  0.08046707  0.39833530
   0.24864030  0.25083610  0.60233210
   0.75098328  0.74883100  0.60155298
   0.08640023  0.33273529  0.39612361
   0.91700337  0.41859746  0.50068700
   0.00052860  0.24898364  0.60274049
   0.16898407  0.16462702  0.49915266
  -0.00013041  0.74975918  0.60023759
   0.16779505  0.41855411  0.49992096
   0.33310024  0.33170254  0.40259912
   0.91673157  0.16520254  0.49996684
   0.74951578  0.50096717  0.59882629
   0.00051087 -0.00040497  0.59724367
   0.83359357  0.58388079  0.40199662
   0.75159562 -0.00128889  0.59659196
   0.08264725  0.58356671  0.40267112
   0.91683737  0.67120530  0.49935703
   0.49948855  0.74992968  0.59778616
   0.41835237  0.91809579  0.49974710
   0.00003678  0.50018879  0.59789672
   0.08441640  0.83272546  0.40275588
   0.91614169  0.91454386  0.49998143
   0.41613253  0.41673708  0.49968493
   0.33565102  0.08106276  0.40222516
   0.41743186  0.16572177  0.49926666
   0.58022856  0.08286204  0.40247959
   0.66702593  0.91676320  0.49958213
   0.25020089 -0.00148639  0.59744465
   0.33210805  0.83609167  0.40210650
   0.24881148  0.50125861  0.59727215
   0.16549686  0.66787675  0.49977924
   0.58161162  0.83596327  0.40274571
   0.08632973  0.08109130  0.40158469
Direct configuration=     7
   0.24857438  0.75185103  0.60300856
   0.16455331  0.91732413  0.49956439
   0.49967546 -0.00129936  0.60001816
   0.58116278  0.33266636  0.39732838
   0.49938110  0.24995712  0.60137741
   0.58271535  0.58725886  0.39501206
   0.41543538  0.66775734  0.49966738
   0.33021756  0.58446626  0.39817489
   0.49909518  0.50135840  0.60313628
   0.66688146  0.16359010  0.49960946
   0.83538984  0.33246421  0.39687494
   0.66644522  0.41583902  0.50087839
   0.75228174  0.24756281  0.60305693
   0.66653647  0.66913013  0.50002683
   0.83279239  0.83230453  0.39957096
   0.83544201  0.08064780  0.39823839
   0.24876644  0.25078623  0.60242383
   0.75095103  0.74881606  0.60167078
   0.08623461  0.33270660  0.39599676
   0.91675953  0.41844951  0.50062485
   0.00043669  0.24900349  0.60282403
   0.16865981  0.16468799  0.49918540
  -0.00012386  0.74971519  0.60035433
   0.16795600  0.41860927  0.49992509
   0.33309988  0.33181969  0.40255272
   0.91670533  0.16540859  0.49994531
   0.74954157  0.50083108  0.59883010
   0.00048407 -0.00031849  0.59728774
   0.83357098  0.58370934  0.40197526
   0.75148231 -0.00120778  0.59663666
   0.08268658  0.58349762  0.40262476
   0.91682386  0.67115282  0.49939465
   0.49948100  0.74983912  0.59782602
   0.41806402  0.91824809  0.49981357
   0.00001728  0.50016607  0.59794904
   0.08436531  0.83275225  0.40264774
   0.91591512  0.91475749  0.49992762
   0.41610325  0.41683097  0.49967508
   0.33549094  0.08112283  0.40211076
   0.41750461  0.16581403  0.49942152
   0.58038840  0.08291675  0.40240084
   0.66704834  0.91688346  0.49963997
   0.25013546 -0.00142364  0.59744104
   0.33216385  0.83596635  0.40204398
   0.24891264  0.50118881  0.59728328
   0.16577293  0.66737184  0.49984267
   0.58172107  0.83580488  0.40263840
   0.08630135  0.08121473  0.40154281
Direct configuration=     8
   0.24879410  0.75171233  0.60325957
   0.16466979  0.91721218  0.49960059
   0.49969675 -0.00159740  0.60017636
   0.58120443  0.33271482  0.39719109
   0.49938333  0.25018965  0.60151687
   0.58274058  0.58722796  0.39460631
   0.41512168  0.66798804  0.49959083
   0.33013113  0.58445689  0.39807126
   0.49915175  0.50114478  0.60334431
   0.66670025  0.16415430  0.49952309
   0.83540625  0.33235709  0.39673124
   0.66671652  0.41560154  0.50077003
   0.75224069  0.24767739  0.60321922
   0.66658707  0.66938344  0.49993586
   0.83286556  0.83191540  0.39935189
   0.83553892  0.08098444  0.39806949
   0.24881096  0.25090667  0.60260377
   0.75062721  0.74870416  0.60181010
   0.08591839  0.33272030  0.39573545
   0.91683063  0.41832518  0.50049067
   0.00004446  0.24914858  0.60298857
   0.16847219  0.16502009  0.49916411
  -0.00015463  0.74988004  0.60052490
   0.16821804  0.41890856  0.49988696
   0.33349072  0.33187585  0.40265683
   0.91656431  0.16537525  0.49988418
   0.74976025  0.50048496  0.59873014
   0.00009092 -0.00010515  0.59723308
   0.83349556  0.58374928  0.40204245
   0.75152362 -0.00100127  0.59661993
   0.08284685  0.58348597  0.40272717
   0.91683458  0.67074705  0.49945662
   0.49954723  0.74987410  0.59778146
   0.41814681  0.91821825  0.49984879
  -0.00001659  0.49999825  0.59786304
   0.08442013  0.83277475  0.40268436
   0.91622266  0.91513189  0.49975723
   0.41576276  0.41668878  0.49960438
   0.33565318  0.08119918  0.40215898
   0.41776738  0.16574182  0.49966389
   0.58007434  0.08332416  0.40249400
   0.66655294  0.91671281  0.49969448
   0.25019444 -0.00138994  0.59741788
   0.33228600  0.83568969  0.40210196
   0.24919378  0.50084713  0.59721542
   0.16604815  0.66714167  0.49991457
   0.58183274  0.83543571  0.40269487
   0.08599120  0.08126341  0.40159176
Direct configuration=     9
   0.24895164  0.75161289  0.60343955
   0.16475331  0.91713191  0.49962655
   0.49971201 -0.00181110  0.60028978
   0.58123429  0.33274957  0.39709266
   0.49938493  0.25035636  0.60161685
   0.58275867  0.58720580  0.39431540
   0.41489676  0.66815345  0.49953594
   0.33006916  0.58445018  0.39799696
   0.49919231  0.50099162  0.60349346
   0.66657033  0.16455882  0.49946116
   0.83541801  0.33228028  0.39662822
   0.66691105  0.41543126  0.50069234
   0.75221127  0.24775955  0.60333558
   0.66662336  0.66956505  0.49987063
   0.83291802  0.83163641  0.39919483
   0.83560840  0.08122580  0.39794840
   0.24884289  0.25099302  0.60273278
   0.75039503  0.74862392  0.60190999
   0.08569167  0.33273012  0.39554810
   0.91688160  0.41823604  0.50039447
  -0.00023676  0.24925262  0.60310654
   0.16833767  0.16525820  0.49914885
  -0.00017669  0.74999823  0.60064719
   0.16840591  0.41912314  0.49985962
   0.33377093  0.33191611  0.40273147
   0.91646320  0.16535135  0.49984035
   0.74991705  0.50023680  0.59865847
  -0.00019096  0.00004780  0.59719388
   0.83344150  0.58377792  0.40209063
   0.75155324 -0.00085322  0.59660793
   0.08296176  0.58347762  0.40280060
   0.91684226  0.67045611  0.49950104
   0.49959472  0.74989918  0.59774951
   0.41820616  0.91819685  0.49987403
  -0.00004087  0.49987792  0.59780138
   0.08445943  0.83279089  0.40271062
   0.91644316  0.91540033  0.49963506
   0.41551863  0.41658683  0.49955368
   0.33576950  0.08125392  0.40219355
   0.41795578  0.16569005  0.49983766
   0.57984916  0.08361626  0.40256079
   0.66619775  0.91659046  0.49973357
   0.25023673 -0.00136578  0.59740127
   0.33237358  0.83549132  0.40214353
   0.24939536  0.50060216  0.59716677
   0.16624547  0.66697664  0.49996613
   0.58191281  0.83517102  0.40273536
   0.08576883  0.08129831  0.40162685
Direct configuration=    10
   0.24900837  0.75159295  0.60370065
   0.16482814  0.91698441  0.49969143
   0.49971648 -0.00186811  0.60051619
   0.58120653  0.33294097  0.39688577
   0.49957586  0.25022104  0.60178635
   0.58275814  0.58722026  0.39379566
   0.41491097  0.66811655  0.49949014
   0.32994434  0.58451875  0.39787683
   0.49929228  0.50102664  0.60368481
   0.66652915  0.16443049  0.49939828
   0.83536945  0.33236257  0.39638846
   0.66664561  0.41570345  0.50059295
   0.75205496  0.24782299  0.60351711
   0.66642486  0.66969305  0.49979528
   0.83292178  0.83163531  0.39907219
   0.83567027  0.08102398  0.39773533
   0.24874165  0.25095981  0.60292673
   0.75044258  0.74843934  0.60203209
   0.08583681  0.33274962  0.39527548
   0.91723565  0.41813961  0.50023991
  -0.00021593  0.24918655  0.60327593
   0.16846997  0.16556478  0.49911402
  -0.00030304  0.75006799  0.60072231
   0.16832353  0.41901858  0.49979429
   0.33384853  0.33183475  0.40287109
   0.91653686  0.16520470  0.49979416
   0.74990714  0.50010472  0.59846303
  -0.00030914  0.00007723  0.59708670
   0.83344651  0.58375809  0.40214112
   0.75151000 -0.00078328  0.59644391
   0.08308491  0.58343229  0.40296748
   0.91685991  0.67056483  0.49961283
   0.49964213  0.74965182  0.59764598
   0.41808451  0.91834342  0.49988018
  -0.00005793  0.49983654  0.59764866
   0.08444239  0.83282157  0.40282173
   0.91645497  0.91536876  0.49940736
   0.41565313  0.41656085  0.49949172
   0.33590902  0.08131848  0.40239223
   0.41805347  0.16550417  0.50012898
   0.57976288  0.08367221  0.40277122
   0.66617139  0.91673143  0.49976948
   0.25004603 -0.00118561  0.59735364
   0.33239961  0.83544579  0.40224481
   0.24937655  0.50059957  0.59710226
   0.16609803  0.66738423  0.50008548
   0.58186798  0.83506778  0.40283058
   0.08582269  0.08113411  0.40173717
Direct configuration=    11
   0.24908493  0.75156603  0.60405306
   0.16492913  0.91678533  0.49977900
   0.49972252 -0.00194507  0.60082177
   0.58116906  0.33319930  0.39660653
   0.49983357  0.25003840  0.60201512
   0.58275743  0.58723977  0.39309416
   0.41493014  0.66806674  0.49942833
   0.32977587  0.58461131  0.39771469
   0.49942721  0.50107391  0.60394309
   0.66647357  0.16425728  0.49931342
   0.83530392  0.33247364  0.39606486
   0.66628734  0.41607082  0.50045880
   0.75184399  0.24790861  0.60376213
   0.66615694  0.66986581  0.49969358
   0.83292686  0.83163382  0.39890666
   0.83575378  0.08075158  0.39744776
   0.24860501  0.25091500  0.60318851
   0.75050675  0.74819021  0.60219691
   0.08603271  0.33277593  0.39490753
   0.91771351  0.41800946  0.50003131
  -0.00018782  0.24909737  0.60350456
   0.16864855  0.16597856  0.49906700
  -0.00047356  0.75016214  0.60082370
   0.16821234  0.41887746  0.49970612
   0.33395326  0.33172495  0.40305952
   0.91663628  0.16500676  0.49973182
   0.74989376  0.49992646  0.59819925
  -0.00046866  0.00011695  0.59694203
   0.83345328  0.58373133  0.40220927
   0.75145164 -0.00068889  0.59622252
   0.08325112  0.58337111  0.40319271
   0.91688374  0.67071156  0.49976371
   0.49970613  0.74931796  0.59750626
   0.41792032  0.91854124  0.49988847
  -0.00008096  0.49978068  0.59744252
   0.08441939  0.83286298  0.40297170
   0.91647090  0.91532615  0.49910003
   0.41583467  0.41652578  0.49940808
   0.33609734  0.08140561  0.40266039
   0.41818533  0.16525329  0.50052219
   0.57964643  0.08374772  0.40305524
   0.66613582  0.91692170  0.49981795
   0.24978865 -0.00094243  0.59728934
   0.33243475  0.83538433  0.40238151
   0.24935116  0.50059609  0.59701519
   0.16589903  0.66793435  0.50024657
   0.58180748  0.83492842  0.40295911
   0.08589539  0.08091249  0.40188606
Direct configuration=    12
   0.24910606  0.75155860  0.60415036
   0.16495702  0.91673036  0.49980317
   0.49972419 -0.00196631  0.60090613
   0.58115872  0.33327062  0.39652943
   0.49990472  0.24998797  0.60207828
   0.58275723  0.58724516  0.39290048
   0.41493543  0.66805299  0.49941126
   0.32972936  0.58463687  0.39766993
   0.49946446  0.50108696  0.60401439
   0.66645822  0.16420946  0.49928999
   0.83528582  0.33250430  0.39597552
   0.66618843  0.41617225  0.50042177
   0.75178575  0.24793225  0.60382977
   0.66608297  0.66991351  0.49966550
   0.83292826  0.83163341  0.39886096
   0.83577684  0.08067638  0.39736836
   0.24856728  0.25090262  0.60326079
   0.75052447  0.74812143  0.60224241
   0.08608680  0.33278320  0.39480594
   0.91784544  0.41797353  0.49997372
  -0.00018006  0.24907275  0.60356768
   0.16869785  0.16609280  0.49905403
  -0.00052064  0.75018814  0.60085169
   0.16818164  0.41883849  0.49968177
   0.33398218  0.33169463  0.40311155
   0.91666373  0.16495211  0.49971460
   0.74989007  0.49987724  0.59812642
  -0.00051270  0.00012792  0.59690209
   0.83345515  0.58372395  0.40222809
   0.75143553 -0.00066283  0.59616140
   0.08329701  0.58335421  0.40325490
   0.91689031  0.67075207  0.49980536
   0.49972380  0.74922578  0.59746768
   0.41787499  0.91859586  0.49989076
  -0.00008731  0.49976526  0.59738561
   0.08441304  0.83287441  0.40301310
   0.91647530  0.91531438  0.49901518
   0.41588480  0.41651610  0.49938499
   0.33614933  0.08142966  0.40273442
   0.41822173  0.16518403  0.50063075
   0.57961428  0.08376857  0.40313365
   0.66612600  0.91697423  0.49983134
   0.24971759 -0.00087530  0.59727159
   0.33244445  0.83536736  0.40241925
   0.24934415  0.50059513  0.59699115
   0.16584409  0.66808623  0.50029104
   0.58179077  0.83488995  0.40299460
   0.08591546  0.08085131  0.40192717
Direct configuration=    13
   0.24893120  0.75169571  0.60439766
   0.16504059  0.91709493  0.49995145
   0.49977058 -0.00211613  0.60117424
   0.58125777  0.33327199  0.39629478
   0.49975570  0.24997285  0.60225493
   0.58265190  0.58736125  0.39230050
   0.41502573  0.66787168  0.49936394
   0.32975354  0.58466888  0.39755826
   0.49937615  0.50108632  0.60420387
   0.66668019  0.16430452  0.49923601
   0.83547975  0.33239393  0.39567249
   0.66634668  0.41610640  0.50026446
   0.75182866  0.24790953  0.60394331
   0.66616971  0.66975848  0.49959282
   0.83280309  0.83165842  0.39880825
   0.83557214  0.08069217  0.39712064
   0.24857028  0.25092183  0.60349900
   0.75053090  0.74812380  0.60231951
   0.08631606  0.33268055  0.39449867
   0.91742648  0.41797856  0.49979630
  -0.00023431  0.24901947  0.60368116
   0.16871147  0.16582636  0.49907376
  -0.00057147  0.75021565  0.60086893
   0.16844491  0.41894447  0.49968772
   0.33398601  0.33158014  0.40326985
   0.91660030  0.16521397  0.49965697
   0.74993244  0.49978259  0.59782521
  -0.00048245  0.00004566  0.59677333
   0.83351365  0.58370120  0.40223723
   0.75144021 -0.00090810  0.59593554
   0.08320907  0.58341638  0.40343660
   0.91665129  0.67124681  0.49990082
   0.49966577  0.74919206  0.59733998
   0.41774634  0.91868212  0.49999399
  -0.00005851  0.49970188  0.59724661
   0.08446811  0.83278516  0.40308896
   0.91616543  0.91524052  0.49882121
   0.41593116  0.41661801  0.49939764
   0.33613206  0.08142831  0.40296118
   0.41807976  0.16536622  0.50104871
   0.57978873  0.08364768  0.40336154
   0.66644976  0.91677308  0.49991336
   0.24963232 -0.00095710  0.59720221
   0.33247834  0.83540106  0.40250406
   0.24933711  0.50066852  0.59689341
   0.16586067  0.66803101  0.50048597
   0.58177796  0.83497904  0.40307142
   0.08605674  0.08092214  0.40207154
Direct configuration=    14
   0.24884225  0.75176546  0.60452346
   0.16508311  0.91728038  0.50002687
   0.49979418 -0.00219233  0.60131063
   0.58130816  0.33327268  0.39617542
   0.49967990  0.24996517  0.60234480
   0.58259832  0.58742031  0.39199528
   0.41507166  0.66777945  0.49933987
   0.32976584  0.58468517  0.39750145
   0.49933123  0.50108599  0.60430025
   0.66679310  0.16435287  0.49920855
   0.83557840  0.33233778  0.39551833
   0.66642719  0.41607290  0.50018444
   0.75185049  0.24789798  0.60400107
   0.66621384  0.66967961  0.49955585
   0.83273942  0.83167114  0.39878144
   0.83546800  0.08070020  0.39699463
   0.24857180  0.25093160  0.60362018
   0.75053417  0.74812500  0.60235874
   0.08643269  0.33262833  0.39434236
   0.91721336  0.41798112  0.49970605
  -0.00026191  0.24899236  0.60373888
   0.16871840  0.16569082  0.49908380
  -0.00059732  0.75022965  0.60087770
   0.16857883  0.41899838  0.49969074
   0.33398797  0.33152190  0.40335037
   0.91656804  0.16534718  0.49962765
   0.74995400  0.49973445  0.59767199
  -0.00046707  0.00000381  0.59670784
   0.83354341  0.58368963  0.40224188
   0.75144258 -0.00103287  0.59582065
   0.08316434  0.58344800  0.40352904
   0.91652970  0.67149848  0.49994938
   0.49963625  0.74917491  0.59727502
   0.41768090  0.91872600  0.50004650
  -0.00004385  0.49966964  0.59717590
   0.08449612  0.83273975  0.40312755
   0.91600780  0.91520295  0.49872253
   0.41595475  0.41666985  0.49940408
   0.33612328  0.08142763  0.40307654
   0.41800754  0.16545890  0.50126133
   0.57987747  0.08358618  0.40347746
   0.66661446  0.91667076  0.49995508
   0.24958895 -0.00099871  0.59716692
   0.33249557  0.83541821  0.40254721
   0.24933353  0.50070586  0.59684369
   0.16586911  0.66800292  0.50058512
   0.58177144  0.83502437  0.40311050
   0.08612861  0.08095817  0.40214499
Direct configuration=    15
   0.24872493  0.75178705  0.60459640
   0.16492807  0.91723488  0.50008632
   0.49975493 -0.00227565  0.60144618
   0.58134710  0.33315847  0.39608424
   0.49954680  0.25003509  0.60241869
   0.58261060  0.58750626  0.39170193
   0.41509304  0.66770609  0.49930890
   0.32991393  0.58460887  0.39750849
   0.49919310  0.50102867  0.60436379
   0.66678617  0.16473784  0.49921654
   0.83578206  0.33219017  0.39528244
   0.66649389  0.41579844  0.50003359
   0.75190538  0.24773680  0.60394814
   0.66624668  0.66963600  0.49947904
   0.83268829  0.83160594  0.39880070
   0.83540204  0.08088926  0.39687145
   0.24854876  0.25093464  0.60372860
   0.75046382  0.74813490  0.60235999
   0.08651075  0.33260610  0.39422968
   0.91724447  0.41800489  0.49959619
  -0.00026948  0.24904165  0.60368531
   0.16835383  0.16596105  0.49919643
  -0.00051757  0.75017443  0.60085564
   0.16840173  0.41899579  0.49977595
   0.33410147  0.33143556  0.40344861
   0.91641719  0.16557634  0.49957882
   0.74995227  0.49976341  0.59749954
  -0.00054361 -0.00002710  0.59663946
   0.83357107  0.58363152  0.40217450
   0.75141278 -0.00112404  0.59572005
   0.08298983  0.58355065  0.40361501
   0.91644135  0.67142768  0.49994853
   0.49954095  0.74929923  0.59721692
   0.41808582  0.91847261  0.50018522
   0.00000607  0.49956786  0.59710907
   0.08457170  0.83272045  0.40317396
   0.91607522  0.91535273  0.49867095
   0.41616036  0.41668117  0.49946782
   0.33608898  0.08142352  0.40318147
   0.41804469  0.16567284  0.50151768
   0.57992940  0.08357133  0.40360631
   0.66652477  0.91654793  0.50002579
   0.24973029 -0.00116974  0.59720863
   0.33253364  0.83543812  0.40257797
   0.24935498  0.50076586  0.59685030
   0.16600139  0.66796569  0.50069009
   0.58178479  0.83509707  0.40313086
   0.08607129  0.08112166  0.40218779
Direct configuration=    16
   0.24868440  0.75179451  0.60462160
   0.16487451  0.91721916  0.50010686
   0.49974137 -0.00230444  0.60149301
   0.58136055  0.33311901  0.39605274
   0.49950081  0.25005925  0.60244422
   0.58261485  0.58753596  0.39160058
   0.41510042  0.66768074  0.49929820
   0.32996509  0.58458251  0.39751092
   0.49914538  0.50100887  0.60438574
   0.66678378  0.16487084  0.49921930
   0.83585242  0.33213918  0.39520094
   0.66651694  0.41570362  0.49998148
   0.75192434  0.24768111  0.60392986
   0.66625802  0.66962093  0.49945251
   0.83267062  0.83158342  0.39880735
   0.83537925  0.08095458  0.39682889
   0.24854080  0.25093569  0.60376606
   0.75043951  0.74813832  0.60236042
   0.08653771  0.33259841  0.39419074
   0.91725522  0.41801310  0.49955824
  -0.00027210  0.24905868  0.60366681
   0.16822788  0.16605441  0.49923534
  -0.00049002  0.75015536  0.60084801
   0.16834055  0.41899489  0.49980538
   0.33414068  0.33140573  0.40348255
   0.91636508  0.16565551  0.49956196
   0.74995167  0.49977342  0.59743995
  -0.00057005 -0.00003778  0.59661584
   0.83358063  0.58361144  0.40215123
   0.75140248 -0.00115553  0.59568529
   0.08292954  0.58358611  0.40364471
   0.91641083  0.67140322  0.49994824
   0.49950802  0.74934218  0.59719685
   0.41822572  0.91838507  0.50023315
   0.00002332  0.49953269  0.59708598
   0.08459781  0.83271379  0.40319000
   0.91609852  0.91540448  0.49865313
   0.41623139  0.41668508  0.49948985
   0.33607713  0.08142211  0.40321773
   0.41805752  0.16574676  0.50160624
   0.57994734  0.08356620  0.40365083
   0.66649379  0.91650549  0.50005021
   0.24977912 -0.00122882  0.59722304
   0.33254679  0.83544500  0.40258860
   0.24936238  0.50078658  0.59685258
   0.16604708  0.66795283  0.50072635
   0.58178941  0.83512219  0.40313790
   0.08605148  0.08117815  0.40220258
Direct configuration=    17
   0.24870093  0.75175508  0.60463028
   0.16488892  0.91715530  0.50010123
   0.49966555 -0.00224212  0.60160355
   0.58136967  0.33309516  0.39598967