  48  48   0   0
  0.5349325E+02  0.1100258E-08  0.1100258E-08  0.2449179E-08  0.3500000E-15
  1.000000000000000E-004
  CAR 
 unknown system                          
      6.38495885     -9.65467434  301     -1.07893966      1.00000000
     -9.655  0.0000E+00  0.0000E+00
     -9.601  0.0000E+00  0.0000E+00
     -9.548  0.0000E+00  0.0000E+00
     -9.494  0.0000E+00  0.0000E+00
     -9.441  0.0000E+00  0.0000E+00
     -9.387  0.0000E+00  0.0000E+00
     -9.334  0.0000E+00  0.0000E+00
     -9.280  0.0000E+00  0.0000E+00
     -9.227  0.8998E-17  0.4811E-18
     -9.173  0.3463E-14  0.1856E-15
     -9.120  0.7508E-12  0.4033E-13
     -9.067  0.9288E-10  0.5006E-11
     -9.013  0.6566E-08  0.3560E-09
     -8.960  0.2657E-06  0.1456E-07
     -8.906  0.6171E-05  0.3445E-06
     -8.853  0.8243E-04  0.4752E-05
     -8.799  0.6348E-03  0.3869E-04
     -8.746  0.2826E-02  0.1898E-03
     -8.692  0.7304E-02  0.5803E-03
     -8.639  0.1117E-01  0.1177E-02
     -8.585  0.1111E-01  0.1772E-02
     -8.532  0.1013E-01  0.2313E-02
     -8.478  0.1129E-01  0.2917E-02
     -8.425  0.1079E-01  0.3494E-02
     -8.372  0.6564E-02  0.3845E-02
     -8.318  0.2441E-02  0.3976E-02
     -8.265  0.1174E-02  0.4038E-02
     -8.211  0.3117E-02  0.4205E-02
     -8.158  0.8286E-02  0.4648E-02
     -8.104  0.1427E-01  0.5411E-02
     -8.051  0.1694E-01  0.6316E-02
     -7.997  0.1543E-01  0.7141E-02
     -7.944  0.1202E-01  0.7784E-02
     -7.890  0.8972E-02  0.8264E-02
     -7.837  0.7549E-02  0.8667E-02
     -7.783  0.8334E-02  0.9113E-02
     -7.730  0.1032E-01  0.9665E-02
     -7.676  0.1206E-01  0.1031E-01
     -7.623  0.1417E-01  0.1107E-01
     -7.570  0.1690E-01  0.1197E-01
     -7.516  0.1920E-01  0.1300E-01
     -7.463  0.2063E-01  0.1410E-01
     -7.409  0.2105E-01  0.1523E-01
     -7.356  0.2200E-01  0.1640E-01
     -7.302  0.2621E-01  0.1780E-01
     -7.249  0.3220E-01  0.1952E-01
     -7.195  0.3642E-01  0.2147E-01
     -7.142  0.3819E-01  0.2351E-01
     -7.088  0.3825E-01  0.2556E-01
     -7.035  0.3823E-01  0.2760E-01
     -6.981  0.4214E-01  0.2985E-01
     -6.928  0.5236E-01  0.3265E-01
     -6.874  0.6594E-01  0.3618E-01
     -6.821  0.7900E-01  0.4040E-01
     -6.768  0.9059E-01  0.4525E-01
     -6.714  0.9960E-01  0.5057E-01
     -6.661  0.1025E+00  0.5605E-01
     -6.607  0.9746E-01  0.6126E-01
     -6.554  0.8753E-01  0.6594E-01
     -6.500  0.7977E-01  0.7021E-01
     -6.447  0.7997E-01  0.7448E-01
     -6.393  0.8805E-01  0.7919E-01
     -6.340  0.1024E+00  0.8467E-01
     -6.286  0.1211E+00  0.9114E-01
     -6.233  0.1370E+00  0.9846E-01
     -6.179  0.1416E+00  0.1060E+00
     -6.126  0.1376E+00  0.1134E+00
     -6.072  0.1366E+00  0.1207E+00
     -6.019  0.1433E+00  0.1284E+00
     -5.966  0.1537E+00  0.1366E+00
     -5.912  0.1635E+00  0.1453E+00
     -5.859  0.1683E+00  0.1543E+00
     -5.805  0.1648E+00  0.1631E+00
     -5.752  0.1564E+00  0.1715E+00
     -5.698  0.1491E+00  0.1795E+00
     -5.645  0.1454E+00  0.1872E+00
     -5.591  0.1462E+00  0.1950E+00
     -5.538  0.1494E+00  0.2030E+00
     -5.484  0.1535E+00  0.2112E+00
     -5.431  0.1586E+00  0.2197E+00
     -5.377  0.1624E+00  0.2284E+00
     -5.324  0.1621E+00  0.2371E+00
     -5.271  0.1576E+00  0.2455E+00
     -5.217  0.1537E+00  0.2537E+00
     -5.164  0.1542E+00  0.2620E+00
     -5.110  0.1580E+00  0.2704E+00
     -5.057  0.1622E+00  0.2791E+00
     -5.003  0.1661E+00  0.2880E+00
     -4.950  0.1694E+00  0.2970E+00
     -4.896  0.1705E+00  0.3061E+00
     -4.843  0.1711E+00  0.3153E+00
     -4.789  0.1734E+00  0.3245E+00
     -4.736  0.1775E+00  0.3340E+00
     -4.682  0.1827E+00  0.3438E+00
     -4.629  0.1867E+00  0.3538E+00
     -4.575  0.1879E+00  0.3638E+00
     -4.522  0.1877E+00  0.3739E+00
     -4.469  0.1868E+00  0.3839E+00
     -4.415  0.1817E+00  0.3936E+00
     -4.362  0.1724E+00  0.4028E+00
     -4.308  0.1657E+00  0.4116E+00
     -4.255  0.1673E+00  0.4206E+00
     -4.201  0.1759E+00  0.4300E+00
     -4.148  0.1852E+00  0.4399E+00
     -4.094  0.1874E+00  0.4499E+00
     -4.041  0.1820E+00  0.4596E+00
     -3.987  0.1780E+00  0.4692E+00
     -3.934  0.1808E+00  0.4788E+00
     -3.880  0.1862E+00  0.4888E+00
     -3.827  0.1903E+00  0.4990E+00
     -3.773  0.1952E+00  0.5094E+00
     -3.720  0.2021E+00  0.5202E+00
     -3.667  0.2087E+00  0.5314E+00
     -3.613  0.2123E+00  0.5427E+00
     -3.560  0.2148E+00  0.5542E+00
     -3.506  0.2163E+00  0.5658E+00
     -3.453  0.2136E+00  0.5772E+00
     -3.399  0.2077E+00  0.5883E+00
     -3.346  0.2018E+00  0.5991E+00
     -3.292  0.1952E+00  0.6095E+00
     -3.239  0.1873E+00  0.6195E+00
     -3.185  0.1810E+00  0.6292E+00
     -3.132  0.1782E+00  0.6387E+00
     -3.078  0.1753E+00  0.6481E+00
     -3.025  0.1718E+00  0.6573E+00
     -2.971  0.1700E+00  0.6664E+00
     -2.918  0.1693E+00  0.6754E+00
     -2.865  0.1681E+00  0.6844E+00
     -2.811  0.1658E+00  0.6933E+00
     -2.758  0.1609E+00  0.7019E+00
     -2.704  0.1556E+00  0.7102E+00
     -2.651  0.1562E+00  0.7186E+00
     -2.597  0.1633E+00  0.7273E+00
     -2.544  0.1716E+00  0.7365E+00
     -2.490  0.1807E+00  0.7461E+00
     -2.437  0.1915E+00  0.7564E+00
     -2.383  0.1975E+00  0.7669E+00
     -2.330  0.1941E+00  0.7773E+00
     -2.276  0.1862E+00  0.7873E+00
     -2.223  0.1813E+00  0.7970E+00
     -2.170  0.1809E+00  0.8066E+00
     -2.116  0.1811E+00  0.8163E+00
     -2.063  0.1802E+00  0.8259E+00
     -2.009  0.1795E+00  0.8355E+00
     -1.956  0.1826E+00  0.8453E+00
     -1.902  0.1911E+00  0.8555E+00
     -1.849  0.2020E+00  0.8663E+00
     -1.795  0.2112E+00  0.8776E+00
     -1.742  0.2156E+00  0.8891E+00
     -1.688  0.2135E+00  0.9006E+00
     -1.635  0.2073E+00  0.9116E+00
     -1.581  0.2009E+00  0.9224E+00
     -1.528  0.1948E+00  0.9328E+00
     -1.474  0.1879E+00  0.9428E+00
     -1.421  0.1829E+00  0.9526E+00
     -1.368  0.1831E+00  0.9624E+00
     -1.314  0.1861E+00  0.9724E+00
     -1.261  0.1845E+00  0.9822E+00
     -1.207  0.1717E+00  0.9914E+00
     -1.154  0.1481E+00  0.9993E+00
     -1.100  0.1211E+00  0.1006E+01
     -1.047  0.9621E-01  0.1011E+01
     -0.993  0.7260E-01  0.1015E+01
     -0.940  0.4982E-01  0.1017E+01
     -0.886  0.3245E-01  0.1019E+01
     -0.833  0.2455E-01  0.1021E+01
     -0.779  0.2326E-01  0.1022E+01
     -0.726  0.2094E-01  0.1023E+01
     -0.672  0.1495E-01  0.1024E+01
     -0.619  0.1101E-01  0.1024E+01
     -0.566  0.1435E-01  0.1025E+01
     -0.512  0.2457E-01  0.1026E+01
     -0.459  0.3781E-01  0.1028E+01
     -0.405  0.4704E-01  0.1031E+01
     -0.352  0.4625E-01  0.1033E+01
     -0.298  0.3875E-01  0.1035E+01
     -0.245  0.3483E-01  0.1037E+01
     -0.191  0.3757E-01  0.1039E+01
     -0.138  0.3919E-01  0.1041E+01
     -0.084  0.3477E-01  0.1043E+01
     -0.031  0.2919E-01  0.1045E+01
      0.023  0.2858E-01  0.1046E+01
      0.076  0.3358E-01  0.1048E+01
      0.130  0.4006E-01  0.1050E+01
      0.183  0.4367E-01  0.1053E+01
      0.236  0.4315E-01  0.1055E+01
      0.290  0.3993E-01  0.1057E+01
      0.343  0.3576E-01  0.1059E+01
      0.397  0.3014E-01  0.1061E+01
      0.450  0.2458E-01  0.1062E+01
      0.504  0.2518E-01  0.1063E+01
      0.557  0.3294E-01  0.1065E+01
      0.611  0.4014E-01  0.1067E+01
      0.664  0.4187E-01  0.1069E+01
      0.718  0.4062E-01  0.1072E+01
      0.771  0.3835E-01  0.1074E+01
      0.825  0.3432E-01  0.1075E+01
      0.878  0.2793E-01  0.1077E+01
      0.931  0.2231E-01  0.1078E+01
      0.985  0.2247E-01  0.1079E+01
      1.038  0.2568E-01  0.1081E+01
      1.092  0.2517E-01  0.1082E+01
      1.145  0.2079E-01  0.1083E+01
      1.199  0.1585E-01  0.1084E+01
      1.252  0.1246E-01  0.1085E+01
      1.306  0.1171E-01  0.1085E+01
      1.359  0.1415E-01  0.1086E+01
      1.413  0.2124E-01  0.1087E+01
      1.466  0.3044E-01  0.1089E+01
      1.520  0.3301E-01  0.1091E+01
      1.573  0.2840E-01  0.1092E+01
      1.627  0.2692E-01  0.1094E+01
      1.680  0.3330E-01  0.1095E+01
      1.733  0.4158E-01  0.1098E+01
      1.787  0.4329E-01  0.1100E+01
      1.840  0.3591E-01  0.1102E+01
      1.894  0.2384E-01  0.1103E+01
      1.947  0.1327E-01  0.1104E+01
      2.001  0.8902E-02  0.1104E+01
      2.054  0.1065E-01  0.1105E+01
      2.108  0.1353E-01  0.1106E+01
      2.161  0.1666E-01  0.1106E+01
      2.215  0.2435E-01  0.1108E+01
      2.268  0.3490E-01  0.1110E+01
      2.322  0.4275E-01  0.1112E+01
      2.375  0.4714E-01  0.1114E+01
      2.429  0.4958E-01  0.1117E+01
      2.482  0.5059E-01  0.1120E+01
      2.535  0.5055E-01  0.1122E+01
      2.589  0.5081E-01  0.1125E+01
      2.642  0.5297E-01  0.1128E+01
      2.696  0.5526E-01  0.1131E+01
      2.749  0.5150E-01  0.1134E+01
      2.803  0.4005E-01  0.1136E+01
      2.856  0.2794E-01  0.1137E+01
      2.910  0.2035E-01  0.1138E+01
      2.963  0.1561E-01  0.1139E+01
      3.017  0.1224E-01  0.1140E+01
      3.070  0.1410E-01  0.1141E+01
      3.124  0.2190E-01  0.1142E+01
      3.177  0.2732E-01  0.1143E+01
      3.230  0.2459E-01  0.1145E+01
      3.284  0.1782E-01  0.1146E+01
      3.337  0.1347E-01  0.1146E+01
      3.391  0.1253E-01  0.1147E+01
      3.444  0.1110E-01  0.1148E+01
      3.498  0.9387E-02  0.1148E+01
      3.551  0.1324E-01  0.1149E+01
      3.605  0.2387E-01  0.1150E+01
      3.658  0.3452E-01  0.1152E+01
      3.712  0.4007E-01  0.1154E+01
      3.765  0.4143E-01  0.1156E+01
      3.819  0.3864E-01  0.1158E+01
      3.872  0.3130E-01  0.1160E+01
      3.926  0.2442E-01  0.1161E+01
      3.979  0.2431E-01  0.1163E+01
      4.032  0.3047E-01  0.1164E+01
      4.086  0.3306E-01  0.1166E+01
      4.139  0.2700E-01  0.1167E+01
      4.193  0.2104E-01  0.1169E+01
      4.246  0.2119E-01  0.1170E+01
      4.300  0.2210E-01  0.1171E+01
      4.353  0.2029E-01  0.1172E+01
      4.407  0.1967E-01  0.1173E+01
      4.460  0.2307E-01  0.1174E+01
      4.514  0.3088E-01  0.1176E+01
      4.567  0.4346E-01  0.1178E+01
      4.621  0.5665E-01  0.1181E+01
      4.674  0.6087E-01  0.1185E+01
      4.728  0.5251E-01  0.1187E+01
      4.781  0.4166E-01  0.1190E+01
      4.834  0.3973E-01  0.1192E+01
      4.888  0.4657E-01  0.1194E+01
      4.941  0.5545E-01  0.1197E+01
      4.995  0.6341E-01  0.1201E+01
      5.048  0.6870E-01  0.1204E+01
      5.102  0.6840E-01  0.1208E+01
      5.155  0.6584E-01  0.1211E+01
      5.209  0.6494E-01  0.1215E+01
      5.262  0.6202E-01  0.1218E+01
      5.316  0.5138E-01  0.1221E+01
      5.369  0.3355E-01  0.1223E+01
      5.423  0.1637E-01  0.1224E+01
      5.476  0.5905E-02  0.1224E+01
      5.530  0.1553E-02  0.1224E+01
      5.583  0.2824E-03  0.1224E+01
      5.636  0.3313E-04  0.1224E+01
      5.690  0.2377E-05  0.1224E+01
      5.743  0.1010E-06  0.1224E+01
      5.797  0.2499E-08  0.1224E+01
      5.850  0.3563E-10  0.1224E+01
      5.904  0.2912E-12  0.1224E+01
      5.957  0.1361E-14  0.1224E+01
      6.011  0.2769E-17  0.1224E+01
      6.064  0.0000E+00  0.1224E+01
      6.118  0.0000E+00  0.1224E+01
      6.171  0.0000E+00  0.1224E+01
      6.225  0.0000E+00  0.1224E+01
      6.278  0.0000E+00  0.1224E+01
      6.331  0.0000E+00  0.1224E+01
      6.385  0.0000E+00  0.1224E+01
