  48  48   0   0
  0.5349325E+02  0.1100258E-08  0.1100258E-08  0.2449179E-08  0.3500000E-15
  1.000000000000000E-004
  CAR 
 unknown system                          
      6.40684681     -9.70405319  301     -1.08151680      1.00000000
     -9.704  0.0000E+00  0.0000E+00
     -9.650  0.0000E+00  0.0000E+00
     -9.597  0.0000E+00  0.0000E+00
     -9.543  0.0000E+00  0.0000E+00
     -9.489  0.0000E+00  0.0000E+00
     -9.436  0.0000E+00  0.0000E+00
     -9.382  0.0000E+00  0.0000E+00
     -9.328  0.0000E+00  0.0000E+00
     -9.274  0.1309E-16  0.7031E-18
     -9.221  0.4913E-14  0.2646E-15
     -9.167  0.1053E-11  0.5684E-13
     -9.113  0.1282E-09  0.6941E-11
     -9.060  0.8868E-08  0.4832E-09
     -9.006  0.3495E-06  0.1925E-07
     -8.952  0.7863E-05  0.4415E-06
     -8.899  0.1012E-03  0.5879E-05
     -8.845  0.7479E-03  0.4604E-04
     -8.791  0.3177E-02  0.2167E-03
     -8.737  0.7782E-02  0.6346E-03
     -8.684  0.1108E-01  0.1230E-02
     -8.630  0.9756E-02  0.1754E-02
     -8.576  0.7577E-02  0.2161E-02
     -8.523  0.9157E-02  0.2652E-02
     -8.469  0.1117E-01  0.3252E-02
     -8.415  0.8722E-02  0.3721E-02
     -8.361  0.4021E-02  0.3937E-02
     -8.308  0.1399E-02  0.4012E-02
     -8.254  0.1901E-02  0.4114E-02
     -8.200  0.5182E-02  0.4392E-02
     -8.147  0.9411E-02  0.4898E-02
     -8.093  0.1135E-01  0.5507E-02
     -8.039  0.1111E-01  0.6104E-02
     -7.986  0.1231E-01  0.6765E-02
     -7.932  0.1600E-01  0.7624E-02
     -7.878  0.1889E-01  0.8639E-02
     -7.824  0.1844E-01  0.9629E-02
     -7.771  0.1645E-01  0.1051E-01
     -7.717  0.1536E-01  0.1134E-01
     -7.663  0.1632E-01  0.1221E-01
     -7.610  0.2014E-01  0.1330E-01
     -7.556  0.2308E-01  0.1454E-01
     -7.502  0.2036E-01  0.1563E-01
     -7.449  0.1563E-01  0.1647E-01
     -7.395  0.1459E-01  0.1725E-01
     -7.341  0.1646E-01  0.1814E-01
     -7.287  0.1811E-01  0.1911E-01
     -7.234  0.1862E-01  0.2011E-01
     -7.180  0.1994E-01  0.2118E-01
     -7.126  0.2424E-01  0.2248E-01
     -7.073  0.3159E-01  0.2418E-01
     -7.019  0.4186E-01  0.2642E-01
     -6.965  0.5232E-01  0.2923E-01
     -6.911  0.6032E-01  0.3247E-01
     -6.858  0.6910E-01  0.3618E-01
     -6.804  0.8074E-01  0.4052E-01
     -6.750  0.9306E-01  0.4552E-01
     -6.697  0.1055E+00  0.5119E-01
     -6.643  0.1165E+00  0.5744E-01
     -6.589  0.1194E+00  0.6385E-01
     -6.536  0.1125E+00  0.6989E-01
     -6.482  0.1041E+00  0.7548E-01
     -6.428  0.1017E+00  0.8094E-01
     -6.374  0.1064E+00  0.8665E-01
     -6.321  0.1149E+00  0.9282E-01
     -6.267  0.1230E+00  0.9943E-01
     -6.213  0.1296E+00  0.1064E+00
     -6.160  0.1349E+00  0.1136E+00
     -6.106  0.1405E+00  0.1212E+00
     -6.052  0.1485E+00  0.1292E+00
     -5.999  0.1584E+00  0.1377E+00
     -5.945  0.1655E+00  0.1465E+00
     -5.891  0.1647E+00  0.1554E+00
     -5.837  0.1565E+00  0.1638E+00
     -5.784  0.1461E+00  0.1716E+00
     -5.730  0.1381E+00  0.1791E+00
     -5.676  0.1336E+00  0.1862E+00
     -5.623  0.1330E+00  0.1934E+00
     -5.569  0.1362E+00  0.2007E+00
     -5.515  0.1387E+00  0.2081E+00
     -5.462  0.1387E+00  0.2156E+00
     -5.408  0.1418E+00  0.2232E+00
     -5.354  0.1507E+00  0.2313E+00
     -5.300  0.1586E+00  0.2398E+00
     -5.247  0.1597E+00  0.2484E+00
     -5.193  0.1571E+00  0.2568E+00
     -5.139  0.1581E+00  0.2653E+00
     -5.086  0.1651E+00  0.2742E+00
     -5.032  0.1734E+00  0.2835E+00
     -4.978  0.1777E+00  0.2930E+00
     -4.924  0.1780E+00  0.3026E+00
     -4.871  0.1774E+00  0.3121E+00
     -4.817  0.1784E+00  0.3217E+00
     -4.763  0.1793E+00  0.3313E+00
     -4.710  0.1772E+00  0.3409E+00
     -4.656  0.1726E+00  0.3501E+00
     -4.602  0.1705E+00  0.3593E+00
     -4.549  0.1728E+00  0.3686E+00
     -4.495  0.1754E+00  0.3780E+00
     -4.441  0.1774E+00  0.3875E+00
     -4.387  0.1824E+00  0.3973E+00
     -4.334  0.1877E+00  0.4074E+00
     -4.280  0.1874E+00  0.4175E+00
     -4.226  0.1817E+00  0.4272E+00
     -4.173  0.1755E+00  0.4366E+00
     -4.119  0.1732E+00  0.4459E+00
     -4.065  0.1749E+00  0.4553E+00
     -4.012  0.1780E+00  0.4649E+00
     -3.958  0.1825E+00  0.4747E+00
     -3.904  0.1883E+00  0.4848E+00
     -3.850  0.1914E+00  0.4951E+00
     -3.797  0.1902E+00  0.5053E+00
     -3.743  0.1883E+00  0.5154E+00
     -3.689  0.1876E+00  0.5255E+00
     -3.636  0.1877E+00  0.5356E+00
     -3.582  0.1904E+00  0.5458E+00
     -3.528  0.1954E+00  0.5563E+00
     -3.475  0.1985E+00  0.5669E+00
     -3.421  0.1963E+00  0.5775E+00
     -3.367  0.1905E+00  0.5877E+00
     -3.313  0.1876E+00  0.5978E+00
     -3.260  0.1882E+00  0.6079E+00
     -3.206  0.1880E+00  0.6180E+00
     -3.152  0.1865E+00  0.6280E+00
     -3.099  0.1832E+00  0.6378E+00
     -3.045  0.1779E+00  0.6474E+00
     -2.991  0.1733E+00  0.6567E+00
     -2.937  0.1723E+00  0.6659E+00
     -2.884  0.1744E+00  0.6753E+00
     -2.830  0.1789E+00  0.6849E+00
     -2.776  0.1835E+00  0.6948E+00
     -2.723  0.1851E+00  0.7047E+00
     -2.669  0.1844E+00  0.7146E+00
     -2.615  0.1852E+00  0.7246E+00
     -2.562  0.1887E+00  0.7347E+00
     -2.508  0.1929E+00  0.7451E+00
     -2.454  0.1963E+00  0.7556E+00
     -2.400  0.1959E+00  0.7661E+00
     -2.347  0.1895E+00  0.7763E+00
     -2.293  0.1826E+00  0.7861E+00
     -2.239  0.1808E+00  0.7958E+00
     -2.186  0.1816E+00  0.8056E+00
     -2.132  0.1808E+00  0.8153E+00
     -2.078  0.1785E+00  0.8249E+00
     -2.025  0.1784E+00  0.8344E+00
     -1.971  0.1826E+00  0.8442E+00
     -1.917  0.1881E+00  0.8543E+00
     -1.863  0.1924E+00  0.8647E+00
     -1.810  0.1970E+00  0.8753E+00
     -1.756  0.2044E+00  0.8862E+00
     -1.702  0.2103E+00  0.8975E+00
     -1.649  0.2090E+00  0.9087E+00
     -1.595  0.2044E+00  0.9197E+00
     -1.541  0.2028E+00  0.9306E+00
     -1.487  0.2021E+00  0.9415E+00
     -1.434  0.1984E+00  0.9521E+00
     -1.380  0.1923E+00  0.9624E+00
     -1.326  0.1847E+00  0.9724E+00
     -1.273  0.1749E+00  0.9818E+00
     -1.219  0.1616E+00  0.9904E+00
     -1.165  0.1442E+00  0.9982E+00
     -1.112  0.1236E+00  0.1005E+01
     -1.058  0.1005E+00  0.1010E+01
     -1.004  0.7618E-01  0.1014E+01
     -0.950  0.5216E-01  0.1017E+01
     -0.897  0.3283E-01  0.1019E+01
     -0.843  0.2219E-01  0.1020E+01
     -0.789  0.1909E-01  0.1021E+01
     -0.736  0.1862E-01  0.1022E+01
     -0.682  0.1764E-01  0.1023E+01
     -0.628  0.1787E-01  0.1024E+01
     -0.575  0.2245E-01  0.1025E+01
     -0.521  0.3184E-01  0.1027E+01
     -0.467  0.4243E-01  0.1029E+01
     -0.413  0.4720E-01  0.1032E+01
     -0.360  0.4229E-01  0.1034E+01
     -0.306  0.3517E-01  0.1036E+01
     -0.252  0.3614E-01  0.1038E+01
     -0.199  0.4191E-01  0.1040E+01
     -0.145  0.4119E-01  0.1042E+01
     -0.091  0.3299E-01  0.1044E+01
     -0.038  0.2472E-01  0.1045E+01
      0.016  0.2207E-01  0.1047E+01
      0.070  0.2594E-01  0.1048E+01
      0.124  0.3229E-01  0.1050E+01
      0.177  0.3686E-01  0.1052E+01
      0.231  0.3713E-01  0.1054E+01
      0.285  0.3374E-01  0.1055E+01
      0.338  0.3204E-01  0.1057E+01
      0.392  0.3398E-01  0.1059E+01
      0.446  0.3630E-01  0.1061E+01
      0.500  0.3776E-01  0.1063E+01
      0.553  0.3972E-01  0.1065E+01
      0.607  0.4399E-01  0.1068E+01
      0.661  0.4972E-01  0.1070E+01
      0.714  0.4989E-01  0.1073E+01
      0.768  0.4183E-01  0.1075E+01
      0.822  0.3252E-01  0.1077E+01
      0.875  0.2601E-01  0.1078E+01
      0.929  0.1987E-01  0.1079E+01
      0.983  0.1474E-01  0.1080E+01
      1.037  0.1408E-01  0.1081E+01
      1.090  0.1649E-01  0.1082E+01
      1.144  0.1866E-01  0.1083E+01
      1.198  0.1997E-01  0.1084E+01
      1.251  0.2074E-01  0.1085E+01
      1.305  0.2106E-01  0.1086E+01
      1.359  0.2036E-01  0.1087E+01
      1.412  0.1911E-01  0.1088E+01
      1.466  0.2041E-01  0.1089E+01
      1.520  0.2584E-01  0.1091E+01
      1.574  0.3038E-01  0.1092E+01
      1.627  0.3010E-01  0.1094E+01
      1.681  0.2905E-01  0.1095E+01
      1.735  0.3283E-01  0.1097E+01
      1.788  0.3968E-01  0.1099E+01
      1.842  0.3979E-01  0.1102E+01
      1.896  0.2872E-01  0.1103E+01
      1.949  0.1556E-01  0.1104E+01
      2.003  0.1082E-01  0.1104E+01
      2.057  0.1414E-01  0.1105E+01
      2.111  0.1938E-01  0.1106E+01
      2.164  0.2496E-01  0.1108E+01
      2.218  0.3197E-01  0.1109E+01
      2.272  0.4012E-01  0.1111E+01
      2.325  0.4830E-01  0.1114E+01
      2.379  0.5194E-01  0.1117E+01
      2.433  0.4872E-01  0.1119E+01
      2.487  0.4441E-01  0.1122E+01
      2.540  0.4318E-01  0.1124E+01
      2.594  0.4386E-01  0.1127E+01
      2.648  0.4684E-01  0.1129E+01
      2.701  0.5158E-01  0.1132E+01
      2.755  0.5011E-01  0.1135E+01
      2.809  0.3775E-01  0.1137E+01
      2.862  0.2302E-01  0.1138E+01
      2.916  0.1545E-01  0.1139E+01
      2.970  0.1319E-01  0.1139E+01
      3.024  0.1080E-01  0.1140E+01
      3.077  0.1007E-01  0.1140E+01
      3.131  0.1449E-01  0.1141E+01
      3.185  0.2222E-01  0.1142E+01
      3.238  0.2693E-01  0.1144E+01
      3.292  0.2379E-01  0.1145E+01
      3.346  0.1683E-01  0.1146E+01
      3.399  0.1364E-01  0.1147E+01
      3.453  0.1430E-01  0.1148E+01
      3.507  0.1611E-01  0.1148E+01
      3.561  0.2026E-01  0.1149E+01
      3.614  0.2776E-01  0.1151E+01
      3.668  0.3658E-01  0.1153E+01
      3.722  0.4249E-01  0.1155E+01
      3.775  0.4255E-01  0.1158E+01
      3.829  0.3675E-01  0.1159E+01
      3.883  0.2852E-01  0.1161E+01
      3.937  0.2367E-01  0.1162E+01
      3.990  0.2472E-01  0.1164E+01
      4.044  0.2722E-01  0.1165E+01
      4.098  0.2641E-01  0.1166E+01
      4.151  0.2397E-01  0.1168E+01
      4.205  0.2313E-01  0.1169E+01
      4.259  0.2286E-01  0.1170E+01
      4.312  0.2051E-01  0.1171E+01
      4.366  0.1794E-01  0.1172E+01
      4.420  0.1933E-01  0.1173E+01
      4.474  0.2554E-01  0.1175E+01
      4.527  0.3688E-01  0.1177E+01
      4.581  0.5153E-01  0.1179E+01
      4.635  0.6090E-01  0.1183E+01
      4.688  0.5802E-01  0.1186E+01
      4.742  0.4708E-01  0.1188E+01
      4.796  0.3924E-01  0.1190E+01
      4.849  0.3977E-01  0.1193E+01
      4.903  0.4464E-01  0.1195E+01
      4.957  0.5172E-01  0.1198E+01
      5.011  0.6396E-01  0.1201E+01
      5.064  0.7668E-01  0.1205E+01
      5.118  0.7800E-01  0.1210E+01
      5.172  0.6884E-01  0.1213E+01
      5.225  0.6030E-01  0.1216E+01
      5.279  0.5186E-01  0.1219E+01
      5.333  0.3847E-01  0.1221E+01
      5.386  0.2471E-01  0.1223E+01
      5.440  0.1468E-01  0.1223E+01
      5.494  0.7226E-02  0.1224E+01
      5.548  0.2442E-02  0.1224E+01
      5.601  0.5097E-03  0.1224E+01
      5.655  0.6311E-04  0.1224E+01
      5.709  0.4560E-05  0.1224E+01
      5.762  0.1908E-06  0.1224E+01
      5.816  0.4599E-08  0.1224E+01
      5.870  0.6362E-10  0.1224E+01
      5.924  0.5035E-12  0.1224E+01
      5.977  0.2271E-14  0.1224E+01
      6.031  0.6891E-17  0.1224E+01
      6.085  0.0000E+00  0.1224E+01
      6.138  0.0000E+00  0.1224E+01
      6.192  0.0000E+00  0.1224E+01
      6.246  0.0000E+00  0.1224E+01
      6.299  0.0000E+00  0.1224E+01
      6.353  0.0000E+00  0.1224E+01
      6.407  0.0000E+00  0.1224E+01
