unknown system                          
           1
    11.002582    0.000000    0.000000
     5.501291    9.528515    0.000000
     0.000000    0.000000   24.491785
   Au   Pd
  24  24
Direct configuration=     1
   0.08333333  0.08333333  0.40830017
   0.83333333  0.33333333  0.40830017
   0.00000000  0.00000000  0.59169983
   0.08333333  0.33333333  0.40830017
   0.00000000  0.25000000  0.59169983
   0.66666667  0.66666667  0.50000000
   0.91666667  0.66666667  0.50000000
   0.00000000  0.50000000  0.59169983
   0.83333333  0.58333333  0.40830017
   0.75000000  0.25000000  0.59169983
   0.25000000  0.00000000  0.59169983
   0.75000000  0.00000000  0.59169983
   0.50000000  0.25000000  0.59169983
   0.66666667  0.16666667  0.50000000
   0.16666667  0.41666667  0.50000000
   0.50000000  0.75000000  0.59169983
   0.41666667  0.91666667  0.50000000
   0.25000000  0.50000000  0.59169983
   0.41666667  0.66666667  0.50000000
   0.58333333  0.08333333  0.40830017
   0.41666667  0.16666667  0.50000000
   0.50000000  0.00000000  0.59169983
   0.58333333  0.33333333  0.40830017
   0.58333333  0.58333333  0.40830017
   0.00000000  0.75000000  0.59169983
   0.41666667  0.41666667  0.50000000
   0.33333333  0.08333333  0.40830017
   0.33333333  0.33333333  0.40830017
   0.16666667  0.91666667  0.50000000
   0.33333333  0.58333333  0.40830017
   0.16666667  0.66666667  0.50000000
   0.33333333  0.83333333  0.40830017
   0.91666667  0.91666667  0.50000000
   0.25000000  0.25000000  0.59169983
   0.08333333  0.83333333  0.40830017
   0.25000000  0.75000000  0.59169983
   0.91666667  0.41666667  0.50000000
   0.91666667  0.16666667  0.50000000
   0.66666667  0.91666667  0.50000000
   0.83333333  0.83333333  0.40830017
   0.75000000  0.50000000  0.59169983
   0.50000000  0.50000000  0.59169983
   0.58333333  0.83333333  0.40830017
   0.83333333  0.08333333  0.40830017
   0.66666667  0.41666667  0.50000000
   0.16666667  0.16666667  0.50000000
   0.08333333  0.58333333  0.40830017
   0.75000000  0.75000000  0.59169983
Direct configuration=     2
   0.08333333  0.08333333  0.40830017
   0.83333333  0.33333333  0.40830017
   0.00084690 -0.00154914  0.59322466
   0.08333333  0.33333333  0.40830017
  -0.00008099  0.25075204  0.59322608
   0.66789470  0.66621107  0.50035660
   0.91657049  0.66872341  0.49995485
  -0.00097537  0.50042896  0.59382164
   0.83333333  0.58333333  0.40830017
   0.74945237  0.25196553  0.59354752
   0.24934505  0.00031236  0.59360729
   0.75105755 -0.00204378  0.59360340
   0.49899995  0.25136777  0.59392679
   0.66839815  0.16632517  0.49954667
   0.16742371  0.41635088  0.49957925
   0.50078717  0.74841916  0.59416723
   0.41574080  0.91755581  0.49889652
   0.25031980  0.50100587  0.59360747
   0.41465647  0.66579889  0.49995551
   0.58333333  0.08333333  0.40830017
   0.41509690  0.16734963  0.49957888
   0.50059991 -0.00032773  0.59396821
   0.58333333  0.33333333  0.40830017
   0.58333333  0.58333333  0.40830017
   0.00021230  0.75026011  0.59264742
   0.41618539  0.41807856  0.49979658
   0.33333333  0.08333333  0.40830017
   0.33333333  0.33333333  0.40830017
   0.16571765  0.91613354  0.49964803
   0.33333333  0.58333333  0.40830017
   0.16658109  0.66780011  0.49967078
   0.33333333  0.83333333  0.40830017
   0.91772134  0.91591928  0.49948944
   0.24979280  0.24997681  0.59299996
   0.08333333  0.83333333  0.40830017
   0.24954471  0.74946125  0.59259171
   0.91614232  0.41575922  0.50029135
   0.91697078  0.16649713  0.49971783
   0.66802106  0.91558239  0.49972815
   0.83333333  0.83333333  0.40830017
   0.74975523  0.50002999  0.59270143
   0.49995514  0.50016667  0.59269257
   0.58333333  0.83333333  0.40830017
   0.83333333  0.08333333  0.40830017
   0.66702464  0.41644963  0.50044117
   0.16635949  0.16647923  0.49988843
   0.08333333  0.58333333  0.40830017
   0.75050303  0.74984031  0.59290235
Direct configuration=     3
   0.08333333  0.08333333  0.40830017
   0.83333333  0.33333333  0.40830017
   0.00263975 -0.00482860  0.59645266
   0.08333333  0.33333333  0.40830017
  -0.00025245  0.25234409  0.59645709
   0.67049439  0.66524659  0.50111151
   0.91636689  0.67307746  0.49985927
  -0.00304019  0.50133705  0.59831343
   0.83333333  0.58333333  0.40830017
   0.74829305  0.25612649  0.59745899
   0.24795854  0.00097361  0.59764530
   0.75329634 -0.00637039  0.59763319
   0.49688288  0.25426328  0.59864117
   0.67206362  0.16560223  0.49858700
   0.16902635  0.41568237  0.49868855
   0.50245359  0.74507259  0.59939062
   0.41378077  0.91943810  0.49656050
   0.25099679  0.50313526  0.59764586
   0.41040096  0.66396183  0.49986134
   0.58333333  0.08333333  0.40830017
   0.41177376  0.16879545  0.49868740
   0.50186988 -0.00102152  0.59877028
   0.58333333  0.33333333  0.40830017
   0.58333333  0.58333333  0.40830017
   0.00066172  0.75081077  0.59465343
   0.41516654  0.42106748  0.49936596
   0.33333333  0.08333333  0.40830017
   0.33333333  0.33333333  0.40830017
   0.16370861  0.91500493  0.49890293
   0.33333333  0.58333333  0.40830017
   0.16639993  0.67019956  0.49897384
   0.33333333  0.83333333  0.40830017
   0.91995405  0.91433710  0.49840859
   0.24935417  0.24992771  0.59575228
   0.08333333  0.83333333  0.40830017
   0.24858089  0.74832075  0.59447979
   0.91503229  0.41383821  0.50090814
   0.91761456  0.16613822  0.49912049
   0.67088825  0.91328702  0.49915266
   0.83333333  0.83333333  0.40830017
   0.74923707  0.50009348  0.59482176
   0.49986017  0.50051951  0.59479415
   0.58333333  0.83333333  0.40830017
   0.83333333  0.08333333  0.40830017
   0.66778246  0.41599017  0.50137510
   0.16570920  0.16608243  0.49965225
   0.08333333  0.58333333  0.40830017
   0.75156793  0.74950226  0.59544805
Direct configuration=     4
   0.08333333  0.08333333  0.40830017
   0.83333333  0.33333333  0.40830017
   0.00210889 -0.00454401  0.59849201
   0.08333333  0.33333333  0.40830017
  -0.00021059  0.25208363  0.59866117
   0.66886402  0.66595871  0.50286613
   0.91874839  0.67146891  0.50125406
  -0.00295129  0.50225283  0.60090375
   0.83333333  0.58333333  0.40830017
   0.74832640  0.25551727  0.60003611
   0.24899300 -0.00006979  0.59992706
   0.75337056 -0.00581893  0.59996978
   0.49726575  0.25400136  0.60115745
   0.67237122  0.16489414  0.50074687
   0.16718982  0.41811851  0.50043428
   0.50202632  0.74501013  0.60229474
   0.41405957  0.91785728  0.49819236
   0.24986313  0.50389910  0.60013691
   0.41107196  0.66530652  0.50126010
   0.58333333  0.08333333  0.40830017
   0.41343892  0.16851873  0.50058206
   0.50169199 -0.00137812  0.60135823
   0.58333333  0.33333333  0.40830017
   0.58333333  0.58333333  0.40830017
   0.00148266  0.74962254  0.59608947
   0.41521043  0.41991216  0.50055784
   0.33333333  0.08333333  0.40830017
   0.33333333  0.33333333  0.40830017
   0.16292910  0.91556183  0.49984738
   0.33333333  0.58333333  0.40830017
   0.16526275  0.66998237  0.49961851
   0.33333333  0.83333333  0.40830017
   0.92043258  0.91537324  0.49909927
   0.24930757  0.25050949  0.59735204
   0.08333333  0.83333333  0.40830017
   0.24896377  0.74826877  0.59586393
   0.91593993  0.41349046  0.50237836
   0.91840435  0.16539634  0.50058340
   0.66994573  0.91487941  0.50036119
   0.83333333  0.83333333  0.40830017
   0.74895130  0.50090095  0.59661434
   0.49954267  0.50115921  0.59634600
   0.58333333  0.83333333  0.40830017
   0.83333333  0.08333333  0.40830017
   0.66760050  0.41602596  0.50263484
   0.16453515  0.16559524  0.50103386
   0.08333333  0.58333333  0.40830017
   0.75185709  0.74882309  0.59726094
Direct configuration=     5
   0.08333333  0.08333333  0.40830017
   0.83333333  0.33333333  0.40830017
   0.00051631 -0.00369024  0.60461007
   0.08333333  0.33333333  0.40830017
  -0.00008498  0.25130225  0.60527339
   0.66397293  0.66809508  0.50812998
   0.92589292  0.66664328  0.50543842
  -0.00268458  0.50500018  0.60867474
   0.83333333  0.58333333  0.40830017
   0.74842648  0.25368960  0.60776746
   0.25209637 -0.00319997  0.60677237
   0.75359321 -0.00416457  0.60697957
   0.49841436  0.25321561  0.60870629
   0.67329401  0.16276985  0.50722646
   0.16168023  0.42542694  0.50567146
   0.50074452  0.74482276  0.61100709
   0.41489600  0.91311481  0.50308794
   0.24646213  0.50619062  0.60761008
   0.41308497  0.66934058  0.50545638
   0.58333333  0.08333333  0.40830017
   0.41843438  0.16768856  0.50626602
   0.50115832 -0.00244793  0.60912208
   0.58333333  0.33333333  0.40830017
   0.58333333  0.58333333  0.40830017
   0.00394549  0.74605784  0.60039757
   0.41534209  0.41644618  0.50413347
   0.33333333  0.08333333  0.40830017
   0.33333333  0.33333333  0.40830017
   0.16059056  0.91723252  0.50268072
   0.33333333  0.58333333  0.40830017
   0.16185120  0.66933078  0.50155250
   0.33333333  0.83333333  0.40830017
   0.92186819  0.91848168  0.50117129
   0.24916776  0.25225480  0.60215133
   0.08333333  0.83333333  0.40830017
   0.25011240  0.74811283  0.60001636
   0.91866288  0.41244723  0.50678901
   0.92077372  0.16317070  0.50497213
   0.66711815  0.91965657  0.50398678
   0.83333333  0.83333333  0.40830017
   0.74809396  0.50332337  0.60199210
   0.49859017  0.50307832  0.60100153
   0.58333333  0.83333333  0.40830017
   0.83333333  0.08333333  0.40830017
   0.66705459  0.41613333  0.50641406
   0.16101302  0.16413367  0.50517869
   0.08333333  0.58333333  0.40830017
   0.75272457  0.74678560  0.60269964
Direct configuration=     6
   0.08333333  0.08333333  0.40830017
   0.83333333  0.33333333  0.40830017
   0.00098978 -0.00343010  0.60723269
   0.08333333  0.33333333  0.40830017
   0.00027156  0.25109188  0.60820452
   0.66685441  0.66797705  0.51014620
   0.91602237  0.67073247  0.50734961
  -0.00223674  0.50288954  0.61228667
   0.83333333  0.58333333  0.40830017
   0.74853131  0.25368821  0.61108837
   0.25200872 -0.00293731  0.60950066
   0.75298495 -0.00449659  0.60990827
   0.49810784  0.25328362  0.61195670
   0.67281722  0.16450290  0.51014010
   0.16633496  0.41851906  0.50831992
   0.50037427  0.74634881  0.61507231
   0.41358776  0.91729875  0.50597319
   0.24891892  0.50385593  0.61080826
   0.41236961  0.66726686  0.50723664
   0.58333333  0.08333333  0.40830017
   0.41601370  0.16753615  0.50895654
   0.50150754 -0.00269340  0.61223860
   0.58333333  0.33333333  0.40830017
   0.58333333  0.58333333  0.40830017
   0.00229550  0.74884343  0.60258125
   0.41548614  0.41685180  0.50656377
   0.33333333  0.08333333  0.40830017
   0.33333333  0.33333333  0.40830017
   0.16255199  0.91649697  0.50503803
   0.33333333  0.58333333  0.40830017
   0.16719886  0.66945209  0.50331147
   0.33333333  0.83333333  0.40830017
   0.91965043  0.91855850  0.50336396
   0.24914231  0.25243794  0.60403997
   0.08333333  0.83333333  0.40830017
   0.24974013  0.74917167  0.60177411
   0.91771742  0.41403341  0.50915699
   0.91837099  0.16555768  0.50765812
   0.66835136  0.91752348  0.50659059
   0.83333333  0.83333333  0.40830017
   0.74910607  0.50193167  0.60470451
   0.49831478  0.50195634  0.60314149
   0.58333333  0.83333333  0.40830017
   0.83333333  0.08333333  0.40830017
   0.66752032  0.41479366  0.50836741
   0.16444138  0.16388989  0.50763527
   0.08333333  0.58333333  0.40830017
   0.75156538  0.74878200  0.60488045
Direct configuration=     7
   0.08333333  0.08333333  0.40830017
   0.83333333  0.33333333  0.40830017
   0.00098995 -0.00343000  0.60723363
   0.08333333  0.33333333  0.40830017
   0.00027169  0.25109180  0.60820558
   0.66685545  0.66797701  0.51014692
   0.91601881  0.67073395  0.50735030
  -0.00223658  0.50288878  0.61228797
   0.83333333  0.58333333  0.40830017
   0.74853135  0.25368821  0.61108957
   0.25200869 -0.00293722  0.60950164
   0.75298473 -0.00449671  0.60990932
   0.49810773  0.25328365  0.61195787
   0.67281705  0.16450353  0.51014115
   0.16633664  0.41851656  0.50832088
   0.50037414  0.74634936  0.61507377
   0.41358728  0.91730026  0.50597423
   0.24891980  0.50385508  0.61080941
   0.41236935  0.66726611  0.50723729
   0.58333333  0.08333333  0.40830017
   0.41601283  0.16753610  0.50895751
   0.50150766 -0.00269349  0.61223973
   0.58333333  0.33333333  0.40830017
   0.58333333  0.58333333  0.40830017
   0.00229490  0.74884444  0.60258204
   0.41548620  0.41685195  0.50656465
   0.33333333  0.08333333  0.40830017
   0.33333333  0.33333333  0.40830017
   0.16255270  0.91649671  0.50503888
   0.33333333  0.58333333  0.40830017
   0.16720079  0.66945213  0.50331211
   0.33333333  0.83333333  0.40830017
   0.91964963  0.91855853  0.50336475
   0.24914230  0.25243800  0.60404066
   0.08333333  0.83333333  0.40830017
   0.24973999  0.74917205  0.60177475
   0.91771708  0.41403399  0.50915785
   0.91837012  0.16555855  0.50765909
   0.66835181  0.91752271  0.50659153
   0.83333333  0.83333333  0.40830017
   0.74910644  0.50193116  0.60470549
   0.49831468  0.50195594  0.60314227
   0.58333333  0.83333333  0.40830017
   0.83333333  0.08333333  0.40830017
   0.66752049  0.41479318  0.50836812
   0.16444262  0.16388980  0.50763616
   0.08333333  0.58333333  0.40830017
   0.75156496  0.74878272  0.60488124
Direct configuration=     8
   0.08333333  0.08333333  0.40830017
   0.83333333  0.33333333  0.40830017
   0.00137236 -0.00297424  0.60728432
   0.08333333  0.33333333  0.40830017
   0.00059780  0.25081713  0.60833310
   0.66621965  0.66736580  0.50982689
   0.91676733  0.67029719  0.50721459
  -0.00215445  0.50239868  0.61236991
   0.83333333  0.58333333  0.40830017
   0.74866779  0.25412708  0.61133181
   0.25070670 -0.00130158  0.60958196
   0.75240417 -0.00436940  0.61006325
   0.49814010  0.25270003  0.61216367
   0.67095542  0.16558326  0.50988040
   0.16602820  0.41849008  0.50808387
   0.50123303  0.74591185  0.61528028
   0.41415213  0.91806436  0.50607004
   0.24962028  0.50342043  0.61082491
   0.41447932  0.66574966  0.50699438
   0.58333333  0.08333333  0.40830017
   0.41604543  0.16671723  0.50860142
   0.50155447 -0.00194112  0.61233666
   0.58333333  0.33333333  0.40830017
   0.58333333  0.58333333  0.40830017
   0.00161156  0.74960017  0.60261038
   0.41598839  0.41726842  0.50699554
   0.33333333  0.08333333  0.40830017
   0.33333333  0.33333333  0.40830017
   0.16310872  0.91700109  0.50559504
   0.33333333  0.58333333  0.40830017
   0.16651740  0.66840229  0.50394966
   0.33333333  0.83333333  0.40830017
   0.91909278  0.91716389  0.50412906
   0.24934377  0.25135603  0.60465853
   0.08333333  0.83333333  0.40830017
   0.24937440  0.74924193  0.60208923
   0.91717644  0.41461167  0.50940363
   0.91783532  0.16700014  0.50797085
   0.66788436  0.91770911  0.50702453
   0.83333333  0.83333333  0.40830017
   0.74918524  0.50099754  0.60513233
   0.49887655  0.50143361  0.60344111
   0.58333333  0.83333333  0.40830017
   0.83333333  0.08333333  0.40830017
   0.66778774  0.41516277  0.50855032
   0.16524929  0.16469172  0.50779579
   0.08333333  0.58333333  0.40830017
   0.75111617  0.74956032  0.60531115
Direct configuration=     9
   0.08333333  0.08333333  0.40830017
   0.83333333  0.33333333  0.40830017
   0.00145515 -0.00287557  0.60729530
   0.08333333  0.33333333  0.40830017
   0.00066840  0.25075766  0.60836071
   0.66608200  0.66723347  0.50975761
   0.91692939  0.67020263  0.50718521
  -0.00213667  0.50229257  0.61238765
   0.83333333  0.58333333  0.40830017
   0.74869734  0.25422210  0.61138426
   0.25042482 -0.00094746  0.60959935
   0.75227848 -0.00434183  0.61009657
   0.49814711  0.25257368  0.61220823
   0.67055238  0.16581702  0.50982395
   0.16596142  0.41848435  0.50803256
   0.50141898  0.74581713  0.61532499
   0.41427442  0.91822978  0.50609078
   0.24977193  0.50332633  0.61082826
   0.41493612  0.66542135  0.50694179
   0.58333333  0.08333333  0.40830017
   0.41605249  0.16653995  0.50852433
   0.50156460 -0.00177824  0.61235764
   0.58333333  0.33333333  0.40830017
   0.58333333  0.58333333  0.40830017
   0.00146361  0.74976378  0.60261652
   0.41609711  0.41735859  0.50708883
   0.33333333  0.08333333  0.40830017
   0.33333333  0.33333333  0.40830017
   0.16322910  0.91711029  0.50571545
   0.33333333  0.58333333  0.40830017
   0.16636944  0.66817500  0.50408769
   0.33333333  0.83333333  0.40830017
   0.91897222  0.91686195  0.50429453
   0.24938739  0.25112179  0.60479230
   0.08333333  0.83333333  0.40830017
   0.24929525  0.74925706  0.60215732
   0.91705939  0.41473674  0.50945684
   0.91771953  0.16731225  0.50803835
   0.66778316  0.91774947  0.50711828
   0.83333333  0.83333333  0.40830017
   0.74920230  0.50079541  0.60522474
   0.49899819  0.50132053  0.60350581
   0.58333333  0.83333333  0.40830017
   0.83333333  0.08333333  0.40830017
   0.66784560  0.41524278  0.50858976
   0.16542394  0.16486534  0.50783034
   0.08333333  0.58333333  0.40830017
   0.75101901  0.74972867  0.60540423
Direct configuration=    10
   0.08333333  0.08333333  0.40830017
   0.83333333  0.33333333  0.40830017
   0.00102212 -0.00250084  0.60720823
   0.08333333  0.33333333  0.40830017
   0.00050905  0.25106127  0.60840426
   0.66637771  0.66721457  0.50963365
   0.91677203  0.66960583  0.50707975
  -0.00211231  0.50236876  0.61223435
   0.83333333  0.58333333  0.40830017
   0.74878069  0.25384095  0.61143326
   0.25071562 -0.00090468  0.60957070
   0.75228804 -0.00365743  0.61010665
   0.49828610  0.25230416  0.61224195
   0.67007553  0.16621649  0.50946441
   0.16625693  0.41810660  0.50783492
   0.50138905  0.74607342  0.61523490
   0.41468807  0.91768879  0.50607590
   0.24977237  0.50308966  0.61064830
   0.41463410  0.66567711  0.50680913
   0.58333333  0.08333333  0.40830017
   0.41571313  0.16720041  0.50816261
   0.50112386 -0.00156244  0.61237219
   0.58333333  0.33333333  0.40830017
   0.58333333  0.58333333  0.40830017
   0.00117736  0.74981002  0.60268400
   0.41602147  0.41737249  0.50732599
   0.33333333  0.08333333  0.40830017
   0.33333333  0.33333333  0.40830017
   0.16352511  0.91700538  0.50600262
   0.33333333  0.58333333  0.40830017
   0.16672552  0.66785528  0.50454649
   0.33333333  0.83333333  0.40830017
   0.91851772  0.91710476  0.50480370
   0.24964413  0.25089741  0.60520547
   0.08333333  0.83333333  0.40830017
   0.24963391  0.74917008  0.60223505
   0.91676373  0.41532098  0.50957928
   0.91743107  0.16748229  0.50812093
   0.66790719  0.91731261  0.50736214
   0.83333333  0.83333333  0.40830017
   0.74931562  0.50076262  0.60548572
   0.49919547  0.50122759  0.60374718
   0.58333333  0.83333333  0.40830017
   0.83333333  0.08333333  0.40830017
   0.66835831  0.41496349  0.50867387
   0.16536874  0.16566647  0.50779776
   0.08333333  0.58333333  0.40830017
   0.75099496  0.74943052  0.60553243
Direct configuration=    11
   0.08333333  0.08333333  0.40830017
   0.83333333  0.33333333  0.40830017
   0.00083906 -0.00234243  0.60717143
   0.08333333  0.33333333  0.40830017
   0.00044169  0.25118961  0.60842267
   0.66650271  0.66720657  0.50958125
   0.91670552  0.66935355  0.50703517
  -0.00210201  0.50240097  0.61216954
   0.83333333  0.58333333  0.40830017
   0.74881592  0.25367984  0.61145397
   0.25083855 -0.00088659  0.60955858
   0.75229207 -0.00336812  0.61011091
   0.49834485  0.25219023  0.61225620
   0.66987395  0.16638536  0.50931243
   0.16638185  0.41794691  0.50775137
   0.50137640  0.74618176  0.61519682
   0.41486294  0.91746011  0.50606961
   0.24977256  0.50298961  0.61057223
   0.41450643  0.66578523  0.50675305
   0.58333333  0.08333333  0.40830017
   0.41556967  0.16747961  0.50800970
   0.50093754 -0.00147122  0.61237834
   0.58333333  0.33333333  0.40830017
   0.58333333  0.58333333  0.40830017
   0.00105635  0.74982957  0.60271252
   0.41598949  0.41737836  0.50742624
   0.33333333  0.08333333  0.40830017
   0.33333333  0.33333333  0.40830017
   0.16365025  0.91696104  0.50612401
   0.33333333  0.58333333  0.40830017
   0.16687604  0.66772013  0.50474044
   0.33333333  0.83333333  0.40830017
   0.91832559  0.91720740  0.50501894
   0.24975265  0.25080256  0.60538012
   0.08333333  0.83333333  0.40830017
   0.24977707  0.74913332  0.60226791
   0.91663875  0.41556795  0.50963104
   0.91730913  0.16755416  0.50815584
   0.66795963  0.91712794  0.50746523
   0.83333333  0.83333333  0.40830017
   0.74936353  0.50074876  0.60559604
   0.49927887  0.50118830  0.60384922
   0.58333333  0.83333333  0.40830017
   0.83333333  0.08333333  0.40830017
   0.66857504  0.41484543  0.50870942
   0.16534541  0.16600513  0.50778399
   0.08333333  0.58333333  0.40830017
   0.75098479  0.74930448  0.60558662
Direct configuration=    12
   0.08333333  0.08333333  0.40830017
   0.83333333  0.33333333  0.40830017
   0.00114308 -0.00241222  0.60712440
   0.08333333  0.33333333  0.40830017
   0.00043511  0.25133220  0.60843058
   0.66647238  0.66710110  0.50962630
   0.91694857  0.66931659  0.50698971
  -0.00191821  0.50246983  0.61197473
   0.83333333  0.58333333  0.40830017
   0.74864011  0.25375917  0.61146094
   0.25080400 -0.00102701  0.60948095
   0.75201798 -0.00329417  0.61007757
   0.49838643  0.25218030  0.61222469
   0.66991259  0.16626935  0.50904252
   0.16637372  0.41805495  0.50768079
   0.50131208  0.74622491  0.61503184
   0.41472287  0.91762298  0.50602669
   0.24965218  0.50295452  0.61039815
   0.41437425  0.66572087  0.50676073
   0.58333333  0.08333333  0.40830017
   0.41563679  0.16740379  0.50785792
   0.50111052 -0.00152935  0.61233086
   0.58333333  0.33333333  0.40830017
   0.58333333  0.58333333  0.40830017
   0.00101658  0.74974609  0.60278458
   0.41606108  0.41756100  0.50755951
   0.33333333  0.08333333  0.40830017
   0.33333333  0.33333333  0.40830017
   0.16332896  0.91723458  0.50619909
   0.33333333  0.58333333  0.40830017
   0.16681065  0.66789788  0.50501875
   0.33333333  0.83333333  0.40830017
   0.91833380  0.91735415  0.50524156
   0.24979727  0.25102277  0.60557796
   0.08333333  0.83333333  0.40830017
   0.24996699  0.74913001  0.60235232
   0.91668521  0.41550961  0.50968563
   0.91756948  0.16722161  0.50812743
   0.66793002  0.91718835  0.50762924
   0.83333333  0.83333333  0.40830017
   0.74921360  0.50096610  0.60576103
   0.49941611  0.50122697  0.60400043
   0.58333333  0.83333333  0.40830017
   0.83333333  0.08333333  0.40830017
   0.66851092  0.41501608  0.50881469
   0.16514877  0.16601027  0.50775308
   0.08333333  0.58333333  0.40830017
   0.75094306  0.74936271  0.60564196
Direct configuration=    13
   0.08333333  0.08333333  0.40830017
   0.83333333  0.33333333  0.40830017
   0.00125341 -0.00243755  0.60710733
   0.08333333  0.33333333  0.40830017
   0.00043271  0.25138394  0.60843345
   0.66646137  0.66706282  0.50964265
   0.91703677  0.66930317  0.50697321
  -0.00185151  0.50249482  0.61190403
   0.83333333  0.58333333  0.40830017
   0.74857631  0.25378796  0.61146347
   0.25079147 -0.00107797  0.60945278
   0.75191851 -0.00326734  0.61006548
   0.49840151  0.25217670  0.61221325
   0.66992661  0.16622725  0.50894457
   0.16637076  0.41809416  0.50765518
   0.50128874  0.74624056  0.61497197
   0.41467204  0.91768209  0.50601111
   0.24960849  0.50294178  0.61033497
   0.41432629  0.66569751  0.50676351
   0.58333333  0.08333333  0.40830017
   0.41566114  0.16737627  0.50780284
   0.50117330 -0.00155044  0.61231363
   0.58333333  0.33333333  0.40830017
   0.58333333  0.58333333  0.40830017
   0.00100215  0.74971579  0.60281073
   0.41608706  0.41762728  0.50760787
   0.33333333  0.08333333  0.40830017
   0.33333333  0.33333333  0.40830017
   0.16321236  0.91733386  0.50622634
   0.33333333  0.58333333  0.40830017
   0.16678691  0.66796239  0.50511975
   0.33333333  0.83333333  0.40830017
   0.91833678  0.91740741  0.50532235
   0.24981347  0.25110268  0.60564976
   0.08333333  0.83333333  0.40830017
   0.25003591  0.74912881  0.60238295
   0.91670207  0.41548843  0.50970544
   0.91766397  0.16710092  0.50811712
   0.66791927  0.91721028  0.50768876
   0.83333333  0.83333333  0.40830017
   0.74915919  0.50104497  0.60582091
   0.49946592  0.50124100  0.60405530
   0.58333333  0.83333333  0.40830017
   0.83333333  0.08333333  0.40830017
   0.66848765  0.41507801  0.50885290
   0.16507740  0.16601214  0.50774186
   0.08333333  0.58333333  0.40830017
   0.75092791  0.74938385  0.60566204
Direct configuration=    14
   0.08333333  0.08333333  0.40830017
   0.83333333  0.33333333  0.40830017
   0.00122024 -0.00248819  0.60713222
   0.08333333  0.33333333  0.40830017
   0.00039815  0.25146701  0.60843791
   0.66642681  0.66709597  0.50972124
   0.91698287  0.66961373  0.50694503
  -0.00188307  0.50252562  0.61171884
   0.83333333  0.58333333  0.40830017
   0.74866644  0.25377810  0.61141801
   0.25083970 -0.00095607  0.60938065
   0.75200605 -0.00330045  0.61002767
   0.49832973  0.25233161  0.61214448
   0.67006075  0.16624034  0.50882447
   0.16653446  0.41802313  0.50761792
   0.50128095  0.74630723  0.61482797
   0.41446157  0.91779949  0.50595934
   0.24975510  0.50301322  0.61020392
   0.41421155  0.66584774  0.50679188
   0.58333333  0.08333333  0.40830017
   0.41555342  0.16741682  0.50782737
   0.50109363 -0.00152954  0.61224609
   0.58333333  0.33333333  0.40830017
   0.58333333  0.58333333  0.40830017
   0.00094739  0.74986403  0.60292062
   0.41619415  0.41760890  0.50765801
   0.33333333  0.08333333  0.40830017
   0.33333333  0.33333333  0.40830017
   0.16314682  0.91735157  0.50617961
   0.33333333  0.58333333  0.40830017
   0.16661229  0.66825851  0.50521897
   0.33333333  0.83333333  0.40830017
   0.91840130  0.91738019  0.50537208
   0.24991634  0.25103189  0.60567351
   0.08333333  0.83333333  0.40830017
   0.25008678  0.74898659  0.60249674
   0.91673109  0.41531381  0.50971781
   0.91759568  0.16713906  0.50808242
   0.66796369  0.91716779  0.50774794
   0.83333333  0.83333333  0.40830017
   0.74918690  0.50112966  0.60593050
   0.49940060  0.50133039  0.60419196
   0.58333333  0.83333333  0.40830017
   0.83333333  0.08333333  0.40830017
   0.66847076  0.41505840  0.50895988
   0.16508948  0.16594463  0.50777390
   0.08333333  0.58333333  0.40830017
   0.75101530  0.74937943  0.60566875
Direct configuration=    15
   0.08333333  0.08333333  0.40830017
   0.83333333  0.33333333  0.40830017
   0.00120509 -0.00251131  0.60714359
   0.08333333  0.33333333  0.40830017
   0.00038237  0.25150495  0.60843995
   0.66641102  0.66711111  0.50975714
   0.91695825  0.66975557  0.50693216
  -0.00189748  0.50253968  0.61163427
   0.83333333  0.58333333  0.40830017
   0.74870760  0.25377360  0.61139725
   0.25086173 -0.00090040  0.60934770
   0.75204604 -0.00331558  0.61001041
   0.49829695  0.25240236  0.61211307
   0.67012201  0.16624632  0.50876961
   0.16660922  0.41799068  0.50760090
   0.50127739  0.74633768  0.61476221
   0.41436545  0.91785310  0.50593570
   0.24982206  0.50304585  0.61014407
   0.41415914  0.66591635  0.50680484
   0.58333333  0.08333333  0.40830017
   0.41550423  0.16743534  0.50783857
   0.50105725 -0.00152000  0.61221524
   0.58333333  0.33333333  0.40830017
   0.58333333  0.58333333  0.40830017
   0.00092239  0.74993173  0.60297080
   0.41624307  0.41760051  0.50768092
   0.33333333  0.08333333  0.40830017
   0.33333333  0.33333333  0.40830017
   0.16311689  0.91735966  0.50615827
   0.33333333  0.58333333  0.40830017
   0.16653254  0.66839375  0.50526429
   0.33333333  0.83333333  0.40830017
   0.91843076  0.91736776  0.50539480
   0.24996332  0.25099956  0.60568435
   0.08333333  0.83333333  0.40830017
   0.25011001  0.74892163  0.60254871
   0.91674435  0.41523406  0.50972346
   0.91756449  0.16715647  0.50806657
   0.66798397  0.91714838  0.50777496
   0.83333333  0.83333333  0.40830017
   0.74919955  0.50116834  0.60598055
   0.49937077  0.50137121  0.60425438
   0.58333333  0.83333333  0.40830017
   0.83333333  0.08333333  0.40830017
   0.66846305  0.41504944  0.50900875
   0.16509499  0.16591380  0.50778853
   0.08333333  0.58333333  0.40830017
   0.75105521  0.74937742  0.60567182
Direct configuration=    16
   0.08333333  0.08333333  0.40830017
   0.83333333  0.33333333  0.40830017
   0.00128358 -0.00247656  0.60719534
   0.08333333  0.33333333  0.40830017
   0.00040609  0.25146045  0.60845299
   0.66646517  0.66711241  0.50980754
   0.91692314  0.66974747  0.50691631
  -0.00179980  0.50252875  0.61139814
   0.83333333  0.58333333  0.40830017
   0.74878875  0.25378882  0.61133313
   0.25073990 -0.00079101  0.60927737
   0.75199197 -0.00317901  0.60996900
   0.49843429  0.25239470  0.61201849
   0.67014284  0.16617210  0.50872729
   0.16655109  0.41813223  0.50756376
   0.50127272  0.74641772  0.61460955
   0.41435301  0.91785375  0.50585454
   0.24977919  0.50311001  0.61002039
   0.41413090  0.66596900  0.50685384
   0.58333333  0.08333333  0.40830017
   0.41557377  0.16741995  0.50790714
   0.50110936 -0.00145366  0.61212284
   0.58333333  0.33333333  0.40830017
   0.58333333  0.58333333  0.40830017
   0.00093815  0.74998568  0.60313177
   0.41634618  0.41762832  0.50767448
   0.33333333  0.08333333  0.40830017
   0.33333333  0.33333333  0.40830017
   0.16305996  0.91736061  0.50610293
   0.33333333  0.58333333  0.40830017
   0.16649044  0.66849104  0.50528099
   0.33333333  0.83333333  0.40830017
   0.91844653  0.91744745  0.50537669
   0.24996488  0.25103730  0.60565065
   0.08333333  0.83333333  0.40830017
   0.25002582  0.74906228  0.60267990
   0.91674214  0.41527043  0.50970383
   0.91749973  0.16725388  0.50804701
   0.66785263  0.91725788  0.50777953
   0.83333333  0.83333333  0.40830017
   0.74925268  0.50116595  0.60608100
   0.49943533  0.50145308  0.60441400
   0.58333333  0.83333333  0.40830017
   0.83333333  0.08333333  0.40830017
   0.66837210  0.41517171  0.50912276
   0.16503957  0.16594848  0.50782828
   0.08333333  0.58333333  0.40830017
   0.75112442  0.74943555  0.60569089
