unknown system                          
           1
    11.002582    0.000000    0.000000
     5.501291    9.528515    0.000000
     0.000000    0.000000   26.191785
   Au   O    Pd
  24   8  24
Direct configuration=     1
   0.08333333  0.08333333  0.38179910
   0.91894568  0.91707804  0.47133876
   0.01009958  0.00253001  0.56908116
   0.99405147  0.50618070  0.56968598
   0.91742875  0.41331352  0.47135959
   0.33333333  0.08333333  0.38179910
   0.91559703  0.66717038  0.47383145
   0.33333333  0.83333333  0.38179910
   0.16785088  0.16431794  0.47627479
   0.41570690  0.66836838  0.47707849
   0.66642944  0.41373007  0.47331883
   0.83333333  0.08333333  0.38179910
   0.75057141  0.98911725  0.56272489
   0.58333333  0.83333333  0.38179910
   0.66472407  0.66949844  0.47313394
   0.50489922  0.23965545  0.56650644
   0.16851499  0.41568290  0.47310204
   0.41681330  0.41587874  0.47545092
   0.49679905  0.00011295  0.56527532
   0.58333333  0.08333333  0.38179910
   0.75354965  0.74648681  0.57412550
   0.23692667  0.50704297  0.56874279
   0.33333333  0.58333333  0.38179910
   0.49405531  0.75198027  0.57067526
   0.33678231  0.31433358  0.61636539
   0.33998332  0.60172603  0.61509807
   0.08206890  0.81894964  0.61160350
   0.83079484  0.07641089  0.61416485
   0.09067182  0.32008341  0.61633728
   0.83086228  0.35099322  0.60959604
   0.58558105  0.33623637  0.61421205
   0.57651836  0.83847689  0.62364237
   0.33333333  0.33333333  0.38179910
   0.25180284  0.23999721  0.56869098
   0.99419381  0.74798888  0.56400215
   0.16626095  0.66843763  0.47250785
   0.16601813  0.91715961  0.47565798
   0.25140498  0.75271668  0.56539370
   0.08333333  0.83333333  0.38179910
   0.83333333  0.83333333  0.38179910
   0.41869633  0.16468690  0.47622346
   0.74769999  0.50869719  0.56156323
   0.58333333  0.33333333  0.38179910
   0.08333333  0.58333333  0.38179910
   0.25316012  0.99850822  0.56440954
   0.66594489  0.16721141  0.47593423
   0.50659320  0.50740862  0.57230139
   0.75107662  0.25303807  0.56909095
   0.00673377  0.24174655  0.57002529
   0.91615944  0.16595418  0.47879030
   0.41548171  0.91702924  0.47355113
   0.08333333  0.33333333  0.38179910
   0.83333333  0.33333333  0.38179910
   0.66676295  0.91741797  0.47410321
   0.58333333  0.58333333  0.38179910
   0.83333333  0.58333333  0.38179910
Direct configuration=     2
   0.08333333  0.08333333  0.38179910
   0.91890983  0.91693366  0.47133569
   0.01015565  0.00272943  0.56905007
   0.99378821  0.50611001  0.56969932
   0.91738616  0.41327334  0.47132508
   0.33333333  0.08333333  0.38179910
   0.91564153  0.66728841  0.47396810
   0.33333333  0.83333333  0.38179910
   0.16770281  0.16461623  0.47636485
   0.41574033  0.66836154  0.47725230
   0.66655703  0.41357826  0.47329648
   0.83333333  0.08333333  0.38179910
   0.75062469  0.98935575  0.56256431
   0.58333333  0.83333333  0.38179910
   0.66484923  0.66938709  0.47323286
   0.50522369  0.23952961  0.56652465
   0.16864327  0.41571860  0.47301792
   0.41679393  0.41582001  0.47524877
   0.49643727  0.00048949  0.56528085
   0.58333333  0.08333333  0.38179910
   0.75403505  0.74601944  0.57444572
   0.23706423  0.50705540  0.56884469
   0.33333333  0.58333333  0.38179910
   0.49371425  0.75179016  0.57070680
   0.33683603  0.31437694  0.61653704
   0.33991347  0.60148781  0.61526885
   0.08229094  0.81909318  0.61167047
   0.83088087  0.07650301  0.61442827
   0.09102425  0.32006816  0.61628072
   0.83074547  0.35105090  0.60972549
   0.58545078  0.33644738  0.61424580
   0.57639781  0.83858675  0.62342099
   0.33333333  0.33333333  0.38179910
   0.25186665  0.24029486  0.56893010
   0.99443223  0.74766921  0.56377827
   0.16633773  0.66815383  0.47249332
   0.16584889  0.91700731  0.47577787
   0.25152623  0.75274390  0.56556443
   0.08333333  0.83333333  0.38179910
   0.83333333  0.83333333  0.38179910
   0.41878225  0.16465836  0.47630598
   0.74804292  0.50801226  0.56146204
   0.58333333  0.33333333  0.38179910
   0.08333333  0.58333333  0.38179910
   0.25273320  0.99857302  0.56412841
   0.66589943  0.16732632  0.47581795
   0.50674110  0.50724263  0.57235326
   0.75047533  0.25333312  0.56916243
   0.00642070  0.24142412  0.57004555
   0.91622085  0.16594319  0.47879567
   0.41562901  0.91708465  0.47368125
   0.08333333  0.33333333  0.38179910
   0.83333333  0.33333333  0.38179910
   0.66678846  0.91752361  0.47410177
   0.58333333  0.58333333  0.38179910
   0.83333333  0.58333333  0.38179910
Direct configuration=     3
   0.08333333  0.08333333  0.38179910
   0.91884063  0.91665493  0.47132976
   0.01026391  0.00311439  0.56899006
   0.99327999  0.50597355  0.56972506
   0.91730394  0.41319578  0.47125848
   0.33333333  0.08333333  0.38179910
   0.91572743  0.66751627  0.47423190
   0.33333333  0.83333333  0.38179910
   0.16741695  0.16519208  0.47653872
   0.41580487  0.66834832  0.47758785
   0.66680334  0.41328521  0.47325331
   0.83333333  0.08333333  0.38179910
   0.75072753  0.98981616  0.56225430
   0.58333333  0.83333333  0.38179910
   0.66509084  0.66917215  0.47342381
   0.50585007  0.23928669  0.56655979
   0.16889091  0.41578751  0.47285552
   0.41675654  0.41570663  0.47485852
   0.49573886  0.00121639  0.56529153
   0.58333333  0.08333333  0.38179910
   0.75497210  0.74511720  0.57506391
   0.23732980  0.50707939  0.56904141
   0.33333333  0.58333333  0.38179910
   0.49305584  0.75142315  0.57076768
   0.33693974  0.31446066  0.61686842
   0.33977862  0.60102794  0.61559854
   0.08271958  0.81937028  0.61179975
   0.83104695  0.07668085  0.61493680
   0.09170459  0.32003872  0.61617155
   0.83051995  0.35116225  0.60997540
   0.58519930  0.33685472  0.61431094
   0.57616509  0.83879883  0.62299360
   0.33333333  0.33333333  0.38179910
   0.25198982  0.24086948  0.56939172
   0.99489249  0.74705208  0.56334607
   0.16648597  0.66760595  0.47246528
   0.16552216  0.91671328  0.47600931
   0.25176030  0.75279646  0.56589403
   0.08333333  0.83333333  0.38179910
   0.83333333  0.83333333  0.38179910
   0.41894813  0.16460325  0.47646529
   0.74870494  0.50669002  0.56126669
   0.58333333  0.33333333  0.38179910
   0.08333333  0.58333333  0.38179910
   0.25190902  0.99869812  0.56358570
   0.66581167  0.16754815  0.47559349
   0.50702663  0.50692221  0.57245340
   0.74931456  0.25390270  0.56930041
   0.00581633  0.24080168  0.57008467
   0.91633939  0.16592199  0.47880605
   0.41591338  0.91719162  0.47393243
   0.08333333  0.33333333  0.38179910
   0.83333333  0.33333333  0.38179910
   0.66683771  0.91772755  0.47409898
   0.58333333  0.58333333  0.38179910
   0.83333333  0.58333333  0.38179910
Direct configuration=     4
   0.08333333  0.08333333  0.38179910
   0.91883078  0.91659467  0.47129292
   0.00970047  0.00305839  0.56913706
   0.99343710  0.50556671  0.56973422
   0.91733032  0.41325098  0.47119173
   0.33333333  0.08333333  0.38179910
   0.91569581  0.66747396  0.47435798
   0.33333333  0.83333333  0.38179910
   0.16733593  0.16548063  0.47662143
   0.41583108  0.66831402  0.47778882
   0.66680069  0.41320882  0.47320195
   0.83333333  0.08333333  0.38179910
   0.75108381  0.98981592  0.56211104
   0.58333333  0.83333333  0.38179910
   0.66522711  0.66911514  0.47355836
   0.50574218  0.23940463  0.56663111
   0.16894253  0.41579680  0.47279191
   0.41684577  0.41562619  0.47463197
   0.49554594  0.00129721  0.56531715
   0.58333333  0.08333333  0.38179910
   0.75519962  0.74492395  0.57555609
   0.23744220  0.50696032  0.56919159
   0.33333333  0.58333333  0.38179910
   0.49304047  0.75134596  0.57083442
   0.33732291  0.31453765  0.61711868
   0.33979632  0.60071642  0.61576054
   0.08264918  0.81952947  0.61171434
   0.83123373  0.07673493  0.61509088
   0.09142167  0.32008843  0.61613810
   0.83035583  0.35104978  0.61015022
   0.58485776  0.33711100  0.61452266
   0.57592294  0.83898315  0.62270064
   0.33333333  0.33333333  0.38179910
   0.25220598  0.24083175  0.56949952
   0.99540908  0.74714765  0.56321865
   0.16668614  0.66730603  0.47244059
   0.16540008  0.91650606  0.47608442
   0.25174266  0.75263413  0.56617204
   0.08333333  0.83333333  0.38179910
   0.83333333  0.83333333  0.38179910
   0.41899087  0.16464016  0.47656202
   0.74888299  0.50624460  0.56111514
   0.58333333  0.33333333  0.38179910
   0.08333333  0.58333333  0.38179910
   0.25169079  0.99892114  0.56326615
   0.66582670  0.16763375  0.47541790
   0.50678108  0.50702183  0.57254554
   0.74940837  0.25367588  0.56944327
   0.00585021  0.24086374  0.57025219
   0.91636711  0.16582216  0.47880681
   0.41602230  0.91723101  0.47404212
   0.08333333  0.33333333  0.38179910
   0.83333333  0.33333333  0.38179910
   0.66684243  0.91777301  0.47410775
   0.58333333  0.58333333  0.38179910
   0.83333333  0.58333333  0.38179910
Direct configuration=     5
   0.08333333  0.08333333  0.38179910
   0.91881429  0.91649368  0.47123118
   0.00875618  0.00296453  0.56938341
   0.99370043  0.50488487  0.56974956
   0.91737454  0.41334348  0.47107985
   0.33333333  0.08333333  0.38179910
   0.91564281  0.66740305  0.47456929
   0.33333333  0.83333333  0.38179910
   0.16720014  0.16596422  0.47676005
   0.41587500  0.66825653  0.47812564
   0.66679624  0.41308080  0.47311587
   0.83333333  0.08333333  0.38179910
   0.75168092  0.98981552  0.56187095
   0.58333333  0.83333333  0.38179910
   0.66545549  0.66901961  0.47378387
   0.50556135  0.23960228  0.56675063
   0.16902903  0.41581236  0.47268529
   0.41699531  0.41549138  0.47425228
   0.49522263  0.00143266  0.56536008
   0.58333333  0.08333333  0.38179910
   0.75558092  0.74460007  0.57638097
   0.23763059  0.50676076  0.56944329
   0.33333333  0.58333333  0.38179910
   0.49301471  0.75121660  0.57094628
   0.33796509  0.31466668  0.61753810
   0.33982598  0.60019433  0.61603204
   0.08253120  0.81979625  0.61157120
   0.83154677  0.07682557  0.61534910
   0.09094750  0.32017174  0.61608204
   0.83008076  0.35086128  0.61044322
   0.58428537  0.33754051  0.61487749
   0.57551712  0.83929207  0.62220965
   0.33333333  0.33333333  0.38179910
   0.25256825  0.24076851  0.56968020
   0.99627487  0.74730782  0.56300510
   0.16702161  0.66680339  0.47239921
   0.16519548  0.91615875  0.47621029
   0.25171310  0.75236208  0.56663796
   0.08333333  0.83333333  0.38179910
   0.83333333  0.83333333  0.38179910
   0.41906249  0.16470201  0.47672413
   0.74918141  0.50549808  0.56086115
   0.58333333  0.33333333  0.38179910
   0.08333333  0.58333333  0.38179910
   0.25132506  0.99929490  0.56273058
   0.66585189  0.16777721  0.47512361
   0.50636954  0.50718881  0.57269996
   0.74956559  0.25329573  0.56968269
   0.00590698  0.24096774  0.57053294
   0.91641356  0.16565485  0.47880810
   0.41620485  0.91729703  0.47422596
   0.08333333  0.33333333  0.38179910
   0.83333333  0.33333333  0.38179910
   0.66685034  0.91784919  0.47412243
   0.58333333  0.58333333  0.38179910
   0.83333333  0.58333333  0.38179910
Direct configuration=     6
   0.08333333  0.08333333  0.38179910
   0.91888051  0.91643880  0.47111783
   0.00848290  0.00312717  0.56946573
   0.99399719  0.50509917  0.56965460
   0.91742350  0.41338917  0.47100023
   0.33333333  0.08333333  0.38179910
   0.91559295  0.66723172  0.47467357
   0.33333333  0.83333333  0.38179910
   0.16721738  0.16601376  0.47673188
   0.41586731  0.66828212  0.47829152
   0.66670762  0.41315656  0.47308474
   0.83333333  0.08333333  0.38179910
   0.75169121  0.98962376  0.56175160
   0.58333333  0.83333333  0.38179910
   0.66542542  0.66911245  0.47388646
   0.50549919  0.23979340  0.56684457
   0.16900131  0.41582708  0.47270080
   0.41715679  0.41538734  0.47413130
   0.49552735  0.00143758  0.56531051
   0.58333333  0.08333333  0.38179910
   0.75646293  0.74431914  0.57687665
   0.23755341  0.50640773  0.56960549
   0.33333333  0.58333333  0.38179910
   0.49311787  0.75109997  0.57093810
   0.33828764  0.31458909  0.61772843
   0.33988579  0.59986390  0.61627785
   0.08220435  0.81985683  0.61168526
   0.83139026  0.07691262  0.61549142
   0.09068806  0.32017056  0.61625019
   0.82988222  0.35077044  0.61055028
   0.58416332  0.33756727  0.61507135
   0.57507217  0.83967544  0.62225884
   0.33333333  0.33333333  0.38179910
   0.25276249  0.24080509  0.56979037
   0.99641913  0.74711050  0.56288625
   0.16726080  0.66663754  0.47237336
   0.16518894  0.91601289  0.47622300
   0.25175322  0.75238491  0.56680738
   0.08333333  0.83333333  0.38179910
   0.83333333  0.83333333  0.38179910
   0.41905105  0.16480850  0.47679629
   0.74909386  0.50536696  0.56076932
   0.58333333  0.33333333  0.38179910
   0.08333333  0.58333333  0.38179910
   0.25125992  0.99934048  0.56254734
   0.66588899  0.16774137  0.47501985
   0.50616018  0.50719336  0.57280412
   0.74976078  0.25303157  0.56996543
   0.00584381  0.24084497  0.57070482
   0.91647663  0.16552868  0.47885473
   0.41618342  0.91725042  0.47419679
   0.08333333  0.33333333  0.38179910
   0.83333333  0.33333333  0.38179910
   0.66686410  0.91777470  0.47415874
   0.58333333  0.58333333  0.38179910
   0.83333333  0.58333333  0.38179910
Direct configuration=     7
   0.08333333  0.08333333  0.38179910
   0.91898015  0.91635623  0.47094727
   0.00807168  0.00337190  0.56958961
   0.99444375  0.50542166  0.56951172
   0.91749717  0.41345793  0.47088042
   0.33333333  0.08333333  0.38179910
   0.91551791  0.66697390  0.47483049
   0.33333333  0.83333333  0.38179910
   0.16724332  0.16608831  0.47668949
   0.41585574  0.66832062  0.47854113
   0.66657426  0.41327057  0.47303791
   0.83333333  0.08333333  0.38179910
   0.75170671  0.98933521  0.56157201
   0.58333333  0.83333333  0.38179910
   0.66538016  0.66925215  0.47404082
   0.50540565  0.24008098  0.56698592
   0.16895958  0.41584922  0.47272414
   0.41739977  0.41523079  0.47394924
   0.49598590  0.00144499  0.56523593
   0.58333333  0.08333333  0.38179910
   0.75779016  0.74389642  0.57762254
   0.23743726  0.50587651  0.56984957
   0.33333333  0.58333333  0.38179910
   0.49327310  0.75092447  0.57092580
   0.33877299  0.31447232  0.61801484
   0.33997579  0.59936669  0.61664775
   0.08171251  0.81994799  0.61185691
   0.83115475  0.07704362  0.61570558
   0.09029765  0.32016877  0.61650321
   0.82958346  0.35063374  0.61071138
   0.58397965  0.33760754  0.61536306
   0.57440263  0.84025232  0.62233287
   0.33333333  0.33333333  0.38179910
   0.25305477  0.24086013  0.56995617
   0.99663620  0.74681358  0.56270741
   0.16762074  0.66638798  0.47233447
   0.16517910  0.91579340  0.47624214
   0.25181360  0.75241928  0.56706232
   0.08333333  0.83333333  0.38179910
   0.83333333  0.83333333  0.38179910
   0.41903385  0.16496875  0.47690487
   0.74896212  0.50516964  0.56063114
   0.58333333  0.33333333  0.38179910
   0.08333333  0.58333333  0.38179910
   0.25116190  0.99940908  0.56227162
   0.66594481  0.16768744  0.47486370
   0.50584514  0.50720022  0.57296084
   0.75005449  0.25263405  0.57039088
   0.00574876  0.24066023  0.57096346
   0.91657154  0.16533884  0.47892489
   0.41615118  0.91718027  0.47415291
   0.08333333  0.33333333  0.38179910
   0.83333333  0.33333333  0.38179910
   0.66688480  0.91766261  0.47421337
   0.58333333  0.58333333  0.38179910
   0.83333333  0.58333333  0.38179910
Direct configuration=     8
   0.08333333  0.08333333  0.38179910
   0.91908353  0.91619406  0.47082693
   0.00819914  0.00319996  0.56967675
   0.99477756  0.50512475  0.56941560
   0.91747131  0.41338684  0.47083232
   0.33333333  0.08333333  0.38179910
   0.91550329  0.66689863  0.47485605
   0.33333333  0.83333333  0.38179910
   0.16727676  0.16602235  0.47662139
   0.41584593  0.66832309  0.47867721
   0.66659008  0.41332326  0.47304421
   0.83333333  0.08333333  0.38179910
   0.75160874  0.98933146  0.56148332
   0.58333333  0.83333333  0.38179910
   0.66523597  0.66939049  0.47411359
   0.50566663  0.24016081  0.56704483
   0.16900709  0.41584468  0.47277864
   0.41751355  0.41514316  0.47392589
   0.49644351  0.00120649  0.56516304
   0.58333333  0.08333333  0.38179910
   0.75820148  0.74375592  0.57831756
   0.23748321  0.50574332  0.57005849
   0.33333333  0.58333333  0.38179910
   0.49360696  0.75098857  0.57092340
   0.33891959  0.31420593  0.61819061
   0.33982678  0.59931500  0.61682102
   0.08130684  0.81990320  0.61196636
   0.83082692  0.07689769  0.61584624
   0.09033632  0.32014379  0.61663146
   0.82943232  0.35081351  0.61077395
   0.58403159  0.33754687  0.61552365
   0.57403632  0.84062112  0.62247741
   0.33333333  0.33333333  0.38179910
   0.25277324  0.24104367  0.57021374
   0.99690736  0.74672930  0.56260983
   0.16780895  0.66627614  0.47233134
   0.16519656  0.91573060  0.47622590
   0.25168266  0.75230517  0.56732197
   0.08333333  0.83333333  0.38179910
   0.83333333  0.83333333  0.38179910
   0.41902344  0.16505807  0.47695533
   0.74894459  0.50512311  0.56061474
   0.58333333  0.33333333  0.38179910
   0.08333333  0.58333333  0.38179910
   0.25127758  0.99936060  0.56219409
   0.66601747  0.16756756  0.47486213
   0.50577108  0.50700591  0.57312618
   0.74984156  0.25261923  0.57070398
   0.00572641  0.24067689  0.57115625
   0.91660721  0.16533814  0.47900333
   0.41607871  0.91714097  0.47403420
   0.08333333  0.33333333  0.38179910
   0.83333333  0.33333333  0.38179910
   0.66691196  0.91751445  0.47422791
   0.58333333  0.58333333  0.38179910
   0.83333333  0.58333333  0.38179910
Direct configuration=     9
   0.08333333  0.08333333  0.38179910
   0.91935033  0.91577553  0.47051639
   0.00852810  0.00275621  0.56990166
   0.99563906  0.50435852  0.56916752
   0.91740457  0.41320336  0.47070818
   0.33333333  0.08333333  0.38179910
   0.91546554  0.66670437  0.47492202
   0.33333333  0.83333333  0.38179910
   0.16736308  0.16585210  0.47644566
   0.41582061  0.66832944  0.47902840
   0.66663091  0.41345923  0.47306048
   0.83333333  0.08333333  0.38179910
   0.75135590  0.98932179  0.56125443
   0.58333333  0.83333333  0.38179910
   0.66486387  0.66974749  0.47430139
   0.50634016  0.24036682  0.56719688
   0.16912969  0.41583295  0.47291929
   0.41780720  0.41491702  0.47386564
   0.49762448  0.00059100  0.56497495
   0.58333333  0.08333333  0.38179910
   0.75926299  0.74339334  0.58011125
   0.23760179  0.50539959  0.57059767
   0.33333333  0.58333333  0.38179910
   0.49446856  0.75115399  0.57091720
   0.33929791  0.31351844  0.61864425
   0.33944222  0.59918162  0.61726819
   0.08025991  0.81978762  0.61224882
   0.82998086  0.07652107  0.61620927
   0.09043612  0.32007930  0.61696246
   0.82904225  0.35127744  0.61093541
   0.58416561  0.33739029  0.61593808
   0.57309095  0.84157289  0.62285044
   0.33333333  0.33333333  0.38179910
   0.25204667  0.24151733  0.57087848
   0.99760716  0.74651177  0.56235800
   0.16829467  0.66598753  0.47232327
   0.16524162  0.91556854  0.47618402
   0.25134471  0.75201069  0.56799207
   0.08333333  0.83333333  0.38179910
   0.83333333  0.83333333  0.38179910
   0.41899657  0.16528857  0.47708554
   0.74889936  0.50500302  0.56057241
   0.58333333  0.33333333  0.38179910
   0.08333333  0.58333333  0.38179910
   0.25157612  0.99923549  0.56199400
   0.66620497  0.16725818  0.47485810
   0.50557997  0.50650445  0.57355286
   0.74929204  0.25258099  0.57151200
   0.00566873  0.24071990  0.57165382
   0.91669924  0.16533633  0.47920574
   0.41589170  0.91703956  0.47372787
   0.08333333  0.33333333  0.38179910
   0.83333333  0.33333333  0.38179910
   0.66698204  0.91713209  0.47426544
   0.58333333  0.58333333  0.38179910
   0.83333333  0.58333333  0.38179910
Direct configuration=    10
   0.08333333  0.08333333  0.38179910
   0.91941235  0.91564891  0.47045973
   0.00851015  0.00271148  0.56998797
   0.99564773  0.50417578  0.56906109
   0.91736757  0.41314192  0.47070207
   0.33333333  0.08333333  0.38179910
   0.91548338  0.66666580  0.47491799
   0.33333333  0.83333333  0.38179910
   0.16737233  0.16581733  0.47641491
   0.41580301  0.66829295  0.47915007
   0.66667326  0.41343588  0.47308915
   0.83333333  0.08333333  0.38179910
   0.75146086  0.98928555  0.56119862
   0.58333333  0.83333333  0.38179910
   0.66479061  0.66979520  0.47434467
   0.50631161  0.24033638  0.56721981
   0.16919570  0.41580142  0.47297177
   0.41787202  0.41487517  0.47389890
   0.49771843  0.00058596  0.56488469
   0.58333333  0.08333333  0.38179910
   0.75959412  0.74317398  0.58075060
   0.23773066  0.50535832  0.57079164
   0.33333333  0.58333333  0.38179910
   0.49465519  0.75111738  0.57090271
   0.33945250  0.31323509  0.61876046
   0.33931899  0.59915944  0.61740099
   0.07996272  0.81968291  0.61236503
   0.82980085  0.07620557  0.61627917
   0.09039805  0.32013811  0.61714372
   0.82893992  0.35154690  0.61100051
   0.58411380  0.33739265  0.61617093
   0.57284042  0.84186946  0.62303077
   0.33333333  0.33333333  0.38179910
   0.25212205  0.24130707  0.57104072
   0.99770030  0.74646344  0.56226031
   0.16840603  0.66590847  0.47233557
   0.16524206  0.91554537  0.47617357
   0.25132095  0.75198647  0.56818757
   0.08333333  0.83333333  0.38179910
   0.83333333  0.83333333  0.38179910
   0.41900083  0.16529063  0.47714069
   0.74891948  0.50505894  0.56058333
   0.58333333  0.33333333  0.38179910
   0.08333333  0.58333333  0.38179910
   0.25176089  0.99916434  0.56197506
   0.66630480  0.16716365  0.47488588
   0.50551458  0.50658134  0.57367258
   0.74936976  0.25253320  0.57168425
   0.00570988  0.24062258  0.57176576
   0.91669369  0.16534874  0.47931406
   0.41583100  0.91705943  0.47362256
   0.08333333  0.33333333  0.38179910
   0.83333333  0.33333333  0.38179910
   0.66701619  0.91702411  0.47425236
   0.58333333  0.58333333  0.38179910
   0.83333333  0.58333333  0.38179910
Direct configuration=    11
   0.08333333  0.08333333  0.38179910
   0.91959842  0.91526906  0.47028978
   0.00845631  0.00257726  0.57024691
   0.99567372  0.50362758  0.56874181
   0.91725655  0.41295762  0.47068373
   0.33333333  0.08333333  0.38179910
   0.91553687  0.66655008  0.47490591
   0.33333333  0.83333333  0.38179910
   0.16740007  0.16571305  0.47632266
   0.41575020  0.66818347  0.47951509
   0.66680029  0.41336583  0.47317518
   0.83333333  0.08333333  0.38179910
   0.75177573  0.98917684  0.56103118
   0.58333333  0.83333333  0.38179910
   0.66457081  0.66993834  0.47447452
   0.50622597  0.24024505  0.56728860
   0.16939370  0.41570683  0.47312921
   0.41806648  0.41474961  0.47399868
   0.49800026  0.00057085  0.56461392
   0.58333333  0.08333333  0.38179910
   0.76058753  0.74251591  0.58266868
   0.23811727  0.50523449  0.57137354
   0.33333333  0.58333333  0.38179910
   0.49521509  0.75100753  0.57085923
   0.33991627  0.31238504  0.61910911
   0.33894930  0.59909289  0.61779937
   0.07907117  0.81936877  0.61271364
   0.82926084  0.07525907  0.61648887
   0.09028383  0.32031454  0.61768750
   0.82863295  0.35235531  0.61119582
   0.58395837  0.33739973  0.61686948
   0.57208882  0.84275918  0.62357175
   0.33333333  0.33333333  0.38179910
   0.25234817  0.24067628  0.57152745
   0.99797975  0.74631845  0.56196726
   0.16874010  0.66567128  0.47237249
   0.16524341  0.91547585  0.47614225
   0.25124965  0.75191383  0.56877406
   0.08333333  0.83333333  0.38179910
   0.83333333  0.83333333  0.38179910
   0.41901361  0.16529680  0.47730616
   0.74897983  0.50522668  0.56061608
   0.58333333  0.33333333  0.38179910
   0.08333333  0.58333333  0.38179910
   0.25231523  0.99895089  0.56191824
   0.66660429  0.16688006  0.47496923
   0.50531843  0.50681200  0.57403173
   0.74960291  0.25238983  0.57220098
   0.00583333  0.24033062  0.57210161
   0.91667705  0.16538597  0.47963899
   0.41564889  0.91711903  0.47330664
   0.08333333  0.33333333  0.38179910
   0.83333333  0.33333333  0.38179910
   0.66711862  0.91670016  0.47421312
   0.58333333  0.58333333  0.38179910
   0.83333333  0.58333333  0.38179910
Direct configuration=    12
   0.08333333  0.08333333  0.38179910
   0.91997057  0.91450937  0.46994986
   0.00834863  0.00230884  0.57076479
   0.99572572  0.50253118  0.56810324
   0.91703451  0.41258902  0.47064706
   0.33333333  0.08333333  0.38179910
   0.91564386  0.66631865  0.47488174
   0.33333333  0.83333333  0.38179910
   0.16745555  0.16550447  0.47613816
   0.41564460  0.66796451  0.48024512
   0.66705436  0.41322573  0.47334723
   0.83333333  0.08333333  0.38179910
   0.75240547  0.98895940  0.56069631
   0.58333333  0.83333333  0.38179910
   0.66413121  0.67022462  0.47473421
   0.50605468  0.24006239  0.56742618
   0.16978972  0.41551764  0.47344410
   0.41845540  0.41449850  0.47419825
   0.49856392  0.00054062  0.56407237
   0.58333333  0.08333333  0.38179910
   0.76257433  0.74119976  0.58650482
   0.23889049  0.50498684  0.57253736
   0.33333333  0.58333333  0.38179910
   0.49633489  0.75078784  0.57077226
   0.34084381  0.31068496  0.61980639
   0.33820991  0.59895978  0.61859613
   0.07728807  0.81874050  0.61341086
   0.82818083  0.07336607  0.61690827
   0.09005541  0.32066739  0.61877507
   0.82801901  0.35397212  0.61158643
   0.58364751  0.33741390  0.61826658
   0.57058562  0.84453861  0.62465372
   0.33333333  0.33333333  0.38179910
   0.25280040  0.23941469  0.57250090
   0.99853864  0.74602847  0.56138114
   0.16940824  0.66519691  0.47244632
   0.16524611  0.91533682  0.47607961
   0.25110705  0.75176853  0.56994704
   0.08333333  0.83333333  0.38179910
   0.83333333  0.83333333  0.38179910
   0.41903916  0.16530915  0.47763710
   0.74910054  0.50556216  0.56068158
   0.58333333  0.33333333  0.38179910
   0.08333333  0.58333333  0.38179910
   0.25342389  0.99852398  0.56180460
   0.66720327  0.16631288  0.47513592
   0.50492612  0.50727331  0.57475003
   0.75006921  0.25210310  0.57323446
   0.00608022  0.23974670  0.57277330
   0.91664377  0.16546045  0.48028887
   0.41528468  0.91723822  0.47267479
   0.08333333  0.33333333  0.38179910
   0.83333333  0.33333333  0.38179910
   0.66732349  0.91605227  0.47413464
   0.58333333  0.58333333  0.38179910
   0.83333333  0.58333333  0.38179910
Direct configuration=    13
   0.08333333  0.08333333  0.38179910
   0.91982161  0.91481345  0.47008592
   0.00839173  0.00241628  0.57055750
   0.99570491  0.50297004  0.56835884
   0.91712338  0.41273656  0.47066174
   0.33333333  0.08333333  0.38179910
   0.91560103  0.66641128  0.47489142
   0.33333333  0.83333333  0.38179910
   0.16743334  0.16558796  0.47621201
   0.41568687  0.66805215  0.47995290
   0.66695266  0.41328181  0.47327836
   0.83333333  0.08333333  0.38179910
   0.75215340  0.98904644  0.56083035
   0.58333333  0.83333333  0.38179910
   0.66430717  0.67011003  0.47463027
   0.50612325  0.24013551  0.56737111
   0.16963120  0.41559337  0.47331806
   0.41829973  0.41459901  0.47411837
   0.49833830  0.00055272  0.56428914
   0.58333333  0.08333333  0.38179910
   0.76177906  0.74172658  0.58496931
   0.23858099  0.50508597  0.57207151
   0.33333333  0.58333333  0.38179910
   0.49588666  0.75087578  0.57080707
   0.34047254  0.31136546  0.61952729
   0.33850587  0.59901306  0.61827720
   0.07800180  0.81899198  0.61313178
   0.82861313  0.07412379  0.61674040
   0.09014684  0.32052615  0.61833974
   0.82826476  0.35332495  0.61143008
   0.58377194  0.33740823  0.61770736
   0.57118731  0.84382635  0.62422064
   0.33333333  0.33333333  0.38179910
   0.25261938  0.23991967  0.57211125
   0.99831493  0.74614454  0.56161575
   0.16914080  0.66538679  0.47241677
   0.16524503  0.91539247  0.47610468
   0.25116413  0.75182669  0.56947752
   0.08333333  0.83333333  0.38179910
   0.83333333  0.83333333  0.38179910
   0.41902893  0.16530421  0.47750464
   0.74905222  0.50542788  0.56065536
   0.58333333  0.33333333  0.38179910
   0.08333333  0.58333333  0.38179910
   0.25298012  0.99869486  0.56185009
   0.66696352  0.16653991  0.47506920
   0.50508315  0.50708866  0.57446251
   0.74988256  0.25221787  0.57282078
   0.00598140  0.23998043  0.57250444
   0.91665709  0.16543064  0.48002874
   0.41543046  0.91719051  0.47292770
   0.08333333  0.33333333  0.38179910
   0.83333333  0.33333333  0.38179910
   0.66724149  0.91631160  0.47416605
   0.58333333  0.58333333  0.38179910
   0.83333333  0.58333333  0.38179910
Direct configuration=    14
   0.08333333  0.08333333  0.38179910
   0.91987638  0.91473684  0.47008099
   0.00848653  0.00221100  0.57075373
   0.99570273  0.50283533  0.56813380
   0.91712223  0.41273289  0.47069761
   0.33333333  0.08333333  0.38179910
   0.91566760  0.66623940  0.47484388
   0.33333333  0.83333333  0.38179910
   0.16735468  0.16566157  0.47625751
   0.41562824  0.66797880  0.48017161
   0.66696252  0.41315498  0.47336515
   0.83333333  0.08333333  0.38179910
   0.75242188  0.98860034  0.56071167
   0.58333333  0.83333333  0.38179910
   0.66435147  0.67000878  0.47466463
   0.50610274  0.24027448  0.56747541
   0.16975793  0.41548553  0.47342630
   0.41840245  0.41453793  0.47424739
   0.49849602  0.00011306  0.56418292
   0.58333333  0.08333333  0.38179910
   0.76231200  0.74144573  0.58627692
   0.23849963  0.50492095  0.57242212
   0.33333333  0.58333333  0.38179910
   0.49614529  0.75096830  0.57084043
   0.34079490  0.31083076  0.61968016
   0.33855669  0.59884328  0.61854707
   0.07759148  0.81871461  0.61328021
   0.82844966  0.07347973  0.61679102
   0.09005706  0.32051445  0.61856798
   0.82826556  0.35376350  0.61155273
   0.58363902  0.33752667  0.61795649
   0.57072441  0.84439417  0.62446468
   0.33333333  0.33333333  0.38179910
   0.25267002  0.23948785  0.57240458
   0.99824645  0.74592235  0.56148147
   0.16928476  0.66523714  0.47246067
   0.16519661  0.91537563  0.47614820
   0.25095841  0.75235624  0.56975583
   0.08333333  0.83333333  0.38179910
   0.83333333  0.83333333  0.38179910
   0.41904485  0.16520411  0.47755508
   0.74897239  0.50568620  0.56069197
   0.58333333  0.33333333  0.38179910
   0.08333333  0.58333333  0.38179910
   0.25314118  0.99845607  0.56184369