  56  56   0   0
  0.4903395E+02  0.1100258E-08  0.1100258E-08  0.2619179E-08  0.3500000E-15
  1.000000000000000E-004
  CAR 
 unknown system                          
      6.38017451    -21.73102739  301     -1.27491589      1.00000000
    -21.731  0.0000E+00  0.0000E+00
    -21.637  0.0000E+00  0.0000E+00
    -21.544  0.0000E+00  0.0000E+00
    -21.450  0.0000E+00  0.0000E+00
    -21.356  0.0000E+00  0.0000E+00
    -21.263  0.0000E+00  0.0000E+00
    -21.169  0.0000E+00  0.0000E+00
    -21.075  0.0000E+00  0.0000E+00
    -20.981  0.8258E-15  0.7738E-16
    -20.888  0.9149E-11  0.8573E-12
    -20.794  0.1835E-07  0.1721E-08
    -20.700  0.6797E-05  0.6386E-06
    -20.607  0.4799E-03  0.4561E-04
    -20.513  0.6845E-02  0.6870E-03
    -20.419  0.2273E-01  0.2817E-02
    -20.325  0.3200E-01  0.5815E-02
    -20.232  0.5137E-01  0.1063E-01
    -20.138  0.7589E-01  0.1774E-01
    -20.044  0.8397E-01  0.2561E-01
    -19.951  0.5415E-01  0.3068E-01
    -19.857  0.1322E-01  0.3192E-01
    -19.763  0.8353E-03  0.3200E-01
    -19.670  0.1125E-04  0.3200E-01
    -19.576  0.2962E-07  0.3200E-01
    -19.482  0.1461E-10  0.3200E-01
    -19.388  0.1317E-14  0.3200E-01
    -19.295  0.0000E+00  0.3200E-01
    -19.201  0.0000E+00  0.3200E-01
    -19.107  0.0000E+00  0.3200E-01
    -19.014  0.0000E+00  0.3200E-01
    -18.920  0.0000E+00  0.3200E-01
    -18.826  0.0000E+00  0.3200E-01
    -18.732  0.0000E+00  0.3200E-01
    -18.639  0.0000E+00  0.3200E-01
    -18.545  0.0000E+00  0.3200E-01
    -18.451  0.0000E+00  0.3200E-01
    -18.358  0.0000E+00  0.3200E-01
    -18.264  0.0000E+00  0.3200E-01
    -18.170  0.0000E+00  0.3200E-01
    -18.077  0.0000E+00  0.3200E-01
    -17.983  0.0000E+00  0.3200E-01
    -17.889  0.0000E+00  0.3200E-01
    -17.795  0.0000E+00  0.3200E-01
    -17.702  0.0000E+00  0.3200E-01
    -17.608  0.0000E+00  0.3200E-01
    -17.514  0.0000E+00  0.3200E-01
    -17.421  0.0000E+00  0.3200E-01
    -17.327  0.0000E+00  0.3200E-01
    -17.233  0.0000E+00  0.3200E-01
    -17.140  0.0000E+00  0.3200E-01
    -17.046  0.0000E+00  0.3200E-01
    -16.952  0.0000E+00  0.3200E-01
    -16.858  0.0000E+00  0.3200E-01
    -16.765  0.0000E+00  0.3200E-01
    -16.671  0.0000E+00  0.3200E-01
    -16.577  0.0000E+00  0.3200E-01
    -16.484  0.0000E+00  0.3200E-01
    -16.390  0.0000E+00  0.3200E-01
    -16.296  0.0000E+00  0.3200E-01
    -16.202  0.0000E+00  0.3200E-01
    -16.109  0.0000E+00  0.3200E-01
    -16.015  0.0000E+00  0.3200E-01
    -15.921  0.0000E+00  0.3200E-01
    -15.828  0.0000E+00  0.3200E-01
    -15.734  0.0000E+00  0.3200E-01
    -15.640  0.0000E+00  0.3200E-01
    -15.547  0.0000E+00  0.3200E-01
    -15.453  0.0000E+00  0.3200E-01
    -15.359  0.0000E+00  0.3200E-01
    -15.265  0.0000E+00  0.3200E-01
    -15.172  0.0000E+00  0.3200E-01
    -15.078  0.0000E+00  0.3200E-01
    -14.984  0.0000E+00  0.3200E-01
    -14.891  0.0000E+00  0.3200E-01
    -14.797  0.0000E+00  0.3200E-01
    -14.703  0.0000E+00  0.3200E-01
    -14.610  0.0000E+00  0.3200E-01
    -14.516  0.0000E+00  0.3200E-01
    -14.422  0.0000E+00  0.3200E-01
    -14.328  0.0000E+00  0.3200E-01
    -14.235  0.0000E+00  0.3200E-01
    -14.141  0.0000E+00  0.3200E-01
    -14.047  0.0000E+00  0.3200E-01
    -13.954  0.0000E+00  0.3200E-01
    -13.860  0.0000E+00  0.3200E-01
    -13.766  0.0000E+00  0.3200E-01
    -13.672  0.0000E+00  0.3200E-01
    -13.579  0.0000E+00  0.3200E-01
    -13.485  0.0000E+00  0.3200E-01
    -13.391  0.0000E+00  0.3200E-01
    -13.298  0.0000E+00  0.3200E-01
    -13.204  0.0000E+00  0.3200E-01
    -13.110  0.0000E+00  0.3200E-01
    -13.017  0.0000E+00  0.3200E-01
    -12.923  0.0000E+00  0.3200E-01
    -12.829  0.0000E+00  0.3200E-01
    -12.735  0.0000E+00  0.3200E-01
    -12.642  0.0000E+00  0.3200E-01
    -12.548  0.0000E+00  0.3200E-01
    -12.454  0.0000E+00  0.3200E-01
    -12.361  0.0000E+00  0.3200E-01
    -12.267  0.0000E+00  0.3200E-01
    -12.173  0.0000E+00  0.3200E-01
    -12.080  0.0000E+00  0.3200E-01
    -11.986  0.0000E+00  0.3200E-01
    -11.892  0.0000E+00  0.3200E-01
    -11.798  0.0000E+00  0.3200E-01
    -11.705  0.0000E+00  0.3200E-01
    -11.611  0.0000E+00  0.3200E-01
    -11.517  0.0000E+00  0.3200E-01
    -11.424  0.0000E+00  0.3200E-01
    -11.330  0.0000E+00  0.3200E-01
    -11.236  0.0000E+00  0.3200E-01
    -11.142  0.0000E+00  0.3200E-01
    -11.049  0.0000E+00  0.3200E-01
    -10.955  0.0000E+00  0.3200E-01
    -10.861  0.0000E+00  0.3200E-01
    -10.768  0.0000E+00  0.3200E-01
    -10.674  0.0000E+00  0.3200E-01
    -10.580  0.0000E+00  0.3200E-01
    -10.487  0.0000E+00  0.3200E-01
    -10.393  0.0000E+00  0.3200E-01
    -10.299  0.0000E+00  0.3200E-01
    -10.205  0.0000E+00  0.3200E-01
    -10.112  0.1502E-13  0.3200E-01
    -10.018  0.9058E-10  0.3200E-01
     -9.924  0.9881E-07  0.3200E-01
     -9.831  0.1995E-04  0.3200E-01
     -9.737  0.7744E-03  0.3207E-01
     -9.643  0.6103E-02  0.3265E-01
     -9.550  0.1040E-01  0.3362E-01
     -9.456  0.5557E-02  0.3414E-01
     -9.362  0.8702E-02  0.3496E-01
     -9.268  0.8940E-02  0.3579E-01
     -9.175  0.2096E-02  0.3599E-01
     -9.081  0.3883E-03  0.3603E-01
     -8.987  0.3211E-02  0.3633E-01
     -8.894  0.9435E-02  0.3721E-01
     -8.800  0.1316E-01  0.3845E-01
     -8.706  0.1855E-01  0.4018E-01
     -8.612  0.1607E-01  0.4169E-01
     -8.519  0.8720E-02  0.4251E-01
     -8.425  0.9926E-02  0.4344E-01
     -8.331  0.1108E-01  0.4447E-01
     -8.238  0.2396E-01  0.4672E-01
     -8.144  0.3333E-01  0.4984E-01
     -8.050  0.3803E-01  0.5341E-01
     -7.957  0.6213E-01  0.5923E-01
     -7.863  0.9821E-01  0.6843E-01
     -7.769  0.1036E+00  0.7814E-01
     -7.675  0.1006E+00  0.8757E-01
     -7.582  0.1006E+00  0.9699E-01
     -7.488  0.8804E-01  0.1052E+00
     -7.394  0.9542E-01  0.1142E+00
     -7.301  0.1130E+00  0.1248E+00
     -7.207  0.1246E+00  0.1364E+00
     -7.113  0.1440E+00  0.1499E+00
     -7.019  0.1574E+00  0.1647E+00
     -6.926  0.1549E+00  0.1792E+00
     -6.832  0.1583E+00  0.1940E+00
     -6.738  0.1615E+00  0.2092E+00
     -6.645  0.1629E+00  0.2244E+00
     -6.551  0.1756E+00  0.2409E+00
     -6.457  0.1802E+00  0.2578E+00
     -6.364  0.1625E+00  0.2730E+00
     -6.270  0.1330E+00  0.2855E+00
     -6.176  0.1192E+00  0.2966E+00
     -6.082  0.1327E+00  0.3091E+00
     -5.989  0.1613E+00  0.3242E+00
     -5.895  0.1688E+00  0.3400E+00
     -5.801  0.1660E+00  0.3556E+00
     -5.708  0.1595E+00  0.3705E+00
     -5.614  0.1731E+00  0.3867E+00
     -5.520  0.1872E+00  0.4043E+00
     -5.427  0.1838E+00  0.4215E+00
     -5.333  0.1774E+00  0.4381E+00
     -5.239  0.1595E+00  0.4530E+00
     -5.145  0.1551E+00  0.4676E+00
     -5.052  0.1630E+00  0.4828E+00
     -4.958  0.1792E+00  0.4996E+00
     -4.864  0.1994E+00  0.5183E+00
     -4.771  0.1905E+00  0.5362E+00
     -4.677  0.1865E+00  0.5536E+00
     -4.583  0.1839E+00  0.5709E+00
     -4.489  0.1888E+00  0.5886E+00
     -4.396  0.2078E+00  0.6080E+00
     -4.302  0.2249E+00  0.6291E+00
     -4.208  0.2231E+00  0.6500E+00
     -4.115  0.2197E+00  0.6706E+00
     -4.021  0.2063E+00  0.6899E+00
     -3.927  0.1936E+00  0.7081E+00
     -3.834  0.1919E+00  0.7261E+00
     -3.740  0.1836E+00  0.7433E+00
     -3.646  0.2007E+00  0.7621E+00
     -3.552  0.2191E+00  0.7826E+00
     -3.459  0.2030E+00  0.8016E+00
     -3.365  0.1714E+00  0.8177E+00
     -3.271  0.1512E+00  0.8318E+00
     -3.178  0.1469E+00  0.8456E+00
     -3.084  0.1507E+00  0.8597E+00
     -2.990  0.1550E+00  0.8742E+00
     -2.897  0.1607E+00  0.8893E+00
     -2.803  0.1645E+00  0.9047E+00
     -2.709  0.1612E+00  0.9198E+00
     -2.615  0.1603E+00  0.9348E+00
     -2.522  0.1740E+00  0.9511E+00
     -2.428  0.1722E+00  0.9673E+00
     -2.334  0.1613E+00  0.9824E+00
     -2.241  0.1575E+00  0.9972E+00
     -2.147  0.1543E+00  0.1012E+01
     -2.053  0.1426E+00  0.1025E+01
     -1.959  0.1335E+00  0.1037E+01
     -1.866  0.1194E+00  0.1049E+01
     -1.772  0.1056E+00  0.1059E+01
     -1.678  0.1072E+00  0.1069E+01
     -1.585  0.9752E-01  0.1078E+01
     -1.491  0.9137E-01  0.1086E+01
     -1.397  0.9105E-01  0.1095E+01
     -1.304  0.7660E-01  0.1102E+01
     -1.210  0.7084E-01  0.1109E+01
     -1.116  0.7640E-01  0.1116E+01
     -1.022  0.7635E-01  0.1123E+01
     -0.929  0.6526E-01  0.1129E+01
     -0.835  0.5393E-01  0.1134E+01
     -0.741  0.4598E-01  0.1138E+01
     -0.648  0.4869E-01  0.1143E+01
     -0.554  0.6023E-01  0.1149E+01
     -0.460  0.6757E-01  0.1155E+01
     -0.367  0.5605E-01  0.1160E+01
     -0.273  0.3446E-01  0.1163E+01
     -0.179  0.2360E-01  0.1166E+01
     -0.085  0.1872E-01  0.1167E+01
      0.008  0.3153E-01  0.1170E+01
      0.102  0.4630E-01  0.1175E+01
      0.196  0.4125E-01  0.1179E+01
      0.289  0.3932E-01  0.1182E+01
      0.383  0.3154E-01  0.1185E+01
      0.477  0.2748E-01  0.1188E+01
      0.571  0.3075E-01  0.1191E+01
      0.664  0.3063E-01  0.1194E+01
      0.758  0.2816E-01  0.1196E+01
      0.852  0.1648E-01  0.1198E+01
      0.945  0.1046E-01  0.1199E+01
      1.039  0.1821E-01  0.1200E+01
      1.133  0.2130E-01  0.1202E+01
      1.226  0.2299E-01  0.1205E+01
      1.320  0.2773E-01  0.1207E+01
      1.414  0.3216E-01  0.1210E+01
      1.508  0.4050E-01  0.1214E+01
      1.601  0.5058E-01  0.1219E+01
      1.695  0.4310E-01  0.1223E+01
      1.789  0.2748E-01  0.1225E+01
      1.882  0.2709E-01  0.1228E+01
      1.976  0.3087E-01  0.1231E+01
      2.070  0.2733E-01  0.1233E+01
      2.163  0.2415E-01  0.1236E+01
      2.257  0.1611E-01  0.1237E+01
      2.351  0.1030E-01  0.1238E+01
      2.445  0.1365E-01  0.1239E+01
      2.538  0.1948E-01  0.1241E+01
      2.632  0.1847E-01  0.1243E+01
      2.726  0.1997E-01  0.1245E+01
      2.819  0.2763E-01  0.1247E+01
      2.913  0.3517E-01  0.1251E+01
      3.007  0.3238E-01  0.1254E+01
      3.101  0.2731E-01  0.1256E+01
      3.194  0.2375E-01  0.1258E+01
      3.288  0.1829E-01  0.1260E+01
      3.382  0.2091E-01  0.1262E+01
      3.475  0.2560E-01  0.1265E+01
      3.569  0.3210E-01  0.1268E+01
      3.663  0.3700E-01  0.1271E+01
      3.756  0.5132E-01  0.1276E+01
      3.850  0.5635E-01  0.1281E+01
      3.944  0.4294E-01  0.1285E+01
      4.038  0.3876E-01  0.1289E+01
      4.131  0.4056E-01  0.1293E+01
      4.225  0.3831E-01  0.1296E+01
      4.319  0.4152E-01  0.1300E+01
      4.412  0.4586E-01  0.1304E+01
      4.506  0.4661E-01  0.1309E+01
      4.600  0.4537E-01  0.1313E+01
      4.694  0.5247E-01  0.1318E+01
      4.787  0.5875E-01  0.1323E+01
      4.881  0.5338E-01  0.1328E+01
      4.975  0.5670E-01  0.1334E+01
      5.068  0.6204E-01  0.1340E+01
      5.162  0.3905E-01  0.1343E+01
      5.256  0.8406E-02  0.1344E+01
      5.349  0.4713E-03  0.1344E+01
      5.443  0.5879E-05  0.1344E+01
      5.537  0.1481E-07  0.1344E+01
      5.631  0.7112E-11  0.1344E+01
      5.724  0.6311E-15  0.1344E+01
      5.818  0.0000E+00  0.1344E+01
      5.912  0.0000E+00  0.1344E+01
      6.005  0.0000E+00  0.1344E+01
      6.099  0.0000E+00  0.1344E+01
      6.193  0.0000E+00  0.1344E+01
      6.286  0.0000E+00  0.1344E+01
      6.380  0.0000E+00  0.1344E+01
