unknown system                          
           1
    11.002582    0.000000    0.000000
     5.501291    9.528515    0.000000
     0.000000    0.000000   26.191785
   Au   O    Pd
  24   8  24
Direct configuration=     1
   0.08333333  0.08333333  0.38179910
   0.33333333  0.83333333  0.38179910
   0.08333333  0.83333333  0.38179910
   0.66666667  0.91666667  0.46754708
   0.83333333  0.83333333  0.38179910
   0.08333333  0.33333333  0.38179910
   0.83333333  0.58333333  0.38179910
   0.66666667  0.41666667  0.46754708
   0.83333333  0.33333333  0.38179910
   0.08333333  0.58333333  0.38179910
   0.66666667  0.16666667  0.46754708
   0.41666667  0.91666667  0.46754708
   0.83333333  0.08333333  0.38179910
   0.58333333  0.83333333  0.38179910
   0.33333333  0.08333333  0.38179910
   0.41666667  0.66666667  0.46754708
   0.58333333  0.58333333  0.38179910
   0.58333333  0.33333333  0.38179910
   0.33333333  0.33333333  0.38179910
   0.16666667  0.41666667  0.46754708
   0.41666667  0.16666667  0.46754708
   0.58333333  0.08333333  0.38179910
   0.33333333  0.58333333  0.38179910
   0.16666667  0.91666667  0.46754708
   0.33333333  0.33333333  0.61820090
   0.33333333  0.58333333  0.61820090
   0.08333333  0.58333333  0.61820090
   0.83333333  0.83333333  0.61820090
   0.33333333  0.83333333  0.61820090
   0.83333333  0.58333333  0.61820090
   0.83333333  0.08333333  0.61820090
   0.58333333  0.58333333  0.61820090
   0.25000000  0.00000000  0.55329505
   0.50000000  0.25000000  0.55329505
   0.91666667  0.91666667  0.46754708
   0.50000000  0.00000000  0.55329505
   0.25000000  0.25000000  0.55329505
   0.75000000  0.75000000  0.55329505
   0.25000000  0.75000000  0.55329505
   0.16666667  0.66666667  0.46754708
   0.50000000  0.50000000  0.55329505
   0.25000000  0.50000000  0.55329505
   0.00000000  0.75000000  0.55329505
   0.50000000  0.75000000  0.55329505
   0.00000000  0.50000000  0.55329505
   0.75000000  0.00000000  0.55329505
   0.91666667  0.66666667  0.46754708
   0.00000000  0.25000000  0.55329505
   0.75000000  0.25000000  0.55329505
   0.91666667  0.41666667  0.46754708
   0.66666667  0.66666667  0.46754708
   0.75000000  0.50000000  0.55329505
   0.00000000  0.00000000  0.55329505
   0.91666667  0.16666667  0.46754708
   0.16666667  0.16666667  0.46754708
   0.41666667  0.41666667  0.46754708
Direct configuration=     2
   0.08333333  0.08333333  0.38179910
   0.33333333  0.83333333  0.38179910
   0.08333333  0.83333333  0.38179910
   0.66879992  0.91460589  0.46905717
   0.83333333  0.83333333  0.38179910
   0.08333333  0.33333333  0.38179910
   0.83333333  0.58333333  0.38179910
   0.66757544  0.41663588  0.46932956
   0.83333333  0.33333333  0.38179910
   0.08333333  0.58333333  0.38179910
   0.66741441  0.16644928  0.46915004
   0.41694575  0.91649346  0.46893094
   0.83333333  0.08333333  0.38179910
   0.58333333  0.83333333  0.38179910
   0.33333333  0.08333333  0.38179910
   0.41663015  0.66579332  0.46846037
   0.58333333  0.58333333  0.38179910
   0.58333333  0.33333333  0.38179910
   0.33333333  0.33333333  0.38179910
   0.16542758  0.41798376  0.46888521
   0.41585419  0.16732535  0.46875457
   0.58333333  0.08333333  0.38179910
   0.33333333  0.58333333  0.38179910
   0.16459972  0.91741423  0.46905563
   0.33414752  0.33120171  0.61387196
   0.33348900  0.58337831  0.61416704
   0.08289278  0.58359466  0.61421877
   0.83317371  0.83346740  0.61395664
   0.33222018  0.83538175  0.61378950
   0.83305337  0.58254410  0.61403521
   0.83357992  0.08448255  0.61370741
   0.58462886  0.58210577  0.61402658
   0.25014456 -0.00025761  0.55550700
   0.49850585  0.25041568  0.55563813
   0.91748980  0.91546182  0.46846578
   0.49980004  0.00016864  0.55438095
   0.25091408  0.24964392  0.55557426
   0.75087566  0.74972328  0.55668016
   0.25010986  0.75005052  0.55694252
   0.16593477  0.66674600  0.46895096
   0.49978920  0.50027315  0.55693711
   0.25022652  0.49997549  0.55744126
  -0.00050452  0.74974992  0.55662824
   0.49955228  0.75018419  0.55702433
  -0.00048583  0.50063527  0.55669168
   0.75099255 -0.00020065  0.55681426
   0.91657375  0.66676181  0.46789561
   0.00050840  0.24975043  0.55377638
   0.75171115  0.24786878  0.55569389
   0.91664201  0.41694864  0.46884390
   0.66768909  0.66651638  0.46856700
   0.75000888  0.50052650  0.55662363
  -0.00220472  0.00168751  0.55546013
   0.91738663  0.16667785  0.46815108
   0.16550569  0.16727294  0.46904511
   0.41579168  0.41783822  0.46857711
Direct configuration=     3
   0.08333333  0.08333333  0.38179910
   0.33333333  0.83333333  0.38179910
   0.08333333  0.83333333  0.38179910
   0.67289679  0.91064819  0.47195730
   0.83333333  0.83333333  0.38179910
   0.08333333  0.33333333  0.38179910
   0.83333333  0.58333333  0.38179910
   0.66932074  0.41657676  0.47275280
   0.83333333  0.33333333  0.38179910
   0.08333333  0.58333333  0.38179910
   0.66885044  0.16603180  0.47222851
   0.41748173  0.91616083  0.47158862
   0.83333333  0.08333333  0.38179910
   0.58333333  0.83333333  0.38179910
   0.33333333  0.08333333  0.38179910
   0.41656002  0.66411608  0.47021435
   0.58333333  0.58333333  0.38179910
   0.58333333  0.33333333  0.38179910
   0.33333333  0.33333333  0.38179910
   0.16304793  0.42051322  0.47145508
   0.41429384  0.16859035  0.47107356
   0.58333333  0.08333333  0.38179910
   0.33333333  0.58333333  0.38179910
   0.16063016  0.91884991  0.47195279
   0.33571115  0.32710794  0.60555830
   0.33378796  0.58346468  0.60642008
   0.08204671  0.58409652  0.60657114
   0.83286715  0.83372488  0.60580559
   0.33008238  0.83931572  0.60531747
   0.83251571  0.58102839  0.60603505
   0.83405348  0.08668961  0.60507772
   0.58711690  0.57974825  0.60600985
   0.25042220 -0.00075235  0.55975500
   0.49563637  0.25121398  0.56013797
   0.91907061  0.91314792  0.47023015
   0.49941601  0.00049251  0.55646642
   0.25266955  0.24896008  0.55995146
   0.75255734  0.74919184  0.56318121
   0.25032083  0.75014754  0.56394744
   0.16452918  0.66689837  0.47164709
   0.49938437  0.50079774  0.56393163
   0.25066156  0.49992843  0.56540400
  -0.00147346  0.74926964  0.56302960
   0.49869243  0.75053794  0.56418637
  -0.00141886  0.50185531  0.56321487
   0.75289873 -0.00058600  0.56357285
   0.91639530  0.66694452  0.46856496
   0.00148477  0.24927112  0.55470077
   0.75499740  0.24377579  0.56030081
   0.91659465  0.41749015  0.47133443
   0.66965264  0.66622775  0.47052574
   0.75002592  0.50153764  0.56301612
  -0.00643886  0.00492834  0.55961812
   0.91876931  0.16669934  0.46931105
   0.16327605  0.16843728  0.47192208
   0.41411129  0.42008818  0.47055528
Direct configuration=     4
   0.08333333  0.08333333  0.38179910
   0.33333333  0.83333333  0.38179910
   0.08333333  0.83333333  0.38179910
   0.67184578  0.91166350  0.47121330
   0.83333333  0.83333333  0.38179910
   0.08333333  0.33333333  0.38179910
   0.83333333  0.58333333  0.38179910
   0.66887300  0.41659193  0.47187460
   0.83333333  0.33333333  0.38179910
   0.08333333  0.58333333  0.38179910
   0.66848204  0.16613890  0.47143876
   0.41734423  0.91624616  0.47090682
   0.83333333  0.08333333  0.38179910
   0.58333333  0.83333333  0.38179910
   0.33333333  0.08333333  0.38179910
   0.41657801  0.66454636  0.46976439
   0.58333333  0.58333333  0.38179910
   0.58333333  0.33333333  0.38179910
   0.33333333  0.33333333  0.38179910
   0.16365841  0.41986431  0.47079581
   0.41469413  0.16826583  0.47047865
   0.58333333  0.08333333  0.38179910
   0.33333333  0.58333333  0.38179910
   0.16164851  0.91848160  0.47120956
   0.33531001  0.32815816  0.60769109
   0.33371127  0.58344252  0.60840748
   0.08226376  0.58396777  0.60853306
   0.83294579  0.83365882  0.60789665
   0.33063081  0.83830650  0.60749089
   0.83265365  0.58141723  0.60808741
   0.83393199  0.08612341  0.60729157
   0.58647862  0.58035305  0.60806646
   0.25035098 -0.00062543  0.55866522
   0.49637250  0.25100918  0.55898358
   0.91866507  0.91374153  0.46977752
   0.49951453  0.00040943  0.55593141
   0.25221920  0.24913551  0.55882853
   0.75212592  0.74932817  0.56151343
   0.25026671  0.75012265  0.56215040
   0.16488977  0.66685928  0.47095542
   0.49948822  0.50066316  0.56213726
   0.25054995  0.49994050  0.56336124
  -0.00122489  0.74939285  0.56138740
   0.49891302  0.75044719  0.56234902
  -0.00117950  0.50154232  0.56154142
   0.75240972 -0.00048715  0.56183900
   0.91644108  0.66689764  0.46839324
   0.00123429  0.24939408  0.55446362
   0.75415434  0.24482581  0.55911895
   0.91660680  0.41735123  0.47069551
   0.66914891  0.66630180  0.47002325
   0.75002155  0.50127824  0.56137620
  -0.00535264  0.00409694  0.55855143
   0.91841460  0.16669383  0.46901347
   0.16384804  0.16813858  0.47118402
   0.41454238  0.41951098  0.47004780
Direct configuration=     5
   0.08333333  0.08333333  0.38179910
   0.33333333  0.83333333  0.38179910
   0.08333333  0.83333333  0.38179910
   0.67217788  0.91134268  0.47144839
   0.83333333  0.83333333  0.38179910
   0.08333333  0.33333333  0.38179910
   0.83333333  0.58333333  0.38179910
   0.66901448  0.41658714  0.47215210
   0.83333333  0.33333333  0.38179910
   0.08333333  0.58333333  0.38179910
   0.66859845  0.16610506  0.47168831
   0.41738768  0.91621920  0.47112226
   0.83333333  0.08333333  0.38179910
   0.58333333  0.83333333  0.38179910
   0.33333333  0.08333333  0.38179910
   0.41657233  0.66441040  0.46990657
   0.58333333  0.58333333  0.38179910
   0.58333333  0.33333333  0.38179910
   0.33333333  0.33333333  0.38179910
   0.16346551  0.42006935  0.47100413
   0.41456765  0.16836837  0.47066663
   0.58333333  0.08333333  0.38179910
   0.33333333  0.58333333  0.38179910
   0.16132673  0.91859798  0.47144441
   0.33543676  0.32782631  0.60701716
   0.33373550  0.58344952  0.60777950
   0.08219517  0.58400845  0.60791313
   0.83292094  0.83367969  0.60723591
   0.33045751  0.83862540  0.60680413
   0.83261006  0.58129436  0.60743890
   0.83397038  0.08630232  0.60659203
   0.58668031  0.58016194  0.60741661
   0.25037348 -0.00066553  0.55900957
   0.49613990  0.25107390  0.55934835
   0.91879321  0.91355396  0.46992054
   0.49948340  0.00043568  0.55610046
   0.25236150  0.24908008  0.55918336
   0.75226225  0.74928509  0.56204042
   0.25028381  0.75013051  0.56271823
   0.16477583  0.66687163  0.47117398
   0.49945541  0.50070569  0.56270425
   0.25058522  0.49993669  0.56400672
  -0.00130343  0.74935391  0.56190630
   0.49884331  0.75047586  0.56292959
  -0.00125514  0.50164122  0.56207020
   0.75256424 -0.00051838  0.56238687
   0.91642662  0.66691246  0.46844750
   0.00131344  0.24935523  0.55453856
   0.75442073  0.24449402  0.55949240
   0.91660296  0.41739513  0.47089740
   0.66930808  0.66627840  0.47018203
   0.75002293  0.50136021  0.56189438
  -0.00569587  0.00435965  0.55888849
   0.91852668  0.16669557  0.46910751
   0.16366731  0.16823296  0.47141724
   0.41440616  0.41969336  0.47020816
Direct configuration=     6
   0.08333333  0.08333333  0.38179910
   0.33333333  0.83333333  0.38179910
   0.08333333  0.83333333  0.38179910
   0.67294454  0.91144490  0.47333827
   0.83333333  0.83333333  0.38179910
   0.08333333  0.33333333  0.38179910
   0.83333333  0.58333333  0.38179910
   0.66922919  0.41655652  0.47454402
   0.83333333  0.33333333  0.38179910
   0.08333333  0.58333333  0.38179910
   0.66830999  0.16567692  0.47353850
   0.41714830  0.91519206  0.47247351
   0.83333333  0.08333333  0.38179910
   0.58333333  0.83333333  0.38179910
   0.33333333  0.08333333  0.38179910
   0.41614042  0.66503658  0.47183860
   0.58333333  0.58333333  0.38179910
   0.58333333  0.33333333  0.38179910
   0.33333333  0.33333333  0.38179910
   0.16278602  0.42091955  0.47299667
   0.41471193  0.16872010  0.47175751
   0.58333333  0.08333333  0.38179910
   0.33333333  0.58333333  0.38179910
   0.16178868  0.91764945  0.47339737
   0.33765159  0.32226569  0.60624788
   0.33433435  0.58344775  0.60715447
   0.08148413  0.58396345  0.60691063
   0.83149098  0.83529613  0.60651868
   0.32821647  0.84321449  0.60612255
   0.83309490  0.57959654  0.60660113
   0.83449807  0.08846147  0.60628930
   0.58772586  0.57894789  0.60662329
   0.24775454  0.00419429  0.55986946
   0.50144731  0.24846113  0.56013483
   0.91866055  0.91317862  0.47136871
   0.50040775 -0.00013526  0.55758415
   0.24933736  0.24621239  0.55999469
   0.74562551  0.75312698  0.56267424
   0.24292599  0.75449864  0.56352822
   0.16461955  0.66711533  0.47304362
   0.50370360  0.49380389  0.56356064
   0.24947926  0.50092790  0.56457092
   0.00222059  0.75194795  0.56269720
   0.50215945  0.75366095  0.56399241
   0.00185361  0.49552865  0.56300605
   0.74589804  0.00186636  0.56308815
   0.91706026  0.66624272  0.46985474
   0.00235917  0.24927351  0.55552895
   0.75133999  0.25033858  0.56015026
   0.91624598  0.41839549  0.47227798
   0.66951308  0.66565343  0.47192184
   0.75288068  0.49528353  0.56234005
   0.00013751  0.00194246  0.55940411
   0.91799447  0.16702313  0.46991930
   0.16409797  0.16828546  0.47282135
   0.41435148  0.41986730  0.47183948
Direct configuration=     7
   0.08333333  0.08333333  0.38179910
   0.33333333  0.83333333  0.38179910
   0.08333333  0.83333333  0.38179910
   0.67346273  0.91151399  0.47461564
   0.83333333  0.83333333  0.38179910
   0.08333333  0.33333333  0.38179910
   0.83333333  0.58333333  0.38179910
   0.66937431  0.41653583  0.47616070
   0.83333333  0.33333333  0.38179910
   0.08333333  0.58333333  0.38179910
   0.66811502  0.16538755  0.47478903
   0.41698651  0.91449782  0.47338682
   0.83333333  0.08333333  0.38179910
   0.58333333  0.83333333  0.38179910
   0.33333333  0.08333333  0.38179910
   0.41584850  0.66545981  0.47314446
   0.58333333  0.58333333  0.38179910
   0.58333333  0.33333333  0.38179910
   0.33333333  0.33333333  0.38179910
   0.16232675  0.42149419  0.47434342
   0.41480945  0.16895783  0.47249483
   0.58333333  0.08333333  0.38179910
   0.33333333  0.58333333  0.38179910
   0.16210090  0.91700834  0.47471738
   0.33914859  0.31850729  0.60572792
   0.33473910  0.58344656  0.60673201
   0.08100354  0.58393303  0.60623304
   0.83052447  0.83638867  0.60603391
   0.32670176  0.84631624  0.60566188
   0.83342261  0.57844899  0.60603488
   0.83485473  0.08992082  0.60608469
   0.58843255  0.57812732  0.60608708
   0.24598441  0.00747902  0.56045066
   0.50503458  0.24669518  0.56066640
   0.91857088  0.91292494  0.47234752
   0.50103252 -0.00052115  0.55858697
   0.24729336  0.24427414  0.56054307
   0.74113976  0.75572370  0.56310263
   0.23795287  0.75745105  0.56407569
   0.16451393  0.66728005  0.47430731
   0.50657493  0.48913900  0.56413947
   0.24873174  0.50159786  0.56495226
   0.00460247  0.75370125  0.56323176
   0.50440081  0.75581373  0.56471076
   0.00395481  0.49139718  0.56363859
   0.74139239  0.00347819  0.56356214
   0.91748853  0.66579005  0.47080588
   0.00306597  0.24921827  0.55619836
   0.74925773  0.25428889  0.56059491
   0.91600469  0.41907163  0.47321112
   0.66965164  0.66523101  0.47309777
   0.75481221  0.49117633  0.56264127
   0.00408027  0.00030870  0.55975262
   0.91763476  0.16724452  0.47046799
   0.16438905  0.16832094  0.47377038
   0.41431452  0.41998487  0.47294209
Direct configuration=     8
   0.08333333  0.08333333  0.38179910
   0.33333333  0.83333333  0.38179910
   0.08333333  0.83333333  0.38179910
   0.67278125  0.91167750  0.47512448
   0.83333333  0.83333333  0.38179910
   0.08333333  0.33333333  0.38179910
   0.83333333  0.58333333  0.38179910
   0.66880423  0.41680208  0.47651046
   0.83333333  0.33333333  0.38179910
   0.08333333  0.58333333  0.38179910
   0.66844154  0.16533223  0.47541647
   0.41717754  0.91445796  0.47417716
   0.83333333  0.08333333  0.38179910
   0.58333333  0.83333333  0.38179910
   0.33333333  0.08333333  0.38179910
   0.41584623  0.66536839  0.47492256
   0.58333333  0.58333333  0.38179910
   0.58333333  0.33333333  0.38179910
   0.33333333  0.33333333  0.38179910
   0.16303529  0.42117839  0.47547017
   0.41481103  0.16868864  0.47328421
   0.58333333  0.08333333  0.38179910
   0.33333333  0.58333333  0.38179910
   0.16281747  0.91677315  0.47515995
   0.34072880  0.31459578  0.60549999
   0.33625645  0.58448163  0.60712509
   0.07866261  0.58473715  0.60713902
   0.83020618  0.83698387  0.60647364
   0.32526676  0.84891273  0.60616865
   0.83328958  0.57823017  0.60612715
   0.83548267  0.09140277  0.60553834
   0.58873837  0.57805921  0.60659098
   0.24476900  0.01161368  0.56108661
   0.50688915  0.24477270  0.56169222
   0.91828489  0.91344982  0.47339854
   0.49838291  0.00188328  0.56016474
   0.24694874  0.24207747  0.56145867
   0.74099319  0.75426309  0.56390510
   0.23887272  0.75869294  0.56510961
   0.16485142  0.66709936  0.47516089
   0.50509816  0.48766262  0.56485092
   0.25208149  0.49642432  0.56445062
   0.00123883  0.75757395  0.56373914
   0.50423541  0.75702405  0.56551622
   0.00528634  0.48848594  0.56413779
   0.73979837  0.00747087  0.56442489
   0.91753270  0.66584393  0.47218191
   0.00267947  0.24818471  0.55753708
   0.75166535  0.25300048  0.56179818
   0.91592012  0.41911688  0.47378179
   0.66965186  0.66495792  0.47427865
   0.75806301  0.48764844  0.56284590
   0.00194972  0.00278669  0.56098734
   0.91735635  0.16723909  0.47111584
   0.16463518  0.16823114  0.47388670
   0.41442430  0.41977300  0.47409966
Direct configuration=     9
   0.08333333  0.08333333  0.38179910
   0.33333333  0.83333333  0.38179910
   0.08333333  0.83333333  0.38179910
   0.67262244  0.91171560  0.47524305
   0.83333333  0.83333333  0.38179910
   0.08333333  0.33333333  0.38179910
   0.83333333  0.58333333  0.38179910
   0.66867138  0.41686413  0.47659197
   0.83333333  0.33333333  0.38179910
   0.08333333  0.58333333  0.38179910
   0.66851762  0.16531934  0.47556268
   0.41722206  0.91444867  0.47436133
   0.83333333  0.08333333  0.38179910
   0.58333333  0.83333333  0.38179910
   0.33333333  0.08333333  0.38179910
   0.41584570  0.66534709  0.47533692
   0.58333333  0.58333333  0.38179910
   0.58333333  0.33333333  0.38179910
   0.33333333  0.33333333  0.38179910
   0.16320040  0.42110480  0.47573274
   0.41481140  0.16862591  0.47346815
   0.58333333  0.08333333  0.38179910
   0.33333333  0.58333333  0.38179910
   0.16298445  0.91671835  0.47526308
   0.34109704  0.31368428  0.60544688
   0.33661004  0.58472284  0.60721668
   0.07811711  0.58492453  0.60735014
   0.83013201  0.83712257  0.60657611
   0.32493237  0.84951778  0.60628674
   0.83325858  0.57817918  0.60614866
   0.83562899  0.09174811  0.60541102
   0.58880963  0.57804333  0.60670840
   0.24448578  0.01257717  0.56123481
   0.50732132  0.24432470  0.56193126
   0.91821825  0.91357213  0.47364346
   0.49776547  0.00244359  0.56053241
   0.24686843  0.24156559  0.56167204
   0.74095904  0.75392272  0.56409210
   0.23908707  0.75898234  0.56535054
   0.16493007  0.66705726  0.47535980
   0.50475403  0.48731858  0.56501671
   0.25286209  0.49521873  0.56433372
   0.00045501  0.75847640  0.56385738
   0.50419687  0.75730609  0.56570391
   0.00559662  0.48780754  0.56425412
   0.73942692  0.00840128  0.56462593
   0.91754299  0.66585649  0.47250257
   0.00258940  0.24794386  0.55784904
   0.75222640  0.25270024  0.56207858
   0.91590042  0.41912742  0.47391477
   0.66965191  0.66489428  0.47455384
   0.75882054  0.48682634  0.56289359
   0.00145324  0.00336414  0.56127507
   0.91729148  0.16723783  0.47126681
   0.16469253  0.16821022  0.47391381
   0.41444988  0.41972363  0.47436941
Direct configuration=    10
   0.08333333  0.08333333  0.38179910
   0.33333333  0.83333333  0.38179910
   0.08333333  0.83333333  0.38179910
   0.67152293  0.91193384  0.47569003
   0.83333333  0.83333333  0.38179910
   0.08333333  0.33333333  0.38179910
   0.83333333  0.58333333  0.38179910
   0.66808491  0.41682121  0.47644182
   0.83333333  0.33333333  0.38179910
   0.08333333  0.58333333  0.38179910
   0.66874553  0.16567673  0.47559888
   0.41764922  0.91464577  0.47494832
   0.83333333  0.08333333  0.38179910
   0.58333333  0.83333333  0.38179910
   0.33333333  0.08333333  0.38179910
   0.41601672  0.66506958  0.47677442
   0.58333333  0.58333333  0.38179910
   0.58333333  0.33333333  0.38179910
   0.33333333  0.33333333  0.38179910
   0.16407896  0.42029131  0.47618006
   0.41499091  0.16814775  0.47405229
   0.58333333  0.08333333  0.38179910
   0.33333333  0.58333333  0.38179910
   0.16317727  0.91710803  0.47551174
   0.34259000  0.31025582  0.60609862
   0.33585392  0.58464510  0.60770165
   0.07844809  0.58472871  0.60732953
   0.82853229  0.83879686  0.60746777
   0.32404150  0.85229997  0.60742997
   0.83397012  0.57745909  0.60670869
   0.83643750  0.09158963  0.60687740
   0.58951146  0.57724202  0.60686969
   0.24402342  0.01292961  0.56209367
   0.50792916  0.24299008  0.56303153
   0.91805699  0.91418754  0.47434403
   0.49598384  0.00430110  0.56208143
   0.24657122  0.24111459  0.56258808
   0.74228017  0.75305748  0.56490520
   0.24049551  0.75943617  0.56610034
   0.16509780  0.66708865  0.47608622
   0.50517577  0.48776724  0.56588429
   0.25254583  0.49514117  0.56543599
  -0.00116764  0.75876637  0.56447774
   0.50302017  0.75713219  0.56676691
   0.00596523  0.48790915  0.56529405
   0.73970953  0.00859113  0.56560283
   0.91739569  0.66621887  0.47363770
   0.00237418  0.24671275  0.55910222
   0.75295970  0.25427395  0.56239770
   0.91636467  0.41837309  0.47405280
   0.66948683  0.66481793  0.47541933
   0.75876751  0.48610468  0.56358283
   0.00109236  0.00455132  0.56204821
   0.91741443  0.16721409  0.47178317
   0.16421739  0.16845886  0.47360675
   0.41480115  0.41908028  0.47494659
Direct configuration=    11
   0.08333333  0.08333333  0.38179910
   0.33333333  0.83333333  0.38179910
   0.08333333  0.83333333  0.38179910
   0.67048720  0.91213942  0.47611108
   0.83333333  0.83333333  0.38179910
   0.08333333  0.33333333  0.38179910
   0.83333333  0.58333333  0.38179910
   0.66753247  0.41678079  0.47630038
   0.83333333  0.33333333  0.38179910
   0.08333333  0.58333333  0.38179910
   0.66896021  0.16601338  0.47563298
   0.41805159  0.91483143  0.47550124
   0.83333333  0.08333333  0.38179910
   0.58333333  0.83333333  0.38179910
   0.33333333  0.08333333  0.38179910
   0.41617780  0.66480816  0.47812851
   0.58333333  0.58333333  0.38179910
   0.58333333  0.33333333  0.38179910
   0.33333333  0.33333333  0.38179910
   0.16490654  0.41952502  0.47660144
   0.41516000  0.16769733  0.47460253
   0.58333333  0.08333333  0.38179910
   0.33333333  0.58333333  0.38179910
   0.16335891  0.91747510  0.47574598
   0.34399635  0.30702627  0.60671255
   0.33514166  0.58457187  0.60815847
   0.07875986  0.58454426  0.60731012
   0.82702539  0.84037402  0.60830770
   0.32320232  0.85492073  0.60850687
   0.83464038  0.57678078  0.60723623
   0.83719909  0.09144034  0.60825870
   0.59017256  0.57648721  0.60702163
   0.24358788  0.01326160  0.56290269
   0.50850173  0.24173290  0.56406796
   0.91790508  0.91476725  0.47500397
   0.49430557  0.00605083  0.56354058
   0.24629126  0.24068976  0.56345098
   0.74352466  0.75224243  0.56567111
   0.24182223  0.75986366  0.56680664
   0.16525580  0.66711823  0.47677049
   0.50557304  0.48818988  0.56670154
   0.25224793  0.49506811  0.56647430
  -0.00269614  0.75903951  0.56506211
   0.50191174  0.75696838  0.56776823
   0.00631246  0.48800486  0.56627364
   0.73997575  0.00876995  0.56652304
   0.91725693  0.66656023  0.47470697
   0.00217144  0.24555307  0.56028269
   0.75365046  0.25575635  0.56269831
   0.91680199  0.41766253  0.47418283
   0.66933133  0.66474601  0.47623462
   0.75871756  0.48542489  0.56423209
   0.00075242  0.00566961  0.56277650
   0.91753025  0.16719173  0.47226958
   0.16376981  0.16869307  0.47331751
   0.41513205  0.41847426  0.47549027
Direct configuration=    12
   0.08333333  0.08333333  0.38179910
   0.33333333  0.83333333  0.38179910
   0.08333333  0.83333333  0.38179910
   0.66995144  0.91253545  0.47689392
   0.83333333  0.83333333  0.38179910
   0.08333333  0.33333333  0.38179910
   0.83333333  0.58333333  0.38179910
   0.66741979  0.41688159  0.47610074
   0.83333333  0.33333333  0.38179910
   0.08333333  0.58333333  0.38179910
   0.66900621  0.16590955  0.47589757
   0.41807681  0.91497024  0.47619508
   0.83333333  0.08333333  0.38179910
   0.58333333  0.83333333  0.38179910
   0.33333333  0.08333333  0.38179910
   0.41612201  0.66482789  0.47906250
   0.58333333  0.58333333  0.38179910
   0.58333333  0.33333333  0.38179910
   0.33333333  0.33333333  0.38179910
   0.16520074  0.41918446  0.47694397
   0.41547388  0.16727465  0.47522607
   0.58333333  0.08333333  0.38179910
   0.33333333  0.58333333  0.38179910
   0.16343177  0.91779951  0.47610180
   0.34474695  0.30495171  0.60828303
   0.33419675  0.58463072  0.60913917
   0.07939824  0.58533727  0.60803073
   0.82553807  0.84134310  0.60984764
   0.32284078  0.85655452  0.61044940
   0.83480538  0.57593792  0.60847892
   0.83697916  0.09293797  0.60976663
   0.59077618  0.57617151  0.60807286
   0.24308152  0.01273896  0.56345357
   0.50974814  0.24171922  0.56476424
   0.91760172  0.91523344  0.47554590
   0.49436023  0.00564098  0.56497956
   0.24440061  0.24154942  0.56401610
   0.74312400  0.75302555  0.56632494
   0.24141130  0.76068592  0.56758700
   0.16517473  0.66733029  0.47754536
   0.50540756  0.48760790  0.56732937
   0.25260250  0.49485476  0.56767813
  -0.00231984  0.75871671  0.56565285
   0.50145566  0.75770049  0.56882424
   0.00678525  0.48658013  0.56672462
   0.74047213  0.00880609  0.56731661
   0.91724182  0.66667109  0.47545179
   0.00281019  0.24560140  0.56118336
   0.75387720  0.25437890  0.56334843
   0.91730154  0.41694803  0.47455585
   0.66942138  0.66445318  0.47699831
   0.75913000  0.48640556  0.56476548
   0.00121567  0.00502052  0.56349096
   0.91779508  0.16723645  0.47270502
   0.16318169  0.16897460  0.47343052
   0.41537505  0.41780965  0.47603548
Direct configuration=    13
   0.08333333  0.08333333  0.38179910
   0.33333333  0.83333333  0.38179910
   0.08333333  0.83333333  0.38179910
   0.66944959  0.91290641  0.47762722
   0.83333333  0.83333333  0.38179910
   0.08333333  0.33333333  0.38179910
   0.83333333  0.58333333  0.38179910
   0.66731424  0.41697601  0.47591373
   0.83333333  0.33333333  0.38179910
   0.08333333  0.58333333  0.38179910
   0.66904930  0.16581230  0.47614542
   0.41810044  0.91510026  0.47684501
   0.83333333  0.08333333  0.38179910
   0.58333333  0.83333333  0.38179910
   0.33333333  0.08333333  0.38179910
   0.41606974  0.66484637  0.47993738
   0.58333333  0.58333333  0.38179910
   0.58333333  0.33333333  0.38179910
   0.33333333  0.33333333  0.38179910
   0.16547633  0.41886546  0.47726482
   0.41576789  0.16687873  0.47581014
   0.58333333  0.08333333  0.38179910
   0.33333333  0.58333333  0.38179910
   0.16350002  0.91810338  0.47643509
   0.34545005  0.30300846  0.60975412
   0.33331164  0.58468584  0.61005779
   0.07999622  0.58608009  0.60870573
   0.82414489  0.84225084  0.61129011
   0.32250213  0.85808491  0.61226899
   0.83495993  0.57514842  0.60964295
   0.83677314  0.09434081  0.61117912
   0.59134159  0.57587580  0.60905755
   0.24260720  0.01224939  0.56396957
   0.51091566  0.24170641  0.56541644
   0.91731755  0.91567012  0.47605354
   0.49441143  0.00525707  0.56632746
   0.24262963  0.24235466  0.56454545
   0.74274870  0.75375910  0.56693739
   0.24102639  0.76145613  0.56831797
   0.16509880  0.66752893  0.47827119
   0.50525255  0.48706277  0.56791747
   0.25293463  0.49465491  0.56880577
  -0.00196736  0.75841433  0.56620619
   0.50102846  0.75838626  0.56981342
   0.00722811  0.48524558  0.56714705
   0.74093709  0.00883995  0.56805996
   0.91722766  0.66677494  0.47614946
   0.00340850  0.24564668  0.56202703
   0.75408958  0.25308863  0.56395741
   0.91776947  0.41627876  0.47490526
   0.66950574  0.66417888  0.47771367
   0.75951634  0.48732415  0.56526511
   0.00164959  0.00441251  0.56416019
   0.91804314  0.16727833  0.47311289
   0.16263078  0.16923831  0.47353639
   0.41560268  0.41718711  0.47654617
Direct configuration=    14
   0.08333333  0.08333333  0.38179910
   0.33333333  0.83333333  0.38179910
   0.08333333  0.83333333  0.38179910
   0.66993198  0.91302750  0.47856604
   0.83333333  0.83333333  0.38179910
   0.08333333  0.33333333  0.38179910
   0.83333333  0.58333333  0.38179910
   0.66792206  0.41689622  0.47639461
   0.83333333  0.33333333  0.38179910
   0.08333333  0.58333333  0.38179910
   0.66906487  0.16533723  0.47665787
   0.41777006  0.91503539  0.47756522
   0.83333333  0.08333333  0.38179910
   0.58333333  0.83333333  0.38179910
   0.33333333  0.08333333  0.38179910
   0.41582347  0.66510528  0.48031456
   0.58333333  0.58333333  0.38179910
   0.58333333  0.33333333  0.38179910
   0.33333333  0.33333333  0.38179910
   0.16518344  0.41946566  0.47756697
   0.41574504  0.16667911  0.47661530
   0.58333333  0.08333333  0.38179910
   0.33333333  0.58333333  0.38179910
   0.16348208  0.91787954  0.47682285
   0.34592980  0.30172265  0.61067983
   0.33359659  0.58562747  0.61113787
   0.07903421  0.58678846  0.60963902
   0.82390958  0.84187217  0.61232883
   0.32232047  0.85839398  0.61376392
   0.83564879  0.57514494  0.61067304
   0.83665003  0.09567819  0.61203475
   0.59138658  0.57573854  0.60999833
   0.24313514  0.01062969  0.56456264
   0.50935796  0.24305906  0.56632083
   0.91712400  0.91561352  0.47638615
   0.49498414  0.00455820  0.56739945
   0.24343557  0.24313604  0.56525576
   0.74269528  0.75429004  0.56823763
   0.24066354  0.76163257  0.56986097
   0.16498487  0.66763307  0.47898190
   0.50530025  0.48707100  0.56889135
   0.25470462  0.49194081  0.56978010
  -0.00235819  0.75861049  0.56741102
   0.50065399  0.75910500  0.57134764
   0.00660483  0.48640118  0.56818548