  56  56   0   0
  0.4903395E+02  0.1100258E-08  0.1100258E-08  0.2619179E-08  0.3500000E-15
  1.000000000000000E-004
  CAR 
 unknown system                          
      6.46550375    -21.65721337  301     -1.44604463      1.00000000
    -21.657  0.0000E+00  0.0000E+00
    -21.563  0.0000E+00  0.0000E+00
    -21.470  0.0000E+00  0.0000E+00
    -21.376  0.0000E+00  0.0000E+00
    -21.282  0.0000E+00  0.0000E+00
    -21.189  0.0000E+00  0.0000E+00
    -21.095  0.0000E+00  0.0000E+00
    -21.001  0.0000E+00  0.0000E+00
    -20.907  0.1475E-14  0.1383E-15
    -20.814  0.1515E-10  0.1420E-11
    -20.720  0.2796E-07  0.2622E-08
    -20.626  0.9466E-05  0.8900E-06
    -20.532  0.6124E-03  0.5829E-04
    -20.439  0.8246E-02  0.8313E-03
    -20.345  0.2804E-01  0.3460E-02
    -20.251  0.3271E-01  0.6526E-02
    -20.157  0.1534E-01  0.7964E-02
    -20.064  0.1294E-01  0.9176E-02
    -19.970  0.2092E-01  0.1114E-01
    -19.876  0.8478E-02  0.1193E-01
    -19.782  0.1672E-02  0.1209E-01
    -19.689  0.1165E-01  0.1318E-01
    -19.595  0.3599E-01  0.1656E-01
    -19.501  0.3598E-01  0.1993E-01
    -19.407  0.3414E-01  0.2313E-01
    -19.314  0.3623E-01  0.2653E-01
    -19.220  0.1430E-01  0.2787E-01
    -19.126  0.4030E-02  0.2824E-01
    -19.032  0.1510E-01  0.2966E-01
    -18.939  0.1928E-01  0.3147E-01
    -18.845  0.5377E-02  0.3197E-01
    -18.751  0.3132E-03  0.3200E-01
    -18.657  0.3593E-05  0.3200E-01
    -18.564  0.7741E-08  0.3200E-01
    -18.470  0.3041E-11  0.3200E-01
    -18.376  0.2155E-15  0.3200E-01
    -18.282  0.0000E+00  0.3200E-01
    -18.189  0.0000E+00  0.3200E-01
    -18.095  0.0000E+00  0.3200E-01
    -18.001  0.0000E+00  0.3200E-01
    -17.908  0.0000E+00  0.3200E-01
    -17.814  0.0000E+00  0.3200E-01
    -17.720  0.0000E+00  0.3200E-01
    -17.626  0.0000E+00  0.3200E-01
    -17.533  0.0000E+00  0.3200E-01
    -17.439  0.0000E+00  0.3200E-01
    -17.345  0.0000E+00  0.3200E-01
    -17.251  0.0000E+00  0.3200E-01
    -17.158  0.0000E+00  0.3200E-01
    -17.064  0.0000E+00  0.3200E-01
    -16.970  0.0000E+00  0.3200E-01
    -16.876  0.0000E+00  0.3200E-01
    -16.783  0.0000E+00  0.3200E-01
    -16.689  0.0000E+00  0.3200E-01
    -16.595  0.0000E+00  0.3200E-01
    -16.501  0.0000E+00  0.3200E-01
    -16.408  0.0000E+00  0.3200E-01
    -16.314  0.0000E+00  0.3200E-01
    -16.220  0.0000E+00  0.3200E-01
    -16.126  0.0000E+00  0.3200E-01
    -16.033  0.0000E+00  0.3200E-01
    -15.939  0.0000E+00  0.3200E-01
    -15.845  0.0000E+00  0.3200E-01
    -15.751  0.0000E+00  0.3200E-01
    -15.658  0.0000E+00  0.3200E-01
    -15.564  0.0000E+00  0.3200E-01
    -15.470  0.0000E+00  0.3200E-01
    -15.376  0.0000E+00  0.3200E-01
    -15.283  0.0000E+00  0.3200E-01
    -15.189  0.0000E+00  0.3200E-01
    -15.095  0.0000E+00  0.3200E-01
    -15.002  0.0000E+00  0.3200E-01
    -14.908  0.0000E+00  0.3200E-01
    -14.814  0.0000E+00  0.3200E-01
    -14.720  0.0000E+00  0.3200E-01
    -14.627  0.0000E+00  0.3200E-01
    -14.533  0.0000E+00  0.3200E-01
    -14.439  0.0000E+00  0.3200E-01
    -14.345  0.0000E+00  0.3200E-01
    -14.252  0.0000E+00  0.3200E-01
    -14.158  0.0000E+00  0.3200E-01
    -14.064  0.0000E+00  0.3200E-01
    -13.970  0.0000E+00  0.3200E-01
    -13.877  0.0000E+00  0.3200E-01
    -13.783  0.0000E+00  0.3200E-01
    -13.689  0.0000E+00  0.3200E-01
    -13.595  0.0000E+00  0.3200E-01
    -13.502  0.0000E+00  0.3200E-01
    -13.408  0.0000E+00  0.3200E-01
    -13.314  0.0000E+00  0.3200E-01
    -13.220  0.0000E+00  0.3200E-01
    -13.127  0.0000E+00  0.3200E-01
    -13.033  0.0000E+00  0.3200E-01
    -12.939  0.0000E+00  0.3200E-01
    -12.845  0.0000E+00  0.3200E-01
    -12.752  0.0000E+00  0.3200E-01
    -12.658  0.0000E+00  0.3200E-01
    -12.564  0.0000E+00  0.3200E-01
    -12.470  0.0000E+00  0.3200E-01
    -12.377  0.0000E+00  0.3200E-01
    -12.283  0.0000E+00  0.3200E-01
    -12.189  0.0000E+00  0.3200E-01
    -12.095  0.0000E+00  0.3200E-01
    -12.002  0.0000E+00  0.3200E-01
    -11.908  0.0000E+00  0.3200E-01
    -11.814  0.0000E+00  0.3200E-01
    -11.721  0.0000E+00  0.3200E-01
    -11.627  0.0000E+00  0.3200E-01
    -11.533  0.0000E+00  0.3200E-01
    -11.439  0.0000E+00  0.3200E-01
    -11.346  0.0000E+00  0.3200E-01
    -11.252  0.0000E+00  0.3200E-01
    -11.158  0.0000E+00  0.3200E-01
    -11.064  0.0000E+00  0.3200E-01
    -10.971  0.0000E+00  0.3200E-01
    -10.877  0.0000E+00  0.3200E-01
    -10.783  0.0000E+00  0.3200E-01
    -10.689  0.0000E+00  0.3200E-01
    -10.596  0.0000E+00  0.3200E-01
    -10.502  0.0000E+00  0.3200E-01
    -10.408  0.0000E+00  0.3200E-01
    -10.314  0.0000E+00  0.3200E-01
    -10.221  0.0000E+00  0.3200E-01
    -10.127  0.0000E+00  0.3200E-01
    -10.033  0.0000E+00  0.3200E-01
     -9.939  0.0000E+00  0.3200E-01
     -9.846  0.0000E+00  0.3200E-01
     -9.752  0.0000E+00  0.3200E-01
     -9.658  0.6110E-14  0.3200E-01
     -9.564  0.4141E-10  0.3200E-01
     -9.471  0.5147E-07  0.3200E-01
     -9.377  0.1202E-04  0.3200E-01
     -9.283  0.5474E-03  0.3205E-01
     -9.189  0.5145E-02  0.3253E-01
     -9.096  0.1115E-01  0.3358E-01
     -9.002  0.1004E-01  0.3452E-01
     -8.908  0.1027E-01  0.3548E-01
     -8.815  0.5266E-02  0.3598E-01
     -8.721  0.3315E-02  0.3629E-01
     -8.627  0.6495E-02  0.3690E-01
     -8.533  0.1524E-01  0.3833E-01
     -8.440  0.2586E-01  0.4075E-01
     -8.346  0.2408E-01  0.4301E-01
     -8.252  0.2669E-01  0.4551E-01
     -8.158  0.3821E-01  0.4909E-01
     -8.065  0.4972E-01  0.5375E-01
     -7.971  0.4917E-01  0.5836E-01
     -7.877  0.3791E-01  0.6192E-01
     -7.783  0.5247E-01  0.6684E-01
     -7.690  0.7214E-01  0.7360E-01
     -7.596  0.7265E-01  0.8041E-01
     -7.502  0.7383E-01  0.8733E-01
     -7.408  0.8921E-01  0.9569E-01
     -7.315  0.9882E-01  0.1050E+00
     -7.221  0.9967E-01  0.1143E+00
     -7.127  0.1067E+00  0.1243E+00
     -7.033  0.1211E+00  0.1357E+00
     -6.940  0.1358E+00  0.1484E+00
     -6.846  0.1481E+00  0.1623E+00
     -6.752  0.1641E+00  0.1777E+00
     -6.658  0.1717E+00  0.1938E+00
     -6.565  0.1691E+00  0.2096E+00
     -6.471  0.1690E+00  0.2254E+00
     -6.377  0.1706E+00  0.2414E+00
     -6.283  0.1704E+00  0.2574E+00
     -6.190  0.1640E+00  0.2728E+00
     -6.096  0.1562E+00  0.2874E+00
     -6.002  0.1582E+00  0.3023E+00
     -5.908  0.1593E+00  0.3172E+00
     -5.815  0.1588E+00  0.3321E+00
     -5.721  0.1587E+00  0.3470E+00
     -5.627  0.1585E+00  0.3618E+00
     -5.534  0.1605E+00  0.3769E+00
     -5.440  0.1714E+00  0.3929E+00
     -5.346  0.1823E+00  0.4100E+00
     -5.252  0.1814E+00  0.4270E+00
     -5.159  0.1780E+00  0.4437E+00
     -5.065  0.1725E+00  0.4599E+00
     -4.971  0.1707E+00  0.4759E+00
     -4.877  0.1712E+00  0.4919E+00
     -4.784  0.1767E+00  0.5085E+00
     -4.690  0.1792E+00  0.5253E+00
     -4.596  0.1807E+00  0.5422E+00
     -4.502  0.1805E+00  0.5592E+00
     -4.409  0.1774E+00  0.5758E+00
     -4.315  0.1813E+00  0.5928E+00
     -4.221  0.1883E+00  0.6104E+00
     -4.127  0.1857E+00  0.6278E+00
     -4.034  0.1882E+00  0.6455E+00
     -3.940  0.1903E+00  0.6633E+00
     -3.846  0.1864E+00  0.6808E+00
     -3.752  0.1918E+00  0.6988E+00
     -3.659  0.1979E+00  0.7173E+00
     -3.565  0.1934E+00  0.7355E+00
     -3.471  0.1851E+00  0.7528E+00
     -3.377  0.1782E+00  0.7695E+00
     -3.284  0.1689E+00  0.7853E+00
     -3.190  0.1676E+00  0.8011E+00
     -3.096  0.1824E+00  0.8181E+00
     -3.002  0.1893E+00  0.8359E+00
     -2.909  0.1921E+00  0.8539E+00
     -2.815  0.1950E+00  0.8722E+00
     -2.721  0.1929E+00  0.8903E+00
     -2.628  0.1909E+00  0.9082E+00
     -2.534  0.1885E+00  0.9258E+00
     -2.440  0.1877E+00  0.9434E+00
     -2.346  0.1918E+00  0.9614E+00
     -2.253  0.2027E+00  0.9804E+00
     -2.159  0.1979E+00  0.9989E+00
     -2.065  0.1817E+00  0.1016E+01
     -1.971  0.1775E+00  0.1033E+01
     -1.878  0.1709E+00  0.1049E+01
     -1.784  0.1555E+00  0.1063E+01
     -1.690  0.1429E+00  0.1077E+01
     -1.596  0.1297E+00  0.1089E+01
     -1.503  0.1084E+00  0.1099E+01
     -1.409  0.8532E-01  0.1107E+01
     -1.315  0.6627E-01  0.1113E+01
     -1.221  0.6173E-01  0.1119E+01
     -1.128  0.6150E-01  0.1125E+01
     -1.034  0.4993E-01  0.1129E+01
     -0.940  0.3864E-01  0.1133E+01
     -0.846  0.4224E-01  0.1137E+01
     -0.753  0.5120E-01  0.1142E+01
     -0.659  0.5477E-01  0.1147E+01
     -0.565  0.5906E-01  0.1152E+01
     -0.471  0.5065E-01  0.1157E+01
     -0.378  0.4179E-01  0.1161E+01
     -0.284  0.3181E-01  0.1164E+01
     -0.190  0.2643E-01  0.1167E+01
     -0.096  0.2185E-01  0.1169E+01
     -0.003  0.2469E-01  0.1171E+01
      0.091  0.2540E-01  0.1173E+01
      0.185  0.2241E-01  0.1175E+01
      0.279  0.2651E-01  0.1178E+01
      0.372  0.3832E-01  0.1181E+01
      0.466  0.3662E-01  0.1185E+01
      0.560  0.3226E-01  0.1188E+01
      0.653  0.3421E-01  0.1191E+01
      0.747  0.3366E-01  0.1194E+01
      0.841  0.2896E-01  0.1197E+01
      0.935  0.2817E-01  0.1200E+01
      1.028  0.2646E-01  0.1202E+01
      1.122  0.2602E-01  0.1205E+01
      1.216  0.2363E-01  0.1207E+01
      1.310  0.2294E-01  0.1209E+01
      1.403  0.2344E-01  0.1211E+01
      1.497  0.2637E-01  0.1214E+01
      1.591  0.3118E-01  0.1217E+01
      1.685  0.3404E-01  0.1220E+01
      1.778  0.3388E-01  0.1223E+01
      1.872  0.3253E-01  0.1226E+01
      1.966  0.3339E-01  0.1229E+01
      2.060  0.3278E-01  0.1232E+01
      2.153  0.3045E-01  0.1235E+01
      2.247  0.2951E-01  0.1238E+01
      2.341  0.2797E-01  0.1240E+01
      2.435  0.2656E-01  0.1243E+01
      2.528  0.2584E-01  0.1245E+01
      2.622  0.2688E-01  0.1248E+01
      2.716  0.2661E-01  0.1250E+01
      2.810  0.2415E-01  0.1253E+01
      2.903  0.1901E-01  0.1254E+01
      2.997  0.2220E-01  0.1256E+01
      3.091  0.2717E-01  0.1259E+01
      3.185  0.3658E-01  0.1262E+01
      3.278  0.4078E-01  0.1266E+01
      3.372  0.3434E-01  0.1269E+01
      3.466  0.2657E-01  0.1272E+01
      3.559  0.3098E-01  0.1275E+01
      3.653  0.3157E-01  0.1278E+01
      3.747  0.3193E-01  0.1281E+01
      3.841  0.3225E-01  0.1284E+01
      3.934  0.4001E-01  0.1288E+01
      4.028  0.4117E-01  0.1291E+01
      4.122  0.3366E-01  0.1295E+01
      4.216  0.3309E-01  0.1298E+01
      4.309  0.3310E-01  0.1301E+01
      4.403  0.3488E-01  0.1304E+01
      4.497  0.3512E-01  0.1307E+01
      4.591  0.4640E-01  0.1312E+01
      4.684  0.5629E-01  0.1317E+01
      4.778  0.5298E-01  0.1322E+01
      4.872  0.5393E-01  0.1327E+01
      4.966  0.5274E-01  0.1332E+01
      5.059  0.5285E-01  0.1337E+01
      5.153  0.4825E-01  0.1341E+01
      5.247  0.2310E-01  0.1344E+01
      5.341  0.4019E-02  0.1344E+01
      5.434  0.2033E-03  0.1344E+01
      5.528  0.2500E-05  0.1344E+01
      5.622  0.6514E-08  0.1344E+01
      5.716  0.3307E-11  0.1344E+01
      5.809  0.3119E-15  0.1344E+01
      5.903  0.0000E+00  0.1344E+01
      5.997  0.0000E+00  0.1344E+01
      6.091  0.0000E+00  0.1344E+01
      6.184  0.0000E+00  0.1344E+01
      6.278  0.0000E+00  0.1344E+01
      6.372  0.0000E+00  0.1344E+01
      6.466  0.0000E+00  0.1344E+01
