<?xml version="1.0" encoding="ISO-8859-1"?>
<modeling>
 <generator>
  <i name="program" type="string">vasp </i>
  <i name="version" type="string">5.4.1  </i>
  <i name="subversion" type="string">24Jun15 (build Mar 14 2019 10:18:33) complex                          parallel </i>
  <i name="platform" type="string">INTEL-19.0.2+OPENMPI-3.1.3 </i>
  <i name="date" type="string">2023 01 23 </i>
  <i name="time" type="string">14:02:45 </i>
 </generator>
 <incar>
  <i type="int" name="ISTART">     0</i>
  <i type="string" name="PREC">normal</i>
  <i type="string" name="ALGO"> Fast</i>
  <i type="int" name="NELM">   500</i>
  <i type="int" name="IBRION">     2</i>
  <i type="int" name="NFREE">     2</i>
  <i name="EDIFF">      0.00000100</i>
  <i name="EDIFFG">     -0.02000000</i>
  <i type="int" name="NSW">   500</i>
  <i type="int" name="ISIF">     0</i>
  <i type="int" name="ISYM">     2</i>
  <i name="ENCUT">    400.00000000</i>
  <i name="POTIM">      0.35000000</i>
  <i type="string" name="LREAL"> Auto</i>
  <i type="logical" name="LPLANE"> T  </i>
  <i type="int" name="ISMEAR">     0</i>
  <i name="SIGMA">      0.10000000</i>
  <i type="int" name="NWRITE">     1</i>
  <i type="logical" name="LWAVE"> F  </i>
  <i type="logical" name="LCHARG"> F  </i>
  <i type="logical" name="LVTOT"> F  </i>
  <i type="logical" name="LORBIT"> F  </i>
  <i type="logical" name="LAECHG"> F  </i>
  <v type="int" name="KPOINT_BSE">    -1     0     0     0</v>
  <i type="int" name="NELM">   500</i>
  <i type="string" name="GGA"> PE          ! optPBE-vdW XC-functional</i>
  <i type="int" name="VOSKOWN">     1</i>
  <i type="logical" name="LDIPOL"> T  </i>
  <i type="logical" name="LMONO"> F  </i>
  <i type="int" name="IDIPOL">     3</i>
  <v name="DIPOL">      0.00000000      0.00000000      0.50000000</v>
 </incar>
 <kpoints>
  <generation param="Monkhorst-Pack">
   <v type="int" name="divisions">       2        2        1 </v>
   <v name="usershift">      0.00000000       0.00000000       0.00000000 </v>
   <v name="genvec1">      0.50000000       0.00000000       0.00000000 </v>
   <v name="genvec2">      0.00000000       0.50000000       0.00000000 </v>
   <v name="genvec3">      0.00000000       0.00000000       1.00000000 </v>
   <v name="shift">      0.50000000       0.50000000       0.00000000 </v>
  </generation>
  <varray name="kpointlist" >
   <v>       0.25000000       0.25000000       0.00000000 </v>
   <v>       0.00000000       0.25000000       0.00000000 </v>
   <v>      -0.25000000       0.00000000       0.00000000 </v>
   <v>      -0.25000000       0.25000000       0.00000000 </v>
   <v>       0.50000000      -0.25000000       0.00000000 </v>
   <v>      -0.25000000       0.50000000       0.00000000 </v>
  </varray>
  <varray name="weights" >
   <v>       0.16666667 </v>
   <v>       0.16666667 </v>
   <v>       0.16666667 </v>
   <v>       0.16666667 </v>
   <v>       0.16666667 </v>
   <v>       0.16666667 </v>
  </varray>
 </kpoints>
 <parameters>
  <separator name="general" >
   <i type="string" name="SYSTEM">unknown system</i>
   <i type="logical" name="LCOMPAT"> F  </i>
  </separator>
  <separator name="electronic" >
   <i type="string" name="PREC">normal</i>
   <i name="ENMAX">    400.00000000</i>
   <i name="ENAUG">    605.39200000</i>
   <i name="EDIFF">      0.00000100</i>
   <i type="int" name="IALGO">    68</i>
   <i type="int" name="IWAVPR">    11</i>
   <i type="int" name="NBANDS">   336</i>
   <i name="NELECT">    552.00000000</i>
   <i type="int" name="TURBO">     0</i>
   <i type="int" name="IRESTART">     0</i>
   <i type="int" name="NREBOOT">     0</i>
   <i type="int" name="NMIN">     0</i>
   <i name="EREF">      0.00000000</i>
   <separator name="electronic smearing" >
    <i type="int" name="ISMEAR">     0</i>
    <i name="SIGMA">      0.10000000</i>
    <i name="KSPACING">      0.50000000</i>
    <i type="logical" name="KGAMMA"> T  </i>
   </separator>
   <separator name="electronic projectors" >
    <i type="logical" name="LREAL"> T  </i>
    <v name="ROPT">     -0.00050000     -0.00050000     -0.00050000</v>
    <i type="int" name="LMAXPAW">  -100</i>
    <i type="int" name="LMAXMIX">     2</i>
    <i type="logical" name="NLSPLINE"> F  </i>
   </separator>
   <separator name="electronic startup" >
    <i type="int" name="ISTART">     0</i>
    <i type="int" name="ICHARG">     2</i>
    <i type="int" name="INIWAV">     1</i>
   </separator>
   <separator name="electronic spin" >
    <i type="int" name="ISPIN">     1</i>
    <i type="logical" name="LNONCOLLINEAR"> F  </i>
    <v name="MAGMOM">      1.00000000      1.00000000      1.00000000      1.00000000      1.00000000      1.00000000      1.00000000      1.00000000      1.00000000      1.00000000      1.00000000      1.00000000      1.00000000      1.00000000      1.00000000      1.00000000      1.00000000      1.00000000      1.00000000      1.00000000
      1.00000000      1.00000000      1.00000000      1.00000000      1.00000000      1.00000000      1.00000000      1.00000000      1.00000000      1.00000000      1.00000000      1.00000000      1.00000000      1.00000000      1.00000000      1.00000000      1.00000000      1.00000000      1.00000000      1.00000000
      1.00000000      1.00000000      1.00000000      1.00000000      1.00000000      1.00000000      1.00000000      1.00000000      1.00000000      1.00000000      1.00000000      1.00000000      1.00000000      1.00000000      1.00000000      1.00000000</v>
    <i name="NUPDOWN">     -1.00000000</i>
    <i type="logical" name="LSORBIT"> F  </i>
    <v name="SAXIS">      0.00000000      0.00000000      1.00000000</v>
    <i type="logical" name="LSPIRAL"> F  </i>
    <v name="QSPIRAL">      0.00000000      0.00000000      0.00000000</v>
    <i type="logical" name="LZEROZ"> F  </i>
   </separator>
   <separator name="electronic exchange-correlation" >
    <i type="logical" name="LASPH"> F  </i>
    <i type="logical" name="LMETAGGA"> F  </i>
   </separator>
   <separator name="electronic convergence" >
    <i type="int" name="NELM">   500</i>
    <i type="int" name="NELMDL">    -5</i>
    <i type="int" name="NELMIN">     2</i>
    <i name="ENINI">    400.00000000</i>
    <separator name="electronic convergence detail" >
     <i type="logical" name="LDIAG"> T  </i>
     <i type="logical" name="LSUBROT"> F  </i>
     <i name="WEIMIN">      0.00100000</i>
     <i name="EBREAK">      0.00000000</i>
     <i name="DEPER">      0.30000000</i>
     <i type="int" name="NRMM">     4</i>
     <i name="TIME">      0.40000000</i>
    </separator>
   </separator>
   <separator name="electronic mixer" >
    <i name="AMIX">      0.40000000</i>
    <i name="BMIX">      1.00000000</i>
    <i name="AMIN">      0.10000000</i>
    <i name="AMIX_MAG">      1.60000000</i>
    <i name="BMIX_MAG">      1.00000000</i>
    <separator name="electronic mixer details" >
     <i type="int" name="IMIX">     4</i>
     <i type="logical" name="MIXFIRST"> F  </i>
     <i type="int" name="MAXMIX">   -45</i>
     <i name="WC">    100.00000000</i>
     <i type="int" name="INIMIX">     1</i>
     <i type="int" name="MIXPRE">     1</i>
     <i type="int" name="MREMOVE">     5</i>
    </separator>
   </separator>
   <separator name="electronic dipolcorrection" >
    <i type="logical" name="LDIPOL"> T  </i>
    <i type="logical" name="LMONO"> F  </i>
    <i type="int" name="IDIPOL">     3</i>
    <i name="EPSILON">      1.00000000</i>
    <v name="DIPOL">      0.00000000      0.00000000      0.50000000</v>
    <i name="EFIELD">      0.00000000</i>
   </separator>
  </separator>
  <separator name="grids" >
   <i type="int" name="NGX">    54</i>
   <i type="int" name="NGY">    54</i>
   <i type="int" name="NGZ">   128</i>
   <i type="int" name="NGXF">   108</i>
   <i type="int" name="NGYF">   108</i>
   <i type="int" name="NGZF">   256</i>
   <i type="logical" name="ADDGRID"> F  </i>
  </separator>
  <separator name="ionic" >
   <i type="int" name="NSW">   500</i>
   <i type="int" name="IBRION">     2</i>
   <i type="int" name="ISIF">     0</i>
   <i name="PSTRESS">      0.00000000</i>
   <i name="EDIFFG">     -0.02000000</i>
   <i type="int" name="NFREE">     2</i>
   <i name="POTIM">      0.35000000</i>
   <i name="SMASS">     -3.00000000</i>
   <i name="SCALEE">      1.00000000</i>
  </separator>
  <separator name="ionic md" >
   <i name="TEBEG">      0.00010000</i>
   <i name="TEEND">      0.00010000</i>
   <i type="int" name="NBLOCK">     1</i>
   <i type="int" name="KBLOCK">   500</i>
   <i type="int" name="NPACO">   256</i>
   <i name="APACO">     16.00000000</i>
  </separator>
  <separator name="symmetry" >
   <i type="int" name="ISYM">     2</i>
   <i name="SYMPREC">      0.00001000</i>
  </separator>
  <separator name="dos" >
   <i type="logical" name="LORBIT"> F  </i>
   <v name="RWIGS">     -1.00000000     -1.00000000     -1.00000000</v>
   <i type="int" name="NEDOS">   301</i>
   <i name="EMIN">     10.00000000</i>
   <i name="EMAX">    -10.00000000</i>
   <i name="EFERMI">      0.00000000</i>
  </separator>
  <separator name="writing" >
   <i type="int" name="NWRITE">     1</i>
   <i type="logical" name="LWAVE"> F  </i>
   <i type="logical" name="LCHARG"> F  </i>
   <i type="logical" name="LPARD"> F  </i>
   <i type="logical" name="LVTOT"> F  </i>
   <i type="logical" name="LVHAR"> F  </i>
   <i type="logical" name="LELF"> F  </i>
   <i type="logical" name="LOPTICS"> F  </i>
   <v name="STM">      0.00000000      0.00000000      0.00000000      0.00000000      0.00000000      0.00000000      0.00000000</v>
  </separator>
  <separator name="performance" >
   <i type="int" name="NPAR">     6</i>
   <i type="int" name="NSIM">     4</i>
   <i type="int" name="NBLK">    -1</i>
   <i type="logical" name="LPLANE"> T  </i>
   <i type="logical" name="LSCALAPACK"> T  </i>
   <i type="logical" name="LSCAAWARE"> F  </i>
   <i type="logical" name="LSCALU"> F  </i>
   <i type="logical" name="LASYNC"> F  </i>
   <i type="logical" name="LORBITALREAL"> F  </i>
  </separator>
  <separator name="miscellaneous" >
   <i type="int" name="IDIOT">     3</i>
   <i type="logical" name="LMUSIC"> F  </i>
   <v name="POMASS">    196.96600000     16.00000000    106.42000000</v>
   <v name="DARWINR">      0.00000000      0.00000000      0.00000000</v>
   <v name="DARWINV">      1.00000000      1.00000000      1.00000000</v>
   <i type="logical" name="LCORR"> T  </i>
  </separator>
  <i type="logical" name="GGA_COMPAT"> T  </i>
  <i type="logical" name="LBERRY"> F  </i>
  <i type="int" name="ICORELEVEL">     0</i>
  <i type="logical" name="LDAU"> F  </i>
  <i type="int" name="I_CONSTRAINED_M">     0</i>
  <separator name="electronic exchange-correlation" >
   <i type="string" name="GGA">PE</i>
   <i type="int" name="VOSKOWN">     1</i>
   <i type="logical" name="LHFCALC"> F  </i>
   <i type="string" name="PRECFOCK"></i>
   <i type="logical" name="LSYMGRAD"> F  </i>
   <i type="logical" name="LHFONE"> F  </i>
   <i type="logical" name="LRHFCALC"> F  </i>
   <i type="logical" name="LTHOMAS"> F  </i>
   <i type="logical" name="LMODELHF"> F  </i>
   <i name="ENCUT4O">     -1.00000000</i>
   <i type="int" name="EXXOEP">     0</i>
   <i type="int" name="FOURORBIT">     0</i>
   <i name="AEXX">      0.00000000</i>
   <i name="HFALPHA">      0.00000000</i>
   <i name="MCALPHA">      0.00000000</i>
   <i name="ALDAX">      1.00000000</i>
   <i name="AGGAX">      1.00000000</i>
   <i name="ALDAC">      1.00000000</i>
   <i name="AGGAC">      1.00000000</i>
   <i type="int" name="NKREDX">     1</i>
   <i type="int" name="NKREDY">     1</i>
   <i type="int" name="NKREDZ">     1</i>
   <i type="logical" name="SHIFTRED"> F  </i>
   <i type="logical" name="ODDONLY"> F  </i>
   <i type="logical" name="EVENONLY"> F  </i>
   <i type="int" name="LMAXFOCK">     0</i>
   <i type="int" name="NMAXFOCKAE">     0</i>
   <i type="logical" name="LFOCKAEDFT"> F  </i>
   <i name="HFSCREEN">      0.00000000</i>
   <i name="HFSCREENC">      0.00000000</i>
   <i type="int" name="NBANDSGWLOW">     0</i>
  </separator>
  <separator name="vdW DFT" >
   <i type="logical" name="LUSE_VDW"> F  </i>
   <i name="Zab_VDW">     -0.84910000</i>
   <i name="PARAM1">      0.12340000</i>
   <i name="PARAM2">      1.00000000</i>
   <i name="PARAM3">      0.00000000</i>
  </separator>
  <separator name="model GW" >
   <i type="int" name="MODEL_GW">     0</i>
   <i name="MODEL_EPS0">     29.42037089</i>
   <i name="MODEL_ALPHA">      1.00000000</i>
  </separator>
  <separator name="linear response parameters" >
   <i type="logical" name="LEPSILON"> F  </i>
   <i type="logical" name="LRPA"> F  </i>
   <i type="logical" name="LNABLA"> F  </i>
   <i type="logical" name="LVEL"> F  </i>
   <i type="int" name="KINTER">     0</i>
   <i name="CSHIFT">      0.10000000</i>
   <i name="OMEGAMAX">     -1.00000000</i>
   <i name="DEG_THRESHOLD">      0.00200000</i>
  </separator>
  <separator name="orbital magnetization" >
   <i type="logical" name="NUCIND"> F  </i>
   <v name="MAGPOS">      0.00000000      0.00000000      0.00000000</v>
   <i type="logical" name="LNICSALL"> T  </i>
   <i type="logical" name="ORBITALMAG"> F  </i>
   <i type="logical" name="LMAGBLOCH"> F  </i>
   <i type="logical" name="LCHIMAG"> F  </i>
   <i type="logical" name="LGAUGE"> T  </i>
   <i type="int" name="MAGATOM">     0</i>
   <v name="MAGDIPOL">      0.00000000      0.00000000      0.00000000</v>
   <v name="AVECCONST">      0.00000000      0.00000000      0.00000000</v>
  </separator>
  <separator name="response functions" >
   <i type="logical" name="LADDER"> F  </i>
   <i type="logical" name="LFXC"> F  </i>
   <i type="logical" name="LHARTREE"> T  </i>
   <i type="int" name="IBSE">     0</i>
   <v type="int" name="KPOINT">    -1     0     0     0</v>
   <i type="logical" name="LTCTE"> F  </i>
   <i type="logical" name="LTETE"> F  </i>
   <i type="logical" name="LTRIPLET"> F  </i>
   <i type="logical" name="LFXCEPS"> F  </i>
   <i type="logical" name="LFXHEG"> F  </i>
   <i type="int" name="NATURALO">     0</i>
   <i type="logical" name="L2ORDER"> F  </i>
   <i type="logical" name="LUSEW"> F  </i>
   <i name="ENCUTGW">     -2.00000000</i>
   <i name="ENCUTGWSOFT">     -2.00000000</i>
   <i name="ENCUTLF">     -1.00000000</i>
   <i type="int" name="LMAXMP2">    -1</i>
   <i name="SCISSOR">      0.00000000</i>
   <i type="int" name="NOMEGA">     0</i>
   <i type="int" name="NOMEGAR">     0</i>
   <i type="int" name="NBANDSGW">    -1</i>
   <i type="int" name="NBANDSO">    -1</i>
   <i type="int" name="NBANDSV">    -1</i>
   <i type="int" name="NELM">   500</i>
   <i type="int" name="NELMHF">     1</i>
   <i type="int" name="DIM">     3</i>
   <i type="int" name="ANTIRES">     0</i>
   <i name="OMEGAMAX">    -30.00000000</i>
   <i name="OMEGAMIN">    -30.00000000</i>
   <i name="OMEGATL">   -200.00000000</i>
   <i type="int" name="OMEGAGRID">     0</i>
   <i name="CSHIFT">     -0.10000000</i>
   <i type="logical" name="SELFENERGY"> F  </i>
   <i type="logical" name="LSPECTRAL"> F  </i>
   <i type="logical" name="LSPECTRALGW"> F  </i>
   <i type="logical" name="LSINGLES"> F  </i>
   <i type="logical" name="LFERMIGW"> F  </i>
   <i type="logical" name="ODDONLYGW"> F  </i>
   <i type="logical" name="EVENONLYGW"> F  </i>
   <i type="int" name="NKREDLFX">     1</i>
   <i type="int" name="NKREDLFY">     1</i>
   <i type="int" name="NKREDLFZ">     1</i>
   <i type="int" name="MAXMEM">  1800</i>
   <i type="int" name="TELESCOPE">     0</i>
   <i type="int" name="TAUPAR">     1</i>
   <i type="int" name="OMEGAPAR">    -1</i>
   <i name="LAMBDA">      1.00000000</i>
  </separator>
  <separator name="External order field" >
   <i name="OFIELD_KAPPA">      0.00000000</i>
   <v name="OFIELD_K">      0.00000000      0.00000000      0.00000000</v>
   <i name="OFIELD_Q6_NEAR">      0.00000000</i>
   <i name="OFIELD_Q6_FAR">      0.00000000</i>
   <i name="OFIELD_A">      0.00000000</i>
  </separator>
 </parameters>
 <atominfo>
  <atoms>      56 </atoms>
  <types>       3 </types>
  <array name="atoms" >
   <dimension dim="1">ion</dimension>
   <field type="string">element</field>
   <field type="int">atomtype</field>
   <set>
    <rc><c>Au</c><c>   1</c></rc>
    <rc><c>Au</c><c>   1</c></rc>
    <rc><c>Au</c><c>   1</c></rc>
    <rc><c>Au</c><c>   1</c></rc>
    <rc><c>Au</c><c>   1</c></rc>
    <rc><c>Au</c><c>   1</c></rc>
    <rc><c>Au</c><c>   1</c></rc>
    <rc><c>Au</c><c>   1</c></rc>
    <rc><c>Au</c><c>   1</c></rc>
    <rc><c>Au</c><c>   1</c></rc>
    <rc><c>Au</c><c>   1</c></rc>
    <rc><c>Au</c><c>   1</c></rc>
    <rc><c>Au</c><c>   1</c></rc>
    <rc><c>Au</c><c>   1</c></rc>
    <rc><c>Au</c><c>   1</c></rc>
    <rc><c>Au</c><c>   1</c></rc>
    <rc><c>Au</c><c>   1</c></rc>
    <rc><c>Au</c><c>   1</c></rc>
    <rc><c>Au</c><c>   1</c></rc>
    <rc><c>Au</c><c>   1</c></rc>
    <rc><c>Au</c><c>   1</c></rc>
    <rc><c>Au</c><c>   1</c></rc>
    <rc><c>Au</c><c>   1</c></rc>
    <rc><c>Au</c><c>   1</c></rc>
    <rc><c>O </c><c>   2</c></rc>
    <rc><c>O </c><c>   2</c></rc>
    <rc><c>O </c><c>   2</c></rc>
    <rc><c>O </c><c>   2</c></rc>
    <rc><c>O </c><c>   2</c></rc>
    <rc><c>O </c><c>   2</c></rc>
    <rc><c>O </c><c>   2</c></rc>
    <rc><c>O </c><c>   2</c></rc>
    <rc><c>Pd</c><c>   3</c></rc>
    <rc><c>Pd</c><c>   3</c></rc>
    <rc><c>Pd</c><c>   3</c></rc>
    <rc><c>Pd</c><c>   3</c></rc>
    <rc><c>Pd</c><c>   3</c></rc>
    <rc><c>Pd</c><c>   3</c></rc>
    <rc><c>Pd</c><c>   3</c></rc>
    <rc><c>Pd</c><c>   3</c></rc>
    <rc><c>Pd</c><c>   3</c></rc>
    <rc><c>Pd</c><c>   3</c></rc>
    <rc><c>Pd</c><c>   3</c></rc>
    <rc><c>Pd</c><c>   3</c></rc>
    <rc><c>Pd</c><c>   3</c></rc>
    <rc><c>Pd</c><c>   3</c></rc>
    <rc><c>Pd</c><c>   3</c></rc>
    <rc><c>Pd</c><c>   3</c></rc>
    <rc><c>Pd</c><c>   3</c></rc>
    <rc><c>Pd</c><c>   3</c></rc>
    <rc><c>Pd</c><c>   3</c></rc>
    <rc><c>Pd</c><c>   3</c></rc>
    <rc><c>Pd</c><c>   3</c></rc>
    <rc><c>Pd</c><c>   3</c></rc>
    <rc><c>Pd</c><c>   3</c></rc>
    <rc><c>Pd</c><c>   3</c></rc>
   </set>
  </array>
  <array name="atomtypes" >
   <dimension dim="1">type</dimension>
   <field type="int">atomspertype</field>
   <field type="string">element</field>
   <field>mass</field>
   <field>valence</field>
   <field type="string">pseudopotential</field>
   <set>
    <rc><c>  24</c><c>Au</c><c>    196.96600000</c><c>     11.00000000</c><c>  PAW_PBE Au 04Oct2007                  </c></rc>
    <rc><c>   8</c><c>O </c><c>     16.00000000</c><c>      6.00000000</c><c>  PAW_PBE O 08Apr2002                   </c></rc>
    <rc><c>  24</c><c>Pd</c><c>    106.42000000</c><c>     10.00000000</c><c>  PAW_PBE Pd 04Jan2005                  </c></rc>
   </set>
  </array>
 </atominfo>
 <structure name="initialpos" >
  <crystal>
   <varray name="basis" >
    <v>      11.00258152       0.00000000       0.00000000 </v>
    <v>       5.50129076       9.52851510       0.00000000 </v>
    <v>       0.00000000       0.00000000      26.19178509 </v>
   </varray>
   <i name="volume">   2745.90128299 </i>
   <varray name="rec_basis" >
    <v>       0.09088776      -0.05247407       0.00000000 </v>
    <v>       0.00000000       0.10494815       0.00000000 </v>
    <v>       0.00000000       0.00000000       0.03817991 </v>
   </varray>
  </crystal>
  <varray name="positions" >
   <v>       0.24235529       0.00980861       0.56426788 </v>
   <v>       0.91405319       0.41911353       0.47737686 </v>
   <v>       0.02350438       0.21789786       0.61441769 </v>
   <v>       0.83333333       0.83333333       0.38179910 </v>
   <v>       0.08333333       0.58333333       0.38179910 </v>
   <v>       0.66995041       0.91215890       0.47819853 </v>
   <v>       0.00093347       0.49498543       0.56610983 </v>
   <v>       0.91702812       0.16418513       0.47519983 </v>
   <v>       0.48877630       0.25377039       0.56398292 </v>
   <v>       0.33333333       0.08333333       0.38179910 </v>
   <v>       0.16632491       0.16526228       0.47157042 </v>
   <v>       0.76933568       0.22913467       0.59852694 </v>
   <v>       0.58333333       0.33333333       0.38179910 </v>
   <v>       0.16862136       0.41511883       0.47193472 </v>
   <v>       0.83333333       0.33333333       0.38179910 </v>
   <v>       0.75809234       0.00441059       0.57565574 </v>
   <v>       0.66842281       0.16346208       0.47556530 </v>
   <v>       0.16457739       0.67206859       0.47212296 </v>
   <v>       0.24815296       0.50403139       0.56276484 </v>
   <v>       0.49291753       0.75647533       0.56677311 </v>
   <v>       0.58333333       0.83333333       0.38179910 </v>
   <v>       0.48668359       0.51977306       0.57793323 </v>
   <v>       0.58333333       0.58333333       0.38179910 </v>
   <v>       0.66595459       0.41632322       0.48788018 </v>
   <v>       0.15721233       0.28970513       0.63137218 </v>
   <v>       0.10714301       0.86423287       0.61639528 </v>
   <v>       0.11568264       0.56581572       0.62749373 </v>
   <v>       0.82122597       0.82589686       0.62643760 </v>
   <v>       0.78554536       0.61275536       0.62321518 </v>
   <v>       0.55708946       0.34244713       0.62248250 </v>
   <v>       0.56122816       0.07455290       0.61579636 </v>
   <v>       0.81721307       0.36207054       0.63597971 </v>
   <v>       0.58333333       0.08333333       0.38179910 </v>
   <v>       0.74234278       0.75616321       0.57167910 </v>
   <v>       0.99989982       0.00813916       0.56095516 </v>
   <v>       0.24576552       0.75959586       0.56117973 </v>
   <v>       0.16889660       0.91542255       0.46867435 </v>
   <v>       0.33333333       0.83333333       0.38179910 </v>
   <v>       0.91937433       0.91427329       0.47511240 </v>
   <v>       0.08333333       0.33333333       0.38179910 </v>
   <v>       0.33333333       0.58333333       0.38179910 </v>
   <v>       0.91617979       0.66715042       0.47634053 </v>
   <v>       0.41569455       0.41858370       0.47522051 </v>
   <v>       0.24610600       0.24918137       0.56457457 </v>
   <v>       0.33333333       0.33333333       0.38179910 </v>
   <v>       0.08333333       0.83333333       0.38179910 </v>
   <v>       0.49223774       0.99760889       0.56409327 </v>
   <v>       0.08333333       0.08333333       0.38179910 </v>
   <v>       0.83333333       0.08333333       0.38179910 </v>
   <v>       0.83333333       0.58333333       0.38179910 </v>
   <v>       0.66879671       0.66441823       0.47979657 </v>
   <v>       0.41775345       0.66632043       0.47657141 </v>
   <v>       0.74680632       0.50271401       0.57592687 </v>
   <v>       0.41747361       0.91238532       0.47468760 </v>
   <v>       0.41771251       0.16438413       0.47430505 </v>
   <v>       0.01290970       0.75697954       0.60401400 </v>
  </varray>
  <varray name="selective"  type="logical" >
   <v type="logical" >  T  T  T </v>
   <v type="logical" >  T  T  T </v>
   <v type="logical" >  T  T  T </v>
   <v type="logical" >  F  F  F </v>
   <v type="logical" >  F  F  F </v>
   <v type="logical" >  T  T  T </v>
   <v type="logical" >  T  T  T </v>
   <v type="logical" >  T  T  T </v>
   <v type="logical" >  T  T  T </v>
   <v type="logical" >  F  F  F </v>
   <v type="logical" >  T  T  T </v>
   <v type="logical" >  T  T  T </v>
   <v type="logical" >  F  F  F </v>
   <v type="logical" >  T  T  T </v>
   <v type="logical" >  F  F  F </v>
   <v type="logical" >  T  T  T </v>
   <v type="logical" >  T  T  T </v>
   <v type="logical" >  T  T  T </v>
   <v type="logical" >  T  T  T </v>
   <v type="logical" >  T  T  T </v>
   <v type="logical" >  F  F  F </v>
   <v type="logical" >  T  T  T </v>
   <v type="logical" >  F  F  F </v>
   <v type="logical" >  T  T  T </v>
   <v type="logical" >  T  T  T </v>
   <v type="logical" >  T  T  T </v>
   <v type="logical" >  T  T  T </v>
   <v type="logical" >  T  T  T </v>
   <v type="logical" >  T  T  T </v>
   <v type="logical" >  T  T  T </v>
   <v type="logical" >  T  T  T </v>
   <v type="logical" >  T  T  T </v>
   <v type="logical" >  F  F  F </v>
   <v type="logical" >  T  T  T </v>
   <v type="logical" >  T  T  T </v>
   <v type="logical" >  T  T  T </v>
   <v type="logical" >  T  T  T </v>
   <v type="logical" >  F  F  F </v>
   <v type="logical" >  T  T  T </v>
   <v type="logical" >  F  F  F </v>
   <v type="logical" >  F  F  F </v>
   <v type="logical" >  T  T  T </v>
   <v type="logical" >  T  T  T </v>
   <v type="logical" >  T  T  T </v>
   <v type="logical" >  F  F  F </v>
   <v type="logical" >  F  F  F </v>
   <v type="logical" >  T  T  T </v>
   <v type="logical" >  F  F  F </v>
   <v type="logical" >  F  F  F </v>
   <v type="logical" >  F  F  F </v>
   <v type="logical" >  T  T  T </v>
   <v type="logical" >  T  T  T </v>
   <v type="logical" >  T  T  T </v>
   <v type="logical" >  T  T  T </v>
   <v type="logical" >  T  T  T </v>
   <v type="logical" >  T  T  T </v>
  </varray>
  <nose>
   <v>      -3.00000000       0.00000000       0.00010000       0.00010000 </v>
  </nose>
 </structure>
 <calculation>
  <scstep>
   <time name="dav">    8.10    8.13</time>
   <time name="total">    8.17    8.19</time>
   <dipole>
    <v name="dipole">      0.00000000       0.00000000       0.00008902 </v>
    <i name="Tr[quadrupol]"> -11079.27407712 </i>
    <i name="Echarged">      0.00000000 </i>
    <i name="Edipol_quadrupol">      0.00000000 </i>
    <i name="Eion">      0.00000000 </i>
   </dipole>
   <energy>
    <i name="alphaZ">    862.57728185 </i>
    <i name="ewald"> 236388.95471292 </i>
    <i name="hartreedc">-282010.20534518 </i>
    <i name="XCdc">   -116.07443305 </i>
    <i name="pawpsdc">  43112.45544455 </i>
    <i name="pawaedc"> -41079.41300390 </i>
    <i name="eentropy">     -0.14377538 </i>
    <i name="bandstr">   1348.69710692 </i>
    <i name="atom">  45117.89144060 </i>
    <i name="e_fr_energy">   3624.73942932 </i>
    <i name="e_wo_entrp">   3624.88320470 </i>
    <i name="e_0_energy">   3624.81131701 </i>
   </energy>
  </scstep>
  <scstep>
   <time name="dav">    9.63    9.66</time>
   <time name="total">    9.63    9.66</time>
   <dipole>
    <v name="dipole">      0.00000000       0.00000000       0.00008902 </v>
    <i name="Tr[quadrupol]"> -11079.27407712 </i>
    <i name="Echarged">      0.00000000 </i>
    <i name="Edipol_quadrupol">      0.00000000 </i>
    <i name="Eion">      0.00000000 </i>
   </dipole>
   <energy>
    <i name="e_fr_energy">     52.10229214 </i>
    <i name="e_wo_entrp">     52.26305815 </i>
    <i name="e_0_energy">     52.18267515 </i>
   </energy>
  </scstep>
  <scstep>
   <time name="dav">    9.50    9.55</time>
   <time name="total">    9.50    9.56</time>
   <dipole>
    <v name="dipole">      0.00000000       0.00000000       0.00008902 </v>
    <i name="Tr[quadrupol]"> -11079.27407712 </i>
    <i name="Echarged">      0.00000000 </i>
    <i name="Edipol_quadrupol">      0.00000000 </i>
    <i name="Eion">      0.00000000 </i>
   </dipole>
   <energy>
    <i name="e_fr_energy">   -252.39250053 </i>
    <i name="e_wo_entrp">   -252.15436286 </i>
    <i name="e_0_energy">   -252.27343170 </i>
   </energy>
  </scstep>
  <scstep>
   <time name="dav">    9.31    9.41</time>
   <time name="total">    9.32    9.42</time>
   <dipole>
    <v name="dipole">      0.00000000       0.00000000       0.00008902 </v>
    <i name="Tr[quadrupol]"> -11079.27407712 </i>
    <i name="Echarged">      0.00000000 </i>
    <i name="Edipol_quadrupol">      0.00000000 </i>
    <i name="Eion">      0.00000000 </i>
   </dipole>
   <energy>
    <i name="e_fr_energy">   -263.12855315 </i>
    <i name="e_wo_entrp">   -262.87902538 </i>
    <i name="e_0_energy">   -263.00378927 </i>
   </energy>
  </scstep>
  <scstep>
   <time name="dav">    9.39    9.41</time>
   <time name="total">    9.66    9.69</time>
   <dipole>
    <v name="dipole">      0.00000000       0.00000000       0.00008902 </v>
    <i name="Tr[quadrupol]"> -11079.27407712 </i>
    <i name="Echarged">      0.00000000 </i>
    <i name="Edipol_quadrupol">      0.00000000 </i>
    <i name="Eion">      0.00000000 </i>
   </dipole>
   <energy>
    <i name="e_fr_energy">   -263.41473158 </i>
    <i name="e_wo_entrp">   -263.16365476 </i>
    <i name="e_0_energy">   -263.28919317 </i>
   </energy>
  </scstep>
  <scstep>
   <time name="diag">    1.46    1.46</time>
   <time name="diis">    4.00    4.01</time>
   <time name="orth">    0.36    0.36</time>
   <time name="total">    6.14    6.17</time>
   <dipole>
    <v name="dipole">      0.00000000       0.00000000      -0.12441268 </v>
    <i name="Tr[quadrupol]"> -11074.75445895 </i>
    <i name="Echarged">      0.00000000 </i>
    <i name="Edipol_quadrupol">      0.00000000 </i>
    <i name="Eion">      0.00000000 </i>
   </dipole>
   <energy>
    <i name="e_fr_energy">   -251.42893972 </i>
    <i name="e_wo_entrp">   -251.15055294 </i>
    <i name="e_0_energy">   -251.28974633 </i>
   </energy>
  </scstep>
  <scstep>
   <time name="diag">    1.46    1.46</time>
   <time name="diis">    4.01    4.02</time>
   <time name="orth">    0.35    0.35</time>
   <time name="total">    6.15    6.17</time>
   <dipole>
    <v name="dipole">      0.00000000       0.00000000       1.46468141 </v>
    <i name="Tr[quadrupol]"> -11078.61279661 </i>
    <i name="Echarged">      0.00000000 </i>
    <i name="Edipol_quadrupol">      0.00000000 </i>
    <i name="Eion">      0.00000000 </i>
   </dipole>
   <energy>
    <i name="e_fr_energy">   -249.19728078 </i>
    <i name="e_wo_entrp">   -249.02142954 </i>
    <i name="e_0_energy">   -249.10935516 </i>
   </energy>
  </scstep>
  <scstep>
   <time name="diag">    1.46    1.46</time>
   <time name="diis">    4.00    4.01</time>
   <time name="orth">    0.35    0.35</time>
   <time name="total">    6.15    6.17</time>
   <dipole>
    <v name="dipole">      0.00000000       0.00000000      -2.79549218 </v>
    <i name="Tr[quadrupol]"> -11077.00729691 </i>
    <i name="Echarged">      0.00000000 </i>
    <i name="Edipol_quadrupol">      0.00000000 </i>
    <i name="Eion">      0.00000000 </i>
   </dipole>
   <energy>
    <i name="e_fr_energy">   -324.62216668 </i>
    <i name="e_wo_entrp">   -324.32497776 </i>
    <i name="e_0_energy">   -324.47357222 </i>
   </energy>
  </scstep>
  <scstep>
   <time name="diag">    1.46    1.46</time>
   <time name="diis">    4.02    4.03</time>
   <time name="orth">    0.35    0.37</time>
   <time name="total">    6.16    6.22</time>
   <dipole>
    <v name="dipole">      0.00000000       0.00000000       0.22075743 </v>
    <i name="Tr[quadrupol]"> -11080.88624950 </i>
    <i name="Echarged">      0.00000000 </i>
    <i name="Edipol_quadrupol">      0.00000000 </i>
    <i name="Eion">      0.00000000 </i>
   </dipole>
   <energy>
    <i name="e_fr_energy">   -270.30761585 </i>
    <i name="e_wo_entrp">   -270.13362851 </i>
    <i name="e_0_energy">   -270.22062218 </i>
   </energy>
  </scstep>
  <scstep>
   <time name="diag">    1.45    1.49</time>
   <time name="diis">    4.06    4.07</time>
   <time name="orth">    0.35    0.35</time>
   <time name="total">    6.19    6.24</time>
   <dipole>
    <v name="dipole">      0.00000000       0.00000000       0.37784531 </v>
    <i name="Tr[quadrupol]"> -11077.75205276 </i>
    <i name="Echarged">      0.00000000 </i>
    <i name="Edipol_quadrupol">      0.00000000 </i>
    <i name="Eion">      0.00000000 </i>
   </dipole>
   <energy>
    <i name="e_fr_energy">   -245.84268793 </i>
    <i name="e_wo_entrp">   -245.66502892 </i>
    <i name="e_0_energy">   -245.75385843 </i>
   </energy>
  </scstep>
  <scstep>
   <time name="diag">    1.45    1.46</time>
   <time name="diis">    3.96    4.00</time>
   <time name="orth">    0.35    0.35</time>
   <time name="total">    6.09    6.14</time>
   <dipole>
    <v name="dipole">      0.00000000       0.00000000       0.45284861 </v>
    <i name="Tr[quadrupol]"> -11078.85642408 </i>
    <i name="Echarged">      0.00000000 </i>
    <i name="Edipol_quadrupol">      0.00000000 </i>
    <i name="Eion">      0.00000000 </i>
   </dipole>
   <energy>
    <i name="e_fr_energy">   -234.48585163 </i>
    <i name="e_wo_entrp">   -234.28071494 </i>
    <i name="e_0_energy">   -234.38328329 </i>
   </energy>
  </scstep>
  <scstep>
   <time name="diag">    1.45    1.46</time>
   <time name="diis">    4.01    4.02</time>
   <time name="orth">    0.35    0.35</time>
   <time name="total">    6.14    6.16</time>
   <dipole>
    <v name="dipole">      0.00000000       0.00000000       0.61652008 </v>
    <i name="Tr[quadrupol]"> -11078.68221501 </i>
    <i name="Echarged">      0.00000000 </i>
    <i name="Edipol_quadrupol">      0.00000000 </i>
    <i name="Eion">      0.00000000 </i>
   </dipole>
   <energy>
    <i name="e_fr_energy">   -232.20739250 </i>
    <i name="e_wo_entrp">   -232.05208347 </i>
    <i name="e_0_energy">   -232.12973798 </i>
   </energy>
  </scstep>
  <scstep>
   <time name="diag">    1.46    1.46</time>
   <time name="diis">    4.02    4.03</time>
   <time name="orth">    0.35    0.35</time>
   <time name="total">    6.15    6.17</time>
   <dipole>
    <v name="dipole">      0.00000000       0.00000000       0.55901809 </v>
    <i name="Tr[quadrupol]"> -11078.60049462 </i>
    <i name="Echarged">      0.00000000 </i>
    <i name="Edipol_quadrupol">      0.00000000 </i>
    <i name="Eion">      0.00000000 </i>
   </dipole>
   <energy>
    <i name="e_fr_energy">   -230.90467503 </i>
    <i name="e_wo_entrp">   -230.71126717 </i>
    <i name="e_0_energy">   -230.80797110 </i>
   </energy>
  </scstep>
  <scstep>
   <time name="diag">    1.45    1.45</time>
   <time name="diis">    4.01    4.02</time>
   <time name="orth">    0.35    0.35</time>
   <time name="total">    6.13    6.14</time>
   <dipole>
    <v name="dipole">      0.00000000       0.00000000       0.50670131 </v>
    <i name="Tr[quadrupol]"> -11078.71531495 </i>
    <i name="Echarged">      0.00000000 </i>
    <i name="Edipol_quadrupol">      0.00000000 </i>
    <i name="Eion">      0.00000000 </i>
   </dipole>
   <energy>
    <i name="e_fr_energy">   -230.52213845 </i>
    <i name="e_wo_entrp">   -230.32858458 </i>
    <i name="e_0_energy">   -230.42536151 </i>
   </energy>
  </scstep>
  <scstep>
   <time name="diag">    1.44    1.45</time>
   <time name="diis">    3.98    3.99</time>
   <time name="orth">    0.35    0.35</time>
   <time name="total">    6.09    6.11</time>
   <dipole>
    <v name="dipole">      0.00000000       0.00000000       0.49670538 </v>
    <i name="Tr[quadrupol]"> -11078.58712669 </i>
    <i name="Echarged">      0.00000000 </i>
    <i name="Edipol_quadrupol">      0.00000000 </i>
    <i name="Eion">      0.00000000 </i>
   </dipole>
   <energy>
    <i name="e_fr_energy">   -230.24611976 </i>
    <i name="e_wo_entrp">   -230.03498723 </i>
    <i name="e_0_energy">   -230.14055349 </i>
   </energy>
  </scstep>
  <scstep>
   <time name="diag">    1.47    1.47</time>
   <time name="diis">    3.89    3.99</time>
   <time name="orth">    0.34    0.35</time>
   <time name="total">    6.02    6.14</time>
   <dipole>
    <v name="dipole">      0.00000000       0.00000000       0.44656549 </v>
    <i name="Tr[quadrupol]"> -11078.89370600 </i>
    <i name="Echarged">      0.00000000 </i>
    <i name="Edipol_quadrupol">      0.00000000 </i>
    <i name="Eion">      0.00000000 </i>
   </dipole>
   <energy>
    <i name="e_fr_energy">   -230.08566597 </i>
    <i name="e_wo_entrp">   -229.86700315 </i>
    <i name="e_0_energy">   -229.97633456 </i>
   </energy>
  </scstep>
  <scstep>
   <time name="diag">    1.46    1.46</time>
   <time name="diis">    4.03    4.04</time>
   <time name="orth">    0.34    0.35</time>
   <time name="total">    6.15    6.17</time>
   <dipole>
    <v name="dipole">      0.00000000       0.00000000       0.49845041 </v>
    <i name="Tr[quadrupol]"> -11078.95331281 </i>
    <i name="Echarged">      0.00000000 </i>
    <i name="Edipol_quadrupol">      0.00000000 </i>
    <i name="Eion">      0.00000000 </i>
   </dipole>
   <energy>
    <i name="e_fr_energy">   -229.95010375 </i>
    <i name="e_wo_entrp">   -229.73932532 </i>
    <i name="e_0_energy">   -229.84471453 </i>
   </energy>
  </scstep>
  <scstep>
   <time name="diag">    1.45    1.45</time>
   <time name="diis">    3.97    3.98</time>
   <time name="orth">    0.34    0.35</time>
   <time name="total">    6.09    6.11</time>
   <dipole>
    <v name="dipole">      0.00000000       0.00000000       0.50887183 </v>
    <i name="Tr[quadrupol]"> -11079.11806724 </i>
    <i name="Echarged">      0.00000000 </i>
    <i name="Edipol_quadrupol">      0.00000000 </i>
    <i name="Eion">      0.00000000 </i>
   </dipole>
   <energy>
    <i name="e_fr_energy">   -229.88440237 </i>
    <i name="e_wo_entrp">   -229.66696574 </i>
    <i name="e_0_energy">   -229.77568406 </i>
   </energy>
  </scstep>
  <scstep>
   <time name="diag">    1.45    1.45</time>
   <time name="diis">    3.91    3.93</time>
   <time name="orth">    0.34    0.35</time>
   <time name="total">    6.03    6.05</time>
   <dipole>
    <v name="dipole">      0.00000000       0.00000000       0.52542602 </v>
    <i name="Tr[quadrupol]"> -11079.27804985 </i>
    <i name="Echarged">      0.00000000 </i>
    <i name="Edipol_quadrupol">      0.00000000 </i>
    <i name="Eion">      0.00000000 </i>
   </dipole>
   <energy>
    <i name="e_fr_energy">   -229.87238341 </i>
    <i name="e_wo_entrp">   -229.65621722 </i>
    <i name="e_0_energy">   -229.76430031 </i>
   </energy>
  </scstep>
  <scstep>
   <time name="diag">    1.45    1.45</time>
   <time name="diis">    4.05    4.06</time>
   <time name="orth">    0.34    0.34</time>
   <time name="total">    6.17    6.19</time>
   <dipole>
    <v name="dipole">      0.00000000       0.00000000       0.52985229 </v>
    <i name="Tr[quadrupol]"> -11079.35179362 </i>
    <i name="Echarged">      0.00000000 </i>
    <i name="Edipol_quadrupol">      0.00000000 </i>
    <i name="Eion">      0.00000000 </i>
   </dipole>
   <energy>
    <i name="e_fr_energy">   -229.86792683 </i>
    <i name="e_wo_entrp">   -229.64851012 </i>
    <i name="e_0_energy">   -229.75821847 </i>
   </energy>
  </scstep>
  <scstep>
   <time name="diag">    1.45    1.47</time>
   <time name="diis">    3.94    3.96</time>
   <time name="orth">    0.34    0.35</time>
   <time name="total">    6.06    6.10</time>
   <dipole>
    <v name="dipole">      0.00000000       0.00000000       0.53877651 </v>
    <i name="Tr[quadrupol]"> -11079.46933471 </i>
    <i name="Echarged">      0.00000000 </i>
    <i name="Edipol_quadrupol">      0.00000000 </i>
    <i name="Eion">      0.00000000 </i>
   </dipole>
   <energy>
    <i name="e_fr_energy">   -229.86604517 </i>
    <i name="e_wo_entrp">   -229.64839761 </i>
    <i name="e_0_energy">   -229.75722139 </i>
   </energy>
  </scstep>
  <scstep>
   <time name="diag">    1.45    1.45</time>
   <time name="diis">    3.99    4.00</time>
   <time name="orth">    0.34    0.36</time>
   <time name="total">    6.12    6.18</time>
   <dipole>
    <v name="dipole">      0.00000000       0.00000000       0.55009663 </v>
    <i name="Tr[quadrupol]"> -11079.56852010 </i>
    <i name="Echarged">      0.00000000 </i>
    <i name="Edipol_quadrupol">      0.00000000 </i>
    <i name="Eion">      0.00000000 </i>
   </dipole>
   <energy>
    <i name="e_fr_energy">   -229.86577441 </i>
    <i name="e_wo_entrp">   -229.64762439 </i>
    <i name="e_0_energy">   -229.75669940 </i>
   </energy>
  </scstep>
  <scstep>
   <time name="diag">    1.44    1.48</time>
   <time name="diis">    3.96    3.97</time>
   <time name="orth">    0.35    0.35</time>
   <time name="total">    6.07    6.13</time>
   <dipole>
    <v name="dipole">      0.00000000       0.00000000       0.56157468 </v>
    <i name="Tr[quadrupol]"> -11079.67929305 </i>
    <i name="Echarged">      0.00000000 </i>
    <i name="Edipol_quadrupol">      0.00000000 </i>
    <i name="Eion">      0.00000000 </i>
   </dipole>
   <energy>
    <i name="e_fr_energy">   -229.86608190 </i>
    <i name="e_wo_entrp">   -229.64954457 </i>
    <i name="e_0_energy">   -229.75781323 </i>
   </energy>
  </scstep>
  <scstep>
   <time name="diag">    1.44    1.45</time>
   <time name="diis">    4.07    4.08</time>
   <time name="orth">    0.34    0.35</time>
   <time name="total">    6.18    6.20</time>
   <dipole>
    <v name="dipole">      0.00000000       0.00000000       0.56559178 </v>
    <i name="Tr[quadrupol]"> -11079.71711297 </i>
    <i name="Echarged">      0.00000000 </i>
    <i name="Edipol_quadrupol">      0.00000000 </i>
    <i name="Eion">      0.00000000 </i>
   </dipole>
   <energy>
    <i name="e_fr_energy">   -229.86599764 </i>
    <i name="e_wo_entrp">   -229.64872303 </i>
    <i name="e_0_energy">   -229.75736034 </i>
   </energy>
  </scstep>
  <scstep>
   <time name="diag">    1.46    1.46</time>
   <time name="diis">    4.05    4.06</time>
   <time name="orth">    0.34    0.35</time>
   <time name="total">    6.17    6.19</time>
   <dipole>
    <v name="dipole">      0.00000000       0.00000000       0.56895953 </v>
    <i name="Tr[quadrupol]"> -11079.76223236 </i>
    <i name="Echarged">      0.00000000 </i>
    <i name="Edipol_quadrupol">      0.00000000 </i>
    <i name="Eion">      0.00000000 </i>
   </dipole>
   <energy>
    <i name="e_fr_energy">   -229.86624113 </i>
    <i name="e_wo_entrp">   -229.64886562 </i>
    <i name="e_0_energy">   -229.75755338 </i>
   </energy>
  </scstep>
  <scstep>
   <time name="diag">    1.45    1.45</time>
   <time name="diis">    4.06    4.07</time>
   <time name="orth">    0.34    0.35</time>
   <time name="total">    6.18    6.20</time>
   <dipole>
    <v name="dipole">      0.00000000       0.00000000       0.57327392 </v>
    <i name="Tr[quadrupol]"> -11079.80744903 </i>
    <i name="Echarged">      0.00000000 </i>
    <i name="Edipol_quadrupol">      0.00000000 </i>
    <i name="Eion">      0.00000000 </i>
   </dipole>
   <energy>
    <i name="e_fr_energy">   -229.86648970 </i>
    <i name="e_wo_entrp">   -229.64878360 </i>
    <i name="e_0_energy">   -229.75763665 </i>
   </energy>
  </scstep>
  <scstep>
   <time name="diag">    1.45    1.45</time>
   <time name="diis">    4.16    4.17</time>
   <time name="orth">    0.34    0.34</time>
   <time name="total">    6.28    6.30</time>
   <dipole>
    <v name="dipole">      0.00000000       0.00000000       0.57847763 </v>
    <i name="Tr[quadrupol]"> -11079.85373912 </i>
    <i name="Echarged">      0.00000000 </i>
    <i name="Edipol_quadrupol">      0.00000000 </i>
    <i name="Eion">      0.00000000 </i>
   </dipole>
   <energy>
    <i name="e_fr_energy">   -229.86676115 </i>
    <i name="e_wo_entrp">   -229.64931953 </i>
    <i name="e_0_energy">   -229.75804034 </i>
   </energy>
  </scstep>
  <scstep>
   <time name="diag">    1.45    1.45</time>
   <time name="diis">    3.99    4.00</time>
   <time name="orth">    0.34    0.35</time>
   <time name="total">    6.11    6.13</time>
   <dipole>
    <v name="dipole">      0.00000000       0.00000000       0.58378366 </v>
    <i name="Tr[quadrupol]"> -11079.90216449 </i>
    <i name="Echarged">      0.00000000 </i>
    <i name="Edipol_quadrupol">      0.00000000 </i>
    <i name="Eion">      0.00000000 </i>
   </dipole>
   <energy>
    <i name="e_fr_energy">   -229.86707300 </i>
    <i name="e_wo_entrp">   -229.64962531 </i>
    <i name="e_0_energy">   -229.75834916 </i>
   </energy>
  </scstep>
  <scstep>
   <time name="diag">    1.45    1.45</time>
   <time name="diis">    3.89    3.99</time>
   <time name="orth">    0.34    0.34</time>
   <time name="total">    6.01    6.12</time>
   <dipole>
    <v name="dipole">      0.00000000       0.00000000       0.59088507 </v>
    <i name="Tr[quadrupol]"> -11079.96061365 </i>
    <i name="Echarged">      0.00000000 </i>
    <i name="Edipol_quadrupol">      0.00000000 </i>
    <i name="Eion">      0.00000000 </i>
   </dipole>
   <energy>
    <i name="e_fr_energy">   -229.86748085 </i>
    <i name="e_wo_entrp">   -229.64997818 </i>
    <i name="e_0_energy">   -229.75872952 </i>
   </energy>
  </scstep>
  <scstep>
   <time name="diag">    1.44    1.45</time>
   <time name="diis">    3.89    3.90</time>
   <time name="orth">    0.34    0.35</time>
   <time name="total">    5.99    6.02</time>
   <dipole>
    <v name="dipole">      0.00000000       0.00000000       0.59527386 </v>
    <i name="Tr[quadrupol]"> -11079.99604814 </i>
    <i name="Echarged">      0.00000000 </i>
    <i name="Edipol_quadrupol">      0.00000000 </i>
    <i name="Eion">      0.00000000 </i>
   </dipole>
   <energy>
    <i name="e_fr_energy">   -229.86773068 </i>
    <i name="e_wo_entrp">   -229.65021593 </i>
    <i name="e_0_energy">   -229.75897330 </i>
   </energy>
  </scstep>
  <scstep>
   <time name="diag">    1.44    1.46</time>
   <time name="diis">    3.93    3.94</time>
   <time name="orth">    0.34    0.34</time>
   <time name="total">    6.04    6.07</time>
   <dipole>
    <v name="dipole">      0.00000000       0.00000000       0.60288857 </v>
    <i name="Tr[quadrupol]"> -11080.05330719 </i>
    <i name="Echarged">      0.00000000 </i>
    <i name="Edipol_quadrupol">      0.00000000 </i>
    <i name="Eion">      0.00000000 </i>
   </dipole>
   <energy>
    <i name="e_fr_energy">   -229.86813710 </i>
    <i name="e_wo_entrp">   -229.65055189 </i>
    <i name="e_0_energy">   -229.75934449 </i>
   </energy>
  </scstep>
  <scstep>
   <time name="diag">    1.45    1.45</time>
   <time name="diis">    3.85    3.86</time>
   <time name="orth">    0.34    0.35</time>
   <time name="total">    5.97    5.99</time>
   <dipole>
    <v name="dipole">      0.00000000       0.00000000       0.60956057 </v>
    <i name="Tr[quadrupol]"> -11080.09997926 </i>
    <i name="Echarged">      0.00000000 </i>
    <i name="Edipol_quadrupol">      0.00000000 </i>
    <i name="Eion">      0.00000000 </i>
   </dipole>
   <energy>
    <i name="e_fr_energy">   -229.86840134 </i>
    <i name="e_wo_entrp">   -229.65087697 </i>
    <i name="e_0_energy">   -229.75963915 </i>
   </energy>
  </scstep>
  <scstep>
   <time name="diag">    1.47    1.47</time>
   <time name="diis">    3.55    3.56</time>
   <time name="orth">    0.34    0.34</time>
   <time name="total">    5.68    5.70</time>
   <dipole>
    <v name="dipole">      0.00000000       0.00000000       0.61502740 </v>
    <i name="Tr[quadrupol]"> -11080.13562965 </i>
    <i name="Echarged">      0.00000000 </i>
    <i name="Edipol_quadrupol">      0.00000000 </i>
    <i name="Eion">      0.00000000 </i>
   </dipole>
   <energy>
    <i name="e_fr_energy">   -229.86854246 </i>
    <i name="e_wo_entrp">   -229.65099561 </i>
    <i name="e_0_energy">   -229.75976903 </i>
   </energy>
  </scstep>
  <scstep>
   <time name="diag">    1.45    1.45</time>
   <time name="diis">    2.88    2.89</time>
   <time name="orth">    0.34    0.34</time>
   <time name="total">    5.00    5.01</time>
   <dipole>
    <v name="dipole">      0.00000000       0.00000000       0.61791933 </v>
    <i name="Tr[quadrupol]"> -11080.15099330 </i>
    <i name="Echarged">      0.00000000 </i>
    <i name="Edipol_quadrupol">      0.00000000 </i>
    <i name="Eion">      0.00000000 </i>
   </dipole>
   <energy>
    <i name="e_fr_energy">   -229.86859846 </i>
    <i name="e_wo_entrp">   -229.65106510 </i>
    <i name="e_0_energy">   -229.75983178 </i>
   </energy>
  </scstep>
  <scstep>
   <time name="diag">    1.46    1.46</time>
   <time name="diis">    2.52    2.52</time>
   <time name="orth">    0.34    0.34</time>
   <time name="total">    4.64    4.66</time>
   <dipole>
    <v name="dipole">      0.00000000       0.00000000       0.62034806 </v>
    <i name="Tr[quadrupol]"> -11080.16228364 </i>
    <i name="Echarged">      0.00000000 </i>
    <i name="Edipol_quadrupol">      0.00000000 </i>
    <i name="Eion">      0.00000000 </i>
   </dipole>
   <energy>
    <i name="e_fr_energy">   -229.86864094 </i>
    <i name="e_wo_entrp">   -229.65110945 </i>
    <i name="e_0_energy">   -229.75987520 </i>
   </energy>
  </scstep>
  <scstep>
   <time name="diag">    1.45    1.45</time>
   <time name="diis">    2.44    2.53</time>
   <time name="orth">    0.34    0.34</time>
   <time name="total">    4.55    4.66</time>
   <dipole>
    <v name="dipole">      0.00000000       0.00000000       0.62336764 </v>
    <i name="Tr[quadrupol]"> -11080.17417171 </i>
    <i name="Echarged">      0.00000000 </i>
    <i name="Edipol_quadrupol">      0.00000000 </i>
    <i name="Eion">      0.00000000 </i>
   </dipole>
   <energy>
    <i name="e_fr_energy">   -229.86869223 </i>
    <i name="e_wo_entrp">   -229.65115852 </i>
    <i name="e_0_energy">   -229.75992538 </i>
   </energy>
  </scstep>
  <scstep>
   <time name="diag">    1.45    1.46</time>
   <time name="diis">    2.46    2.46</time>
   <time name="orth">    0.34    0.34</time>
   <time name="total">    4.59    4.61</time>
   <dipole>
    <v name="dipole">      0.00000000       0.00000000       0.62607520 </v>
    <i name="Tr[quadrupol]"> -11080.18345305 </i>
    <i name="Echarged">      0.00000000 </i>
    <i name="Edipol_quadrupol">      0.00000000 </i>
    <i name="Eion">      0.00000000 </i>
   </dipole>
   <energy>
    <i name="e_fr_energy">   -229.86873127 </i>
    <i name="e_wo_entrp">   -229.65118268 </i>
    <i name="e_0_energy">   -229.75995697 </i>
   </energy>
  </scstep>
  <scstep>
   <time name="diag">    1.45    1.45</time>
   <time name="diis">    2.43    2.44</time>
   <time name="orth">    0.34    0.34</time>
   <time name="total">    4.55    4.57</time>
   <dipole>
    <v name="dipole">      0.00000000       0.00000000       0.62769473 </v>
    <i name="Tr[quadrupol]"> -11080.18796447 </i>
    <i name="Echarged">      0.00000000 </i>
    <i name="Edipol_quadrupol">      0.00000000 </i>
    <i name="Eion">      0.00000000 </i>
   </dipole>
   <energy>
    <i name="e_fr_energy">   -229.86875235 </i>
    <i name="e_wo_entrp">   -229.65121741 </i>
    <i name="e_0_energy">   -229.75998488 </i>
   </energy>
  </scstep>
  <scstep>
   <time name="diag">    1.45    1.45</time>
   <time name="diis">    2.37    2.38</time>
   <time name="orth">    0.34    0.34</time>
   <time name="total">    4.49    4.50</time>
   <dipole>
    <v name="dipole">      0.00000000       0.00000000       0.62892736 </v>
    <i name="Tr[quadrupol]"> -11080.19141318 </i>
    <i name="Echarged">      0.00000000 </i>
    <i name="Edipol_quadrupol">      0.00000000 </i>
    <i name="Eion">      0.00000000 </i>
   </dipole>
   <energy>
    <i name="e_fr_energy">   -229.86876663 </i>
    <i name="e_wo_entrp">   -229.65122726 </i>
    <i name="e_0_energy">   -229.75999695 </i>
   </energy>
  </scstep>
  <scstep>
   <time name="diag">    1.45    1.45</time>
   <time name="diis">    2.39    2.39</time>
   <time name="orth">    0.34    0.34</time>
   <time name="total">    4.51    4.52</time>
   <dipole>
    <v name="dipole">      0.00000000       0.00000000       0.63040579 </v>
    <i name="Tr[quadrupol]"> -11080.19546374 </i>
    <i name="Echarged">      0.00000000 </i>
    <i name="Edipol_quadrupol">      0.00000000 </i>
    <i name="Eion">      0.00000000 </i>
   </dipole>
   <energy>
    <i name="e_fr_energy">   -229.86877948 </i>
    <i name="e_wo_entrp">   -229.65123744 </i>
    <i name="e_0_energy">   -229.76000846 </i>
   </energy>
  </scstep>
  <scstep>
   <time name="diag">    1.45    1.45</time>
   <time name="diis">    1.92    1.93</time>
   <time name="orth">    0.34    0.34</time>
   <time name="total">    4.05    4.06</time>
   <dipole>
    <v name="dipole">      0.00000000       0.00000000       0.63117959 </v>
    <i name="Tr[quadrupol]"> -11080.19765496 </i>
    <i name="Echarged">      0.00000000 </i>
    <i name="Edipol_quadrupol">      0.00000000 </i>
    <i name="Eion">      0.00000000 </i>
   </dipole>
   <energy>
    <i name="e_fr_energy">   -229.86878370 </i>
    <i name="e_wo_entrp">   -229.65124313 </i>
    <i name="e_0_energy">   -229.76001341 </i>
   </energy>
  </scstep>
  <scstep>
   <time name="diag">    1.45    1.45</time>
   <time name="diis">    1.84    1.85</time>
   <time name="orth">    0.34    0.34</time>
   <time name="total">    3.96    3.97</time>
   <dipole>
    <v name="dipole">      0.00000000       0.00000000       0.63149445 </v>
    <i name="Tr[quadrupol]"> -11080.19863049 </i>
    <i name="Echarged">      0.00000000 </i>
    <i name="Edipol_quadrupol">      0.00000000 </i>
    <i name="Eion">      0.00000000 </i>
   </dipole>
   <energy>
    <i name="e_fr_energy">   -229.86878542 </i>
    <i name="e_wo_entrp">   -229.65124475 </i>
    <i name="e_0_energy">   -229.76001508 </i>
   </energy>
  </scstep>
  <scstep>
   <time name="diag">    1.45    1.47</time>
   <time name="diis">    2.00    2.02</time>
   <time name="orth">    0.34    0.35</time>
   <time name="total">    4.13    4.17</time>
   <dipole>
    <v name="dipole">      0.00000000       0.00000000       0.63170026 </v>
    <i name="Tr[quadrupol]"> -11080.19925807 </i>
    <i name="Echarged">      0.00000000 </i>
    <i name="Edipol_quadrupol">      0.00000000 </i>
    <i name="Eion">      0.00000000 </i>
   </dipole>
   <energy>
    <i name="e_fr_energy">   -229.86878726 </i>
    <i name="e_wo_entrp">   -229.65124557 </i>
    <i name="e_0_energy">   -229.76001642 </i>
   </energy>
  </scstep>
  <scstep>
   <time name="diag">    1.45    1.45</time>
   <time name="diis">    1.80    1.80</time>
   <time name="orth">    0.34    0.34</time>
   <time name="total">    3.64    3.65</time>
   <dipole>
    <v name="dipole">      0.00000000       0.00000000       0.63180892 </v>
    <i name="Tr[quadrupol]"> -11080.19959666 </i>
    <i name="Echarged">      0.00000000 </i>
    <i name="Edipol_quadrupol">      0.00000000 </i>
    <i name="Eion">      0.00000000 </i>
   </dipole>
   <energy>
    <i name="alphaZ">    868.24504924 </i>
    <i name="ewald"> 236388.95471292 </i>
    <i name="hartreedc">-281602.49759833 </i>
    <i name="XCdc">   -128.44820349 </i>
    <i name="pawpsdc">  52058.35982749 </i>
    <i name="pawaedc"> -50150.76303201 </i>
    <i name="eentropy">     -0.21754204 </i>
    <i name="bandstr">  -2781.39344263 </i>
    <i name="atom">  45117.89144060 </i>
    <i name="e_fr_energy">   -229.86878826 </i>
    <i name="e_wo_entrp">   -229.65124621 </i>
    <i name="e_0_energy">   -229.76001723 </i>
   </energy>
  </scstep>
  <structure>
   <crystal>
    <varray name="basis" >
     <v>      11.00258152       0.00000000       0.00000000 </v>
     <v>       5.50129076       9.52851510       0.00000000 </v>
     <v>       0.00000000       0.00000000      26.19178509 </v>
    </varray>
    <i name="volume">   2745.90128299 </i>
    <varray name="rec_basis" >
     <v>       0.09088776      -0.05247407       0.00000000 </v>
     <v>       0.00000000       0.10494815       0.00000000 </v>
     <v>       0.00000000       0.00000000       0.03817991 </v>
    </varray>
   </crystal>
   <varray name="positions" >
    <v>       0.24235529       0.00980861       0.56426788 </v>
    <v>       0.91405319       0.41911353       0.47737686 </v>
    <v>       0.02350438       0.21789786       0.61441769 </v>
    <v>       0.83333333       0.83333333       0.38179910 </v>
    <v>       0.08333333       0.58333333       0.38179910 </v>
    <v>       0.66995041       0.91215890       0.47819853 </v>
    <v>       0.00093347       0.49498543       0.56610983 </v>
    <v>       0.91702812       0.16418513       0.47519983 </v>
    <v>       0.48877630       0.25377039       0.56398292 </v>
    <v>       0.33333333       0.08333333       0.38179910 </v>
    <v>       0.16632491       0.16526228       0.47157042 </v>
    <v>       0.76933568       0.22913467       0.59852694 </v>
    <v>       0.58333333       0.33333333       0.38179910 </v>
    <v>       0.16862136       0.41511883       0.47193472 </v>
    <v>       0.83333333       0.33333333       0.38179910 </v>
    <v>       0.75809234       0.00441059       0.57565574 </v>
    <v>       0.66842281       0.16346208       0.47556530 </v>
    <v>       0.16457739       0.67206859       0.47212296 </v>
    <v>       0.24815296       0.50403139       0.56276484 </v>
    <v>       0.49291753       0.75647533       0.56677311 </v>
    <v>       0.58333333       0.83333333       0.38179910 </v>
    <v>       0.48668359       0.51977306       0.57793323 </v>
    <v>       0.58333333       0.58333333       0.38179910 </v>
    <v>       0.66595459       0.41632322       0.48788018 </v>
    <v>       0.15721233       0.28970513       0.63137218 </v>
    <v>       0.10714301       0.86423287       0.61639528 </v>
    <v>       0.11568264       0.56581572       0.62749373 </v>
    <v>       0.82122597       0.82589686       0.62643760 </v>
    <v>       0.78554536       0.61275536       0.62321518 </v>
    <v>       0.55708946       0.34244713       0.62248250 </v>
    <v>       0.56122816       0.07455290       0.61579636 </v>
    <v>       0.81721307       0.36207054       0.63597971 </v>
    <v>       0.58333333       0.08333333       0.38179910 </v>
    <v>       0.74234278       0.75616321       0.57167910 </v>
    <v>       0.99989982       0.00813916       0.56095516 </v>
    <v>       0.24576552       0.75959586       0.56117973 </v>
    <v>       0.16889660       0.91542255       0.46867435 </v>
    <v>       0.33333333       0.83333333       0.38179910 </v>
    <v>       0.91937433       0.91427329       0.47511240 </v>
    <v>       0.08333333       0.33333333       0.38179910 </v>
    <v>       0.33333333       0.58333333       0.38179910 </v>
    <v>       0.91617979       0.66715042       0.47634053 </v>
    <v>       0.41569455       0.41858370       0.47522051 </v>
    <v>       0.24610600       0.24918137       0.56457457 </v>
    <v>       0.33333333       0.33333333       0.38179910 </v>
    <v>       0.08333333       0.83333333       0.38179910 </v>
    <v>       0.49223774       0.99760889       0.56409327 </v>
    <v>       0.08333333       0.08333333       0.38179910 </v>
    <v>       0.83333333       0.08333333       0.38179910 </v>
    <v>       0.83333333       0.58333333       0.38179910 </v>
    <v>       0.66879671       0.66441823       0.47979657 </v>
    <v>       0.41775345       0.66632043       0.47657141 </v>
    <v>       0.74680632       0.50271401       0.57592687 </v>
    <v>       0.41747361       0.91238532       0.47468760 </v>
    <v>       0.41771251       0.16438413       0.47430505 </v>
    <v>       0.01290970       0.75697954       0.60401400 </v>
   </varray>
  </structure>
  <varray name="forces" >
   <v>       0.05943856      -0.04066974      -0.07591302 </v>
   <v>       0.00907116      -0.10097574      -0.07137625 </v>
   <v>       0.03117258       0.14045949      -0.11449985 </v>
   <v>       0.15426066       0.18405135      -0.03996998 </v>
   <v>      -0.06351967      -0.11553433      -0.42983760 </v>
   <v>      -0.02026589       0.03217351       0.02045228 </v>
   <v>      -0.16238990       0.20031464      -0.02192258 </v>
   <v>      -0.03992826       0.04636982       0.04821463 </v>
   <v>       0.05789994       0.07963846      -0.17504219 </v>
   <v>       0.13559640       0.06443736      -0.35751090 </v>
   <v>       0.00478591       0.04236111       0.12257127 </v>
   <v>      -0.01851711      -0.10745779       0.31395743 </v>
   <v>      -0.28561311      -0.02011201       0.01021002 </v>
   <v>      -0.07001181       0.01244510      -0.05364616 </v>
   <v>       0.23811722      -0.08342190      -0.17624583 </v>
   <v>       0.19524671       0.10538204      -0.26980926 </v>
   <v>       0.01644001       0.00391668      -0.01663974 </v>
   <v>       0.02388548      -0.11196878       0.02531715 </v>
   <v>      -0.06925854       0.21253511       0.11348753 </v>
   <v>       0.03558020       0.01607912      -0.02635378 </v>
   <v>      -0.05614196      -0.11873802      -0.04740085 </v>
   <v>       0.04689095       0.05640487      -0.14090110 </v>
   <v>      -0.09431776       0.18571002       0.07778051 </v>
   <v>      -0.02616137      -0.04467847      -0.00223577 </v>
   <v>      -0.14018986      -0.08875773      -0.10963198 </v>
   <v>       0.10738116       0.07705536      -0.00180483 </v>
   <v>      -0.07112196       0.01573874      -0.07252307 </v>
   <v>      -0.00655093      -0.10834426       0.03342030 </v>
   <v>      -0.01292468      -0.01542920      -0.14766082 </v>
   <v>       0.10637606      -0.09967414       0.13250846 </v>
   <v>      -0.06841061      -0.00188193       0.09160069 </v>
   <v>       0.16135915      -0.02311122      -0.04432507 </v>
   <v>       0.02046561       0.09061490       0.21474110 </v>
   <v>      -0.06730310      -0.23978091       0.02062942 </v>
   <v>      -0.09034922       0.01153572       0.01805832 </v>
   <v>      -0.00026803       0.02832271      -0.11532311 </v>
   <v>      -0.02161939       0.08129485       0.06034043 </v>
   <v>      -0.14226073      -0.15814096       0.10646050 </v>
   <v>      -0.10164251       0.07734017       0.01587884 </v>
   <v>      -0.09549847       0.08028312      -0.00700169 </v>
   <v>       0.10155008       0.00190963       0.27560928 </v>
   <v>       0.02400532      -0.04517228      -0.00394554 </v>
   <v>       0.13213737      -0.03165566      -0.02339573 </v>
   <v>      -0.06653391      -0.24341584       0.03193776 </v>
   <v>       0.10754083      -0.08602778       0.19123089 </v>
   <v>       0.08068009       0.22040692      -0.02891717 </v>
   <v>       0.00781450       0.02237333      -0.11053408 </v>
   <v>      -0.15442272      -0.11365183      -0.08230032 </v>
   <v>       0.00515743      -0.16478476       0.21813398 </v>
   <v>      -0.00337903      -0.06947048       0.37074950 </v>
   <v>      -0.04098631      -0.01215563      -0.07309441 </v>
   <v>      -0.02186180      -0.10289535      -0.01738658 </v>
   <v>      -0.02285487       0.03476503       0.13916078 </v>
   <v>       0.06019953       0.06108022       0.08289290 </v>
   <v>       0.07839357       0.02491714      -0.02714298 </v>
   <v>       0.03285700       0.13799021       0.14894830 </v>
  </varray>
  <energy>
   <i name="e_fr_energy">   -229.86878826 </i>
   <i name="e_wo_entrp">   -229.76001723 </i>
   <i name="e_0_energy">     -0.21754204 </i>
  </energy>
  <time name="totalsc">  267.94  269.45</time>
 </calculation>
 <calculation>
  <scstep>
   <time name="dav">    8.36    8.46</time>
   <time name="total">    8.69    8.79</time>
   <dipole>
    <v name="dipole">      0.00000000       0.00000000       0.63183709 </v>
    <i name="Tr[quadrupol]"> -11079.60109944 </i>
    <i name="Echarged">      0.00000000 </i>
    <i name="Edipol_quadrupol">      0.00000000 </i>
    <i name="Eion">      0.00000000 </i>
   </dipole>
   <energy>
    <i name="alphaZ">    868.24924972 </i>
    <i name="ewald"> 236410.74821453 </i>
    <i name="hartreedc">-281624.04494158 </i>
    <i name="XCdc">   -128.42699044 </i>
    <i name="pawpsdc">  52058.35914473 </i>
    <i name="pawaedc"> -50150.76233714 </i>
    <i name="eentropy">     -0.21764576 </i>
    <i name="bandstr">  -2781.68173225 </i>
    <i name="atom">  45117.89144060 </i>
    <i name="e_fr_energy">   -229.88559759 </i>
    <i name="e_wo_entrp">   -229.66795183 </i>
    <i name="e_0_energy">   -229.77677471 </i>
   </energy>
  </scstep>
  <scstep>
   <time name="diag">    1.45    1.46</time>
   <time name="diis">    4.00    4.01</time>
   <time name="orth">    0.34    0.34</time>
   <time name="total">    6.12    6.14</time>
   <dipole>
    <v name="dipole">      0.00000000       0.00000000       0.63393719 </v>
    <i name="Tr[quadrupol]"> -11079.60681916 </i>
    <i name="Echarged">      0.00000000 </i>
    <i name="Edipol_quadrupol">      0.00000000 </i>
    <i name="Eion">      0.00000000 </i>
   </dipole>
   <energy>
    <i name="e_fr_energy">   -229.90147618 </i>
    <i name="e_wo_entrp">   -229.68564685 </i>
    <i name="e_0_energy">   -229.79356152 </i>
   </energy>
  </scstep>
  <scstep>
   <time name="diag">    1.45    1.45</time>
   <time name="diis">    4.03    4.04</time>
   <time name="orth">    0.34    0.34</time>
   <time name="total">    6.14    6.16</time>
   <dipole>
    <v name="dipole">      0.00000000       0.00000000       0.62527204 </v>
    <i name="Tr[quadrupol]"> -11079.60002982 </i>
    <i name="Echarged">      0.00000000 </i>
    <i name="Edipol_quadrupol">      0.00000000 </i>
    <i name="Eion">      0.00000000 </i>
   </dipole>
   <energy>
    <i name="e_fr_energy">   -229.89771007 </i>
    <i name="e_wo_entrp">   -229.67926626 </i>
    <i name="e_0_energy">   -229.78848817 </i>
   </energy>
  </scstep>
  <scstep>
   <time name="diag">    1.45    1.45</time>
   <time name="diis">    4.05    4.06</time>
   <time name="orth">    0.34    0.34</time>
   <time name="total">    6.16    6.18</time>
   <dipole>
    <v name="dipole">      0.00000000       0.00000000       0.66028657 </v>
    <i name="Tr[quadrupol]"> -11079.62456178 </i>
    <i name="Echarged">      0.00000000 </i>
    <i name="Edipol_quadrupol">      0.00000000 </i>
    <i name="Eion">      0.00000000 </i>
   </dipole>
   <energy>
    <i name="e_fr_energy">   -229.90993437 </i>
    <i name="e_wo_entrp">   -229.69863909 </i>
    <i name="e_0_energy">   -229.80428673 </i>
   </energy>
  </scstep>
  <scstep>
   <time name="diag">    1.46    1.46</time>
   <time name="diis">    4.03    4.04</time>
   <time name="orth">    0.34    0.34</time>
   <time name="total">    6.15    6.17</time>
   <dipole>
    <v name="dipole">      0.00000000       0.00000000       0.62386179 </v>
    <i name="Tr[quadrupol]"> -11079.60288937 </i>
    <i name="Echarged">      0.00000000 </i>
    <i name="Edipol_quadrupol">      0.00000000 </i>
    <i name="Eion">      0.00000000 </i>
   </dipole>
   <energy>
    <i name="e_fr_energy">   -229.89898538 </i>
    <i name="e_wo_entrp">   -229.68120144 </i>
    <i name="e_0_energy">   -229.79009341 </i>
   </energy>
  </scstep>
  <scstep>
   <time name="diag">    1.46    1.46</time>
   <time name="diis">    4.01    4.02</time>
   <time name="orth">    0.34    0.34</time>
   <time name="total">    6.13    6.14</time>
   <dipole>
    <v name="dipole">      0.00000000       0.00000000       0.62940239 </v>
    <i name="Tr[quadrupol]"> -11079.60346180 </i>
    <i name="Echarged">      0.00000000 </i>
    <i name="Edipol_quadrupol">      0.00000000 </i>
    <i name="Eion">      0.00000000 </i>
   </dipole>
   <energy>
    <i name="e_fr_energy">   -229.89742591 </i>
    <i name="e_wo_entrp">   -229.68078145 </i>
    <i name="e_0_energy">   -229.78910368 </i>
   </energy>
  </scstep>
  <scstep>
   <time name="diag">    1.45    1.45</time>
   <time name="diis">    3.88    3.98</time>
   <time name="orth">    0.34    0.34</time>
   <time name="total">    5.99    6.09</time>
   <dipole>
    <v name="dipole">      0.00000000       0.00000000       0.63226736 </v>
    <i name="Tr[quadrupol]"> -11079.60903906 </i>
    <i name="Echarged">      0.00000000 </i>
    <i name="Edipol_quadrupol">      0.00000000 </i>
    <i name="Eion">      0.00000000 </i>
   </dipole>
   <energy>
    <i name="e_fr_energy">   -229.89688730 </i>
    <i name="e_wo_entrp">   -229.67847726 </i>
    <i name="e_0_energy">   -229.78768228 </i>
   </energy>
  </scstep>
  <scstep>
   <time name="diag">    1.45    1.45</time>
   <time name="diis">    3.95    3.97</time>
   <time name="orth">    0.34    0.34</time>
   <time name="total">    6.06    6.09</time>
   <dipole>
    <v name="dipole">      0.00000000       0.00000000       0.63068746 </v>
    <i name="Tr[quadrupol]"> -11079.60679997 </i>
    <i name="Echarged">      0.00000000 </i>
    <i name="Edipol_quadrupol">      0.00000000 </i>
    <i name="Eion">      0.00000000 </i>
   </dipole>
   <energy>
    <i name="e_fr_energy">   -229.89656459 </i>
    <i name="e_wo_entrp">   -229.67948790 </i>
    <i name="e_0_energy">   -229.78802624 </i>
   </energy>
  </scstep>
  <scstep>
   <time name="diag">    1.45    1.46</time>
   <time name="diis">    3.94    3.95</time>
   <time name="orth">    0.34    0.34</time>
   <time name="total">    6.07    6.09</time>
   <dipole>
    <v name="dipole">      0.00000000       0.00000000       0.63066870 </v>
    <i name="Tr[quadrupol]"> -11079.60850558 </i>
    <i name="Echarged">      0.00000000 </i>
    <i name="Edipol_quadrupol">      0.00000000 </i>
    <i name="Eion">      0.00000000 </i>
   </dipole>
   <energy>
    <i name="e_fr_energy">   -229.89654048 </i>
    <i name="e_wo_entrp">   -229.67907025 </i>
    <i name="e_0_energy">   -229.78780537 </i>
   </energy>
  </scstep>
  <scstep>
   <time name="diag">    1.44    1.45</time>
   <time name="diis">    3.92    3.93</time>
   <time name="orth">    0.34    0.34</time>
   <time name="total">    6.03    6.05</time>
   <dipole>
    <v name="dipole">      0.00000000       0.00000000       0.63064871 </v>
    <i name="Tr[quadrupol]"> -11079.60687159 </i>
    <i name="Echarged">      0.00000000 </i>
    <i name="Edipol_quadrupol">      0.00000000 </i>
    <i name="Eion">      0.00000000 </i>
   </dipole>
   <energy>
    <i name="e_fr_energy">   -229.89652897 </i>
    <i name="e_wo_entrp">   -229.67922164 </i>
    <i name="e_0_energy">   -229.78787530 </i>
   </energy>
  </scstep>
  <scstep>
   <time name="diag">    1.45    1.45</time>
   <time name="diis">    3.92    3.93</time>
   <time name="orth">    0.34    0.34</time>
   <time name="total">    6.03    6.05</time>
   <dipole>
    <v name="dipole">      0.00000000       0.00000000       0.63063059 </v>
    <i name="Tr[quadrupol]"> -11079.60846960 </i>
    <i name="Echarged">      0.00000000 </i>
    <i name="Edipol_quadrupol">      0.00000000 </i>
    <i name="Eion">      0.00000000 </i>
   </dipole>
   <energy>
    <i name="e_fr_energy">   -229.89652523 </i>
    <i name="e_wo_entrp">   -229.67909572 </i>
    <i name="e_0_energy">   -229.78781048 </i>
   </energy>
  </scstep>
  <scstep>
   <time name="diag">    1.45    1.45</time>
   <time name="diis">    3.88    3.89</time>
   <time name="orth">    0.34    0.34</time>
   <time name="total">    6.00    6.01</time>
   <dipole>
    <v name="dipole">      0.00000000       0.00000000       0.63051934 </v>
    <i name="Tr[quadrupol]"> -11079.60769465 </i>
    <i name="Echarged">      0.00000000 </i>
    <i name="Edipol_quadrupol">      0.00000000 </i>
    <i name="Eion">      0.00000000 </i>
   </dipole>
   <energy>
    <i name="e_fr_energy">   -229.89652354 </i>
    <i name="e_wo_entrp">   -229.67914452 </i>
    <i name="e_0_energy">   -229.78783403 </i>
   </energy>
  </scstep>
  <scstep>
   <time name="diag">    1.46    1.46</time>
   <time name="diis">    2.44    2.45</time>
   <time name="orth">    0.34    0.34</time>
   <time name="total">    4.30    4.31</time>
   <dipole>
    <v name="dipole">      0.00000000       0.00000000       0.63055101 </v>
    <i name="Tr[quadrupol]"> -11079.60829687 </i>
    <i name="Echarged">      0.00000000 </i>
    <i name="Edipol_quadrupol">      0.00000000 </i>
    <i name="Eion">      0.00000000 </i>
   </dipole>
   <energy>
    <i name="alphaZ">    868.23772970 </i>
    <i name="ewald"> 236410.74821453 </i>
    <i name="hartreedc">-281624.31291374 </i>
    <i name="XCdc">   -128.41947418 </i>
    <i name="pawpsdc">  52064.66277431 </i>
    <i name="pawaedc"> -50157.11339526 </i>
    <i name="eentropy">     -0.21739275 </i>
    <i name="bandstr">  -2781.37350760 </i>
    <i name="atom">  45117.89144060 </i>
    <i name="e_fr_energy">   -229.89652437 </i>
    <i name="e_wo_entrp">   -229.67913163 </i>
    <i name="e_0_energy">   -229.78782800 </i>
   </energy>
  </scstep>
  <structure>
   <crystal>
    <varray name="basis" >
     <v>      11.00258152       0.00000000       0.00000000 </v>
     <v>       5.50129076       9.52851510       0.00000000 </v>
     <v>       0.00000000       0.00000000      26.19178509 </v>
    </varray>
    <i name="volume">   2745.90128299 </i>
    <varray name="rec_basis" >
     <v>       0.09088776      -0.05247407       0.00000000 </v>
     <v>       0.00000000       0.10494815       0.00000000 </v>
     <v>       0.00000000       0.00000000       0.03817991 </v>
    </varray>
   </crystal>
   <varray name="positions" >
    <v>       0.24260979       0.00966447       0.56417000 </v>
    <v>       0.91425997       0.41875567       0.47728483 </v>
    <v>       0.02335115       0.21839566       0.61427006 </v>
    <v>       0.83333333       0.83333333       0.38179910 </v>
    <v>       0.08333333       0.58333333       0.38179910 </v>
    <v>       0.66983120       0.91227292       0.47822490 </v>
    <v>       0.00008009       0.49569536       0.56608156 </v>
    <v>       0.91682340       0.16434946       0.47526200 </v>
    <v>       0.48881289       0.25405263       0.56375723 </v>
    <v>       0.33333333       0.08333333       0.38179910 </v>
    <v>       0.16626453       0.16541241       0.47172846 </v>
    <v>       0.76946926       0.22875383       0.59893174 </v>
    <v>       0.58333333       0.33333333       0.38179910 </v>
    <v>       0.16838443       0.41516294       0.47186555 </v>
    <v>       0.83333333       0.33333333       0.38179910 </v>
    <v>       0.75850486       0.00478407       0.57530787 </v>
    <v>       0.66846633       0.16347596       0.47554384 </v>
    <v>       0.16484912       0.67167176       0.47215560 </v>
    <v>       0.24756377       0.50478463       0.56291116 </v>
    <v>       0.49299824       0.75653231       0.56673913 </v>
    <v>       0.58333333       0.83333333       0.38179910 </v>
    <v>       0.48672756       0.51997296       0.57775156 </v>
    <v>       0.58333333       0.58333333       0.38179910 </v>
    <v>       0.66595347       0.41616488       0.48787730 </v>
    <v>       0.15693933       0.28939056       0.63123082 </v>
    <v>       0.10733605       0.86450596       0.61639295 </v>
    <v>       0.11543645       0.56587150       0.62740023 </v>
    <v>       0.82139785       0.82551288       0.62648069 </v>
    <v>       0.78553303       0.61270068       0.62302480 </v>
    <v>       0.55759258       0.34209388       0.62265335 </v>
    <v>       0.56102153       0.07454623       0.61591447 </v>
    <v>       0.81774928       0.36198863       0.63592256 </v>
    <v>       0.58333333       0.08333333       0.38179910 </v>
    <v>       0.74256111       0.75531340       0.57170570 </v>
    <v>       0.99960207       0.00818005       0.56097844 </v>
    <v>       0.24571451       0.75969623       0.56103104 </v>
    <v>       0.16868619       0.91571067       0.46875214 </v>
    <v>       0.33333333       0.83333333       0.38179910 </v>
    <v>       0.91892531       0.91454739       0.47513288 </v>
    <v>       0.08333333       0.33333333       0.38179910 </v>
    <v>       0.33333333       0.58333333       0.38179910 </v>
    <v>       0.91633351       0.66699033       0.47633545 </v>
    <v>       0.41615621       0.41847151       0.47519034 </v>
    <v>       0.24633313       0.24831868       0.56461575 </v>
    <v>       0.33333333       0.33333333       0.38179910 </v>
    <v>       0.08333333       0.83333333       0.38179910 </v>
    <v>       0.49222208       0.99768818       0.56395076 </v>
    <v>       0.08333333       0.08333333       0.38179910 </v>
    <v>       0.83333333       0.08333333       0.38179910 </v>
    <v>       0.83333333       0.58333333       0.38179910 </v>
    <v>       0.66869245       0.66437515       0.47970233 </v>
    <v>       0.41786869       0.66595576       0.47654899 </v>
    <v>       0.74667457       0.50283722       0.57610630 </v>
    <v>       0.41755014       0.91260179       0.47479447 </v>
    <v>       0.41790897       0.16447244       0.47427006 </v>
    <v>       0.01276603       0.75746859       0.60420604 </v>
   </varray>
  </structure>
  <varray name="forces" >
   <v>      -0.00733890      -0.06278959      -0.05252046 </v>
   <v>      -0.01302840      -0.05677474      -0.05695293 </v>
   <v>      -0.01513291       0.06627701      -0.13745921 </v>
   <v>       0.15441577       0.18331996      -0.03735254 </v>
   <v>      -0.06176099      -0.11059498      -0.43446089 </v>
   <v>      -0.01436558       0.00032869       0.02240328 </v>
   <v>      -0.07317117       0.10323000      -0.05495679 </v>
   <v>      -0.02882236       0.02611980       0.04016528 </v>
   <v>       0.04495398       0.07004335      -0.08931282 </v>
   <v>       0.12927688       0.06518806      -0.34626172 </v>
   <v>       0.00714912       0.02377979       0.08538144 </v>
   <v>       0.00989130      -0.07684269       0.31946373 </v>
   <v>      -0.28394316      -0.02190722       0.00328679 </v>
   <v>      -0.01956516      -0.00048583      -0.01425038 </v>
   <v>       0.23670235      -0.08590281      -0.17937944 </v>
   <v>       0.01271538       0.04040981      -0.21711018 </v>
   <v>       0.01288109       0.00497213      -0.03327481 </v>
   <v>       0.01169349      -0.05668529       0.00861213 </v>
   <v>      -0.05187478       0.12050283       0.06018935 </v>
   <v>       0.02420808       0.01886252      -0.02921018 </v>
   <v>      -0.05803965      -0.11668508      -0.04482090 </v>
   <v>       0.02071705      -0.03538618      -0.08978994 </v>
   <v>      -0.09470129       0.18637014       0.07579644 </v>
   <v>       0.00768544      -0.02859791       0.00893294 </v>
   <v>      -0.07841174      -0.05459919      -0.05987329 </v>
   <v>       0.11077941       0.05463640      -0.00872320 </v>
   <v>      -0.08775780       0.03963152      -0.03879952 </v>
   <v>      -0.02496099      -0.08362700      -0.00301478 </v>
   <v>       0.01222102      -0.03647242       0.02447766 </v>
   <v>       0.07383203      -0.04219190       0.05938070 </v>
   <v>      -0.04567544      -0.01354464      -0.01367130 </v>
   <v>       0.12316408      -0.02232938       0.00139016 </v>
   <v>       0.02086846       0.09003267       0.20969389 </v>
   <v>      -0.01028518      -0.03659680      -0.05050589 </v>
   <v>      -0.00983130       0.02181083       0.00436657 </v>
   <v>      -0.00549811       0.04965065      -0.08908590 </v>
   <v>      -0.02292414       0.04997891       0.04057394 </v>
   <v>      -0.14425377      -0.15493660       0.11881352 </v>
   <v>      -0.06143453       0.03119677       0.00739526 </v>
   <v>      -0.09582416       0.07270024      -0.01084692 </v>
   <v>       0.10137344       0.00335143       0.27178484 </v>
   <v>       0.00707835      -0.02443333      -0.01219493 </v>
   <v>       0.06716745      -0.02061841      -0.01595818 </v>
   <v>      -0.00826849      -0.11012015      -0.01208532 </v>
   <v>       0.10837407      -0.08541560       0.19052638 </v>
   <v>       0.08351107       0.21879635      -0.01384080 </v>
   <v>       0.08891150       0.02606252      -0.03948286 </v>
   <v>      -0.14998075      -0.11289049      -0.07095040 </v>
   <v>       0.00735389      -0.16446525       0.21658907 </v>
   <v>      -0.00306420      -0.06838608       0.36966411 </v>
   <v>      -0.02614233      -0.02429659      -0.07424283 </v>
   <v>      -0.00689907      -0.05231515      -0.02531856 </v>
   <v>      -0.09505883      -0.02337028       0.03449765 </v>
   <v>       0.03115639       0.03788606       0.05063330 </v>
   <v>       0.05331104       0.03705540      -0.03241586 </v>
   <v>       0.03662305       0.14106777       0.16410530 </v>
  </varray>
  <energy>
   <i name="e_fr_energy">   -229.89652437 </i>
   <i name="e_wo_entrp">   -229.78782800 </i>
   <i name="e_0_energy">     -0.21739275 </i>
  </energy>
  <time name="totalsc">   82.67   83.16</time>
 </calculation>
 <calculation>
  <scstep>
[...]
       <r>   -19.3137    18.1148    13.2626 </r>
       <r>   -19.2199     7.1495    13.9328 </r>
       <r>   -19.1262     2.0148    14.1217 </r>
       <r>   -19.0324     7.5501    14.8294 </r>
       <r>   -18.9387     9.6403    15.7331 </r>
       <r>   -18.8449     2.6885    15.9851 </r>
       <r>   -18.7512     0.1566    15.9998 </r>
       <r>   -18.6575     0.0018    16.0000 </r>
       <r>   -18.5637     0.0000    16.0000 </r>
       <r>   -18.4700     0.0000    16.0000 </r>
       <r>   -18.3762     0.0000    16.0000 </r>
       <r>   -18.2825     0.0000    16.0000 </r>
       <r>   -18.1887     0.0000    16.0000 </r>
       <r>   -18.0950     0.0000    16.0000 </r>
       <r>   -18.0013     0.0000    16.0000 </r>
       <r>   -17.9075     0.0000    16.0000 </r>
       <r>   -17.8138     0.0000    16.0000 </r>
       <r>   -17.7200     0.0000    16.0000 </r>
       <r>   -17.6263     0.0000    16.0000 </r>
       <r>   -17.5325     0.0000    16.0000 </r>
       <r>   -17.4388     0.0000    16.0000 </r>
       <r>   -17.3451     0.0000    16.0000 </r>
       <r>   -17.2513     0.0000    16.0000 </r>
       <r>   -17.1576     0.0000    16.0000 </r>
       <r>   -17.0638     0.0000    16.0000 </r>
       <r>   -16.9701     0.0000    16.0000 </r>
       <r>   -16.8764     0.0000    16.0000 </r>
       <r>   -16.7826     0.0000    16.0000 </r>
       <r>   -16.6889     0.0000    16.0000 </r>
       <r>   -16.5951     0.0000    16.0000 </r>
       <r>   -16.5014     0.0000    16.0000 </r>
       <r>   -16.4076     0.0000    16.0000 </r>
       <r>   -16.3139     0.0000    16.0000 </r>
       <r>   -16.2202     0.0000    16.0000 </r>
       <r>   -16.1264     0.0000    16.0000 </r>
       <r>   -16.0327     0.0000    16.0000 </r>
       <r>   -15.9389     0.0000    16.0000 </r>
       <r>   -15.8452     0.0000    16.0000 </r>
       <r>   -15.7514     0.0000    16.0000 </r>
       <r>   -15.6577     0.0000    16.0000 </r>
       <r>   -15.5640     0.0000    16.0000 </r>
       <r>   -15.4702     0.0000    16.0000 </r>
       <r>   -15.3765     0.0000    16.0000 </r>
       <r>   -15.2827     0.0000    16.0000 </r>
       <r>   -15.1890     0.0000    16.0000 </r>
       <r>   -15.0952     0.0000    16.0000 </r>
       <r>   -15.0015     0.0000    16.0000 </r>
       <r>   -14.9078     0.0000    16.0000 </r>
       <r>   -14.8140     0.0000    16.0000 </r>
       <r>   -14.7203     0.0000    16.0000 </r>
       <r>   -14.6265     0.0000    16.0000 </r>
       <r>   -14.5328     0.0000    16.0000 </r>
       <r>   -14.4390     0.0000    16.0000 </r>
       <r>   -14.3453     0.0000    16.0000 </r>
       <r>   -14.2516     0.0000    16.0000 </r>
       <r>   -14.1578     0.0000    16.0000 </r>
       <r>   -14.0641     0.0000    16.0000 </r>
       <r>   -13.9703     0.0000    16.0000 </r>
       <r>   -13.8766     0.0000    16.0000 </r>
       <r>   -13.7829     0.0000    16.0000 </r>
       <r>   -13.6891     0.0000    16.0000 </r>
       <r>   -13.5954     0.0000    16.0000 </r>
       <r>   -13.5016     0.0000    16.0000 </r>
       <r>   -13.4079     0.0000    16.0000 </r>
       <r>   -13.3141     0.0000    16.0000 </r>
       <r>   -13.2204     0.0000    16.0000 </r>
       <r>   -13.1267     0.0000    16.0000 </r>
       <r>   -13.0329     0.0000    16.0000 </r>
       <r>   -12.9392     0.0000    16.0000 </r>
       <r>   -12.8454     0.0000    16.0000 </r>
       <r>   -12.7517     0.0000    16.0000 </r>
       <r>   -12.6579     0.0000    16.0000 </r>
       <r>   -12.5642     0.0000    16.0000 </r>
       <r>   -12.4705     0.0000    16.0000 </r>
       <r>   -12.3767     0.0000    16.0000 </r>
       <r>   -12.2830     0.0000    16.0000 </r>
       <r>   -12.1892     0.0000    16.0000 </r>
       <r>   -12.0955     0.0000    16.0000 </r>
       <r>   -12.0017     0.0000    16.0000 </r>
       <r>   -11.9080     0.0000    16.0000 </r>
       <r>   -11.8143     0.0000    16.0000 </r>
       <r>   -11.7205     0.0000    16.0000 </r>
       <r>   -11.6268     0.0000    16.0000 </r>
       <r>   -11.5330     0.0000    16.0000 </r>
       <r>   -11.4393     0.0000    16.0000 </r>
       <r>   -11.3456     0.0000    16.0000 </r>
       <r>   -11.2518     0.0000    16.0000 </r>
       <r>   -11.1581     0.0000    16.0000 </r>
       <r>   -11.0643     0.0000    16.0000 </r>
       <r>   -10.9706     0.0000    16.0000 </r>
       <r>   -10.8768     0.0000    16.0000 </r>
       <r>   -10.7831     0.0000    16.0000 </r>
       <r>   -10.6894     0.0000    16.0000 </r>
       <r>   -10.5956     0.0000    16.0000 </r>
       <r>   -10.5019     0.0000    16.0000 </r>
       <r>   -10.4081     0.0000    16.0000 </r>
       <r>   -10.3144     0.0000    16.0000 </r>
       <r>   -10.2206     0.0000    16.0000 </r>
       <r>   -10.1269     0.0000    16.0000 </r>
       <r>   -10.0332     0.0000    16.0000 </r>
       <r>    -9.9394     0.0000    16.0000 </r>
       <r>    -9.8457     0.0000    16.0000 </r>
       <r>    -9.7519     0.0000    16.0000 </r>
       <r>    -9.6582     0.0000    16.0000 </r>
       <r>    -9.5644     0.0000    16.0000 </r>
       <r>    -9.4707     0.0000    16.0000 </r>
       <r>    -9.3770     0.0060    16.0006 </r>
       <r>    -9.2832     0.2737    16.0262 </r>
       <r>    -9.1895     2.5727    16.2674 </r>
       <r>    -9.0957     5.5747    16.7900 </r>
       <r>    -9.0020     5.0197    17.2605 </r>
       <r>    -8.9082     5.1338    17.7418 </r>
       <r>    -8.8145     2.6328    17.9886 </r>
       <r>    -8.7208     1.6575    18.1440 </r>
       <r>    -8.6270     3.2473    18.4484 </r>
       <r>    -8.5333     7.6221    19.1629 </r>
       <r>    -8.4395    12.9307    20.3751 </r>
       <r>    -8.3458    12.0396    21.5037 </r>
       <r>    -8.2521    13.3448    22.7547 </r>
       <r>    -8.1583    19.1067    24.5458 </r>
       <r>    -8.0646    24.8622    26.8764 </r>
       <r>    -7.9708    24.5850    29.1811 </r>
       <r>    -7.8771    18.9570    30.9581 </r>
       <r>    -7.7833    26.2360    33.4176 </r>
       <r>    -7.6896    36.0682    36.7987 </r>
       <r>    -7.5959    36.3263    40.2040 </r>
       <r>    -7.5021    36.9162    43.6646 </r>
       <r>    -7.4084    44.6050    47.8460 </r>
       <r>    -7.3146    49.4079    52.4776 </r>
       <r>    -7.2209    49.8359    57.1493 </r>
       <r>    -7.1271    53.3717    62.1525 </r>
       <r>    -7.0334    60.5345    67.8272 </r>
       <r>    -6.9397    67.9155    74.1937 </r>
       <r>    -6.8459    74.0673    81.1370 </r>
       <r>    -6.7522    82.0372    88.8274 </r>
       <r>    -6.6584    85.8581    96.8759 </r>
       <r>    -6.5647    84.5282   104.7998 </r>
       <r>    -6.4709    84.5008   112.7211 </r>
       <r>    -6.3772    85.3000   120.7173 </r>
       <r>    -6.2835    85.1945   128.7036 </r>
       <r>    -6.1897    81.9752   136.3882 </r>
       <r>    -6.0960    78.0872   143.7083 </r>
       <r>    -6.0022    79.1236   151.1255 </r>
       <r>    -5.9085    79.6697   158.5939 </r>
       <r>    -5.8147    79.4172   166.0387 </r>
       <r>    -5.7210    79.3705   173.4791 </r>
       <r>    -5.6273    79.2303   180.9063 </r>
       <r>    -5.5335    80.2396   188.4282 </r>
       <r>    -5.4398    85.7083   196.4627 </r>
       <r>    -5.3460    91.1571   205.0080 </r>
       <r>    -5.2523    90.6832   213.5088 </r>
       <r>    -5.1586    89.0075   221.8526 </r>
       <r>    -5.0648    86.2582   229.9386 </r>
       <r>    -4.9711    85.3594   237.9404 </r>
       <r>    -4.8773    85.6086   245.9656 </r>
       <r>    -4.7836    88.3310   254.2460 </r>
       <r>    -4.6898    89.5842   262.6438 </r>
       <r>    -4.5961    90.3686   271.1152 </r>
       <r>    -4.5024    90.2611   279.5764 </r>
       <r>    -4.4086    88.7154   287.8928 </r>
       <r>    -4.3149    90.6509   296.3907 </r>
       <r>    -4.2211    94.1272   305.2144 </r>
       <r>    -4.1274    92.8310   313.9166 </r>
       <r>    -4.0336    94.1186   322.7395 </r>
       <r>    -3.9399    95.1265   331.6569 </r>
       <r>    -3.8462    93.1966   340.3933 </r>
       <r>    -3.7524    95.9236   349.3855 </r>
       <r>    -3.6587    98.9613   358.6623 </r>
       <r>    -3.5649    96.7213   367.7292 </r>
       <r>    -3.4712    92.5605   376.4061 </r>
       <r>    -3.3774    89.0777   384.7564 </r>
       <r>    -3.2837    84.4370   392.6717 </r>
       <r>    -3.1900    83.7756   400.5251 </r>
       <r>    -3.0962    91.1972   409.0741 </r>
       <r>    -3.0025    94.6620   417.9480 </r>
       <r>    -2.9087    96.0256   426.9496 </r>
       <r>    -2.8150    97.5216   436.0915 </r>
       <r>    -2.7213    96.4671   445.1346 </r>
       <r>    -2.6275    95.4328   454.0807 </r>
       <r>    -2.5338    94.2447   462.9154 </r>
       <r>    -2.4400    93.8285   471.7111 </r>
       <r>    -2.3463    95.8892   480.7000 </r>
       <r>    -2.2525   101.3305   490.1990 </r>
       <r>    -2.1588    98.9370   499.4736 </r>
       <r>    -2.0651    90.8500   507.9900 </r>
       <r>    -1.9713    88.7728   516.3118 </r>
       <r>    -1.8776    85.4545   524.3225 </r>
       <r>    -1.7838    77.7643   531.6123 </r>
       <r>    -1.6901    71.4506   538.3103 </r>
       <r>    -1.5963    64.8670   544.3911 </r>
       <r>    -1.5026    54.1769   549.4698 </r>
       <r>    -1.4089    42.6587   553.4687 </r>
       <r>    -1.3151    33.1370   556.5750 </r>
       <r>    -1.2214    30.8633   559.4682 </r>
       <r>    -1.1276    30.7520   562.3510 </r>
       <r>    -1.0339    24.9636   564.6911 </r>
       <r>    -0.9401    19.3194   566.5022 </r>
       <r>    -0.8464    21.1192   568.4820 </r>
       <r>    -0.7527    25.6013   570.8819 </r>
       <r>    -0.6589    27.3830   573.4488 </r>
       <r>    -0.5652    29.5276   576.2168 </r>
       <r>    -0.4714    25.3244   578.5908 </r>
       <r>    -0.3777    20.8948   580.5495 </r>
       <r>    -0.2839    15.9028   582.0403 </r>
       <r>    -0.1902    13.2155   583.2791 </r>
       <r>    -0.0965    10.9232   584.3031 </r>
       <r>    -0.0027    12.3442   585.4603 </r>
       <r>     0.0910    12.6994   586.6508 </r>
       <r>     0.1848    11.2053   587.7012 </r>
       <r>     0.2785    13.2557   588.9438 </r>
       <r>     0.3722    19.1616   590.7400 </r>
       <r>     0.4660    18.3089   592.4564 </r>
       <r>     0.5597    16.1316   593.9686 </r>
       <r>     0.6535    17.1070   595.5722 </r>
       <r>     0.7472    16.8317   597.1501 </r>
       <r>     0.8410    14.4785   598.5073 </r>
       <r>     0.9347    14.0827   599.8275 </r>
       <r>     1.0284    13.2306   601.0677 </r>
       <r>     1.1222    13.0116   602.2875 </r>
       <r>     1.2159    11.8152   603.3951 </r>
       <r>     1.3097    11.4676   604.4701 </r>
       <r>     1.4034    11.7199   605.5687 </r>
       <r>     1.4972    13.1874   606.8049 </r>
       <r>     1.5909    15.5882   608.2662 </r>
       <r>     1.6846    17.0198   609.8617 </r>
       <r>     1.7784    16.9420   611.4499 </r>
       <r>     1.8721    16.2662   612.9747 </r>
       <r>     1.9659    16.6965   614.5399 </r>
       <r>     2.0596    16.3888   616.0762 </r>
       <r>     2.1534    15.2239   617.5033 </r>
       <r>     2.2471    14.7563   618.8866 </r>
       <r>     2.3408    13.9859   620.1977 </r>
       <r>     2.4346    13.2823   621.4428 </r>
       <r>     2.5283    12.9213   622.6541 </r>
       <r>     2.6221    13.4414   623.9141 </r>
       <r>     2.7158    13.3040   625.1612 </r>
       <r>     2.8096    12.0737   626.2931 </r>
       <r>     2.9033     9.5044   627.1840 </r>
       <r>     2.9970    11.0998   628.2245 </r>
       <r>     3.0908    13.5857   629.4981 </r>
       <r>     3.1845    18.2895   631.2126 </r>
       <r>     3.2783    20.3877   633.1238 </r>
       <r>     3.3720    17.1684   634.7332 </r>
       <r>     3.4657    13.2836   635.9784 </r>
       <r>     3.5595    15.4884   637.4304 </r>
       <r>     3.6532    15.7825   638.9098 </r>
       <r>     3.7470    15.9645   640.4064 </r>
       <r>     3.8407    16.1258   641.9181 </r>
       <r>     3.9345    20.0039   643.7933 </r>
       <r>     4.0282    20.5863   645.7231 </r>
       <r>     4.1219    16.8289   647.3007 </r>
       <r>     4.2157    16.5475   648.8519 </r>
       <r>     4.3094    16.5519   650.4035 </r>
       <r>     4.4032    17.4400   652.0384 </r>
       <r>     4.4969    17.5613   653.6846 </r>
       <r>     4.5907    23.2019   655.8596 </r>
       <r>     4.6844    28.1433   658.4978 </r>
       <r>     4.7781    26.4907   660.9811 </r>
       <r>     4.8719    26.9631   663.5087 </r>
       <r>     4.9656    26.3681   665.9805 </r>
       <r>     5.0594    26.4266   668.4578 </r>
       <r>     5.1531    24.1244   670.7193 </r>
       <r>     5.2469    11.5497   671.8020 </r>
       <r>     5.3406     2.0095   671.9904 </r>
       <r>     5.4343     0.1017   671.9999 </r>
       <r>     5.5281     0.0012   672.0000 </r>
       <r>     5.6218     0.0000   672.0000 </r>
       <r>     5.7156     0.0000   672.0000 </r>
       <r>     5.8093     0.0000   672.0000 </r>
       <r>     5.9030     0.0000   672.0000 </r>
       <r>     5.9968     0.0000   672.0000 </r>
       <r>     6.0905     0.0000   672.0000 </r>
       <r>     6.1843     0.0000   672.0000 </r>
       <r>     6.2780     0.0000   672.0000 </r>
       <r>     6.3718     0.0000   672.0000 </r>
       <r>     6.4655     0.0000   672.0000 </r>
      </set>
     </set>
    </array>
   </total>
  </dos>
 </calculation>
 <structure name="finalpos" >
  <crystal>
   <varray name="basis" >
    <v>      11.00258152       0.00000000       0.00000000 </v>
    <v>       5.50129076       9.52851510       0.00000000 </v>
    <v>       0.00000000       0.00000000      26.19178509 </v>
   </varray>
   <i name="volume">   2745.90128299 </i>
   <varray name="rec_basis" >
    <v>       0.09088776      -0.05247407       0.00000000 </v>
    <v>       0.00000000       0.10494815       0.00000000 </v>
    <v>       0.00000000       0.00000000       0.03817991 </v>
   </varray>
  </crystal>
  <varray name="positions" >
   <v>       0.24854124       0.00951182       0.56448210 </v>
   <v>       0.91392651       0.42003794       0.47412888 </v>
   <v>       0.02368837       0.21519464       0.61176533 </v>
   <v>       0.83333333       0.83333333       0.38179910 </v>
   <v>       0.08333333       0.58333333       0.38179910 </v>
   <v>       0.66806681       0.91393575       0.47563715 </v>
   <v>       0.00595589       0.49465952       0.56342487 </v>
   <v>       0.91724948       0.16480535       0.47734789 </v>
   <v>       0.48752475       0.26166112       0.56215372 </v>
   <v>       0.33333333       0.08333333       0.38179910 </v>
   <v>       0.16584141       0.16763432       0.47228708 </v>
   <v>       0.77518973       0.20899533       0.60778930 </v>
   <v>       0.58333333       0.33333333       0.38179910 </v>
   <v>       0.16842964       0.41823922       0.47291554 </v>
   <v>       0.83333333       0.33333333       0.38179910 </v>
   <v>       0.76220317       0.00003058       0.56368423 </v>
   <v>       0.66615978       0.16827769       0.47192972 </v>
   <v>       0.16491928       0.67382206       0.47257402 </v>
   <v>       0.23576535       0.52342682       0.56743199 </v>
   <v>       0.49808205       0.75617074       0.56858061 </v>
   <v>       0.58333333       0.83333333       0.38179910 </v>
   <v>       0.48995226       0.51598963       0.57270781 </v>
   <v>       0.58333333       0.58333333       0.38179910 </v>
   <v>       0.66654875       0.41770344       0.48457382 </v>
   <v>       0.13497020       0.31517041       0.62388710 </v>
   <v>       0.10981579       0.86456928       0.61809428 </v>
   <v>       0.13078808       0.60899933       0.63417910 </v>
   <v>       0.80618403       0.81259569       0.64243067 </v>
   <v>       0.83287061       0.58038216       0.61544687 </v>
   <v>       0.56149082       0.34272908       0.62234123 </v>
   <v>       0.57666333       0.07504358       0.61231977 </v>
   <v>       0.81818880       0.35695563       0.63460265 </v>
   <v>       0.58333333       0.08333333       0.38179910 </v>
   <v>       0.74696990       0.75975188       0.57821950 </v>
   <v>       0.00479789       0.00509133       0.56264336 </v>
   <v>       0.24808979       0.76273420       0.56111948 </v>
   <v>       0.16818370       0.91847126       0.46969713 </v>
   <v>       0.33333333       0.83333333       0.38179910 </v>
   <v>       0.91864922       0.91664827       0.47443381 </v>
   <v>       0.08333333       0.33333333       0.38179910 </v>
   <v>       0.33333333       0.58333333       0.38179910 </v>
   <v>       0.91591240       0.66949789       0.47820857 </v>
   <v>       0.41350388       0.42333168       0.47521355 </v>
   <v>       0.25383409       0.24801156       0.56312959 </v>
   <v>       0.33333333       0.33333333       0.38179910 </v>
   <v>       0.08333333       0.83333333       0.38179910 </v>
   <v>       0.49945932       0.99766223       0.56386542 </v>
   <v>       0.08333333       0.08333333       0.38179910 </v>
   <v>       0.83333333       0.08333333       0.38179910 </v>
   <v>       0.83333333       0.58333333       0.38179910 </v>
   <v>       0.67084645       0.66566056       0.48239582 </v>
   <v>       0.41888582       0.66877961       0.47649554 </v>
   <v>       0.74294152       0.49888899       0.57546827 </v>
   <v>       0.41797562       0.91423981       0.47549154 </v>
   <v>       0.41746700       0.16742332       0.47383891 </v>
   <v>      -0.02187706       0.79948959       0.62924776 </v>
  </varray>
  <varray name="selective"  type="logical" >
   <v type="logical" >  T  T  T </v>
   <v type="logical" >  T  T  T </v>
   <v type="logical" >  T  T  T </v>
   <v type="logical" >  F  F  F </v>
   <v type="logical" >  F  F  F </v>
   <v type="logical" >  T  T  T </v>
   <v type="logical" >  T  T  T </v>
   <v type="logical" >  T  T  T </v>
   <v type="logical" >  T  T  T </v>
   <v type="logical" >  F  F  F </v>
   <v type="logical" >  T  T  T </v>
   <v type="logical" >  T  T  T </v>
   <v type="logical" >  F  F  F </v>
   <v type="logical" >  T  T  T </v>
   <v type="logical" >  F  F  F </v>
   <v type="logical" >  T  T  T </v>
   <v type="logical" >  T  T  T </v>
   <v type="logical" >  T  T  T </v>
   <v type="logical" >  T  T  T </v>
   <v type="logical" >  T  T  T </v>
   <v type="logical" >  F  F  F </v>
   <v type="logical" >  T  T  T </v>
   <v type="logical" >  F  F  F </v>
   <v type="logical" >  T  T  T </v>
   <v type="logical" >  T  T  T </v>
   <v type="logical" >  T  T  T </v>
   <v type="logical" >  T  T  T </v>
   <v type="logical" >  T  T  T </v>
   <v type="logical" >  T  T  T </v>
   <v type="logical" >  T  T  T </v>
   <v type="logical" >  T  T  T </v>
   <v type="logical" >  T  T  T </v>
   <v type="logical" >  F  F  F </v>
   <v type="logical" >  T  T  T </v>
   <v type="logical" >  T  T  T </v>
   <v type="logical" >  T  T  T </v>
   <v type="logical" >  T  T  T </v>
   <v type="logical" >  F  F  F </v>
   <v type="logical" >  T  T  T </v>
   <v type="logical" >  F  F  F </v>
   <v type="logical" >  F  F  F </v>
   <v type="logical" >  T  T  T </v>
   <v type="logical" >  T  T  T </v>
   <v type="logical" >  T  T  T </v>
   <v type="logical" >  F  F  F </v>
   <v type="logical" >  F  F  F </v>
   <v type="logical" >  T  T  T </v>
   <v type="logical" >  F  F  F </v>
   <v type="logical" >  F  F  F </v>
   <v type="logical" >  F  F  F </v>
   <v type="logical" >  T  T  T </v>
   <v type="logical" >  T  T  T </v>
   <v type="logical" >  T  T  T </v>
   <v type="logical" >  T  T  T </v>
   <v type="logical" >  T  T  T </v>
   <v type="logical" >  T  T  T </v>
  </varray>
  <nose>
   <v>      -3.00000000       0.00000000       0.00010000       0.00010000 </v>
  </nose>
 </structure>
</modeling>
