unknown system                          
           1
    11.002582    0.000000    0.000000
     5.501291    9.528515    0.000000
     0.000000    0.000000   26.191785
   Au   O    Pd
  24   8  24
Direct configuration=     1
   0.24235529  0.00980861  0.56426788
   0.91405319  0.41911353  0.47737686
   0.02350438  0.21789786  0.61441769
   0.83333333  0.83333333  0.38179910
   0.08333333  0.58333333  0.38179910
   0.66995041  0.91215890  0.47819853
   0.00093347  0.49498543  0.56610983
   0.91702812  0.16418513  0.47519983
   0.48877630  0.25377039  0.56398292
   0.33333333  0.08333333  0.38179910
   0.16632491  0.16526228  0.47157042
   0.76933568  0.22913467  0.59852694
   0.58333333  0.33333333  0.38179910
   0.16862136  0.41511883  0.47193472
   0.83333333  0.33333333  0.38179910
   0.75809234  0.00441059  0.57565574
   0.66842281  0.16346208  0.47556530
   0.16457739  0.67206859  0.47212296
   0.24815296  0.50403139  0.56276484
   0.49291753  0.75647533  0.56677311
   0.58333333  0.83333333  0.38179910
   0.48668359  0.51977306  0.57793323
   0.58333333  0.58333333  0.38179910
   0.66595459  0.41632322  0.48788018
   0.15721233  0.28970513  0.63137218
   0.10714301  0.86423287  0.61639528
   0.11568264  0.56581572  0.62749373
   0.82122597  0.82589686  0.62643760
   0.78554536  0.61275536  0.62321518
   0.55708946  0.34244713  0.62248250
   0.56122816  0.07455290  0.61579636
   0.81721307  0.36207054  0.63597971
   0.58333333  0.08333333  0.38179910
   0.74234278  0.75616321  0.57167910
   0.99989982  0.00813916  0.56095516
   0.24576552  0.75959586  0.56117973
   0.16889660  0.91542255  0.46867435
   0.33333333  0.83333333  0.38179910
   0.91937433  0.91427329  0.47511240
   0.08333333  0.33333333  0.38179910
   0.33333333  0.58333333  0.38179910
   0.91617979  0.66715042  0.47634053
   0.41569455  0.41858370  0.47522051
   0.24610600  0.24918137  0.56457457
   0.33333333  0.33333333  0.38179910
   0.08333333  0.83333333  0.38179910
   0.49223774  0.99760889  0.56409327
   0.08333333  0.08333333  0.38179910
   0.83333333  0.08333333  0.38179910
   0.83333333  0.58333333  0.38179910
   0.66879671  0.66441823  0.47979657
   0.41775345  0.66632043  0.47657141
   0.74680632  0.50271401  0.57592687
   0.41747361  0.91238532  0.47468760
   0.41771251  0.16438413  0.47430505
   0.01290970  0.75697954  0.60401400
Direct configuration=     2
   0.24260979  0.00966447  0.56417000
   0.91425997  0.41875567  0.47728483
   0.02335115  0.21839566  0.61427006
   0.83333333  0.83333333  0.38179910
   0.08333333  0.58333333  0.38179910
   0.66983120  0.91227292  0.47822490
   0.00008009  0.49569536  0.56608156
   0.91682340  0.16434946  0.47526200
   0.48881289  0.25405263  0.56375723
   0.33333333  0.08333333  0.38179910
   0.16626453  0.16541241  0.47172846
   0.76946926  0.22875383  0.59893174
   0.58333333  0.33333333  0.38179910
   0.16838443  0.41516294  0.47186555
   0.83333333  0.33333333  0.38179910
   0.75850486  0.00478407  0.57530787
   0.66846633  0.16347596  0.47554384
   0.16484912  0.67167176  0.47215560
   0.24756377  0.50478463  0.56291116
   0.49299824  0.75653231  0.56673913
   0.58333333  0.83333333  0.38179910
   0.48672756  0.51997296  0.57775156
   0.58333333  0.58333333  0.38179910
   0.66595347  0.41616488  0.48787730
   0.15693933  0.28939056  0.63123082
   0.10733605  0.86450596  0.61639295
   0.11543645  0.56587150  0.62740023
   0.82139785  0.82551288  0.62648069
   0.78553303  0.61270068  0.62302480
   0.55759258  0.34209388  0.62265335
   0.56102153  0.07454623  0.61591447
   0.81774928  0.36198863  0.63592256
   0.58333333  0.08333333  0.38179910
   0.74256111  0.75531340  0.57170570
   0.99960207  0.00818005  0.56097844
   0.24571451  0.75969623  0.56103104
   0.16868619  0.91571067  0.46875214
   0.33333333  0.83333333  0.38179910
   0.91892531  0.91454739  0.47513288
   0.08333333  0.33333333  0.38179910
   0.33333333  0.58333333  0.38179910
   0.91633351  0.66699033  0.47633545
   0.41615621  0.41847151  0.47519034
   0.24633313  0.24831868  0.56461575
   0.33333333  0.33333333  0.38179910
   0.08333333  0.83333333  0.38179910
   0.49222208  0.99768818  0.56395076
   0.08333333  0.08333333  0.38179910
   0.83333333  0.08333333  0.38179910
   0.83333333  0.58333333  0.38179910
   0.66869245  0.66437515  0.47970233
   0.41786869  0.66595576  0.47654899
   0.74667457  0.50283722  0.57610630
   0.41755014  0.91260179  0.47479447
   0.41790897  0.16447244  0.47427006
   0.01276603  0.75746859  0.60420604
Direct configuration=     3
   0.24296406  0.00946383  0.56403376
   0.91454781  0.41825750  0.47715672
   0.02313786  0.21908861  0.61406456
   0.83333333  0.83333333  0.38179910
   0.08333333  0.58333333  0.38179910
   0.66966525  0.91243165  0.47826161
  -0.00110785  0.49668361  0.56604222
   0.91653843  0.16457823  0.47534853
   0.48886382  0.25444553  0.56344307
   0.33333333  0.08333333  0.38179910
   0.16618049  0.16562140  0.47194845
   0.76965522  0.22822369  0.59949523
   0.58333333  0.33333333  0.38179910
   0.16805460  0.41522434  0.47176927
   0.83333333  0.33333333  0.38179910
   0.75907910  0.00530397  0.57482362
   0.66852691  0.16349528  0.47551398
   0.16522736  0.67111937  0.47220104
   0.24674359  0.50583317  0.56311485
   0.49311059  0.75661164  0.56669183
   0.58333333  0.83333333  0.38179910
   0.48678876  0.52025124  0.57749867
   0.58333333  0.58333333  0.38179910
   0.66595190  0.41594446  0.48787329
   0.15655931  0.28895268  0.63103406
   0.10760476  0.86488611  0.61638971
   0.11509376  0.56594914  0.62727006
   0.82163712  0.82497837  0.62654067
   0.78551587  0.61262456  0.62275977
   0.55829294  0.34160214  0.62289117
   0.56073388  0.07453695  0.61607887
   0.81849570  0.36187461  0.63584301
   0.58333333  0.08333333  0.38179910
   0.74286503  0.75413045  0.57174272
   0.99918759  0.00823696  0.56101085
   0.24564350  0.75983596  0.56082406
   0.16839328  0.91611174  0.46886044
   0.33333333  0.83333333  0.38179910
   0.91830026  0.91492894  0.47516138
   0.08333333  0.33333333  0.38179910
   0.33333333  0.58333333  0.38179910
   0.91654751  0.66676747  0.47632836
   0.41679886  0.41831534  0.47514835
   0.24664931  0.24711779  0.56467307
   0.33333333  0.33333333  0.38179910
   0.08333333  0.83333333  0.38179910
   0.49220027  0.99779856  0.56375237
   0.08333333  0.08333333  0.38179910
   0.83333333  0.08333333  0.38179910
   0.83333333  0.58333333  0.38179910
   0.66854732  0.66431518  0.47957114
   0.41802910  0.66544812  0.47651778
   0.74649116  0.50300873  0.57635606
   0.41765667  0.91290313  0.47494325
   0.41818244  0.16459537  0.47422134
   0.01256602  0.75814937  0.60447338
Direct configuration=     4
   0.24301313  0.00903878  0.56394522
   0.91456531  0.41800161  0.47704288
   0.02284944  0.21930080  0.61375491
   0.83333333  0.83333333  0.38179910
   0.08333333  0.58333333  0.38179910
   0.66964260  0.91236221  0.47830533
  -0.00152884  0.49711992  0.56589988
   0.91635953  0.16469809  0.47542851
   0.48886771  0.25484981  0.56331076
   0.33333333  0.08333333  0.38179910
   0.16616018  0.16572443  0.47210337
   0.76996684  0.22785213  0.60019145
   0.58333333  0.33333333  0.38179910
   0.16806997  0.41517685  0.47177209
   0.83333333  0.33333333  0.38179910
   0.75876621  0.00544452  0.57439465
   0.66857022  0.16353128  0.47542604
   0.16539153  0.67087856  0.47220730
   0.24626435  0.50634794  0.56319536
   0.49315483  0.75673957  0.56662955
   0.58333333  0.83333333  0.38179910
   0.48704295  0.51985066  0.57734179
   0.58333333  0.58333333  0.38179910
   0.66611970  0.41581227  0.48789296
   0.15641422  0.28871363  0.63094632
   0.10803951  0.86516462  0.61636574
   0.11446741  0.56623121  0.62721452
   0.82170433  0.82452023  0.62651194
   0.78576754  0.61234806  0.62296502
   0.55867762  0.34146224  0.62296739
   0.56058058  0.07443387  0.61596898
   0.81910591  0.36174480  0.63588467
   0.58333333  0.08333333  0.38179910
   0.74278860  0.75436243  0.57157100
   0.99923115  0.00836816  0.56101388
   0.24544263  0.76016778  0.56065082
   0.16815791  0.91632960  0.46893348
   0.33333333  0.83333333  0.38179910
   0.91803073  0.91502053  0.47516475
   0.08333333  0.33333333  0.38179910
   0.33333333  0.58333333  0.38179910
   0.91659310  0.66668197  0.47629778
   0.41706457  0.41823690  0.47511992
   0.24691374  0.24669643  0.56462325
   0.33333333  0.33333333  0.38179910
   0.08333333  0.83333333  0.38179910
   0.49273436  0.99796097  0.56371702
   0.08333333  0.08333333  0.38179910
   0.83333333  0.08333333  0.38179910
   0.83333333  0.58333333  0.38179910
   0.66852237  0.66415408  0.47941521
   0.41811707  0.66522787  0.47645863
   0.74596877  0.50273070  0.57634469
   0.41767688  0.91310115  0.47502250
   0.41826444  0.16485353  0.47413902
   0.01233697  0.75900675  0.60483733
Direct configuration=     5
   0.24313749  0.00796153  0.56372085
   0.91460966  0.41735307  0.47675436
   0.02211847  0.21983856  0.61297015
   0.83333333  0.83333333  0.38179910
   0.08333333  0.58333333  0.38179910
   0.66958520  0.91218622  0.47841614
  -0.00259579  0.49822570  0.56553913
   0.91590613  0.16500186  0.47563120
   0.48887757  0.25587442  0.56297543
   0.33333333  0.08333333  0.38179910
   0.16610871  0.16598556  0.47249600
   0.77075663  0.22691045  0.60195597
   0.58333333  0.33333333  0.38179910
   0.16810891  0.41505651  0.47177925
   0.83333333  0.33333333  0.38179910
   0.75797320  0.00580073  0.57330747
   0.66867999  0.16362252  0.47520317
   0.16580758  0.67026827  0.47222317
   0.24504975  0.50765257  0.56339942
   0.49326696  0.75706380  0.56647171
   0.58333333  0.83333333  0.38179910
   0.48768716  0.51883543  0.57694420
   0.58333333  0.58333333  0.38179910
   0.66654497  0.41547724  0.48794283
   0.15604648  0.28810780  0.63072394
   0.10914134  0.86587048  0.61630500
   0.11287998  0.56694608  0.62707375
   0.82187466  0.82335913  0.62643913
   0.78640540  0.61164730  0.62348519
   0.55965253  0.34110768  0.62316055
   0.56019205  0.07417261  0.61569046
   0.82065242  0.36141582  0.63599027
   0.58333333  0.08333333  0.38179910
   0.74259490  0.75495037  0.57113579
   0.99934154  0.00870068  0.56102157
   0.24493353  0.76100873  0.56021177
   0.16756138  0.91688175  0.46911858
   0.33333333  0.83333333  0.38179910
   0.91734761  0.91525267  0.47517330
   0.08333333  0.33333333  0.38179910
   0.33333333  0.58333333  0.38179910
   0.91670866  0.66646528  0.47622027
   0.41773799  0.41803811  0.47504787
   0.24758391  0.24562853  0.56449699
   0.33333333  0.33333333  0.38179910
   0.08333333  0.83333333  0.38179910
   0.49408796  0.99837260  0.56362743
   0.08333333  0.08333333  0.38179910
   0.83333333  0.08333333  0.38179910
   0.83333333  0.58333333  0.38179910
   0.66845914  0.66374579  0.47902002
   0.41834004  0.66466967  0.47630872
   0.74464482  0.50202606  0.57631588
   0.41772808  0.91360302  0.47522335
   0.41847224  0.16550782  0.47393039
   0.01175647  0.76117973  0.60575976
Direct configuration=     6
   0.24330853  0.00772620  0.56368671
   0.91454768  0.41733199  0.47666277
   0.02218180  0.21970307  0.61263983
   0.83333333  0.83333333  0.38179910
   0.08333333  0.58333333  0.38179910
   0.66963387  0.91201270  0.47838829
  -0.00279978  0.49836497  0.56539603
   0.91589183  0.16496523  0.47568612
   0.48880533  0.25628737  0.56294816
   0.33333333  0.08333333  0.38179910
   0.16612908  0.16599220  0.47257666
   0.77122085  0.22601192  0.60263722
   0.58333333  0.33333333  0.38179910
   0.16824742  0.41500933  0.47183066
   0.83333333  0.33333333  0.38179910
   0.75747386  0.00605609  0.57286551
   0.66869000  0.16364147  0.47507625
   0.16578076  0.67029634  0.47219174
   0.24480883  0.50786017  0.56342448
   0.49339166  0.75701641  0.56640678
   0.58333333  0.83333333  0.38179910
   0.48769806  0.51852232  0.57680472
   0.58333333  0.58333333  0.38179910
   0.66670624  0.41539727  0.48794556
   0.15603499  0.28793749  0.63061036
   0.10972260  0.86600314  0.61630895
   0.11202933  0.56748410  0.62704443
   0.82179192  0.82290400  0.62637988
   0.78645032  0.61138663  0.62339465
   0.55976567  0.34110568  0.62321028
   0.56024511  0.07427076  0.61563835
   0.82102742  0.36159028  0.63614503
   0.58333333  0.08333333  0.38179910
   0.74265572  0.75494936  0.57113582
   0.99922094  0.00893854  0.56101505
   0.24498805  0.76100566  0.56006723
   0.16738255  0.91696317  0.46911502
   0.33333333  0.83333333  0.38179910
   0.91740274  0.91512513  0.47517214
   0.08333333  0.33333333  0.38179910
   0.33333333  0.58333333  0.38179910
   0.91667629  0.66642853  0.47615411
   0.41772534  0.41809687  0.47501597
   0.24774771  0.24565080  0.56445716
   0.33333333  0.33333333  0.38179910
   0.08333333  0.83333333  0.38179910
   0.49424306  0.99838060  0.56353370
   0.08333333  0.08333333  0.38179910
   0.83333333  0.08333333  0.38179910
   0.83333333  0.58333333  0.38179910
   0.66847301  0.66360656  0.47888565
   0.41836572  0.66469615  0.47624353
   0.74437411  0.50221037  0.57639891
   0.41769645  0.91371194  0.47523596
   0.41847933  0.16569528  0.47384520
   0.01151966  0.76212844  0.60621730
Direct configuration=     7
   0.24382167  0.00702020  0.56358431
   0.91436172  0.41726873  0.47638798
   0.02237181  0.21929661  0.61164885
   0.83333333  0.83333333  0.38179910
   0.08333333  0.58333333  0.38179910
   0.66977987  0.91149215  0.47830473
  -0.00341176  0.49878278  0.56496674
   0.91584893  0.16485532  0.47585091
   0.48858858  0.25752621  0.56286636
   0.33333333  0.08333333  0.38179910
   0.16619019  0.16601211  0.47281865
   0.77261351  0.22331632  0.60468094
   0.58333333  0.33333333  0.38179910
   0.16866294  0.41486779  0.47198487
   0.83333333  0.33333333  0.38179910
   0.75597584  0.00682220  0.57153962
   0.66872003  0.16369833  0.47469547
   0.16570031  0.67038054  0.47209743
   0.24408608  0.50848296  0.56349969
   0.49376576  0.75687424  0.56621199
   0.58333333  0.83333333  0.38179910
   0.48773076  0.51758299  0.57638631
   0.58333333  0.58333333  0.38179910
   0.66719003  0.41515735  0.48795375
   0.15600050  0.28742656  0.63026961
   0.11146637  0.86640111  0.61632080
   0.10947736  0.56909816  0.62695650
   0.82154368  0.82153860  0.62620215
   0.78658507  0.61060459  0.62312301
   0.56010507  0.34109967  0.62335945
   0.56040427  0.07456522  0.61548203
   0.82215244  0.36211366  0.63660931
   0.58333333  0.08333333  0.38179910
   0.74283820  0.75494633  0.57113590
   0.99885913  0.00965214  0.56099552
   0.24515158  0.76099645  0.55963360
   0.16684607  0.91720743  0.46910431
   0.33333333  0.83333333  0.38179910
   0.91756814  0.91474251  0.47516866
   0.08333333  0.33333333  0.38179910
   0.33333333  0.58333333  0.38179910
   0.91657916  0.66631831  0.47595562
   0.41768739  0.41827313  0.47492026
   0.24823911  0.24571762  0.56433766
   0.33333333  0.33333333  0.38179910
   0.08333333  0.83333333  0.38179910
   0.49470834  0.99840461  0.56325251
   0.08333333  0.08333333  0.38179910
   0.83333333  0.08333333  0.38179910
   0.83333333  0.58333333  0.38179910
   0.66851461  0.66318888  0.47848253
   0.41844276  0.66477560  0.47604798
   0.74356197  0.50276329  0.57664800
   0.41760153  0.91403871  0.47527380
   0.41850062  0.16625767  0.47358964
   0.01080923  0.76497457  0.60758992
Direct configuration=     8
   0.24484795  0.00560820  0.56337950
   0.91398979  0.41714221  0.47583841
   0.02275183  0.21848368  0.60966689
   0.83333333  0.83333333  0.38179910
   0.08333333  0.58333333  0.38179910
   0.67007187  0.91045105  0.47813761
  -0.00463572  0.49961839  0.56410815
   0.91576313  0.16463552  0.47618047
   0.48815509  0.26000389  0.56270275
   0.33333333  0.08333333  0.38179910
   0.16631240  0.16605194  0.47330262
   0.77539881  0.21792514  0.60876840
   0.58333333  0.33333333  0.38179910
   0.16949398  0.41458471  0.47229330
   0.83333333  0.33333333  0.38179910
   0.75297981  0.00835442  0.56888784
   0.66878008  0.16381204  0.47393392
   0.16553940  0.67054896  0.47190882
   0.24264058  0.50972854  0.56365010
   0.49451395  0.75658989  0.56582240
   0.58333333  0.83333333  0.38179910
   0.48779615  0.51570434  0.57554948
   0.58333333  0.58333333  0.38179910
   0.66815762  0.41467752  0.48797013
   0.15593153  0.28640471  0.62958812
   0.11495391  0.86719707  0.61634451
   0.10437343  0.57232628  0.62678063
   0.82104722  0.81880780  0.62584668
   0.78685458  0.60904052  0.62257974
   0.56078388  0.34108766  0.62365780
   0.56072259  0.07515414  0.61516939
   0.82440248  0.36316041  0.63753788
   0.58333333  0.08333333  0.38179910
   0.74320317  0.75494027  0.57113606
   0.99813550  0.01107933  0.56095646
   0.24547866  0.76097803  0.55876634
   0.16577312  0.91769596  0.46908291
   0.33333333  0.83333333  0.38179910
   0.91789893  0.91397728  0.47516169
   0.08333333  0.33333333  0.38179910
   0.33333333  0.58333333  0.38179910
   0.91638491  0.66609786  0.47555864
   0.41761148  0.41862565  0.47472885
   0.24922191  0.24585124  0.56409865
   0.33333333  0.33333333  0.38179910
   0.08333333  0.83333333  0.38179910
   0.49563891  0.99845262  0.56269012
   0.08333333  0.08333333  0.38179910
   0.83333333  0.08333333  0.38179910
   0.83333333  0.58333333  0.38179910
   0.66859781  0.66235351  0.47767631
   0.41859684  0.66493449  0.47565687
   0.74193770  0.50386914  0.57714618
   0.41741171  0.91469225  0.47534949
   0.41854318  0.16738243  0.47307850
   0.00938838  0.77066684  0.61033516
Direct configuration=     9
   0.24436562  0.00627182  0.56347576
   0.91416459  0.41720167  0.47609670
   0.02257322  0.21886574  0.61059838
   0.83333333  0.83333333  0.38179910
   0.08333333  0.58333333  0.38179910
   0.66993463  0.91094035  0.47821615
  -0.00406048  0.49922566  0.56451168
   0.91580346  0.16473882  0.47602558
   0.48835883  0.25883942  0.56277965
   0.33333333  0.08333333  0.38179910
   0.16625496  0.16603322  0.47307516
   0.77408976  0.22045892  0.60684736
   0.58333333  0.33333333  0.38179910
   0.16910340  0.41471775  0.47214835
   0.83333333  0.33333333  0.38179910
   0.75438790  0.00763430  0.57013414
   0.66875186  0.16375860  0.47429184
   0.16561502  0.67046981  0.47199746
   0.24331994  0.50914313  0.56357941
   0.49416231  0.75672353  0.56600550
   0.58333333  0.83333333  0.38179910
   0.48776542  0.51658728  0.57594278
   0.58333333  0.58333333  0.38179910
   0.66770287  0.41490303  0.48796243
   0.15596394  0.28688497  0.62990841
   0.11331482  0.86682298  0.61633337
   0.10677220  0.57080911  0.62686328
   0.82128055  0.82009123  0.62601375
   0.78672791  0.60977561  0.62283507
   0.56046485  0.34109330  0.62351758
   0.56057298  0.07487736  0.61531632
   0.82334499  0.36266845  0.63710146
   0.58333333  0.08333333  0.38179910
   0.74303164  0.75494312  0.57113598
   0.99847559  0.01040857  0.56097482
   0.24532494  0.76098669  0.55917394
   0.16627739  0.91746636  0.46909297
   0.33333333  0.83333333  0.38179910
   0.91774346  0.91433693  0.47516496
   0.08333333  0.33333333  0.38179910
   0.33333333  0.58333333  0.38179910
   0.91647621  0.66620147  0.47574521
   0.41764715  0.41845997  0.47481881
   0.24876001  0.24578844  0.56421098
   0.33333333  0.33333333  0.38179910
   0.08333333  0.83333333  0.38179910
   0.49520156  0.99843006  0.56295444
   0.08333333  0.08333333  0.38179910
   0.83333333  0.08333333  0.38179910
   0.83333333  0.58333333  0.38179910
   0.66855870  0.66274612  0.47805522
   0.41852443  0.66485981  0.47584068
   0.74270108  0.50334941  0.57691204
   0.41750092  0.91438510  0.47531392
   0.41852318  0.16685381  0.47331872
   0.01005616  0.76799156  0.60904494
Direct configuration=    10
   0.24507358  0.00647025  0.56348965
   0.91433079  0.41740258  0.47597690
   0.02264555  0.21873684  0.61036100
   0.83333333  0.83333333  0.38179910
   0.08333333  0.58333333  0.38179910
   0.66997358  0.91073643  0.47792508
  -0.00375460  0.49879169  0.56430836
   0.91602223  0.16452475  0.47599621
   0.48822156  0.25888401  0.56290825
   0.33333333  0.08333333  0.38179910
   0.16621304  0.16598094  0.47301406
   0.77487543  0.21910755  0.60818089
   0.58333333  0.33333333  0.38179910
   0.16908233  0.41488178  0.47221303
   0.83333333  0.33333333  0.38179910
   0.75384830  0.00828895  0.56925466
   0.66863066  0.16376416  0.47399027
   0.16535343  0.67073704  0.47188245
   0.24244523  0.50963588  0.56374747
   0.49452503  0.75593394  0.56584458
   0.58333333  0.83333333  0.38179910
   0.48757119  0.51666228  0.57569066
   0.58333333  0.58333333  0.38179910
   0.66765736  0.41490551  0.48794991
   0.15594933  0.28688286  0.62958599
   0.11496857  0.86650251  0.61632614
   0.10492555  0.57245781  0.62664743
   0.82142408  0.81939931  0.62605991
   0.78685138  0.61000938  0.62261453
   0.56048752  0.34108425  0.62368358
   0.56078253  0.07540148  0.61517416
   0.82396680  0.36222318  0.63722704
   0.58333333  0.08333333  0.38179910
   0.74289723  0.75458339  0.57110336
   0.99815960  0.01024933  0.56101443
   0.24580556  0.76034878  0.55900985
   0.16631694  0.91738837  0.46891573
   0.33333333  0.83333333  0.38179910
   0.91816548  0.91399636  0.47519585
   0.08333333  0.33333333  0.38179910
   0.33333333  0.58333333  0.38179910
   0.91646990  0.66606809  0.47554572
   0.41730352  0.41897533  0.47473886
   0.24903869  0.24632246  0.56413718
   0.33333333  0.33333333  0.38179910
   0.08333333  0.83333333  0.38179910
   0.49469755  0.99865984  0.56284041
   0.08333333  0.08333333  0.38179910
   0.83333333  0.08333333  0.38179910
   0.83333333  0.58333333  0.38179910
   0.66848080  0.66280088  0.47794514
   0.41851730  0.66523618  0.47568587
   0.74246632  0.50282109  0.57696210
   0.41739010  0.91430942  0.47512087
   0.41866611  0.16666946  0.47325979
   0.00913040  0.77051844  0.61026876
Direct configuration=    11
   0.24679496  0.00695274  0.56352344
   0.91473490  0.41789110  0.47568563
   0.02282142  0.21842344  0.60978382
   0.83333333  0.83333333  0.38179910
   0.08333333  0.58333333  0.38179910
   0.67006828  0.91024059  0.47721734
  -0.00301086  0.49773649  0.56381401
   0.91655417  0.16400424  0.47592481
   0.48788780  0.25899243  0.56322095
   0.33333333  0.08333333  0.38179910
   0.16611110  0.16585383  0.47286550
   0.77678575  0.21582179  0.61142329
   0.58333333  0.33333333  0.38179910
   0.16903108  0.41528058  0.47237032
   0.83333333  0.33333333  0.38179910
   0.75253628  0.00988071  0.56711628
   0.66833598  0.16377767  0.47325701
   0.16471738  0.67138680  0.47160281
   0.24031842  0.51083397  0.56415611
   0.49540695  0.75401411  0.56545332
   0.58333333  0.83333333  0.38179910
   0.48709893  0.51684463  0.57507767
   0.58333333  0.58333333  0.38179910
   0.66754671  0.41491154  0.48791946
   0.15591381  0.28687774  0.62880206
   0.11898957  0.86572332  0.61630858
   0.10043554  0.57646650  0.62612260
   0.82177306  0.81771695  0.62617214
   0.78715159  0.61057778  0.62207828
   0.56054264  0.34106223  0.62408718
   0.56129202  0.07667586  0.61482850
   0.82547868  0.36114053  0.63753238
   0.58333333  0.08333333  0.38179910
   0.74257043  0.75370874  0.57102402
   0.99739129  0.00986217  0.56111074
   0.24697416  0.75879776  0.55861088
   0.16641310  0.91719876  0.46848478
   0.33333333  0.83333333  0.38179910
   0.91919160  0.91316829  0.47527097
   0.08333333  0.33333333  0.38179910
   0.33333333  0.58333333  0.38179910
   0.91645457  0.66574381  0.47506066
   0.41646800  0.42022839  0.47454446
   0.24971629  0.24762088  0.56395773
   0.33333333  0.33333333  0.38179910
   0.08333333  0.83333333  0.38179910
   0.49347209  0.99921854  0.56256315
   0.08333333  0.08333333  0.38179910
   0.83333333  0.08333333  0.38179910
   0.83333333  0.58333333  0.38179910
   0.66829139  0.66293403  0.47767748
   0.41849999  0.66615128  0.47530945
   0.74189550  0.50153651  0.57708381
   0.41712064  0.91412540  0.47465149
   0.41901364  0.16622121  0.47311648
   0.00687947  0.77666241  0.61324442
Direct configuration=    12
   0.24679217  0.00722476  0.56352483
   0.91479599  0.41794584  0.47559969
   0.02315950  0.21790059  0.61000244
   0.83333333  0.83333333  0.38179910
   0.08333333  0.58333333  0.38179910
   0.66992876  0.91025905  0.47681330
  -0.00308346  0.49725476  0.56374943
   0.91663452  0.16394730  0.47580467
   0.48766880  0.25932917  0.56351171
   0.33333333  0.08333333  0.38179910
   0.16604694  0.16586790  0.47264219
   0.77694684  0.21421662  0.61259026
   0.58333333  0.33333333  0.38179910
   0.16914478  0.41537845  0.47229685
   0.83333333  0.33333333  0.38179910
   0.75253179  0.01042309  0.56627971
   0.66807389  0.16404682  0.47286861
   0.16466023  0.67139429  0.47151355
   0.23945088  0.51169370  0.56443289
   0.49560685  0.75353542  0.56522273
   0.58333333  0.83333333  0.38179910
   0.48714893  0.51582599  0.57500629
   0.58333333  0.58333333  0.38179910
   0.66745109  0.41480262  0.48781433
   0.15554057  0.28758534  0.62855887
   0.12185731  0.86437456  0.61635288
   0.09840809  0.57895288  0.62581406
   0.82154202  0.81730379  0.62630595
   0.78750915  0.61000505  0.62190491
   0.56038447  0.34124011  0.62416277
   0.56140529  0.07711970  0.61435751
   0.82598756  0.36027539  0.63764518
   0.58333333  0.08333333  0.38179910
   0.74203382  0.75433435  0.57065862
   0.99823206  0.00878468  0.56127054
   0.24715750  0.75889723  0.55842590
   0.16686519  0.91705009  0.46834792
   0.33333333  0.83333333  0.38179910
   0.91936488  0.91319472  0.47531441
   0.08333333  0.33333333  0.38179910
   0.33333333  0.58333333  0.38179910
   0.91639671  0.66572311  0.47484488
   0.41595684  0.42074542  0.47462166
   0.25015445  0.24823728  0.56360112
   0.33333333  0.33333333  0.38179910
   0.08333333  0.83333333  0.38179910
   0.49383529  0.99912287  0.56264550
   0.08333333  0.08333333  0.38179910
   0.83333333  0.08333333  0.38179910
   0.83333333  0.58333333  0.38179910
   0.66834482  0.66305900  0.47768945
   0.41842044  0.66643319  0.47502516
   0.74258301  0.50024305  0.57721639
   0.41701399  0.91390682  0.47435249
   0.41902790  0.16592103  0.47318652
   0.00484103  0.78105546  0.61508518
Direct configuration=    13
   0.24678818  0.00761531  0.56352682
   0.91488370  0.41802443  0.47547631
   0.02364488  0.21714992  0.61031631
   0.83333333  0.83333333  0.38179910
   0.08333333  0.58333333  0.38179910
   0.66972845  0.91028554  0.47623321
  -0.00318770  0.49656314  0.56365671
   0.91674989  0.16386555  0.47563217
   0.48735439  0.25981263  0.56392915
   0.33333333  0.08333333  0.38179910
   0.16595482  0.16588809  0.47232157
   0.77717811  0.21191206  0.61426570
   0.58333333  0.33333333  0.38179910
   0.16930802  0.41551897  0.47219136
   0.83333333  0.33333333  0.38179910
   0.75252534  0.01120178  0.56507864
   0.66769760  0.16443325  0.47231098
   0.16457817  0.67140504  0.47138540
   0.23820534  0.51292802  0.56483025
   0.49589383  0.75284815  0.56489167
   0.58333333  0.83333333  0.38179910
   0.48722071  0.51436351  0.57490382
   0.58333333  0.58333333  0.38179910
   0.66731382  0.41464625  0.48766339
   0.15500471  0.28860125  0.62820971
   0.12597457  0.86243812  0.61641648
   0.09549724  0.58252261  0.62537109
   0.82121031  0.81671059  0.62649806
   0.78802252  0.60918276  0.62165600
   0.56015738  0.34149548  0.62427129
   0.56156790  0.07775693  0.61368129
   0.82671816  0.35903329  0.63780713
   0.58333333  0.08333333  0.38179910
   0.74126339  0.75523255  0.57013401
   0.99943918  0.00723772  0.56149997
   0.24742073  0.75904004  0.55816033
   0.16751425  0.91683665  0.46815144
   0.33333333  0.83333333  0.38179910
   0.91961366  0.91323266  0.47537677
   0.08333333  0.33333333  0.38179910
   0.33333333  0.58333333  0.38179910
   0.91631365  0.66569340  0.47453508
   0.41522295  0.42148773  0.47473251
   0.25078353  0.24912226  0.56308913
   0.33333333  0.33333333  0.38179910
   0.08333333  0.83333333  0.38179910
   0.49435674  0.99898550  0.56276373
   0.08333333  0.08333333  0.38179910
   0.83333333  0.08333333  0.38179910
   0.83333333  0.58333333  0.38179910
   0.66842152  0.66323840  0.47770664
   0.41830624  0.66683793  0.47461699
   0.74357009  0.49838601  0.57740673
   0.41686086  0.91359300  0.47392321
   0.41904837  0.16549006  0.47328708
   0.00191442  0.78736265  0.61772800
Direct configuration=    14
   0.24626294  0.00813098  0.56334198
   0.91456963  0.41777119  0.47548373
   0.02444706  0.21584072  0.61108738
   0.83333333  0.83333333  0.38179910
   0.08333333  0.58333333  0.38179910
   0.66934387  0.91084024  0.47591212
  -0.00423822  0.49721210  0.56394393
   0.91669957  0.16379133  0.47564548
   0.48683080  0.26078966  0.56401584
   0.33333333  0.08333333  0.38179910
   0.16594796  0.16600880  0.47207622
   0.77763856  0.20976041  0.61443214
   0.58333333  0.33333333  0.38179910
   0.16948749  0.41542069  0.47199979
   0.83333333  0.33333333  0.38179910
   0.75391985  0.01067015  0.56467567
   0.66716953  0.16517515  0.47198456
   0.16472406  0.67117977  0.47146119
   0.23730727  0.51460988  0.56518000
   0.49583564  0.75256551  0.56467912
   0.58333333  0.83333333  0.38179910
   0.48752033  0.51373792  0.57484333
   0.58333333  0.58333333  0.38179910
   0.66722830  0.41462837  0.48747204
   0.15443624  0.28996053  0.62780705
   0.12924680  0.85995885  0.61704343
   0.09435060  0.58593322  0.62495188
   0.81902084  0.81734487  0.62662517
   0.78838836  0.60883759  0.62117552
   0.55988623  0.34148629  0.62455658
   0.56192480  0.07809162  0.61341666
   0.82674742  0.35803278  0.63806169
   0.58333333  0.08333333  0.38179910
   0.74210697  0.75522885  0.57010860
   0.00117712  0.00626384  0.56189588
   0.24831544  0.75904523  0.55760925
   0.16777785  0.91688497  0.46827456
   0.33333333  0.83333333  0.38179910
   0.91923881  0.91388568  0.47534730
   0.08333333  0.33333333  0.38179910
   0.33333333  0.58333333  0.38179910
   0.91634625  0.66579899  0.47448756
   0.41501934  0.42129289  0.47511925
   0.25040792  0.24910581  0.56281912
   0.33333333  0.33333333  0.38179910