 vasp.5.4.1 24Jun15 (build Mar 14 2019 10:18:33) complex                        
  
 executed on INTEL-19.0.2+OPENMPI date 2022.07.15  15:42:32
 running on   36 total cores
 distrk:  each k-point on   36 cores,    1 groups
 distr:  one band on NCORES_PER_BAND=   6 cores,    6 groups


--------------------------------------------------------------------------------------------------------


 INCAR:
 POTCAR:    PAW_PBE Au 04Oct2007                  
 POTCAR:    PAW_PBE Pd 04Jan2005                  
 POTCAR:    PAW_PBE Au 04Oct2007                  
  local pseudopotential read in
  partial core-charges read in
  partial kinetic energy density read in
  atomic valenz-charges read in
  non local Contribution for L=           2  read in
    real space projection operators read in
  non local Contribution for L=           2  read in
    real space projection operators read in
  non local Contribution for L=           0  read in
    real space projection operators read in
  non local Contribution for L=           0  read in
    real space projection operators read in
  non local Contribution for L=           1  read in
    real space projection operators read in
  non local Contribution for L=           1  read in
    real space projection operators read in
    PAW grid and wavefunctions read in
 
   number of l-projection  operators is LMAX  =           6
   number of lm-projection operators is LMMAX =          18
 
 POTCAR:    PAW_PBE Pd 04Jan2005                  
  local pseudopotential read in
  partial core-charges read in
  partial kinetic energy density read in
  atomic valenz-charges read in
  non local Contribution for L=           2  read in
    real space projection operators read in
  non local Contribution for L=           2  read in
    real space projection operators read in
  non local Contribution for L=           0  read in
    real space projection operators read in
  non local Contribution for L=           0  read in
    real space projection operators read in
  non local Contribution for L=           1  read in
    real space projection operators read in
  non local Contribution for L=           1  read in
    real space projection operators read in
    PAW grid and wavefunctions read in
 
   number of l-projection  operators is LMAX  =           6
   number of lm-projection operators is LMMAX =          18
 
 Optimization of the real space projectors (new method)

 maximal supplied QI-value         = 15.12
 optimisation between [QCUT,QGAM] = [ 10.13, 20.41] = [ 28.73,116.64] Ry 
 Optimized for a Real-space Cutoff    1.51 Angstroem

   l    n(q)    QCUT    max X(q) W(low)/X(q) W(high)/X(q)  e(spline) 
   2      8    10.129    60.898    0.46E-03    0.46E-03    0.14E-06
   2      8    10.129    58.894    0.47E-03    0.47E-03    0.14E-06
   0      9    10.129   109.617    0.16E-03    0.11E-03    0.54E-07
   0      9    10.129    75.026    0.15E-03    0.11E-03    0.52E-07
   1      9    10.129    16.344    0.96E-04    0.15E-03    0.14E-06
   1      9    10.129    10.160    0.81E-04    0.12E-03    0.11E-06
 Optimization of the real space projectors (new method)

 maximal supplied QI-value         = 14.36
 optimisation between [QCUT,QGAM] = [ 10.20, 20.39] = [ 29.12,116.47] Ry 
 Optimized for a Real-space Cutoff    1.51 Angstroem

   l    n(q)    QCUT    max X(q) W(low)/X(q) W(high)/X(q)  e(spline) 
   2      8    10.197    59.108    0.26E-03    0.14E-03    0.96E-07
   2      8    10.197    58.101    0.27E-03    0.14E-03    0.98E-07
   0      9    10.197   102.235    0.54E-04    0.60E-05    0.72E-07
   0      9    10.197    58.388    0.52E-04    0.60E-05    0.68E-07
   1      9    10.197    22.191    0.18E-03    0.25E-03    0.79E-07
   1      9    10.197    15.590    0.15E-03    0.21E-03    0.69E-07
  PAW_PBE Au 04Oct2007                  :
 energy of atom  1       EATOM= -926.0867
 kinetic energy error for atom=    0.0062 (will be added to EATOM!!)
  PAW_PBE Pd 04Jan2005                  :
 energy of atom  2       EATOM= -809.7530
 kinetic energy error for atom=    0.0091 (will be added to EATOM!!)
 
 
 POSCAR: Au Pd                                   
  positions in cartesian coordinates
  No initial velocities read in
 exchange correlation table for  LEXCH =        8
   RHO(1)=    0.500       N(1)  =     2000
   RHO(2)=  100.500       N(2)  =     4000

 VTST: version 3.2, (02/03/18)

 CHAIN: initializing optimizer
 
 OPT: Using VASP Conjugate-Gradient optimizer
 CHAIN: Read ICHAIN            0
 
 POSCAR: Au Pd                                   
  positions in cartesian coordinates
  No initial velocities read in
 


--------------------------------------------------------------------------------------------------------


 ion  position               nearest neighbor table
   1  0.250  0.750  0.592-   7 2.75  11 2.75   9 2.75  12 2.75  14 2.75  18 2.75  15 2.75  32 2.75
                            39 2.75
   2  0.583  0.583  0.408-  27 2.75   8 2.75   5 2.75  29 2.75  47 2.75  40 2.75  31 2.75  30 2.75
                            11 2.75
   3  0.500  0.250  0.592-   4 2.75  26 2.75  10 2.75  14 2.75   9 2.75  35 2.75  33 2.75  41 2.75
                            36 2.75
   4  0.417  0.417  0.500-  43 2.75   3 2.75   9 2.75  26 2.75  36 2.75  39 2.75  11 2.75  42 2.75
                            30 2.75  40 2.75  14 2.75  47 2.75
   5  0.583  0.833  0.408-  38 2.75  31 2.75  37 2.75   2 2.75  44 2.75   8 2.75  16 2.75  27 2.75
                            25 2.75
   6  0.833  0.083  0.408-  46 2.75  20 2.75  29 2.75  16 2.75  47 2.75  34 2.75  37 2.75  17 2.75
                            26 2.75
   7  0.167  0.917  0.500-  20 2.75   1 2.75  18 2.75  11 2.75  13 2.75  39 2.75  46 2.75  17 2.75
                            25 2.75  34 2.75   8 2.75  12 2.75
   8  0.333  0.833  0.408-  25 2.75   2 2.75  34 2.75  40 2.75  44 2.75   5 2.75  20 2.75  11 2.75
                             7 2.75
   9  0.250  0.500  0.592-  39 2.75   4 2.75   1 2.75  15 2.75   3 2.75  41 2.75  14 2.75  21 2.75
                            42 2.75
  10  0.750  0.000  0.592-  26 2.75  17 2.75   3 2.75  15 2.75  33 2.75  48 2.75  35 2.75  18 2.75
                            38 2.75
  11  0.417  0.667  0.500-  40 2.75  14 2.75   1 2.75   4 2.75  25 2.75  30 2.75   7 2.75  39 2.75
                            27 2.75   8 2.75   2 2.75  32 2.75
  12  0.250  0.000  0.592-  13 2.75  25 2.75  24 2.75   1 2.75  32 2.75  41 2.75  35 2.75  18 2.75
                             7 2.75
  13  0.167  0.167  0.500-  34 2.75  12 2.75  24 2.75   7 2.75  25 2.75  23 2.75  42 2.75  36 2.75
                            46 2.75  19 2.75  44 2.75  41 2.75
  14  0.500  0.500  0.592-  11 2.75  30 2.75   1 2.75   3 2.75  32 2.75  33 2.75  28 2.75   9 2.75
                             4 2.75
  15  0.000  0.750  0.592-  17 2.75  39 2.75   9 2.75  18 2.75  21 2.75  10 2.75   1 2.75  48 2.75
                            22 2.75
  16  0.833  0.833  0.408-  17 2.75   6 2.75  31 2.75  37 2.75  45 2.75  20 2.75   5 2.75  22 2.75
                            38 2.75
  17  0.917  0.917  0.500-  16 2.75  15 2.75  10 2.75  22 2.75  26 2.75  39 2.75  46 2.75   7 2.75
                            38 2.75   6 2.75  20 2.75  18 2.75
  18  0.000  0.000  0.592-  46 2.75   7 2.75  15 2.75  24 2.75  33 2.75   1 2.75  10 2.75  12 2.75
                            17 2.75
  19  0.083  0.333  0.408-  42 2.75  34 2.75  31 2.75  44 2.75  45 2.75  29 2.75  43 2.75  13 2.75
                            23 2.75
  20  0.083  0.833  0.408-   7 2.75   6 2.75  34 2.75  40 2.75  45 2.75  16 2.75   8 2.75  39 2.75
                            17 2.75
  21  0.000  0.500  0.592-  22 2.75  42 2.75  24 2.75  41 2.75  15 2.75  48 2.75  28 2.75   9 2.75
                            23 2.75
  22  0.917  0.667  0.500-  31 2.75  21 2.75  48 2.75  17 2.75  38 2.75  42 2.75  23 2.75  27 2.75
                            39 2.75  16 2.75  45 2.75  15 2.75
  23  0.917  0.417  0.500-  29 2.75  24 2.75  28 2.75  27 2.75  22 2.75  13 2.75  46 2.75  42 2.75
                            30 2.75  31 2.75  21 2.75  19 2.75
  24  0.000  0.250  0.592-  23 2.75  13 2.75  18 2.75  21 2.75  12 2.75  28 2.75  33 2.75  41 2.75
                            46 2.75
  25  0.417  0.917  0.500-   8 2.75  32 2.75  12 2.75  13 2.75  27 2.75  11 2.75  36 2.75   7 2.75
                            38 2.75  44 2.75  35 2.75   5 2.75
  26  0.667  0.167  0.500-  37 2.75  10 2.75   3 2.75  17 2.75  30 2.75   4 2.75  38 2.75  36 2.75
                            46 2.75  47 2.75  33 2.75   6 2.75
  27  0.667  0.667  0.500-   2 2.75  28 2.75  32 2.75  23 2.75  30 2.75  25 2.75  38 2.75  11 2.75
                            22 2.75   5 2.75  31 2.75  48 2.75
  28  0.750  0.500  0.592-  27 2.75  23 2.75  24 2.75  32 2.75  33 2.75  48 2.75  14 2.75  21 2.75
                            30 2.75
  29  0.833  0.333  0.408-  23 2.75   6 2.75   2 2.75  31 2.75  34 2.75  19 2.75  47 2.75  46 2.75
                            30 2.75
  30  0.667  0.417  0.500-  47 2.75  33 2.75  14 2.75  27 2.75  11 2.75  46 2.75  26 2.75  23 2.75
                             4 2.75   2 2.75  29 2.75  28 2.75
  31  0.833  0.583  0.408-  22 2.75  16 2.75  19 2.75   5 2.75  29 2.75   2 2.75  45 2.75  23 2.75
                            27 2.75
  32  0.500  0.750  0.592-  25 2.75  27 2.75  12 2.75  14 2.75  28 2.75  35 2.75   1 2.75  48 2.75
                            11 2.75
  33  0.750  0.250  0.592-  30 2.75  46 2.75  18 2.75  28 2.75  10 2.75  14 2.75  24 2.75   3 2.75
                            26 2.75
  34  0.083  0.083  0.408-  13 2.75   8 2.75  19 2.75  20 2.75  29 2.75   6 2.75  44 2.75   7 2.75
                            46 2.75
  35  0.500  0.000  0.592-  36 2.75  38 2.75   3 2.75  32 2.75  41 2.75  48 2.75  12 2.75  10 2.75
                            25 2.75
  36  0.417  0.167  0.500-  44 2.75  35 2.75  41 2.75  38 2.75  25 2.75  42 2.75   4 2.75  26 2.75
                            13 2.75  43 2.75  37 2.75   3 2.75
  37  0.583  0.083  0.408-  26 2.75  16 2.75   5 2.75  43 2.75  47 2.75  44 2.75   6 2.75  38 2.75
                            36 2.75
  38  0.667  0.917  0.500-   5 2.75  48 2.75  35 2.75  27 2.75  22 2.75  36 2.75  26 2.75  25 2.75
                            17 2.75  37 2.75  16 2.75  10 2.75
  39  0.167  0.667  0.500-  45 2.75   9 2.75  15 2.75   7 2.75  17 2.75  42 2.75   4 2.75  11 2.75
                            22 2.75  20 2.75   1 2.75  40 2.75
  40  0.333  0.583  0.408-  11 2.75   8 2.75  20 2.75  43 2.75  47 2.75  45 2.75   2 2.75   4 2.75
                            39 2.75
  41  0.250  0.250  0.592-  42 2.75  36 2.75  21 2.75  35 2.75   9 2.75  12 2.75  24 2.75   3 2.75
                            13 2.75
  42  0.167  0.417  0.500-  19 2.75  41 2.75  21 2.75  22 2.75  36 2.75  39 2.75  13 2.75  23 2.75
                             4 2.75  45 2.75  43 2.75   9 2.75
  43  0.333  0.333  0.408-   4 2.75  37 2.75  40 2.75  44 2.75  45 2.75  19 2.75  47 2.75  36 2.75
                            42 2.75
  44  0.333  0.083  0.408-  36 2.75   8 2.75  19 2.75   5 2.75  43 2.75  37 2.75  34 2.75  25 2.75
                            13 2.75
  45  0.083  0.583  0.408-  39 2.75  19 2.75  20 2.75  16 2.75  43 2.75  40 2.75  31 2.75  42 2.75
                            22 2.75
  46  0.917  0.167  0.500-   6 2.75  18 2.75  33 2.75   7 2.75  23 2.75  30 2.75  17 2.75  13 2.75
                            26 2.75  29 2.75  24 2.75  34 2.75
  47  0.583  0.333  0.408-  30 2.75   6 2.75   2 2.75  37 2.75  40 2.75  29 2.75  43 2.75  26 2.75
                             4 2.75
  48  0.750  0.750  0.592-  38 2.75  22 2.75  10 2.75  28 2.75  35 2.75  21 2.75  15 2.75  32 2.75
                            27 2.75
 
  LATTYP: Found a hexagonal cell.
 ALAT       =    11.0025815153
 C/A-ratio  =     2.2260035120
  
  Lattice vectors:
  
 A1 = (   5.5012907576,  -9.5285150994,   0.0000000000)
 A2 = ( -11.0025815153,   0.0000000000,   0.0000000000)
 A3 = (   0.0000000000,   0.0000000000, -24.4917850943)


Analysis of symmetry for initial positions (statically):
=====================================================================
 Subroutine PRICEL returns:
 Original cell was already a primitive cell.
 

 Routine SETGRP: Setting up the symmetry group for a 
 hexagonal supercell.


 Subroutine GETGRP returns: Found  1 space group operations
 (whereof  1 operations were pure point group operations)
 out of a pool of 24 trial point group operations.


The static configuration has the point symmetry C_1 .


Analysis of symmetry for dynamics (positions and initial velocities):
=====================================================================
 Subroutine PRICEL returns:
 Original cell was already a primitive cell.
 

 Routine SETGRP: Setting up the symmetry group for a 
 hexagonal supercell.


 Subroutine GETGRP returns: Found  1 space group operations
 (whereof  1 operations were pure point group operations)
 out of a pool of 24 trial point group operations.


The dynamic configuration has the point symmetry C_1 .
 
 
 KPOINTS: Automatic mesh                          

Automatic generation of k-mesh.
Space group operators:
 irot       det(A)        alpha          n_x          n_y          n_z        tau_x        tau_y        tau_z
    1     1.000000     0.000000     1.000000     0.000000     0.000000     0.000000     0.000000     0.000000
 
 Subroutine IBZKPT returns following result:
 ===========================================
 
 Found      6 irreducible k-points:
 
 Following reciprocal coordinates:
            Coordinates               Weight
  0.250000  0.250000  0.000000     16.000000
  0.000000  0.250000  0.000000     16.000000
 -0.250000  0.000000  0.000000     16.000000
 -0.250000  0.250000  0.000000     16.000000
  0.500000 -0.250000  0.000000     16.000000
 -0.250000  0.500000  0.000000     16.000000
 
 Following cartesian coordinates:
            Coordinates               Weight
  0.022722  0.013119  0.000000     16.000000
  0.000000  0.026237  0.000000     16.000000
 -0.022722  0.013119  0.000000     16.000000
 -0.022722  0.039356  0.000000     16.000000
  0.045444 -0.052474  0.000000     16.000000
 -0.022722  0.065593  0.000000     16.000000
 


--------------------------------------------------------------------------------------------------------




 Dimension of arrays:
   k-points           NKPTS =      6   k-points in BZ     NKDIM =      6   number of bands    NBANDS=    306
   number of dos      NEDOS =    301   number of ions     NIONS =     48
   non local maximal  LDIM  =      6   non local SUM 2l+1 LMDIM =     18
   total plane-waves  NPLWV = 349920
   max r-space proj   IRMAX =   2009   max aug-charges    IRDMAX=   8532
   dimension x,y,z NGX =    54 NGY =   54 NGZ =  120
   dimension x,y,z NGXF=   108 NGYF=  108 NGZF=  240
   support grid    NGXF=   108 NGYF=  108 NGZF=  240
   ions per type =              24  24
 NGX,Y,Z   is equivalent  to a cutoff of   8.16,  8.16,  8.15 a.u.
 NGXF,Y,Z  is equivalent  to a cutoff of  16.32, 16.32, 16.29 a.u.


 I would recommend the setting:
   dimension x,y,z NGX =    54 NGY =   54 NGZ =  120
 SYSTEM =  unknown system                          
 POSCAR =  Au Pd                                   

 Startparameter for this run:
   NWRITE =      1    write-flag & timer
   PREC   = normal    normal or accurate (medium, high low for compatibility)
   ISTART =      0    job   : 0-new  1-cont  2-samecut
   ICHARG =      2    charge: 1-file 2-atom 10-const
   ISPIN  =      1    spin polarized calculation?
   LNONCOLLINEAR =      F non collinear calculations
   LSORBIT =      F    spin-orbit coupling
   INIWAV =      1    electr: 0-lowe 1-rand  2-diag
   LASPH  =      F    aspherical Exc in radial PAW
   METAGGA=      F    non-selfconsistent MetaGGA calc.

 Electronic Relaxation 1
   ENCUT  =  400.0 eV  29.40 Ry    5.42 a.u.  17.94 17.94 39.94*2*pi/ulx,y,z
   ENINI  =  400.0     initial cutoff
   ENAUG  =  416.2 eV  augmentation charge cutoff
   NELM   =    500;   NELMIN=  2; NELMDL= -5     # of ELM steps 
   EDIFF  = 0.1E-05   stopping-criterion for ELM
   LREAL  =      T    real-space projection
   NLSPLINE    = F    spline interpolate recip. space projectors
   LCOMPAT=      F    compatible to vasp.4.4
   GGA_COMPAT  = T    GGA compatible to vasp.4.4-vasp.4.6
   LMAXPAW     = -100 max onsite density
   LMAXMIX     =    2 max onsite mixed and CHGCAR
   VOSKOWN=      1    Vosko Wilk Nusair interpolation
   ROPT   =   -0.00050  -0.00050
 Ionic relaxation
   EDIFFG = -.2E-01   stopping-criterion for IOM
   NSW    =    500    number of steps for IOM
   NBLOCK =      1;   KBLOCK =    500    inner block; outer block 
   IBRION =      2    ionic relax: 0-MD 1-quasi-New 2-CG
   NFREE  =      2    steps in history (QN), initial steepest desc. (CG)
   ISIF   =      0    stress and relaxation
   IWAVPR =     11    prediction:  0-non 1-charg 2-wave 3-comb
   ISYM   =      2    0-nonsym 1-usesym 2-fastsym
   LCORR  =      T    Harris-Foulkes like correction to forces

   POTIM  = 0.3500    time-step for ionic-motion
   TEIN   =    0.0    initial temperature
   TEBEG  =    0.0;   TEEND  =   0.0 temperature during run
   SMASS  =  -3.00    Nose mass-parameter (am)
   estimated Nose-frequenzy (Omega)   =  0.10E-29 period in steps =****** mass=  -0.277E-26a.u.
   SCALEE = 1.0000    scale energy and forces
   NPACO  =    256;   APACO  = 16.0  distance and # of slots for P.C.
   PSTRESS=    0.0 pullay stress

  Mass of Ions in am
   POMASS = 196.97106.42
  Ionic Valenz
   ZVAL   =  11.00 10.00
  Atomic Wigner-Seitz radii
   RWIGS  =  -1.00 -1.00
  virtual crystal weights 
   VCA    =   1.00  1.00
   NELECT =     504.0000    total number of electrons
   NUPDOWN=      -1.0000    fix difference up-down

 DOS related values:
   EMIN   =  10.00;   EMAX   =-10.00  energy-range for DOS
   EFERMI =   0.00
   ISMEAR =     0;   SIGMA  =   0.10  broadening in eV -4-tet -1-fermi 0-gaus

 Electronic relaxation 2 (details)
   IALGO  =     68    algorithm
   LDIAG  =      T    sub-space diagonalisation (order eigenvalues)
   LSUBROT=      F    optimize rotation matrix (better conditioning)
   TURBO    =      0    0=normal 1=particle mesh
   IRESTART =      0    0=no restart 2=restart with 2 vectors
   NREBOOT  =      0    no. of reboots
   NMIN     =      0    reboot dimension
   EREF     =   0.00    reference energy to select bands
   IMIX   =      4    mixing-type and parameters
     AMIX     =   0.40;   BMIX     =  1.00
     AMIX_MAG =   1.60;   BMIX_MAG =  1.00
     AMIN     =   0.10
     WC   =   100.;   INIMIX=   1;  MIXPRE=   1;  MAXMIX= -45

 Intra band minimization:
   WEIMIN = 0.0010     energy-eigenvalue tresh-hold
   EBREAK =  0.82E-09  absolut break condition
   DEPER  =   0.30     relativ break condition  

   TIME   =   0.40     timestep for ELM

  volume/ion in A,a.u.               =      53.49       360.99
  Fermi-wavevector in a.u.,A,eV,Ry     =   0.951418  1.797920 12.315955  0.905197
  Thomas-Fermi vector in A             =   2.079887
 
 Write flags
   LWAVE  =      F    write WAVECAR
   LCHARG =      F    write CHGCAR
   LVTOT  =      F    write LOCPOT, total local potential
   LVHAR  =      F    write LOCPOT, Hartree potential only
   LELF   =      F    write electronic localiz. function (ELF)
   LORBIT =      0    0 simple, 1 ext, 2 COOP (PROOUT)


 Dipole corrections
   LMONO  =      F    monopole corrections only (constant potential shift)
   LDIPOL =      T    correct potential (dipole corrections)
   IDIPOL =      3    1-x, 2-y, 3-z, 4-all directions 
   EPSILON=  1.0000000 bulk dielectric constant

 Exchange correlation treatment:
   GGA     =    PE    GGA type
   LEXCH   =     8    internal setting for exchange type
   VOSKOWN=      1    Vosko Wilk Nusair interpolation
   LHFCALC =     F    Hartree Fock is set to
   LHFONE  =     F    Hartree Fock one center treatment
   AEXX    =    0.0000 exact exchange contribution

 Linear response parameters
   LEPSILON=     F    determine dielectric tensor
   LRPA    =     F    only Hartree local field effects (RPA)
   LNABLA  =     F    use nabla operator in PAW spheres
   LVEL    =     F    velocity operator in full k-point grid
   LINTERFAST=   F  fast interpolation
   KINTER  =     0    interpolate to denser k-point grid
   CSHIFT  =0.1000    complex shift for real part using Kramers Kronig
   OMEGAMAX=  -1.0    maximum frequency
   DEG_THRESHOLD= 0.2000000E-02 threshold for treating states as degnerate
   RTIME   =    0.100 relaxation time in fs

 Orbital magnetization related:
   ORBITALMAG=     F  switch on orbital magnetization
   LCHIMAG   =     F  perturbation theory with respect to B field
   DQ        =  0.001000  dq finite difference perturbation B field



--------------------------------------------------------------------------------------------------------


 conjugate gradient relaxation of ions
 charge density and potential will be updated during run
 non-spin polarized calculation
 RMM-DIIS sequential band-by-band and
  variant of blocked Davidson during initial phase
 perform sub-space diagonalisation
    before iterative eigenvector-optimisation
 modified Broyden-mixing scheme, WC =      100.0
 initial mixing is a Kerker type mixing with AMIX =  0.4000 and BMIX =      1.0000
 Hartree-type preconditioning will be used
 using additional bands           54
 real space projection scheme for non local part
 use partial core corrections
 calculate Harris-corrections to forces 
   (improved forces if not selfconsistent)
 use gradient corrections 
 use of overlap-Matrix (Vanderbilt PP)
 Gauss-broadening in eV      SIGMA  =   0.10


--------------------------------------------------------------------------------------------------------


  energy-cutoff  :      400.00
  volume of cell :     2567.68
      direct lattice vectors                 reciprocal lattice vectors
    11.002581515  0.000000000  0.000000000     0.090887761 -0.052474073  0.000000000
     5.501290758  9.528515099  0.000000000     0.000000000  0.104948147  0.000000000
     0.000000000  0.000000000 24.491785094     0.000000000  0.000000000  0.040830017

  length of vectors
    11.002581515 11.002581515 24.491785094     0.104948147  0.104948147  0.040830017


 
 k-points in units of 2pi/SCALE and weight: Automatic mesh                          
   0.02272194  0.01311852  0.00000000       0.167
   0.00000000  0.02623704  0.00000000       0.167
  -0.02272194  0.01311852  0.00000000       0.167
  -0.02272194  0.03935555  0.00000000       0.167
   0.04544388 -0.05247407  0.00000000       0.167
  -0.02272194  0.06559259  0.00000000       0.167
 
 k-points in reciprocal lattice and weights: Automatic mesh                          
   0.25000000  0.25000000  0.00000000       0.167
   0.00000000  0.25000000  0.00000000       0.167
  -0.25000000  0.00000000  0.00000000       0.167
  -0.25000000  0.25000000  0.00000000       0.167
   0.50000000 -0.25000000  0.00000000       0.167
  -0.25000000  0.50000000  0.00000000       0.167
 
 position of ions in fractional coordinates (direct lattice) 
   0.25000000  0.75000000  0.59169983
   0.58333333  0.58333333  0.40830017
   0.50000000  0.25000000  0.59169983
   0.41666667  0.41666667  0.50000000
   0.58333333  0.83333333  0.40830017
   0.83333333  0.08333333  0.40830017
   0.16666667  0.91666667  0.50000000
   0.33333333  0.83333333  0.40830017
   0.25000000  0.50000000  0.59169983
   0.75000000  0.00000000  0.59169983
   0.41666667  0.66666667  0.50000000
   0.25000000  0.00000000  0.59169983
   0.16666667  0.16666667  0.50000000
   0.50000000  0.50000000  0.59169983
   0.00000000  0.75000000  0.59169983
   0.83333333  0.83333333  0.40830017
   0.91666667  0.91666667  0.50000000
   0.00000000  0.00000000  0.59169983
   0.08333333  0.33333333  0.40830017
   0.08333333  0.83333333  0.40830017
   0.00000000  0.50000000  0.59169983
   0.91666667  0.66666667  0.50000000
   0.91666667  0.41666667  0.50000000
   0.00000000  0.25000000  0.59169983
   0.41666667  0.91666667  0.50000000
   0.66666667  0.16666667  0.50000000
   0.66666667  0.66666667  0.50000000
   0.75000000  0.50000000  0.59169983
   0.83333333  0.33333333  0.40830017
   0.66666667  0.41666667  0.50000000
   0.83333333  0.58333333  0.40830017
   0.50000000  0.75000000  0.59169983
   0.75000000  0.25000000  0.59169983
   0.08333333  0.08333333  0.40830017
   0.50000000  0.00000000  0.59169983
   0.41666667  0.16666667  0.50000000
   0.58333333  0.08333333  0.40830017
   0.66666667  0.91666667  0.50000000
   0.16666667  0.66666667  0.50000000
   0.33333333  0.58333333  0.40830017
   0.25000000  0.25000000  0.59169983
   0.16666667  0.41666667  0.50000000
   0.33333333  0.33333333  0.40830017
   0.33333333  0.08333333  0.40830017
   0.08333333  0.58333333  0.40830017
   0.91666667  0.16666667  0.50000000
   0.58333333  0.33333333  0.40830017
   0.75000000  0.75000000  0.59169983
 
 position of ions in cartesian coordinates  (Angst):
   6.87661345  7.14638632 14.49178509
   9.62725883  5.55830047 10.00000000
   6.87661345  2.38212877 14.49178509
   6.87661345  3.97021462 12.24589255
  11.00258152  7.94042925 10.00000000
   9.62725883  0.79404292 10.00000000
   6.87661345  8.73447217 12.24589255
   8.25193614  7.94042925 10.00000000
   5.50129076  4.76425755 14.49178509
   8.25193614  0.00000000 14.49178509
   8.25193614  6.35234340 12.24589255
   2.75064538  0.00000000 14.49178509
   2.75064538  1.58808585 12.24589255
   8.25193614  4.76425755 14.49178509
   4.12596807  7.14638632 14.49178509
  13.75322689  7.94042925 10.00000000
  15.12854958  8.73447217 12.24589255
   0.00000000  0.00000000 14.49178509
   2.75064538  3.17617170 10.00000000
   5.50129076  7.94042925 10.00000000
   2.75064538  4.76425755 14.49178509
  13.75322689  6.35234340 12.24589255
  12.37790420  3.97021462 12.24589255
   1.37532269  2.38212877 14.49178509
   9.62725883  8.73447217 12.24589255
   8.25193614  1.58808585 12.24589255
  11.00258152  6.35234340 12.24589255
  11.00258152  4.76425755 14.49178509
  11.00258152  3.17617170 10.00000000
   9.62725883  3.97021462 12.24589255
  12.37790420  5.55830047 10.00000000
   9.62725883  7.14638632 14.49178509
   9.62725883  2.38212877 14.49178509
   1.37532269  0.79404292 10.00000000
   5.50129076  0.00000000 14.49178509
   5.50129076  1.58808585 12.24589255
   6.87661345  0.79404292 10.00000000
  12.37790420  8.73447217 12.24589255
   5.50129076  6.35234340 12.24589255
   6.87661345  5.55830047 10.00000000
   4.12596807  2.38212877 14.49178509
   4.12596807  3.97021462 12.24589255
   5.50129076  3.17617170 10.00000000
   4.12596807  0.79404292 10.00000000
   4.12596807  5.55830047 10.00000000
  11.00258152  1.58808585 12.24589255
   8.25193614  3.17617170 10.00000000
  12.37790420  7.14638632 14.49178509
 


--------------------------------------------------------------------------------------------------------


 k-point  1 :   0.2500 0.2500 0.0000  plane waves:   46635
 k-point  2 :   0.0000 0.2500 0.0000  plane waves:   46635
 k-point  3 :  -0.2500 0.0000 0.0000  plane waves:   46635
 k-point  4 :  -0.2500 0.2500 0.0000  plane waves:   46644
 k-point  5 :   0.5000-0.2500 0.0000  plane waves:   46644
 k-point  6 :  -0.2500 0.5000 0.0000  plane waves:   46644

 maximum and minimum number of plane-waves per node :      7818     7732

 maximum number of plane-waves:     46644
 maximum index in each direction: 
   IXMAX=   18   IYMAX=   18   IZMAX=   39
   IXMIN=  -18   IYMIN=  -18   IZMIN=  -39

 WARNING: aliasing errors must be expected set NGX to  74 to avoid them
 WARNING: aliasing errors must be expected set NGY to  74 to avoid them
 WARNING: aliasing errors must be expected set NGZ to 158 to avoid them
 aliasing errors are usually negligible using standard VASP settings
 and one can safely disregard these warnings

 real space projection operators:
  total allocation   :      12803.06 KBytes
  max/ min on nodes  :       2145.66       2127.94


 parallel 3D FFT for wavefunctions:
    minimum data exchange during FFTs selected (reduces bandwidth)
 parallel 3D FFT for charge:
    minimum data exchange during FFTs selected (reduces bandwidth)


 total amount of memory used by VASP on root node    84353. kBytes
========================================================================

   base      :      30000. kBytes
   nonlr-proj:       4285. kBytes
   fftplans  :       4447. kBytes
   grid      :       6721. kBytes
   one-center:        124. kBytes
   wavefun   :      38776. kBytes
 
     INWAV:  cpu time    0.0000: real time    0.0000
 Broyden mixing: mesh for mixing (old mesh)
   NGX = 35   NGY = 35   NGZ = 79
  (NGX  =108   NGY  =108   NGZ  =240)
  gives a total of  96775 points

 initial charge density was supplied:
 charge density of overlapping atoms calculated
 number of electron     504.0000000 magnetization 
 keeping initial charge density in first step


--------------------------------------------------------------------------------------------------------


 Maximum index for non-local projection operator          355
 Maximum index for augmentation-charges          437 (set IRDMAX)


--------------------------------------------------------------------------------------------------------


 First call to EWALD:  gamma=   0.129
 Maximum number of real-space cells 4x 4x 2
 Maximum number of reciprocal cells 2x 2x 5

 FEWALD executed in parallel
    FEWALD:  cpu time    0.0022: real time    0.0022


----------------------------------------- Iteration    1(   1)  ---------------------------------------


    POTLOK:  cpu time    0.0465: real time    0.0467
    SETDIJ:  cpu time    0.0063: real time    0.0063
     EDDAV:  cpu time    6.8650: real time    6.8838
       DOS:  cpu time    0.0015: real time    0.0015
    --------------------------------------------
      LOOP:  cpu time    6.9220: real time    6.9436

 eigenvalue-minimisations  :  3672
 total energy-change (2. order) : 0.3200769E+04  (-0.1898413E+05)
 number of electron     504.0000000 magnetization 
 augmentation part      504.0000000 magnetization 

 DIPCOR: dipole corrections for dipol
 direction  3 min pos     1,
 dipolmoment           0.000000      0.000000     -0.000002 electrons x Angstroem
 Tr[quadrupol]    -10230.244477

 energy correction for charged system         0.000000 eV
 dipol+quadrupol energy correction           -0.000000 eV
 added-field ion interaction          0.000001 eV  (added to PSCEN)


 Free energy of the ion-electron system (eV)
  ---------------------------------------------------
  alpha Z        PSCENC =       805.86936534
  Ewald energy   TEWEN  =    199938.43648929
  -Hartree energ DENC   =   -242352.21744876
  -exchange      EXHF   =         0.00000000
  -V(xc)+E(xc)   XCENC  =      -327.68795320
  PAW double counting   =     40340.05962942   -38292.62782345
  entropy T*S    EENTRO =        -0.12260668
  eigenvalues    EBANDS =      1429.27323412
  atomic energy  EATOM  =     41659.78587232
  Solvation  Ediel_sol  =         0.00000000
  ---------------------------------------------------
  free energy    TOTEN  =      3200.76875840 eV

  energy without entropy =     3200.89136508  energy(sigma->0) =     3200.83006174


--------------------------------------------------------------------------------------------------------




----------------------------------------- Iteration    1(   2)  ---------------------------------------


     EDDAV:  cpu time    7.9931: real time    8.0164
       DOS:  cpu time    0.0016: real time    0.0016
    --------------------------------------------
      LOOP:  cpu time    7.9953: real time    8.0207

 eigenvalue-minimisations  :  4392
 total energy-change (2. order) :-0.3187410E+04  (-0.2931948E+04)
 number of electron     504.0000000 magnetization 
 augmentation part      504.0000000 magnetization 

 DIPCOR: dipole corrections for dipol
 direction  3 min pos     1,
 dipolmoment           0.000000      0.000000     -0.000002 electrons x Angstroem
 Tr[quadrupol]    -10230.244477

 energy correction for charged system         0.000000 eV
 dipol+quadrupol energy correction           -0.000000 eV
 added-field ion interaction          0.000001 eV  (added to PSCEN)


 Free energy of the ion-electron system (eV)
  ---------------------------------------------------
  alpha Z        PSCENC =       805.86936534
  Ewald energy   TEWEN  =    199938.43648929
  -Hartree energ DENC   =   -242352.21744876
  -exchange      EXHF   =         0.00000000
  -V(xc)+E(xc)   XCENC  =      -327.68795320
  PAW double counting   =     40340.05962942   -38292.62782345
  entropy T*S    EENTRO =        -0.14598178
  eigenvalues    EBANDS =     -1758.11318383
  atomic energy  EATOM  =     41659.78587232
  Solvation  Ediel_sol  =         0.00000000
  ---------------------------------------------------
  free energy    TOTEN  =        13.35896536 eV

  energy without entropy =       13.50494713  energy(sigma->0) =       13.43195625


--------------------------------------------------------------------------------------------------------




----------------------------------------- Iteration    1(   3)  ---------------------------------------


     EDDAV:  cpu time    7.9548: real time    8.0532
       DOS:  cpu time    0.0015: real time    0.0015
    --------------------------------------------
      LOOP:  cpu time    7.9571: real time    8.0586

 eigenvalue-minimisations  :  4128
 total energy-change (2. order) :-0.2148419E+03  (-0.1996155E+03)
 number of electron     504.0000000 magnetization 
 augmentation part      504.0000000 magnetization 

 DIPCOR: dipole corrections for dipol
 direction  3 min pos     1,
 dipolmoment           0.000000      0.000000     -0.000002 electrons x Angstroem
 Tr[quadrupol]    -10230.244477

 energy correction for charged system         0.000000 eV
 dipol+quadrupol energy correction           -0.000000 eV
 added-field ion interaction          0.000001 eV  (added to PSCEN)


 Free energy of the ion-electron system (eV)
  ---------------------------------------------------
  alpha Z        PSCENC =       805.86936534
  Ewald energy   TEWEN  =    199938.43648929
  -Hartree energ DENC   =   -242352.21744876
  -exchange      EXHF   =         0.00000000
  -V(xc)+E(xc)   XCENC  =      -327.68795320
  PAW double counting   =     40340.05962942   -38292.62782345
  entropy T*S    EENTRO =        -0.18466748
  eigenvalues    EBANDS =     -1972.91636196
  atomic energy  EATOM  =     41659.78587232
  Solvation  Ediel_sol  =         0.00000000
  ---------------------------------------------------
  free energy    TOTEN  =      -201.48289847 eV

  energy without entropy =     -201.29823099  energy(sigma->0) =     -201.39056473


--------------------------------------------------------------------------------------------------------




----------------------------------------- Iteration    1(   4)  ---------------------------------------


     EDDAV:  cpu time    8.2272: real time    8.2536
       DOS:  cpu time    0.0016: real time    0.0016
    --------------------------------------------
      LOOP:  cpu time    8.2296: real time    8.2582

 eigenvalue-minimisations  :  4284
 total energy-change (2. order) :-0.5819493E+01  (-0.5756417E+01)
 number of electron     504.0000000 magnetization 
 augmentation part      504.0000000 magnetization 

 DIPCOR: dipole corrections for dipol
 direction  3 min pos     1,
 dipolmoment           0.000000      0.000000     -0.000002 electrons x Angstroem
 Tr[quadrupol]    -10230.244477

 energy correction for charged system         0.000000 eV
 dipol+quadrupol energy correction           -0.000000 eV
 added-field ion interaction          0.000001 eV  (added to PSCEN)


 Free energy of the ion-electron system (eV)
  ---------------------------------------------------
  alpha Z        PSCENC =       805.86936534
  Ewald energy   TEWEN  =    199938.43648929
  -Hartree energ DENC   =   -242352.21744876
  -exchange      EXHF   =         0.00000000
  -V(xc)+E(xc)   XCENC  =      -327.68795320
  PAW double counting   =     40340.05962942   -38292.62782345
  entropy T*S    EENTRO =        -0.19446563
  eigenvalues    EBANDS =     -1978.72605632
  atomic energy  EATOM  =     41659.78587232
  Solvation  Ediel_sol  =         0.00000000
  ---------------------------------------------------
  free energy    TOTEN  =      -207.30239099 eV

  energy without entropy =     -207.10792535  energy(sigma->0) =     -207.20515817


--------------------------------------------------------------------------------------------------------




----------------------------------------- Iteration    1(   5)  ---------------------------------------


     EDDAV:  cpu time    8.4030: real time    8.4255
       DOS:  cpu time    0.0016: real time    0.0016
    CHARGE:  cpu time    0.2371: real time    0.2377
    MIXING:  cpu time    0.0021: real time    0.0022
    --------------------------------------------
      LOOP:  cpu time    8.6447: real time    8.6705

 eigenvalue-minimisations  :  4416
 total energy-change (2. order) :-0.1680012E+00  (-0.1674951E+00)
 number of electron     503.9998403 magnetization 
 augmentation part      191.2715677 magnetization 

 DIPCOR: dipole corrections for dipol
 direction  3 min pos     1,
 dipolmoment           0.000000      0.000000     -0.000002 electrons x Angstroem
 Tr[quadrupol]    -10230.244477

 energy correction for charged system         0.000000 eV
 dipol+quadrupol energy correction           -0.000000 eV
 added-field ion interaction          0.000001 eV  (added to PSCEN)


 Broyden mixing:
  rms(total) = 0.62325E+01    rms(broyden)= 0.62325E+01
  rms(prec ) = 0.63792E+01
  weight for this iteration     100.00

 Free energy of the ion-electron system (eV)
  ---------------------------------------------------
  alpha Z        PSCENC =       805.86936534
  Ewald energy   TEWEN  =    199938.43648929
  -Hartree energ DENC   =   -242352.21744876
  -exchange      EXHF   =         0.00000000
  -V(xc)+E(xc)   XCENC  =      -327.68795320
  PAW double counting   =     40340.05962942   -38292.62782345
  entropy T*S    EENTRO =        -0.19527651
  eigenvalues    EBANDS =     -1978.89324666
  atomic energy  EATOM  =     41659.78587232
  Solvation  Ediel_sol  =         0.00000000
  ---------------------------------------------------
  free energy    TOTEN  =      -207.47039221 eV

  energy without entropy =     -207.27511570  energy(sigma->0) =     -207.37275396


--------------------------------------------------------------------------------------------------------




----------------------------------------- Iteration    1(   6)  ---------------------------------------


    POTLOK:  cpu time    0.0426: real time    0.0428
    SETDIJ:  cpu time    0.0057: real time    0.0058
    EDDIAG:  cpu time    1.2249: real time    1.2280
  RMM-DIIS:  cpu time    3.4498: real time    3.4589
    ORTHCH:  cpu time    0.2960: real time    0.2967
       DOS:  cpu time    0.0015: real time    0.0015
    CHARGE:  cpu time    0.2387: real time    0.2393
    MIXING:  cpu time    0.0020: real time    0.0020
    --------------------------------------------
      LOOP:  cpu time    5.2619: real time    5.2775

 eigenvalue-minimisations  :  3678
 total energy-change (2. order) : 0.1663056E+01  (-0.1042000E+02)
 number of electron     503.9998432 magnetization 
 augmentation part      190.7351394 magnetization 

 DIPCOR: dipole corrections for dipol
 direction  3 min pos     1,
 dipolmoment           0.000000      0.000000     -1.011143 electrons x Angstroem
 Tr[quadrupol]    -10232.307745

 energy correction for charged system         0.000000 eV
 dipol+quadrupol energy correction           -0.036027 eV
 added-field ion interaction          0.480127 eV  (added to PSCEN)


 Broyden mixing:
  rms(total) = 0.58291E+01    rms(broyden)= 0.58289E+01
  rms(prec ) = 0.62020E+01
  weight for this iteration     100.00

 eigenvalues of (default mixing * dielectric matrix)
  average eigenvalue GAMMA=   0.6219
  0.6219

 Free energy of the ion-electron system (eV)
  ---------------------------------------------------
  alpha Z        PSCENC =       806.31346386
  Ewald energy   TEWEN  =    199938.43648929
  -Hartree energ DENC   =   -242122.01160036
  -exchange      EXHF   =         0.00000000
  -V(xc)+E(xc)   XCENC  =      -340.41477876
  PAW double counting   =     43908.72121920   -41920.75782705
  entropy T*S    EENTRO =        -0.23818898
  eigenvalues    EBANDS =     -2135.64198531
  atomic energy  EATOM  =     41659.78587232
  Solvation  Ediel_sol  =         0.00000000
  ---------------------------------------------------
  free energy    TOTEN  =      -205.80733579 eV

  energy without entropy =     -205.56914681  energy(sigma->0) =     -205.68824130


--------------------------------------------------------------------------------------------------------




----------------------------------------- Iteration    1(   7)  ---------------------------------------


    POTLOK:  cpu time    0.0414: real time    0.0415
    SETDIJ:  cpu time    0.0059: real time    0.0062
    EDDIAG:  cpu time    1.2367: real time    1.2428
  RMM-DIIS:  cpu time    3.3960: real time    3.4058
    ORTHCH:  cpu time    0.3013: real time    0.3021
       DOS:  cpu time    0.0016: real time    0.0016
    CHARGE:  cpu time    0.2406: real time    0.2420
    MIXING:  cpu time    0.0020: real time    0.0020
    --------------------------------------------
      LOOP:  cpu time    5.2262: real time    5.2465

 eigenvalue-minimisations  :  3679
 total energy-change (2. order) :-0.5810657E+01  (-0.5843679E+01)
 number of electron     503.9998373 magnetization 
 augmentation part      194.7462588 magnetization 

 DIPCOR: dipole corrections for dipol
 direction  3 min pos     1,
 dipolmoment           0.000000      0.000000      1.150830 electrons x Angstroem
 Tr[quadrupol]    -10230.715353

 energy correction for charged system         0.000000 eV
 dipol+quadrupol energy correction           -0.046669 eV
 added-field ion interaction         -0.546455 eV  (added to PSCEN)


 Broyden mixing:
  rms(total) = 0.48935E+01    rms(broyden)= 0.48932E+01
  rms(prec ) = 0.56897E+01
  weight for this iteration     100.00

 eigenvalues of (default mixing * dielectric matrix)
  average eigenvalue GAMMA=   0.7679
  1.2062  0.3295

 Free energy of the ion-electron system (eV)
  ---------------------------------------------------
  alpha Z        PSCENC =       805.27624072
  Ewald energy   TEWEN  =    199938.43648929
  -Hartree energ DENC   =   -241973.13840359
  -exchange      EXHF   =         0.00000000
  -V(xc)+E(xc)   XCENC  =      -342.53699295
  PAW double counting   =     45077.93698333   -43112.84816738
  entropy T*S    EENTRO =        -0.21970168
  eigenvalues    EBANDS =     -2264.31031336
  atomic energy  EATOM  =     41659.78587232
  Solvation  Ediel_sol  =         0.00000000
  ---------------------------------------------------
  free energy    TOTEN  =      -211.61799329 eV

  energy without entropy =     -211.39829161  energy(sigma->0) =     -211.50814245


--------------------------------------------------------------------------------------------------------




----------------------------------------- Iteration    1(   8)  ---------------------------------------


    POTLOK:  cpu time    0.0422: real time    0.0424
    SETDIJ:  cpu time    0.0057: real time    0.0059
    EDDIAG:  cpu time    1.2421: real time    1.2461
  RMM-DIIS:  cpu time    3.4094: real time    3.4189
    ORTHCH:  cpu time    0.2980: real time    0.2987
       DOS:  cpu time    0.0014: real time    0.0014
    CHARGE:  cpu time    0.2428: real time    0.2436
    MIXING:  cpu time    0.0020: real time    0.0020
    --------------------------------------------
      LOOP:  cpu time    5.2442: real time    5.2628

 eigenvalue-minimisations  :  3673
 total energy-change (2. order) :-0.1221240E+02  (-0.9166526E+01)
 number of electron     503.9998357 magnetization 
 augmentation part      195.9259724 magnetization 

 DIPCOR: dipole corrections for dipol
 direction  3 min pos     1,
 dipolmoment           0.000000      0.000000     -1.704138 electrons x Angstroem
 Tr[quadrupol]    -10231.584531

 energy correction for charged system         0.000000 eV
 dipol+quadrupol energy correction           -0.102332 eV
 added-field ion interaction          0.809185 eV  (added to PSCEN)


 Broyden mixing:
  rms(total) = 0.46956E+01    rms(broyden)= 0.46952E+01
  rms(prec ) = 0.56036E+01
  weight for this iteration     100.00

 eigenvalues of (default mixing * dielectric matrix)
  average eigenvalue GAMMA=   0.8270
  1.8443  0.4024  0.2342

 Free energy of the ion-electron system (eV)
  ---------------------------------------------------
  alpha Z        PSCENC =       806.57621712
  Ewald energy   TEWEN  =    199938.43648929
  -Hartree energ DENC   =   -241932.20566058
  -exchange      EXHF   =         0.00000000
  -V(xc)+E(xc)   XCENC  =      -344.49513437
  PAW double counting   =     46502.45801016   -44561.06169338
  entropy T*S    EENTRO =        -0.24619149
  eigenvalues    EBANDS =     -2293.07830338
  atomic energy  EATOM  =     41659.78587232
  Solvation  Ediel_sol  =         0.00000000
  ---------------------------------------------------
  free energy    TOTEN  =      -223.83039432 eV

  energy without entropy =     -223.58420283  energy(sigma->0) =     -223.70729858


--------------------------------------------------------------------------------------------------------




----------------------------------------- Iteration    1(   9)  ---------------------------------------


    POTLOK:  cpu time    0.0482: real time    0.0483
    SETDIJ:  cpu time    0.0056: real time    0.0056
    EDDIAG:  cpu time    1.2338: real time    1.2368
  RMM-DIIS:  cpu time    3.3214: real time    3.4172
    ORTHCH:  cpu time    0.2980: real time    0.2993
       DOS:  cpu time    0.0015: real time    0.0015
    CHARGE:  cpu time    0.2389: real time    0.2394
    MIXING:  cpu time    0.0022: real time    0.0022
    --------------------------------------------
      LOOP:  cpu time    5.1505: real time    5.2550

 eigenvalue-minimisations  :  3681
 total energy-change (2. order) : 0.6277322E+01  (-0.6241253E+01)
 number of electron     503.9998338 magnetization 
 augmentation part      198.3066705 magnetization 

 DIPCOR: dipole corrections for dipol
 direction  3 min pos     1,
 dipolmoment           0.000000      0.000000      0.463234 electrons x Angstroem
 Tr[quadrupol]    -10232.774465

 energy correction for charged system         0.000000 eV
 dipol+quadrupol energy correction           -0.007561 eV
 added-field ion interaction         -0.219960 eV  (added to PSCEN)


 Broyden mixing:
  rms(total) = 0.39444E+01    rms(broyden)= 0.39441E+01
  rms(prec ) = 0.43475E+01
  weight for this iteration     100.00

 eigenvalues of (default mixing * dielectric matrix)
  average eigenvalue GAMMA=   0.7845
  2.1746  0.3942  0.2845  0.2845

 Free energy of the ion-electron system (eV)
  ---------------------------------------------------
  alpha Z        PSCENC =       805.64184300
  Ewald energy   TEWEN  =    199938.43648929
  -Hartree energ DENC   =   -241925.26540519
  -exchange      EXHF   =         0.00000000
  -V(xc)+E(xc)   XCENC  =      -346.30256435
  PAW double counting   =     48004.47030244   -46086.82596691
  entropy T*S    EENTRO =        -0.24245794
  eigenvalues    EBANDS =     -2267.25118480
  atomic energy  EATOM  =     41659.78587232
  Solvation  Ediel_sol  =         0.00000000
  ---------------------------------------------------
  free energy    TOTEN  =      -217.55307214 eV

  energy without entropy =     -217.31061420  energy(sigma->0) =     -217.43184317


--------------------------------------------------------------------------------------------------------




----------------------------------------- Iteration    1(  10)  ---------------------------------------


    POTLOK:  cpu time    0.0414: real time    0.0421
    SETDIJ:  cpu time    0.0052: real time    0.0054
    EDDIAG:  cpu time    1.2230: real time    1.2284
  RMM-DIIS:  cpu time    3.4364: real time    3.4448
    ORTHCH:  cpu time    0.2969: real time    0.2976
       DOS:  cpu time    0.0014: real time    0.0014
    CHARGE:  cpu time    0.2364: real time    0.2370
    MIXING:  cpu time    0.0023: real time    0.0023
    --------------------------------------------
      LOOP:  cpu time    5.2437: real time    5.2618

 eigenvalue-minimisations  :  3682
 total energy-change (2. order) : 0.1686446E+02  (-0.2132248E+01)
 number of electron     503.9998333 magnetization 
 augmentation part      199.3692322 magnetization 

 DIPCOR: dipole corrections for dipol
 direction  3 min pos     1,
 dipolmoment           0.000000      0.000000     -0.455884 electrons x Angstroem
 Tr[quadrupol]    -10231.539198

 energy correction for charged system         0.000000 eV
 dipol+quadrupol energy correction           -0.007323 eV
 added-field ion interaction          0.216470 eV  (added to PSCEN)


 Broyden mixing:
  rms(total) = 0.23805E+01    rms(broyden)= 0.23803E+01
  rms(prec ) = 0.27538E+01
  weight for this iteration     100.00

 eigenvalues of (default mixing * dielectric matrix)
  average eigenvalue GAMMA=   0.7448
  2.2628  0.4456  0.4456  0.3385  0.2316

 Free energy of the ion-electron system (eV)
  ---------------------------------------------------
  alpha Z        PSCENC =       806.07851060
  Ewald energy   TEWEN  =    199938.43648929
  -Hartree energ DENC   =   -241883.06469238
  -exchange      EXHF   =         0.00000000
  -V(xc)+E(xc)   XCENC  =      -346.51528695
  PAW double counting   =     48904.45465250   -46997.76653062
  entropy T*S    EENTRO =        -0.17784818
  eigenvalues    EBANDS =     -2281.91978260
  atomic energy  EATOM  =     41659.78587232
  Solvation  Ediel_sol  =         0.00000000
  ---------------------------------------------------
  free energy    TOTEN  =      -200.68861604 eV

  energy without entropy =     -200.51076786  energy(sigma->0) =     -200.59969195


--------------------------------------------------------------------------------------------------------




----------------------------------------- Iteration    1(  11)  ---------------------------------------


    POTLOK:  cpu time    0.0412: real time    0.0414
    SETDIJ:  cpu time    0.0053: real time    0.0054
    EDDIAG:  cpu time    1.2354: real time    1.2394
  RMM-DIIS:  cpu time    3.4265: real time    3.4349
    ORTHCH:  cpu time    0.2979: real time    0.2986
       DOS:  cpu time    0.0015: real time    0.0015
    CHARGE:  cpu time    0.2378: real time    0.2383
    MIXING:  cpu time    0.0023: real time    0.0023
    --------------------------------------------
      LOOP:  cpu time    5.2485: real time    5.2640

 eigenvalue-minimisations  :  3679
 total energy-change (2. order) : 0.6293188E+01  (-0.1702237E+01)
 number of electron     503.9998341 magnetization 
 augmentation part      198.9457235 magnetization 

 DIPCOR: dipole corrections for dipol
 direction  3 min pos     1,
 dipolmoment           0.000000      0.000000     -0.141715 electrons x Angstroem
 Tr[quadrupol]    -10232.686201

 energy correction for charged system         0.000000 eV
 dipol+quadrupol energy correction           -0.000708 eV
 added-field ion interaction          0.067292 eV  (added to PSCEN)


 Broyden mixing:
  rms(total) = 0.15450E+01    rms(broyden)= 0.15447E+01
  rms(prec ) = 0.17480E+01
  weight for this iteration     100.00

 eigenvalues of (default mixing * dielectric matrix)
  average eigenvalue GAMMA=   0.7069
  2.1995  0.5983  0.5983  0.3062  0.3062  0.2331

 Free energy of the ion-electron system (eV)
  ---------------------------------------------------
  alpha Z        PSCENC =       805.93594811
  Ewald energy   TEWEN  =    199938.43648929
  -Hartree energ DENC   =   -241945.53319615
  -exchange      EXHF   =         0.00000000
  -V(xc)+E(xc)   XCENC  =      -346.09628769
  PAW double counting   =     49142.81166917   -47235.36235658
  entropy T*S    EENTRO =        -0.19506115
  eigenvalues    EBANDS =     -2214.17850505
  atomic energy  EATOM  =     41659.78587232
  Solvation  Ediel_sol  =         0.00000000
  ---------------------------------------------------
  free energy    TOTEN  =      -194.39542773 eV

  energy without entropy =     -194.20036658  energy(sigma->0) =     -194.29789716


--------------------------------------------------------------------------------------------------------




----------------------------------------- Iteration    1(  12)  ---------------------------------------


    POTLOK:  cpu time    0.0412: real time    0.0413
    SETDIJ:  cpu time    0.0056: real time    0.0056
    EDDIAG:  cpu time    1.2311: real time    1.2341
  RMM-DIIS:  cpu time    3.4024: real time    3.4108
    ORTHCH:  cpu time    0.2986: real time    0.2994
       DOS:  cpu time    0.0015: real time    0.0015
    CHARGE:  cpu time    0.2405: real time    0.2411
    MIXING:  cpu time    0.0025: real time    0.0025
    --------------------------------------------
      LOOP:  cpu time    5.2240: real time    5.2384

 eigenvalue-minimisations  :  3679
 total energy-change (2. order) : 0.4106862E+01  (-0.7460656E+00)
 number of electron     503.9998356 magnetization 
 augmentation part      197.7533637 magnetization 

 DIPCOR: dipole corrections for dipol
 direction  3 min pos     1,
 dipolmoment           0.000000      0.000000     -0.165584 electrons x Angstroem
 Tr[quadrupol]    -10232.575484

 energy correction for charged system         0.000000 eV
 dipol+quadrupol energy correction           -0.000966 eV
 added-field ion interaction          0.078625 eV  (added to PSCEN)


 Broyden mixing:
  rms(total) = 0.12063E+01    rms(broyden)= 0.12061E+01
  rms(prec ) = 0.13620E+01
  weight for this iteration     100.00

 eigenvalues of (default mixing * dielectric matrix)
  average eigenvalue GAMMA=   0.6686
  2.2573  0.5482  0.5482  0.3822  0.3602  0.3602  0.2241

 Free energy of the ion-electron system (eV)
  ---------------------------------------------------
  alpha Z        PSCENC =       805.94702321
  Ewald energy   TEWEN  =    199938.43648929
  -Hartree energ DENC   =   -241981.24047377
  -exchange      EXHF   =         0.00000000
  -V(xc)+E(xc)   XCENC  =      -344.98944669
  PAW double counting   =     49187.04166126   -47274.43028934
  entropy T*S    EENTRO =        -0.21049722
  eigenvalues    EBANDS =     -2180.62890436
  atomic energy  EATOM  =     41659.78587232
  Solvation  Ediel_sol  =         0.00000000
  ---------------------------------------------------
  free energy    TOTEN  =      -190.28856530 eV

  energy without entropy =     -190.07806808  energy(sigma->0) =     -190.18331669


--------------------------------------------------------------------------------------------------------




----------------------------------------- Iteration    1(  13)  ---------------------------------------


    POTLOK:  cpu time    0.0410: real time    0.0412
    SETDIJ:  cpu time    0.0054: real time    0.0054
    EDDIAG:  cpu time    1.2379: real time    1.2428
  RMM-DIIS:  cpu time    3.3705: real time    3.3805
    ORTHCH:  cpu time    0.2953: real time    0.2960
       DOS:  cpu time    0.0015: real time    0.0015
    CHARGE:  cpu time    0.2357: real time    0.2363
    MIXING:  cpu time    0.0027: real time    0.0027
    --------------------------------------------
      LOOP:  cpu time    5.1908: real time    5.2089

 eigenvalue-minimisations  :  3681
 total energy-change (2. order) : 0.9985972E+00  (-0.2331037E+00)
 number of electron     503.9998355 magnetization 
 augmentation part      197.6484465 magnetization 

 DIPCOR: dipole corrections for dipol
 direction  3 min pos     1,
 dipolmoment           0.000000      0.000000     -0.120680 electrons x Angstroem
 Tr[quadrupol]    -10233.171355

 energy correction for charged system         0.000000 eV
 dipol+quadrupol energy correction           -0.000513 eV
 added-field ion interaction          0.057303 eV  (added to PSCEN)


 Broyden mixing:
  rms(total) = 0.74791E+00    rms(broyden)= 0.74771E+00
  rms(prec ) = 0.82462E+00
  weight for this iteration     100.00

 eigenvalues of (default mixing * dielectric matrix)
  average eigenvalue GAMMA=   0.6725
  2.2492  0.6909  0.6909  0.6192  0.3219  0.3219  0.2626  0.2236

 Free energy of the ion-electron system (eV)
  ---------------------------------------------------
  alpha Z        PSCENC =       805.92615429
  Ewald energy   TEWEN  =    199938.43648929
  -Hartree energ DENC   =   -242004.40015677
  -exchange      EXHF   =         0.00000000
  -V(xc)+E(xc)   XCENC  =      -344.88560425
  PAW double counting   =     49267.63923833   -47354.64420987
  entropy T*S    EENTRO =        -0.23939281
  eigenvalues    EBANDS =     -2156.90835859
  atomic energy  EATOM  =     41659.78587232
  Solvation  Ediel_sol  =         0.00000000
  ---------------------------------------------------
  free energy    TOTEN  =      -189.28996806 eV

  energy without entropy =     -189.05057525  energy(sigma->0) =     -189.17027165


--------------------------------------------------------------------------------------------------------




----------------------------------------- Iteration    1(  14)  ---------------------------------------


    POTLOK:  cpu time    0.0422: real time    0.0424
    SETDIJ:  cpu time    0.0056: real time    0.0057
    EDDIAG:  cpu time    1.2233: real time    1.2274
  RMM-DIIS:  cpu time    3.3708: real time    3.3998
    ORTHCH:  cpu time    0.2903: real time    0.2967
       DOS:  cpu time    0.0015: real time    0.0015
    CHARGE:  cpu time    0.2310: real time    0.2358
    MIXING:  cpu time    0.0028: real time    0.0029
    --------------------------------------------
      LOOP:  cpu time    5.1684: real time    5.2166

 eigenvalue-minimisations  :  3679
 total energy-change (2. order) : 0.6392861E-01  (-0.1065238E+00)
 number of electron     503.9998354 magnetization 
 augmentation part      197.5415294 magnetization 

 DIPCOR: dipole corrections for dipol
 direction  3 min pos     1,
 dipolmoment           0.000000      0.000000     -0.086223 electrons x Angstroem
 Tr[quadrupol]    -10233.277996

 energy correction for charged system         0.000000 eV
 dipol+quadrupol energy correction           -0.000262 eV
 added-field ion interaction          0.040942 eV  (added to PSCEN)


 Broyden mixing:
  rms(total) = 0.73808E+00    rms(broyden)= 0.73791E+00
  rms(prec ) = 0.81594E+00
  weight for this iteration     100.00

 eigenvalues of (default mixing * dielectric matrix)
  average eigenvalue GAMMA=   0.6680
  2.2197  0.8282  0.8282  0.6649  0.3703  0.3703  0.2588  0.2588  0.2130

 Free energy of the ion-electron system (eV)
  ---------------------------------------------------
  alpha Z        PSCENC =       805.91004422
  Ewald energy   TEWEN  =    199938.43648929
  -Hartree energ DENC   =   -242014.63351303
  -exchange      EXHF   =         0.00000000
  -V(xc)+E(xc)   XCENC  =      -344.65853602
  PAW double counting   =     49282.77389144   -47368.41948098
  entropy T*S    EENTRO =        -0.24408400
  eigenvalues    EBANDS =     -2148.17672269
  atomic energy  EATOM  =     41659.78587232
  Solvation  Ediel_sol  =         0.00000000
  ---------------------------------------------------
  free energy    TOTEN  =      -189.22603945 eV

  energy without entropy =     -188.98195545  energy(sigma->0) =     -189.10399745


--------------------------------------------------------------------------------------------------------




----------------------------------------- Iteration    1(  15)  ---------------------------------------


    POTLOK:  cpu time    0.0415: real time    0.0418
    SETDIJ:  cpu time    0.0056: real time    0.0057
    EDDIAG:  cpu time    1.2301: real time    1.2374
  RMM-DIIS:  cpu time    3.4339: real time    3.4435
    ORTHCH:  cpu time    0.2943: real time    0.2951
       DOS:  cpu time    0.0015: real time    0.0015
    CHARGE:  cpu time    0.2380: real time    0.2386
    MIXING:  cpu time    0.0029: real time    0.0029
    --------------------------------------------
      LOOP:  cpu time    5.2485: real time    5.2689

 eigenvalue-minimisations  :  3679
 total energy-change (2. order) : 0.3209865E-01  (-0.4091171E-01)
 number of electron     503.9998356 magnetization 
 augmentation part      197.4548842 magnetization 

 DIPCOR: dipole corrections for dipol
 direction  3 min pos     1,
 dipolmoment           0.000000      0.000000     -0.077219 electrons x Angstroem
 Tr[quadrupol]    -10233.473806

 energy correction for charged system         0.000000 eV
 dipol+quadrupol energy correction           -0.000210 eV
 added-field ion interaction          0.036666 eV  (added to PSCEN)


 Broyden mixing:
  rms(total) = 0.69199E+00    rms(broyden)= 0.69191E+00
  rms(prec ) = 0.77663E+00
  weight for this iteration     100.00

 eigenvalues of (default mixing * dielectric matrix)
  average eigenvalue GAMMA=   0.6662
  2.1794  1.0050  1.0050  0.6666  0.4198  0.4198  0.2758  0.2758  0.2156  0.1995

 Free energy of the ion-electron system (eV)
  ---------------------------------------------------
  alpha Z        PSCENC =       805.90582050
  Ewald energy   TEWEN  =    199938.43648929
  -Hartree energ DENC   =   -242026.13403549
  -exchange      EXHF   =         0.00000000
  -V(xc)+E(xc)   XCENC  =      -344.47092291
  PAW double counting   =     49279.50155107   -47363.80990903
  entropy T*S    EENTRO =        -0.24438493
  eigenvalues    EBANDS =     -2138.16442163
  atomic energy  EATOM  =     41659.78587232
  Solvation  Ediel_sol  =         0.00000000
  ---------------------------------------------------
  free energy    TOTEN  =      -189.19394081 eV

  energy without entropy =     -188.94955588  energy(sigma->0) =     -189.07174834


--------------------------------------------------------------------------------------------------------




----------------------------------------- Iteration    1(  16)  ---------------------------------------


    POTLOK:  cpu time    0.0418: real time    0.0421
    SETDIJ:  cpu time    0.0052: real time    0.0054
    EDDIAG:  cpu time    1.2283: real time    1.2323
  RMM-DIIS:  cpu time    3.4374: real time    3.4497
    ORTHCH:  cpu time    0.2860: real time    0.3051
       DOS:  cpu time    0.0016: real time    0.0017
    CHARGE:  cpu time    0.2449: real time    0.2698
    MIXING:  cpu time    0.0030: real time    0.0031
    --------------------------------------------
      LOOP:  cpu time    5.2490: real time    5.3130

 eigenvalue-minimisations  :  3679
 total energy-change (2. order) : 0.2193324E+00  (-0.3390836E-01)
 number of electron     503.9998357 magnetization 
 augmentation part      197.3994024 magnetization 

 DIPCOR: dipole corrections for dipol
 direction  3 min pos     1,
 dipolmoment           0.000000      0.000000     -0.070039 electrons x Angstroem
 Tr[quadrupol]    -10233.686208

 energy correction for charged system         0.000000 eV
 dipol+quadrupol energy correction           -0.000173 eV
 added-field ion interaction          0.033257 eV  (added to PSCEN)


 Broyden mixing:
  rms(total) = 0.49569E+00    rms(broyden)= 0.49561E+00
  rms(prec ) = 0.55714E+00
  weight for this iteration     100.00

 eigenvalues of (default mixing * dielectric matrix)
  average eigenvalue GAMMA=   0.6907
  2.1443  1.2969  1.2969  0.5577  0.4941  0.4941  0.3298  0.3298  0.2580  0.2234
  0.1728

 Free energy of the ion-electron system (eV)
  ---------------------------------------------------
  alpha Z        PSCENC =       805.90244855
  Ewald energy   TEWEN  =    199938.43648929
  -Hartree energ DENC   =   -242039.24100017
  -exchange      EXHF   =         0.00000000
  -V(xc)+E(xc)   XCENC  =      -344.26704300
  PAW double counting   =     49276.26756899   -47359.05534746
  entropy T*S    EENTRO =        -0.25070263
  eigenvalues    EBANDS =     -2126.55289431
  atomic energy  EATOM  =     41659.78587232
  Solvation  Ediel_sol  =         0.00000000
  ---------------------------------------------------
  free energy    TOTEN  =      -188.97460844 eV

  energy without entropy =     -188.72390580  energy(sigma->0) =     -188.84925712


--------------------------------------------------------------------------------------------------------




----------------------------------------- Iteration    1(  17)  ---------------------------------------


    POTLOK:  cpu time    0.0413: real time    0.0429
    SETDIJ:  cpu time    0.0052: real time    0.0054
    EDDIAG:  cpu time    1.2164: real time    1.2494
  RMM-DIIS:  cpu time    3.4245: real time    3.4349
    ORTHCH:  cpu time    0.2937: real time    0.2944
       DOS:  cpu time    0.0015: real time    0.0015
    CHARGE:  cpu time    0.2349: real time    0.2354
    MIXING:  cpu time    0.0033: real time    0.0033
    --------------------------------------------
      LOOP:  cpu time    5.2215: real time    5.2708

 eigenvalue-minimisations  :  3681
 total energy-change (2. order) : 0.1053280E+00  (-0.2534793E-01)
 number of electron     503.9998359 magnetization 
 augmentation part      197.2963394 magnetization 

 DIPCOR: dipole corrections for dipol
 direction  3 min pos     1,
 dipolmoment           0.000000      0.000000     -0.096406 electrons x Angstroem
 Tr[quadrupol]    -10234.019517

 energy correction for charged system         0.000000 eV
 dipol+quadrupol energy correction           -0.000328 eV
 added-field ion interaction          0.045777 eV  (added to PSCEN)


 Broyden mixing:
  rms(total) = 0.35713E+00    rms(broyden)= 0.35708E+00
  rms(prec ) = 0.42389E+00
  weight for this iteration     100.00

 eigenvalues of (default mixing * dielectric matrix)
  average eigenvalue GAMMA=   0.7157
  2.1253  1.5706  1.5706  0.5978  0.5978  0.3964  0.3964  0.4031  0.2714  0.2714
  0.2175  0.1704

 Free energy of the ion-electron system (eV)
  ---------------------------------------------------
  alpha Z        PSCENC =       805.91481383
  Ewald energy   TEWEN  =    199938.43648929
  -Hartree energ DENC   =   -242057.28497269
  -exchange      EXHF   =         0.00000000
  -V(xc)+E(xc)   XCENC  =      -344.02886435
  PAW double counting   =     49290.30297245   -47371.28671735
  entropy T*S    EENTRO =        -0.25129914
  eigenvalues    EBANDS =     -2110.45757474
  atomic energy  EATOM  =     41659.78587232
  Solvation  Ediel_sol  =         0.00000000
  ---------------------------------------------------
  free energy    TOTEN  =      -188.86928039 eV

  energy without entropy =     -188.61798125  energy(sigma->0) =     -188.74363082


--------------------------------------------------------------------------------------------------------




----------------------------------------- Iteration    1(  18)  ---------------------------------------


    POTLOK:  cpu time    0.0419: real time    0.0421
    SETDIJ:  cpu time    0.0054: real time    0.0054
    EDDIAG:  cpu time    1.2170: real time    1.2217
  RMM-DIIS:  cpu time    3.4338: real time    3.4424
    ORTHCH:  cpu time    0.2932: real time    0.2940
       DOS:  cpu time    0.0015: real time    0.0015
    CHARGE:  cpu time    0.2349: real time    0.2354
    MIXING:  cpu time    0.0033: real time    0.0033
    --------------------------------------------
      LOOP:  cpu time    5.2317: real time    5.2494

 eigenvalue-minimisations  :  3679
 total energy-change (2. order) : 0.1261499E+00  (-0.1262727E-01)
 number of electron     503.9998360 magnetization 
 augmentation part      197.1922802 magnetization 

 DIPCOR: dipole corrections for dipol
 direction  3 min pos     1,
 dipolmoment           0.000000      0.000000     -0.111510 electrons x Angstroem
 Tr[quadrupol]    -10234.342833

 energy correction for charged system         0.000000 eV
 dipol+quadrupol energy correction           -0.000438 eV
 added-field ion interaction          0.052949 eV  (added to PSCEN)


 Broyden mixing:
  rms(total) = 0.21049E+00    rms(broyden)= 0.21044E+00
  rms(prec ) = 0.25141E+00
  weight for this iteration     100.00

 eigenvalues of (default mixing * dielectric matrix)
  average eigenvalue GAMMA=   0.7089
  2.0874  1.6638  1.6638  0.6420  0.6420  0.4737  0.4124  0.4124  0.2903  0.2903
  0.2475  0.2202  0.1705

 Free energy of the ion-electron system (eV)
  ---------------------------------------------------
  alpha Z        PSCENC =       805.92187508
  Ewald energy   TEWEN  =    199938.43648929
  -Hartree energ DENC   =   -242073.68096061
  -exchange      EXHF   =         0.00000000
  -V(xc)+E(xc)   XCENC  =      -343.83861653
  PAW double counting   =     49313.88633551   -47393.47808860
  entropy T*S    EENTRO =        -0.25689711
  eigenvalues    EBANDS =     -2095.51913987
  atomic energy  EATOM  =     41659.78587232
  Solvation  Ediel_sol  =         0.00000000
  ---------------------------------------------------
  free energy    TOTEN  =      -188.74313052 eV

  energy without entropy =     -188.48623341  energy(sigma->0) =     -188.61468196


--------------------------------------------------------------------------------------------------------




----------------------------------------- Iteration    1(  19)  ---------------------------------------


    POTLOK:  cpu time    0.0412: real time    0.0413
    SETDIJ:  cpu time    0.0056: real time    0.0056
    EDDIAG:  cpu time    1.2330: real time    1.2361
  RMM-DIIS:  cpu time    3.4190: real time    3.4403
    ORTHCH:  cpu time    0.2927: real time    0.2934
       DOS:  cpu time    0.0015: real time    0.0015
    CHARGE:  cpu time    0.2383: real time    0.2389
    MIXING:  cpu time    0.0035: real time    0.0035
    --------------------------------------------
      LOOP:  cpu time    5.2355: real time    5.2631

 eigenvalue-minimisations  :  3679
 total energy-change (2. order) : 0.5542854E-01  (-0.7015570E-02)
 number of electron     503.9998360 magnetization 
 augmentation part      197.1166407 magnetization 

 DIPCOR: dipole corrections for dipol
 direction  3 min pos     1,
 dipolmoment           0.000000      0.000000     -0.077471 electrons x Angstroem
 Tr[quadrupol]    -10234.509440

 energy correction for charged system         0.000000 eV
 dipol+quadrupol energy correction           -0.000211 eV
 added-field ion interaction          0.036786 eV  (added to PSCEN)


 Broyden mixing:
  rms(total) = 0.11381E+00    rms(broyden)= 0.11376E+00
  rms(prec ) = 0.13048E+00
  weight for this iteration     100.00

 eigenvalues of (default mixing * dielectric matrix)
  average eigenvalue GAMMA=   0.7017
  2.1963  1.6493  1.6493  0.6843  0.6843  0.5555  0.4371  0.4371  0.3134  0.3134
  0.2700  0.2466  0.2175  0.1702

 Free energy of the ion-electron system (eV)
  ---------------------------------------------------
  alpha Z        PSCENC =       805.90593899
  Ewald energy   TEWEN  =    199938.43648929
  -Hartree energ DENC   =   -242082.48339481
  -exchange      EXHF   =         0.00000000
  -V(xc)+E(xc)   XCENC  =      -343.72735450
  PAW double counting   =     49328.32163879   -47407.20909879
  entropy T*S    EENTRO =        -0.26357039
  eigenvalues    EBANDS =     -2087.45422287
  atomic energy  EATOM  =     41659.78587232
  Solvation  Ediel_sol  =         0.00000000
  ---------------------------------------------------
  free energy    TOTEN  =      -188.68770198 eV

  energy without entropy =     -188.42413159  energy(sigma->0) =     -188.55591678


--------------------------------------------------------------------------------------------------------




----------------------------------------- Iteration    1(  20)  ---------------------------------------


    POTLOK:  cpu time    0.0413: real time    0.0414
    SETDIJ:  cpu time    0.0055: real time    0.0055
    EDDIAG:  cpu time    1.2267: real time    1.2297
  RMM-DIIS:  cpu time    3.4112: real time    3.4200
    ORTHCH:  cpu time    0.2923: real time    0.2936
       DOS:  cpu time    0.0014: real time    0.0014
    CHARGE:  cpu time    0.2403: real time    0.2409
    MIXING:  cpu time    0.0037: real time    0.0037
    --------------------------------------------
      LOOP:  cpu time    5.2231: real time    5.2385

 eigenvalue-minimisations  :  3681
 total energy-change (2. order) : 0.1032769E-01  (-0.1935044E-02)
 number of electron     503.9998360 magnetization 
 augmentation part      197.0935085 magnetization 

 DIPCOR: dipole corrections for dipol
 direction  3 min pos     1,
 dipolmoment           0.000000      0.000000     -0.058286 electrons x Angstroem
 Tr[quadrupol]    -10234.601809

 energy correction for charged system         0.000000 eV
 dipol+quadrupol energy correction           -0.000120 eV
 added-field ion interaction          0.027676 eV  (added to PSCEN)


 Broyden mixing:
  rms(total) = 0.74208E-01    rms(broyden)= 0.74182E-01
  rms(prec ) = 0.82737E-01
  weight for this iteration     100.00

 eigenvalues of (default mixing * dielectric matrix)
  average eigenvalue GAMMA=   0.6922
  2.2708  1.6349  1.6349  0.7439  0.7439  0.4742  0.4742  0.5127  0.3599  0.3599
  0.2775  0.2775  0.2182  0.2294  0.1703

 Free energy of the ion-electron system (eV)
  ---------------------------------------------------
  alpha Z        PSCENC =       805.89692065
  Ewald energy   TEWEN  =    199938.43648929
  -Hartree energ DENC   =   -242086.49948693
  -exchange      EXHF   =         0.00000000
  -V(xc)+E(xc)   XCENC  =      -343.70117520
  PAW double counting   =     49337.10692826   -47415.89495226
  entropy T*S    EENTRO =        -0.26333710
  eigenvalues    EBANDS =     -2083.54463332
  atomic energy  EATOM  =     41659.78587232
  Solvation  Ediel_sol  =         0.00000000
  ---------------------------------------------------
  free energy    TOTEN  =      -188.67737428 eV

  energy without entropy =     -188.41403718  energy(sigma->0) =     -188.54570573


--------------------------------------------------------------------------------------------------------




----------------------------------------- Iteration    1(  21)  ---------------------------------------


    POTLOK:  cpu time    0.0416: real time    0.0417
    SETDIJ:  cpu time    0.0054: real time    0.0054
    EDDIAG:  cpu time    1.2279: real time    1.2320
  RMM-DIIS:  cpu time    3.3795: real time    3.3902
    ORTHCH:  cpu time    0.2947: real time    0.2954
       DOS:  cpu time    0.0015: real time    0.0015
    CHARGE:  cpu time    0.2354: real time    0.2360
    MIXING:  cpu time    0.0039: real time    0.0039
    --------------------------------------------
      LOOP:  cpu time    5.1908: real time    5.2102

 eigenvalue-minimisations  :  3680
 total energy-change (2. order) : 0.3332693E-02  (-0.5237105E-03)
 number of electron     503.9998360 magnetization 
 augmentation part      197.0814669 magnetization 

 DIPCOR: dipole corrections for dipol
 direction  3 min pos     1,
 dipolmoment           0.000000      0.000000     -0.049817 electrons x Angstroem
 Tr[quadrupol]    -10234.684509

 energy correction for charged system         0.000000 eV
 dipol+quadrupol energy correction           -0.000087 eV
 added-field ion interaction          0.023655 eV  (added to PSCEN)


 Broyden mixing:
  rms(total) = 0.54325E-01    rms(broyden)= 0.54318E-01
  rms(prec ) = 0.60470E-01
  weight for this iteration     100.00

 eigenvalues of (default mixing * dielectric matrix)
  average eigenvalue GAMMA=   0.6948
  2.3090  1.6102  1.6102  0.8611  0.8611  0.5852  0.5852  0.4157  0.4157  0.4118
  0.2912  0.2912  0.1703  0.2549  0.2160  0.2274

 Free energy of the ion-electron system (eV)
  ---------------------------------------------------
  alpha Z        PSCENC =       805.89293168
  Ewald energy   TEWEN  =    199938.43648929
  -Hartree energ DENC   =   -242089.92277086
  -exchange      EXHF   =         0.00000000
  -V(xc)+E(xc)   XCENC  =      -343.68661646
  PAW double counting   =     49343.35122395   -47422.10020815
  entropy T*S    EENTRO =        -0.26546870
  eigenvalues    EBANDS =     -2080.16549465
  atomic energy  EATOM  =     41659.78587232
  Solvation  Ediel_sol  =         0.00000000
  ---------------------------------------------------
  free energy    TOTEN  =      -188.67404159 eV

  energy without entropy =     -188.40857289  energy(sigma->0) =     -188.54130724


--------------------------------------------------------------------------------------------------------




----------------------------------------- Iteration    1(  22)  ---------------------------------------


    POTLOK:  cpu time    0.0414: real time    0.0423
    SETDIJ:  cpu time    0.0055: real time    0.0056
    EDDIAG:  cpu time    1.2202: real time    1.2253
  RMM-DIIS:  cpu time    3.3722: real time    3.3807
    ORTHCH:  cpu time    0.2939: real time    0.2947
       DOS:  cpu time    0.0015: real time    0.0015
    CHARGE:  cpu time    0.2354: real time    0.2360
    MIXING:  cpu time    0.0041: real time    0.0041
    --------------------------------------------
      LOOP:  cpu time    5.1750: real time    5.1937

 eigenvalue-minimisations  :  3679
 total energy-change (2. order) : 0.2056705E-02  (-0.2224257E-03)
 number of electron     503.9998361 magnetization 
 augmentation part      197.0638557 magnetization 

 DIPCOR: dipole corrections for dipol
 direction  3 min pos     1,
 dipolmoment           0.000000      0.000000     -0.051881 electrons x Angstroem
 Tr[quadrupol]    -10234.777720

 energy correction for charged system         0.000000 eV
 dipol+quadrupol energy correction           -0.000095 eV
 added-field ion interaction          0.024635 eV  (added to PSCEN)


 Broyden mixing:
  rms(total) = 0.41458E-01    rms(broyden)= 0.41454E-01
  rms(prec ) = 0.47068E-01
  weight for this iteration     100.00

 eigenvalues of (default mixing * dielectric matrix)
  average eigenvalue GAMMA=   0.7366
  2.3889  1.8322  1.8322  0.9622  0.9622  0.6605  0.6605  0.6125  0.4255  0.4255
  0.3119  0.3119  0.2647  0.2647  0.1703  0.2168  0.2190

 Free energy of the ion-electron system (eV)
  ---------------------------------------------------
  alpha Z        PSCENC =       805.89390420
  Ewald energy   TEWEN  =    199938.43648929
  -Hartree energ DENC   =   -242093.87822269
  -exchange      EXHF   =         0.00000000
  -V(xc)+E(xc)   XCENC  =      -343.66306595
  PAW double counting   =     49348.46843063   -47427.14064451
  entropy T*S    EENTRO =        -0.26444060
  eigenvalues    EBANDS =     -2076.31030757
  atomic energy  EATOM  =     41659.78587232
  Solvation  Ediel_sol  =         0.00000000
  ---------------------------------------------------
  free energy    TOTEN  =      -188.67198488 eV

  energy without entropy =     -188.40754428  energy(sigma->0) =     -188.53976458


--------------------------------------------------------------------------------------------------------




----------------------------------------- Iteration    1(  23)  ---------------------------------------


    POTLOK:  cpu time    0.0424: real time    0.0426
    SETDIJ:  cpu time    0.0058: real time    0.0058
    EDDIAG:  cpu time    1.2288: real time    1.2329
  RMM-DIIS:  cpu time    3.3977: real time    3.4062
    ORTHCH:  cpu time    0.2927: real time    0.2934
       DOS:  cpu time    0.0015: real time    0.0015
    CHARGE:  cpu time    0.2376: real time    0.2381
    MIXING:  cpu time    0.0042: real time    0.0042
    --------------------------------------------
      LOOP:  cpu time    5.2113: real time    5.2286

 eigenvalue-minimisations  :  3678
 total energy-change (2. order) : 0.1062662E-02  (-0.2863663E-03)
 number of electron     503.9998361 magnetization 
 augmentation part      197.0511965 magnetization 

 DIPCOR: dipole corrections for dipol
 direction  3 min pos     1,
 dipolmoment           0.000000      0.000000     -0.048433 electrons x Angstroem
 Tr[quadrupol]    -10234.936610

 energy correction for charged system         0.000000 eV
 dipol+quadrupol energy correction           -0.000083 eV
[...]
    262      -0.2653      0.00000
    263      -0.2302      0.00000
    264       0.0987      0.00000
    265       0.1725      0.00000
    266       0.3173      0.00000
    267       0.4069      0.00000
    268       0.4964      0.00000
    269       0.6158      0.00000
    270       0.7754      0.00000
    271       1.0739      0.00000
    272       1.2977      0.00000
    273       1.5613      0.00000
    274       1.6426      0.00000
    275       1.7146      0.00000
    276       1.8485      0.00000
    277       2.1557      0.00000
    278       2.1993      0.00000
    279       2.2741      0.00000
    280       2.3655      0.00000
    281       2.4914      0.00000
    282       2.5931      0.00000
    283       2.7061      0.00000
    284       2.9973      0.00000
    285       3.1444      0.00000
    286       3.1974      0.00000
    287       3.4935      0.00000
    288       3.6012      0.00000
    289       3.7177      0.00000
    290       3.9432      0.00000
    291       4.1267      0.00000
    292       4.1803      0.00000
    293       4.4343      0.00000
    294       4.4951      0.00000
    295       4.5989      0.00000
    296       4.6213      0.00000
    297       4.6677      0.00000
    298       4.7693      0.00000
    299       4.8318      0.00000
    300       4.8722      0.00000
    301       4.9583      0.00000
    302       5.0553      0.00000
    303       5.0813      0.00000
    304       5.1148      0.00000
    305       5.1434      0.00000
    306       5.2363      0.00000


--------------------------------------------------------------------------------------------------------


 soft charge-density along one line, spin component           1
         0         1         2         3         4         5         6         7         8         9
 total charge-density along one line
 
 pseudopotential strength for first ion, spin component:           1
 -8.067   0.003  -0.002  -0.002   0.000  -8.213   0.003  -0.002
  0.003  -7.993   0.001   0.000  -0.002   0.003  -8.141   0.001
 -0.002   0.001  -7.987  -0.001  -0.004  -0.002   0.001  -8.135
 -0.002   0.000  -0.001  -7.989   0.004  -0.002   0.000  -0.001
  0.000  -0.002  -0.004   0.004  -8.065   0.000  -0.002  -0.004
 -8.213   0.003  -0.002  -0.002   0.000  -8.343   0.003  -0.001
  0.003  -8.141   0.001   0.000  -0.002   0.003  -8.272   0.001
 -0.002   0.001  -8.135  -0.001  -0.004  -0.001   0.001  -8.267
 -0.002   0.000  -0.001  -8.137   0.004  -0.002   0.000  -0.001
  0.000  -0.002  -0.004   0.004  -8.211   0.000  -0.002  -0.004
  0.000   0.000  -0.025  -0.001  -0.001   0.000   0.000  -0.025
  0.000   0.000  -0.037  -0.002  -0.002   0.000   0.000  -0.037
 -0.001   0.002  -0.000   0.000  -0.000  -0.001   0.002  -0.000
  0.000   0.000   0.005  -0.001   0.000   0.000   0.000   0.004
  0.000   0.000   0.001   0.003  -0.001   0.000   0.000   0.001
 -0.001   0.002  -0.000   0.000  -0.001  -0.001   0.002  -0.000
  0.000   0.000   0.005  -0.001   0.000   0.000   0.000   0.005
  0.000   0.000   0.001   0.002  -0.002   0.000   0.000   0.001
 total augmentation occupancy for first ion, spin component:           1
  4.608   0.007  -0.083   0.039  -0.000  -2.778   0.005   0.070  -0.067   0.003  -0.025  -0.011  -0.032  -0.010   0.027  -0.000
  0.007   4.009  -0.011  -0.049   0.039   0.005  -1.741   0.017   0.038  -0.059  -0.001  -0.009   0.116  -0.007  -0.002  -0.005
 -0.083  -0.011   4.358  -0.137   0.086   0.071   0.017  -2.250   0.093  -0.101   1.116  -0.167  -0.005   0.205  -0.020   0.000
  0.039  -0.049  -0.137   3.951   0.014  -0.066   0.038   0.092  -1.689   0.020   0.074  -0.034  -0.002  -0.025   0.145   0.000
 -0.000   0.039   0.086   0.014   4.404   0.003  -0.060  -0.101   0.021  -2.549   0.107  -0.059   0.023   0.004   0.035  -0.001
 -2.778   0.005   0.071  -0.066   0.003   2.833  -0.013  -0.061   0.086  -0.005   0.026   0.005   0.027   0.006  -0.023  -0.000
  0.005  -1.741   0.017   0.038  -0.060  -0.013   1.448  -0.021  -0.028   0.074   0.003   0.007  -0.105   0.005   0.000   0.005
  0.070   0.017  -2.250   0.092  -0.101  -0.061  -0.021   2.083  -0.057   0.112  -1.046   0.191   0.004  -0.209   0.013  -0.000
 -0.067   0.038   0.093  -1.689   0.021   0.086  -0.028  -0.057   1.399  -0.047  -0.066   0.031  -0.000   0.017  -0.135  -0.000
  0.003  -0.059  -0.101   0.020  -2.549  -0.005   0.074   0.112  -0.047   2.587  -0.100   0.055  -0.020  -0.008  -0.031   0.001
 -0.025  -0.001   1.116   0.074   0.107   0.026   0.003  -1.046  -0.066  -0.100   2.426  -0.531   0.000  -0.100  -0.011   0.000
 -0.011  -0.009  -0.167  -0.034  -0.059   0.005   0.007   0.191   0.031   0.055  -0.531   0.164  -0.001   0.049   0.008   0.000
 -0.032   0.116  -0.005  -0.002   0.023   0.027  -0.105   0.004  -0.000  -0.020   0.000  -0.001   0.190   0.001   0.003  -0.006
 -0.010  -0.007   0.205  -0.025   0.004   0.006   0.005  -0.209   0.017  -0.008  -0.100   0.049   0.001   0.084  -0.003   0.000
  0.027  -0.002  -0.020   0.145   0.035  -0.023   0.000   0.013  -0.135  -0.031  -0.011   0.008   0.003  -0.003   0.184  -0.000
 -0.000  -0.005   0.000   0.000  -0.001  -0.000   0.005  -0.000  -0.000   0.001   0.000   0.000  -0.006   0.000  -0.000   0.000
  0.000   0.001  -0.001   0.001   0.000  -0.000  -0.000   0.006  -0.001   0.000   0.006  -0.002   0.000  -0.003   0.000  -0.000
 -0.001   0.000   0.002  -0.004  -0.003   0.001  -0.000  -0.002   0.005   0.002   0.001  -0.000  -0.000   0.000  -0.006   0.000


------------------------ aborting loop because EDIFF is reached ----------------------------------------


    CHARGE:  cpu time    0.2385: real time    0.2394
    FORLOC:  cpu time    0.0164: real time    0.0165
    FORNL :  cpu time    1.3152: real time    1.3191
    FORCOR:  cpu time    0.0577: real time    0.0590
    FORHAR:  cpu time    0.0249: real time    0.0250
    MIXING:  cpu time    0.0030: real time    0.0030
    OFIELD:  cpu time    0.0000: real time    0.0000

 VOLUME and BASIS-vectors are now :
 -----------------------------------------------------------------------------
  energy-cutoff  :      400.00
  volume of cell :     2567.68
      direct lattice vectors                 reciprocal lattice vectors
    11.002581515  0.000000000  0.000000000     0.090887761 -0.052474073  0.000000000
     5.501290758  9.528515099  0.000000000     0.000000000  0.104948147  0.000000000
     0.000000000  0.000000000 24.491785094     0.000000000  0.000000000  0.040830017

  length of vectors
    11.002581515 11.002581515 24.491785094     0.104948147  0.104948147  0.040830017


 FORCES acting on ions
    electron-ion (+dipol)            ewald-force                    non-local-force                 convergence-correction
 -----------------------------------------------------------------------------------------------
   -.187E+02 -.545E-01 -.225E+04   0.187E+02 0.173E-01 0.225E+04   0.839E-02 0.417E-01 -.127E+00   -.429E-03 0.957E-02 -.174E-03
   0.104E+02 0.182E+02 0.230E+04   -.100E+02 -.194E+02 -.230E+04   -.345E+00 0.110E+01 -.372E+00   -.270E-02 0.516E-02 0.334E-02
   -.101E+01 0.134E+02 -.225E+04   0.622E+00 -.140E+02 0.225E+04   0.389E+00 0.540E+00 0.232E+00   0.899E-03 -.989E-03 -.392E-02
   0.429E+00 -.517E+01 -.251E+02   -.828E+00 0.486E+01 0.234E+02   0.399E+00 0.315E+00 0.169E+01   -.520E-02 -.746E-03 -.809E-02
   -.317E+01 -.124E+02 0.227E+04   0.348E+01 0.128E+02 -.227E+04   -.304E+00 -.380E+00 -.515E+00   -.719E-03 0.892E-03 0.182E-01
   0.302E+01 -.132E+02 0.226E+04   -.294E+01 0.143E+02 -.226E+04   -.787E-01 -.113E+01 -.204E+00   -.918E-03 -.611E-02 -.135E-01
   0.417E+01 0.651E+01 -.821E+00   -.439E+01 -.620E+01 0.248E+00   0.212E+00 -.303E+00 0.591E+00   0.271E-02 -.131E-02 -.751E-02
   0.109E+02 -.639E+01 0.231E+04   -.109E+02 0.707E+01 -.231E+04   0.113E-01 -.665E+00 0.131E-01   -.206E-02 -.870E-03 0.329E-02
   0.213E+01 0.824E+01 -.224E+04   -.250E+01 -.858E+01 0.224E+04   0.368E+00 0.343E+00 0.147E+00   0.164E-02 0.807E-04 -.169E-01
   0.190E+02 0.403E+01 -.222E+04   -.196E+02 -.389E+01 0.222E+04   0.595E+00 -.141E+00 0.110E+00   -.321E-02 -.736E-02 0.904E-02
   0.631E+01 -.540E+01 0.381E+02   -.589E+01 0.555E+01 -.380E+02   -.427E+00 -.153E+00 -.612E-01   0.743E-02 0.742E-02 -.533E-02
   -.245E+02 0.470E+01 -.226E+04   0.258E+02 -.492E+01 0.226E+04   -.125E+01 0.227E+00 -.231E+00   0.226E-02 -.243E-02 0.365E-02
   0.108E+02 0.270E+00 -.475E+01   -.102E+02 -.470E+00 0.431E+01   -.672E+00 0.207E+00 0.439E+00   0.580E-02 -.197E-02 -.485E-02
   -.245E+02 -.234E+01 -.226E+04   0.258E+02 0.212E+01 0.226E+04   -.133E+01 0.195E+00 0.515E-01   0.171E-02 0.400E-02 0.184E-02
   0.189E+02 -.304E+01 -.225E+04   -.190E+02 0.286E+01 0.225E+04   0.183E+00 0.185E+00 -.720E-01   -.104E-02 0.638E-02 0.149E-02
   -.504E+01 0.686E-01 0.231E+04   0.448E+01 -.341E+00 -.231E+04   0.545E+00 0.271E+00 0.689E-02   -.205E-02 0.418E-02 0.211E-02
   -.560E+01 0.343E+01 0.223E+02   0.554E+01 -.297E+01 -.222E+02   0.673E-01 -.465E+00 -.937E-01   -.314E-02 -.702E-02 -.601E-02
   0.440E+01 -.780E+01 -.226E+04   -.465E+01 0.872E+01 0.226E+04   0.242E+00 -.916E+00 -.110E+00   0.970E-02 -.511E-02 0.339E-02
   -.117E+02 0.263E+01 0.228E+04   0.118E+02 -.238E+01 -.228E+04   -.146E+00 -.232E+00 0.198E-01   0.426E-02 -.229E-02 -.975E-02
   -.221E+01 0.850E+01 0.226E+04   0.247E+01 -.931E+01 -.226E+04   -.255E+00 0.820E+00 0.264E+00   0.437E-02 -.441E-02 -.126E-01
   0.191E+02 -.608E+01 -.225E+04   -.193E+02 0.579E+01 0.225E+04   0.291E+00 0.284E+00 -.466E-01   -.438E-02 0.149E-02 0.265E-02
   -.111E+02 -.554E+01 0.305E+02   0.110E+02 0.552E+01 -.310E+02   0.409E-01 0.274E-01 0.475E+00   -.535E-02 0.203E-02 0.196E-02
   -.109E+02 0.742E+01 0.239E+02   0.984E+01 -.723E+01 -.244E+02   0.107E+01 -.199E+00 0.544E+00   0.306E-02 0.259E-02 0.282E-02
   0.543E+01 -.109E+02 -.226E+04   -.592E+01 0.112E+02 0.226E+04   0.496E+00 -.301E+00 -.800E-01   0.519E-02 0.646E-03 0.294E-02
   0.822E+01 0.499E+01 0.600E+02   -.742E+01 -.483E+01 -.596E+02   -.807E+00 -.168E+00 -.389E+00   0.985E-03 -.564E-02 0.772E-02
   -.349E+01 0.635E+01 0.344E+01   0.357E+01 -.618E+01 -.388E+01   -.794E-01 -.158E+00 0.431E+00   -.112E-01 -.407E-02 -.311E-03
   0.418E+01 -.316E+01 0.797E+02   -.418E+01 0.339E+01 -.788E+02   -.638E-02 -.232E+00 -.914E+00   0.127E-02 0.851E-02 0.129E-01
   0.407E+01 -.169E+02 -.194E+04   -.453E+01 0.171E+02 0.194E+04   0.461E+00 -.223E+00 0.157E+01   0.572E-02 0.787E-02 0.253E-02
   -.408E+00 0.788E+01 0.199E+04   0.200E+00 -.798E+01 -.199E+04   0.208E+00 0.102E+00 -.165E+01   0.114E-02 -.854E-03 -.549E-02
   0.390E+01 -.362E+01 0.234E+02   -.349E+01 0.301E+01 -.233E+02   -.420E+00 0.599E+00 -.442E-01   0.140E-02 0.731E-02 0.226E-02
   -.955E+01 0.122E+02 0.201E+04   0.942E+01 -.123E+02 -.201E+04   0.135E+00 0.122E+00 -.152E+01   -.507E-02 0.178E-02 0.942E-02
   -.245E+02 -.176E+01 -.192E+04   0.251E+02 0.185E+01 0.191E+04   -.612E+00 -.102E+00 0.189E+01   0.501E-02 0.712E-02 0.248E-02
   -.952E+00 -.116E+02 -.192E+04   0.120E+01 0.116E+02 0.192E+04   -.254E+00 -.186E-01 0.172E+01   -.965E-03 0.715E-04 -.490E-03
   -.111E+01 -.961E+01 0.197E+04   0.105E+01 0.999E+01 -.197E+04   0.570E-01 -.383E+00 -.152E+01   0.185E-02 -.479E-02 -.853E-02
   0.143E+01 0.181E+02 -.192E+04   -.165E+01 -.182E+02 0.192E+04   0.225E+00 0.179E+00 0.180E+01   -.127E-04 -.583E-02 0.171E-02
   -.917E+00 -.250E+01 0.234E+01   0.945E+00 0.213E+01 -.274E+01   -.171E-01 0.390E+00 0.404E+00   -.330E-02 -.300E-02 -.270E-02
   0.809E+00 -.210E+02 0.197E+04   -.109E+01 0.213E+02 -.196E+04   0.285E+00 -.371E+00 -.205E+01   -.415E-02 -.283E-02 0.190E-02
   -.855E+01 0.267E+01 0.541E+02   0.788E+01 -.231E+01 -.536E+02   0.686E+00 -.357E+00 -.477E+00   -.558E-02 -.374E-02 0.103E-01
   0.197E+00 -.835E+01 -.347E+02   -.385E+00 0.796E+01 0.338E+02   0.184E+00 0.389E+00 0.956E+00   0.306E-02 0.270E-02 -.520E-03
   0.138E+02 0.168E+02 0.197E+04   -.142E+02 -.170E+02 -.197E+04   0.421E+00 0.262E+00 -.161E+01   -.810E-03 0.140E-03 -.151E-02
   -.341E+01 0.910E+01 -.196E+04   0.369E+01 -.924E+01 0.195E+04   -.273E+00 0.149E+00 0.168E+01   -.553E-02 -.467E-02 -.559E-02
   0.191E+01 -.498E+01 -.103E+02   -.135E+01 0.494E+01 0.994E+01   -.556E+00 0.364E-01 0.386E+00   -.206E-02 -.464E-02 -.126E-01
   -.112E+01 -.341E+01 0.199E+04   0.120E+01 0.321E+01 -.198E+04   -.805E-01 0.208E+00 -.192E+01   -.210E-02 -.298E-02 -.141E-01
   -.280E+01 -.191E+02 0.199E+04   0.314E+01 0.190E+02 -.198E+04   -.347E+00 0.992E-01 -.173E+01   0.149E-02 -.243E-02 0.218E-02
   -.132E+02 0.149E+02 0.196E+04   0.134E+02 -.151E+02 -.196E+04   -.244E+00 0.271E+00 -.178E+01   0.286E-02 -.259E-02 -.122E-01
   -.402E+01 0.109E+02 0.400E+01   0.341E+01 -.104E+02 -.439E+01   0.614E+00 -.431E+00 0.407E+00   0.786E-02 -.991E-03 -.388E-02
   0.142E+02 0.369E+01 0.198E+04   -.141E+02 -.377E+01 -.198E+04   -.901E-01 0.819E-01 -.175E+01   -.466E-02 0.456E-02 -.909E-02
   0.247E+02 -.415E+00 -.192E+04   -.252E+02 0.652E+00 0.192E+04   0.492E+00 -.238E+00 0.173E+01   -.608E-02 0.566E-02 0.801E-02
 -----------------------------------------------------------------------------------------------
   -.935E-01 0.141E+00 0.171E+01   -.274E-12 -.604E-12 0.182E-11   0.833E-01 -.122E+00 -.171E+01   -.101E-02 0.479E-03 -.476E-01
 
 
 POSITION                                       TOTAL-FORCE (eV/Angst)
 -----------------------------------------------------------------------------------
      6.89997      7.13545     14.82193        -0.013408      0.013758     -0.005084
      9.63540      5.51879      9.67525         0.002444     -0.008696      0.003766
      6.86361      2.35311     14.77356         0.000058      0.006814     -0.002390
      6.86177      3.96248     12.27012        -0.004040     -0.003976      0.000224
     11.01173      7.95138      9.70147         0.007327     -0.001423     -0.006337
      9.62965      0.83738      9.72229        -0.002401      0.004637      0.003583
      6.87287      8.74569     12.24515         0.004068      0.000993      0.011305
      8.25899      7.95536      9.64086        -0.005836      0.013212      0.007031
      5.49473      4.74464     14.79853         0.000646      0.001432      0.009788
      8.22177     -0.01194     14.73912        -0.011796     -0.008479     -0.000566
      8.26288      6.35879     12.21118        -0.002671      0.000829      0.010244
      2.79652     -0.01612     14.80360        -0.012864     -0.003132     -0.008940
      2.77133      1.59304     12.25537         0.001766      0.005896      0.003801
      8.30166      4.74957     14.78599        -0.003914     -0.014787      0.005889
      4.10413      7.13767     14.81809         0.009562      0.005861     -0.002929
     13.75064      7.93855      9.64235        -0.009023      0.001992      0.011641
     15.11074      8.75590     12.23105         0.002787     -0.009750      0.009455
     -0.00478      0.01323     14.84884         0.003795     -0.008739     -0.014401
      2.77268      3.18318      9.73211         0.001729      0.009114     -0.007502
      5.50911      7.92647      9.70731         0.004840      0.000489     -0.004979
      2.72561      4.75512     14.78148        -0.004266     -0.013481     -0.002375
     13.74388      6.36132     12.21514        -0.001089      0.006188      0.004834
     12.34954      3.97258     12.22148         0.010395     -0.000022      0.010035
      1.35942      2.38657     14.79742         0.008495      0.002012      0.000091
      9.64049      8.74256     12.17908        -0.008570     -0.011789      0.005524
      8.24082      1.58712     12.25154        -0.005335      0.001982     -0.003440
     10.98722      6.36513     12.15987        -0.003365      0.009108     -0.014700
     10.99684      4.77406     14.57276         0.004497     -0.000481     -0.001935
     11.00897      3.17485      9.85626         0.001993     -0.006894      0.001355
      9.61577      3.96695     12.22676        -0.005897     -0.005131     -0.000877
     12.39173      5.54796      9.81086         0.003967     -0.000790     -0.006708
      9.65356      7.14009     14.54247         0.003905     -0.002317     -0.000483
      9.62829      2.37228     14.58353        -0.007742      0.007528     -0.005157
      1.38704      0.81105      9.86523        -0.000681     -0.002926      0.013203
      5.49540     -0.02021     14.54907         0.004682     -0.010191      0.010702
      5.51349      1.58409     12.25188         0.008276      0.012881      0.000542
      6.86583      0.82041      9.89676        -0.003174     -0.001337     -0.001072
     12.35458      8.74615     12.19144         0.011535     -0.001917     -0.000352
      5.49213      6.35958     12.29112        -0.000634      0.001452     -0.014396
      6.86603      5.54603      9.89190         0.005771      0.005375     -0.014207
      4.12781      2.36330     14.63082        -0.001948     -0.000485     -0.011014
      4.12693      3.97706     12.26945         0.004691     -0.007080      0.010707
      5.52317      3.17625      9.89722        -0.000672      0.003040      0.009145
      4.14863      0.81194      9.86688        -0.000436     -0.000171     -0.001763
      4.14641      5.54680      9.89625        -0.000473      0.003342      0.006474
     10.97322      1.59958     12.24584         0.010137     -0.001590      0.005806
      8.24711      3.17994      9.89340        -0.004385      0.003253     -0.007285
     12.34985      7.14615     14.54275        -0.002746      0.004397     -0.016250
 -----------------------------------------------------------------------------------
    total drift:                               -0.011262      0.018648     -0.043584


--------------------------------------------------------------------------------------------------------



  FREE ENERGIE OF THE ION-ELECTRON SYSTEM (eV)
  ---------------------------------------------------
  free  energy   TOTEN  =      -192.47225761 eV

  energy  without entropy=     -192.21649733  energy(sigma->0) =     -192.34437747
 
 d Force = 0.2124653E-03[ 0.818E-04, 0.343E-03]  d Energy = 0.2282204E-03-0.158E-04
 d Force =-0.9098031E+01[-0.908E+01,-0.911E+01]  d Ewald  =-0.9098032E+01 0.183E-05


--------------------------------------------------------------------------------------------------------


    POTLOK:  cpu time    0.0486: real time    0.0488


--------------------------------------------------------------------------------------------------------


 stress matrix after NEB project (eV)
      0.00000      0.00000      0.00000
      0.00000      0.00000      0.00000
      0.00000      0.00000      0.00000
  FORCES: max atom, RMS     0.019872    0.012009
  FORCE total and by dimension    0.083198    0.016250
  Stress total and by dimension    0.000000    0.000000


--------------------------------------------------------------------------------------------------------


  
 reached required accuracy - stopping structural energy minimisation
     LOOP+:  cpu time   52.3089: real time   52.5776
    4ORBIT:  cpu time    0.0000: real time    0.0000

 total amount of memory used by VASP on root node    84353. kBytes
========================================================================

   base      :      30000. kBytes
   nonlr-proj:       4285. kBytes
   fftplans  :       4447. kBytes
   grid      :       6721. kBytes
   one-center:        124. kBytes
   wavefun   :      38776. kBytes
 
  
  
 General timing and accounting informations for this job:
 ========================================================
  
                  Total CPU time used (sec):     1968.803
                            User time (sec):     1873.192
                          System time (sec):       95.611
                         Elapsed time (sec):     1981.311
  
                   Maximum memory used (kb):     1020904.
                   Average memory used (kb):           0.
  
                          Minor page faults:       991012
                          Major page faults:            0
                 Voluntary context switches:        12019
