unknown system                          
           1
    11.002582    0.000000    0.000000
     5.501291    9.528515    0.000000
     0.000000    0.000000   24.491785
   Au   Pd
  24  24
Direct configuration=     1
   0.25000000  0.75000000  0.59169983
   0.58333333  0.58333333  0.40830017
   0.50000000  0.25000000  0.59169983
   0.41666667  0.41666667  0.50000000
   0.58333333  0.83333333  0.40830017
   0.83333333  0.08333333  0.40830017
   0.16666667  0.91666667  0.50000000
   0.33333333  0.83333333  0.40830017
   0.25000000  0.50000000  0.59169983
   0.75000000  0.00000000  0.59169983
   0.41666667  0.66666667  0.50000000
   0.25000000  0.00000000  0.59169983
   0.16666667  0.16666667  0.50000000
   0.50000000  0.50000000  0.59169983
   0.00000000  0.75000000  0.59169983
   0.83333333  0.83333333  0.40830017
   0.91666667  0.91666667  0.50000000
   0.00000000  0.00000000  0.59169983
   0.08333333  0.33333333  0.40830017
   0.08333333  0.83333333  0.40830017
   0.00000000  0.50000000  0.59169983
   0.91666667  0.66666667  0.50000000
   0.91666667  0.41666667  0.50000000
   0.00000000  0.25000000  0.59169983
   0.41666667  0.91666667  0.50000000
   0.66666667  0.16666667  0.50000000
   0.66666667  0.66666667  0.50000000
   0.75000000  0.50000000  0.59169983
   0.83333333  0.33333333  0.40830017
   0.66666667  0.41666667  0.50000000
   0.83333333  0.58333333  0.40830017
   0.50000000  0.75000000  0.59169983
   0.75000000  0.25000000  0.59169983
   0.08333333  0.08333333  0.40830017
   0.50000000  0.00000000  0.59169983
   0.41666667  0.16666667  0.50000000
   0.58333333  0.08333333  0.40830017
   0.66666667  0.91666667  0.50000000
   0.16666667  0.66666667  0.50000000
   0.33333333  0.58333333  0.40830017
   0.25000000  0.25000000  0.59169983
   0.16666667  0.41666667  0.50000000
   0.33333333  0.33333333  0.40830017
   0.33333333  0.08333333  0.40830017
   0.08333333  0.58333333  0.40830017
   0.91666667  0.16666667  0.50000000
   0.58333333  0.33333333  0.40830017
   0.75000000  0.75000000  0.59169983
Direct configuration=     2
   0.25058318  0.74975989  0.59398429
   0.58464376  0.58155467  0.40640061
   0.50026954  0.24864417  0.59351378
   0.41663151  0.41562796  0.49880670
   0.58324955  0.83411346  0.40671435
   0.83222586  0.08554140  0.40643419
   0.16645395  0.91746038  0.49952093
   0.33296096  0.83428480  0.40607744
   0.24948315  0.49945474  0.59364687
   0.74856397  0.00035042  0.59355839
   0.41780910  0.66646884  0.49997977
   0.25210953 -0.00026841  0.59389033
   0.16850277  0.16637249  0.49956201
   0.50222288  0.49968140  0.59385848
  -0.00030127  0.74967098  0.59397090
   0.83279953  0.83276380  0.40614099
   0.91559507  0.91767693  0.49995431
  -0.00119270  0.00147387  0.59397856
   0.08352938  0.33361619  0.40624272
   0.08432590  0.83203859  0.40607076
  -0.00023184  0.49972703  0.59387987
   0.91620696  0.66623250  0.49964180
   0.91428280  0.41739292  0.49963358
  -0.00108895  0.25058736  0.59390466
   0.41804689  0.91707707  0.50022108
   0.66629446  0.16718489  0.49968107
   0.66655736  0.66700128  0.50052334
   0.74921090  0.50049109  0.59262450
   0.83295240  0.33323818  0.40735505
   0.66800491  0.41544162  0.49998394
   0.83355279  0.58292286  0.40715773
   0.50117330  0.75013242  0.59259911
   0.75007112  0.25038877  0.59251874
   0.08308776  0.08392592  0.40706776
   0.50011403 -0.00041624  0.59237128
   0.41709094  0.16588651  0.49968334
   0.58204943  0.08431730  0.40768390
   0.66478771  0.91753614  0.50024198
   0.16695998  0.66550311  0.49944489
   0.33292853  0.58246266  0.40714960
   0.25083937  0.24950862  0.59269932
   0.16787131  0.41629445  0.49966103
   0.33393754  0.33305111  0.40747981
   0.33384498  0.08359859  0.40738833
   0.08412793  0.58272151  0.40729500
   0.91499647  0.16790275  0.49974055
   0.58332813  0.33315106  0.40744994
   0.74853719  0.75045194  0.59261240
Direct configuration=     3
   0.25233273  0.74903957  0.60083767
   0.58857506  0.57621867  0.40070191
   0.50107818  0.24457669  0.59895562
   0.41652602  0.41251183  0.49522681
   0.58299821  0.83645384  0.40195690
   0.82890343  0.09216561  0.40083627
   0.16581579  0.91984153  0.49808373
   0.33184383  0.83713922  0.39940926
   0.24793261  0.49781895  0.59948797
   0.74425589  0.00140170  0.59913407
   0.42123642  0.66587536  0.49991907
   0.25843810 -0.00107363  0.60046181
   0.17401109  0.16548995  0.49824804
   0.50889153  0.49872559  0.60033444
  -0.00120506  0.74868393  0.60078410
   0.83119811  0.83105522  0.39966344
   0.91238028  0.92070771  0.49981723
  -0.00477080  0.00589548  0.60081476
   0.08411753  0.33446476  0.40007037
   0.08730360  0.82815436  0.39938255
  -0.00092737  0.49890813  0.60042000
   0.91482783  0.66493000  0.49856721
   0.90713119  0.41957167  0.49853431
  -0.00435581  0.25234942  0.60051917
   0.42218755  0.91830827  0.50088432
   0.66517782  0.16873957  0.49872429
   0.66622945  0.66800512  0.50209337
   0.74684360  0.50196437  0.59539852
   0.83180958  0.33295272  0.40451971
   0.67201965  0.41176648  0.49993577
   0.83421115  0.58169142  0.40373040
   0.50469319  0.75052967  0.59529695
   0.75028448  0.25155506  0.59497546
   0.08235103  0.08570369  0.40337052
   0.50045612 -0.00166496  0.59438562
   0.41836375  0.16354606  0.49873337
   0.57819772  0.08726920  0.40583509
   0.65915084  0.92014454  0.50096792
   0.16783991  0.66201244  0.49777957
   0.33171413  0.57985064  0.40369790
   0.25335748  0.24803446  0.59569779
   0.17148522  0.41517781  0.49864411
   0.33575015  0.33220443  0.40501874
   0.33537991  0.08439438  0.40465282
   0.08651171  0.58088604  0.40427949
   0.90998587  0.17161100  0.49896220
   0.58331252  0.33260424  0.40489924
   0.74414876  0.75180777  0.59535013
Direct configuration=     4
   0.25230265  0.74930615  0.60210396
   0.58715100  0.57785640  0.39924850
   0.49991512  0.24731510  0.60016549
   0.41796685  0.41352096  0.49684838
   0.58276978  0.83501162  0.40061820
   0.83002205  0.08930130  0.39899061
   0.16590516  0.91913688  0.49851882
   0.33333244  0.83588761  0.39774454
   0.25034518  0.49740167  0.60066470
   0.74609990  0.00007029  0.60063545
   0.42047604  0.66573182  0.49976145
   0.25647616 -0.00085872  0.60206221
   0.17062549  0.16744517  0.49878011
   0.50645817  0.49845998  0.60175036
  -0.00218467  0.74989591  0.60211619
   0.83190659  0.83245861  0.39805093
   0.91275161  0.91955098  0.49970766
  -0.00331395  0.00436474  0.60229966
   0.08397517  0.33444040  0.39841413
   0.08532333  0.82969298  0.39764968
  -0.00204977  0.49863852  0.60176040
   0.91525000  0.66608791  0.49895545
   0.91193986  0.41765157  0.49888609
  -0.00264574  0.25224033  0.60185934
   0.42059734  0.91680286  0.50042391
   0.66511489  0.16771761  0.49920131
   0.66504157  0.66874656  0.50127884
   0.74860187  0.50205317  0.59649953
   0.83307400  0.33295561  0.40305531
   0.66728426  0.41389115  0.50006816
   0.83410019  0.58162836  0.40245199
   0.50365249  0.75041352  0.59639065
   0.74934101  0.25104914  0.59568307
   0.08197316  0.08610413  0.40232002
   0.50063169 -0.00153141  0.59560198
   0.41921332  0.16470305  0.49924428
   0.57931017  0.08694292  0.40492977
   0.66230717  0.91947102  0.50065364
   0.16715546  0.66440569  0.49852346
   0.33308355  0.58044566  0.40230471
   0.25222843  0.24806640  0.59627936
   0.16890859  0.41502433  0.49910448
   0.33512915  0.33143274  0.40310411
   0.33485395  0.08483542  0.40329754
   0.08585834  0.58050738  0.40307116
   0.91286882  0.16924032  0.49929476
   0.58290401  0.33314897  0.40336073
   0.74596813  0.75133720  0.59626491
Direct configuration=     5
   0.25228733  0.74944194  0.60274894
   0.58642566  0.57869057  0.39850820
   0.49932271  0.24870992  0.60078174
   0.41870074  0.41403495  0.49767433
   0.58265343  0.83427703  0.39993634
   0.83059182  0.08784237  0.39805053
   0.16595068  0.91877797  0.49874043
   0.33409066  0.83525010  0.39689661
   0.25157403  0.49718913  0.60126406
   0.74703915 -0.00060787  0.60140019
   0.42008875  0.66565871  0.49968117
   0.25547685 -0.00074926  0.60287737
   0.16890103  0.16844107  0.49905112
   0.50521874  0.49832470  0.60247157
  -0.00268363  0.75051323  0.60279469
   0.83226746  0.83317342  0.39722959
   0.91294075  0.91896180  0.49965186
  -0.00257190  0.00358505  0.60305600
   0.08390266  0.33442799  0.39757052
   0.08431467  0.83047668  0.39676704
  -0.00262147  0.49850120  0.60244314
   0.91546504  0.66667769  0.49915320
   0.91438916  0.41667356  0.49906527
  -0.00177471  0.25218476  0.60254196
   0.41978737  0.91603608  0.50018941
   0.66508284  0.16719707  0.49944429
   0.66443653  0.66912421  0.50086395
   0.74949745  0.50209840  0.59706032
   0.83371803  0.33295708  0.40230942
   0.66487228  0.41497336  0.50013559
   0.83404367  0.58159625  0.40180083
   0.50312240  0.75035436  0.59694773
   0.74886046  0.25079145  0.59604349
   0.08178069  0.08630810  0.40178495
   0.50072112 -0.00146339  0.59622154
   0.41964606  0.16529236  0.49950451
   0.57987681  0.08677673  0.40446865
   0.66391486  0.91912796  0.50049357
   0.16680683  0.66562469  0.49890236
   0.33378106  0.58074874  0.40159509
   0.25165334  0.24808267  0.59657559
   0.16759618  0.41494616  0.49933897
   0.33481284  0.33103969  0.40212889
   0.33458605  0.08506006  0.40260723
   0.08552554  0.58031451  0.40245570
   0.91433725  0.16803281  0.49946415
   0.58269593  0.33342643  0.40257709
   0.74689482  0.75109751  0.59673086
Direct configuration=     6
   0.25181178  0.74966917  0.60298284
   0.58625259  0.57902548  0.39809216
   0.49973952  0.24831014  0.60115837
   0.41656020  0.41519510  0.49812871
   0.58342319  0.83400763  0.39962838
   0.83097164  0.08730504  0.39757905
   0.16630068  0.91800239  0.49890851
   0.33323904  0.83507746  0.39649394
   0.25045612  0.49831973  0.60143320
   0.74718485 -0.00003792  0.60185676
   0.41836999  0.66653285  0.49962003
   0.25430169 -0.00066656  0.60321107
   0.16900414  0.16722199  0.49924093
   0.50465960  0.49899557  0.60287649
  -0.00156408  0.74960054  0.60309356
   0.83213270  0.83317619  0.39678902
   0.91407982  0.91864040  0.49959503
  -0.00175517  0.00299051  0.60338484
   0.08386653  0.33413249  0.39701718
   0.08445504  0.83106100  0.39639025
  -0.00176807  0.49941383  0.60275729
   0.91574337  0.66683352  0.49928944
   0.91368737  0.41686761  0.49918537
  -0.00146442  0.25109974  0.60287647
   0.41833479  0.91690367  0.49991437
   0.66627982  0.16645434  0.49967277
   0.66533124  0.66819562  0.50031567
   0.74913988  0.50175128  0.59705455
   0.83370230  0.33295935  0.40218062
   0.66618085  0.41517416  0.50008635
   0.83399963  0.58206715  0.40164210
   0.50274848  0.74997935  0.59711657
   0.74947033  0.25027935  0.59598604
   0.08234776  0.08556208  0.40167483
   0.50066834 -0.00130837  0.59641776
   0.41906037  0.16550324  0.49974985
   0.58060886  0.08602745  0.40421153
   0.66446675  0.91852405  0.50023105
   0.16674079  0.66626007  0.49922120
   0.33354314  0.58120560  0.40151681
   0.25126495  0.24826727  0.59657528
   0.16753772  0.41608210  0.49949548
   0.33464882  0.33177668  0.40185891
   0.33419174  0.08495987  0.40249260
   0.08548664  0.58068056  0.40240905
   0.91424770  0.16781465  0.49962170
   0.58283767  0.33331333  0.40220638
   0.74747330  0.75079326  0.59675963
Direct configuration=     7
   0.25168523  0.74972964  0.60304509
   0.58620653  0.57911461  0.39798145
   0.49985045  0.24820375  0.60125861
   0.41599054  0.41550384  0.49824963
   0.58362805  0.83393594  0.39954643
   0.83107272  0.08716204  0.39745358
   0.16639383  0.91779599  0.49895324
   0.33301240  0.83503151  0.39638678
   0.25015862  0.49862062  0.60147821
   0.74722363  0.00011376  0.60197826
   0.41791258  0.66676548  0.49960375
   0.25398894 -0.00064455  0.60329987
   0.16903158  0.16689756  0.49929145
   0.50451080  0.49917411  0.60298425
  -0.00126614  0.74935765  0.60317310
   0.83209684  0.83317693  0.39667177
   0.91438296  0.91855487  0.49957990
  -0.00153782  0.00283228  0.60347236
   0.08385692  0.33405385  0.39686991
   0.08449239  0.83121651  0.39628998
  -0.00154096  0.49965671  0.60284089
   0.91581744  0.66687499  0.49932570
   0.91350060  0.41691926  0.49921733
  -0.00138185  0.25081098  0.60296549
   0.41794822  0.91713455  0.49984118
   0.66659837  0.16625669  0.49973358
   0.66556935  0.66794850  0.50016976
   0.74904472  0.50165890  0.59705301
   0.83369811  0.33295995  0.40214634
   0.66652909  0.41522760  0.50007325
   0.83398791  0.58219247  0.40159986
   0.50264897  0.74987955  0.59716150
   0.74963264  0.25014307  0.59597075
   0.08249868  0.08536355  0.40164553
   0.50065429 -0.00126712  0.59646998
   0.41890450  0.16555936  0.49981514
   0.58080367  0.08582804  0.40414310
   0.66461363  0.91836333  0.50016118
   0.16672322  0.66642916  0.49930605
   0.33347982  0.58132719  0.40149598
   0.25116159  0.24831639  0.59657520
   0.16752216  0.41638440  0.49953714
   0.33460516  0.33197282  0.40178706
   0.33408681  0.08493321  0.40246209
   0.08547629  0.58077797  0.40239664
   0.91422386  0.16775660  0.49966363
   0.58287540  0.33328323  0.40210772
   0.74762725  0.75071229  0.59676728
Direct configuration=     8
   0.25161359  0.74980026  0.60324185
   0.58613878  0.57912776  0.39778549
   0.49980935  0.24821376  0.60143776
   0.41597722  0.41537845  0.49834430
   0.58341788  0.83411631  0.39941993
   0.83113417  0.08734702  0.39726154
   0.16620909  0.91769026  0.49901740
   0.33288938  0.83505778  0.39614570
   0.25012262  0.49864345  0.60160578
   0.74760062 -0.00001668  0.60217760
   0.41799739  0.66677008  0.49957163
   0.25416198 -0.00079497  0.60349442
   0.16882443  0.16695212  0.49933303
   0.50453027  0.49919575  0.60313283
  -0.00117944  0.74966629  0.60337734
   0.83241069  0.83288160  0.39642457
   0.91495237  0.91838661  0.49956870
  -0.00153833  0.00238329  0.60366872
   0.08385945  0.33395311  0.39667701
   0.08449679  0.83129690  0.39608188
  -0.00133311  0.49942346  0.60295802
   0.91603165  0.66683975  0.49933374
   0.91369629  0.41678026  0.49928558
  -0.00160457  0.25111179  0.60313317
   0.41803830  0.91734025  0.49971614
   0.66659244  0.16649239  0.49972997
   0.66530751  0.66797023  0.49986002
   0.74909512  0.50129441  0.59692545
   0.83363493  0.33281747  0.40222230
   0.66656909  0.41535330  0.49993477
   0.83431752  0.58215412  0.40160938
   0.50259690  0.74996518  0.59696058
   0.74996953  0.25008860  0.59584591
   0.08274186  0.08505016  0.40174034
   0.50052446 -0.00153872  0.59638567
   0.41873094  0.16554247  0.49985899
   0.58074841  0.08579223  0.40416646
   0.66436476  0.91812186  0.50005282
   0.16626123  0.66677906  0.49938147
   0.33323385  0.58143026  0.40165735
   0.25104219  0.24847681  0.59649460
   0.16717677  0.41668866  0.49951205
   0.33474473  0.33239312  0.40188514
   0.33410999  0.08476251  0.40255220
   0.08545827  0.58120676  0.40257170
   0.91410973  0.16773905  0.49964878
   0.58288316  0.33314574  0.40224230
   0.74752978  0.75072967  0.59656763
Direct configuration=     9
   0.25153989  0.74987292  0.60344429
   0.58606908  0.57914130  0.39758388
   0.49976706  0.24822405  0.60162208
   0.41596352  0.41524945  0.49844169
   0.58320165  0.83430187  0.39928978
   0.83119739  0.08753732  0.39706395
   0.16601902  0.91758149  0.49908341
   0.33276281  0.83508480  0.39589766
   0.25008559  0.49866694  0.60173704
   0.74798848 -0.00015087  0.60238268
   0.41808463  0.66677481  0.49953857
   0.25434000 -0.00094973  0.60369458
   0.16861130  0.16700826  0.49937582
   0.50455030  0.49921802  0.60328570
  -0.00109024  0.74998383  0.60358748
   0.83273359  0.83257776  0.39617024
   0.91553820  0.91821350  0.49955718
  -0.00153885  0.00192135  0.60387074
   0.08386206  0.33384946  0.39647854
   0.08450130  0.83137962  0.39586777
  -0.00111927  0.49918348  0.60307852
   0.91625204  0.66680349  0.49934201
   0.91389762  0.41663725  0.49935580
  -0.00183372  0.25142127  0.60330568
   0.41813098  0.91755188  0.49958750
   0.66658634  0.16673490  0.49972626
   0.66503813  0.66799258  0.49954135
   0.74914697  0.50091942  0.59679421
   0.83356993  0.33267089  0.40230044
   0.66661023  0.41548263  0.49979231
   0.83465664  0.58211466  0.40161918
   0.50254333  0.75005328  0.59675386
   0.75031614  0.25003257  0.59571746
   0.08299205  0.08472772  0.40183788
   0.50039088 -0.00181816  0.59629893
   0.41855238  0.16552510  0.49990410
   0.58069154  0.08575539  0.40419050
   0.66410871  0.91787343  0.49994134
   0.16578591  0.66713904  0.49945906
   0.33298079  0.58153630  0.40182337
   0.25091934  0.24864185  0.59641167
   0.16682142  0.41700168  0.49948624
   0.33488833  0.33282553  0.40198605
   0.33413385  0.08458689  0.40264491
   0.08543972  0.58164792  0.40275181
   0.91399230  0.16772101  0.49963350
   0.58289114  0.33300429  0.40238076
   0.74742950  0.75074756  0.59636221
Direct configuration=    10
   0.25180266  0.74973397  0.60368718
   0.58603805  0.57911412  0.39734877
   0.49991941  0.24802746  0.60179165
   0.41604930  0.41520433  0.49861283
   0.58310406  0.83434594  0.39909128
   0.83119822  0.08751238  0.39687701
   0.16623137  0.91759673  0.49917482
   0.33282821  0.83498972  0.39559569
   0.25021381  0.49861264  0.60187908
   0.74785431 -0.00018699  0.60252854
   0.41809880  0.66674741  0.49949500
   0.25429448 -0.00087605  0.60390224
   0.16836732  0.16715283  0.49943362
   0.50466068  0.49909454  0.60341015
  -0.00119422  0.74993578  0.60385592
   0.83285547  0.83255970  0.39589278
   0.91513176  0.91839108  0.49949928
  -0.00151252  0.00206668  0.60414020
   0.08403202  0.33380855  0.39632558
   0.08445160  0.83152055  0.39561202
  -0.00126432  0.49925448  0.60319358
   0.91596820  0.66698568  0.49939534
   0.91407397  0.41662078  0.49939840
  -0.00175209  0.25126849  0.60350748
   0.41801996  0.91758798  0.49944081
   0.66655677  0.16667153  0.49972837
   0.66494408  0.66794430  0.49917991
   0.74910822  0.50093351  0.59659423
   0.83363143  0.33264455  0.40240696
   0.66637602  0.41567997  0.49962762
   0.83489320  0.58196249  0.40166100
   0.50260402  0.74996670  0.59643409
   0.75044072  0.24996180  0.59556429
   0.08307174  0.08464993  0.40196897
   0.50046123 -0.00194926  0.59615905
   0.41845194  0.16567505  0.49994013
   0.58069325  0.08575907  0.40427083
   0.66431340  0.91779820  0.49983042
   0.16578922  0.66712958  0.49959501
   0.33288880  0.58170291  0.40206924
   0.25093753  0.24860120  0.59631763
   0.16662142  0.41699638  0.49944167
   0.33487960  0.33299645  0.40216155
   0.33410437  0.08469218  0.40277195
   0.08549342  0.58177034  0.40293826
   0.91393623  0.16772948  0.49961310
   0.58284826  0.33296954  0.40259023
   0.74748462  0.75064534  0.59604625
Direct configuration=    11
   0.25223285  0.74950649  0.60408483
   0.58598725  0.57906962  0.39696385
   0.50016883  0.24770561  0.60206927
   0.41618972  0.41513046  0.49889302
   0.58294429  0.83441809  0.39876631
   0.83119957  0.08747155  0.39657096
   0.16657902  0.91762167  0.49932447
   0.33293527  0.83483405  0.39510132
   0.25042373  0.49852375  0.60211163
   0.74763464 -0.00024611  0.60276733
   0.41812199  0.66670256  0.49942365
   0.25421995 -0.00075544  0.60424220
   0.16796788  0.16738950  0.49952824
   0.50484139  0.49889239  0.60361388
  -0.00136445  0.74985712  0.60429540
   0.83305503  0.83253014  0.39543853
   0.91446637  0.91868180  0.49940449
  -0.00146942  0.00230460  0.60458134
   0.08431028  0.33374157  0.39607517
   0.08437022  0.83175129  0.39519331
  -0.00150179  0.49937072  0.60338194
   0.91550351  0.66728395  0.49948266
   0.91436268  0.41659382  0.49946814
  -0.00161845  0.25101835  0.60383786
   0.41783820  0.91764708  0.49920065
   0.66650836  0.16656778  0.49973181
   0.66479011  0.66786525  0.49858817
   0.74904478  0.50095658  0.59626684
   0.83373213  0.33260142  0.40258134
   0.66599258  0.41600304  0.49935800
   0.83528048  0.58171336  0.40172948
   0.50270340  0.74982496  0.59591057
   0.75064469  0.24984595  0.59531352
   0.08320221  0.08452256  0.40218359
   0.50057639 -0.00216389  0.59593004
   0.41828751  0.16592055  0.49999911
   0.58069605  0.08576510  0.40440235
   0.66464851  0.91767505  0.49964883
   0.16579464  0.66711410  0.49981759
   0.33273822  0.58197567  0.40247177
   0.25096730  0.24853465  0.59616368
   0.16629399  0.41698770  0.49936871
   0.33486532  0.33327627  0.40244887
   0.33405611  0.08486455  0.40297992
   0.08558134  0.58197077  0.40324350
   0.91384444  0.16774334  0.49957970
   0.58277805  0.33291263  0.40293316
   0.74757486  0.75047800  0.59552898
Direct configuration=    12
   0.25243875  0.74939762  0.60427515
   0.58596294  0.57904832  0.39677962
   0.50028821  0.24755156  0.60220214
   0.41625693  0.41509510  0.49902712
   0.58286781  0.83445262  0.39861078
   0.83120021  0.08745200  0.39642448
   0.16674541  0.91763361  0.49939610
   0.33298651  0.83475954  0.39486470
   0.25052420  0.49848120  0.60222293
   0.74752951 -0.00027441  0.60288163
   0.41813309  0.66668109  0.49938950
   0.25418428 -0.00069771  0.60440492
   0.16777670  0.16750277  0.49957353
   0.50492788  0.49879563  0.60371139
  -0.00144592  0.74981947  0.60450575
   0.83315054  0.83251600  0.39522112
   0.91414789  0.91882094  0.49935912
  -0.00144880  0.00241848  0.60479248
   0.08444346  0.33370951  0.39595531
   0.08433128  0.83186172  0.39499291
  -0.00161544  0.49942635  0.60347209
   0.91528110  0.66742671  0.49952445
   0.91450086  0.41658091  0.49950152
  -0.00155449  0.25089863  0.60399598
   0.41775120  0.91767537  0.49908570
   0.66648519  0.16651812  0.49973346
   0.66471642  0.66782742  0.49830495
   0.74901441  0.50096762  0.59611014
   0.83378032  0.33258078  0.40266481
   0.66580905  0.41615767  0.49922896
   0.83546584  0.58159413  0.40176225
   0.50275096  0.74975712  0.59566000
   0.75074231  0.24979050  0.59519350
   0.08326465  0.08446160  0.40228631
   0.50063151 -0.00226661  0.59582043
   0.41820881  0.16603805  0.50002735
   0.58069738  0.08576798  0.40446530
   0.66480890  0.91761610  0.49956191
   0.16579723  0.66710669  0.49992412
   0.33266614  0.58210622  0.40266443
   0.25098155  0.24850279  0.59608999
   0.16613728  0.41698354  0.49933378
   0.33485848  0.33341020  0.40258639
   0.33403302  0.08494705  0.40307946
   0.08562342  0.58206670  0.40338960
   0.91380051  0.16774998  0.49956372
   0.58274445  0.33288540  0.40309729
   0.74761805  0.75039790  0.59528140
Direct configuration=    13
   0.25231865  0.74944774  0.60452546
   0.58613198  0.57893872  0.39643426
   0.50035462  0.24742012  0.60235261
   0.41593142  0.41535073  0.49946926
   0.58333856  0.83426925  0.39829409
   0.83115301  0.08732490  0.39627642
   0.16645346  0.91749414  0.49951984
   0.33301733  0.83476105  0.39448867
   0.25053647  0.49832530  0.60236981
   0.74752511 -0.00043107  0.60291799
   0.41766922  0.66688882  0.49930669
   0.25435931 -0.00083410  0.60459316
   0.16790419  0.16737932  0.49966949
   0.50524772  0.49843685  0.60379200
  -0.00136226  0.74975411  0.60473908
   0.83278827  0.83269275  0.39487587
   0.91427369  0.91891509  0.49931766
  -0.00134135  0.00219086  0.60511087
   0.08460180  0.33378034  0.39590753
   0.08441083  0.83194993  0.39485665
  -0.00164076  0.49937992  0.60359000
   0.91531945  0.66753360  0.49953357
   0.91410438  0.41672218  0.49953274
  -0.00137694  0.25093025  0.60420479
   0.41764681  0.91767172  0.49887609
   0.66634511  0.16628919  0.49982204
   0.66482732  0.66778164  0.49793293
   0.74898488  0.50117439  0.59581248
   0.83406561  0.33263175  0.40271654
   0.66595378  0.41612838  0.49919632
   0.83533312  0.58162411  0.40172685
   0.50278533  0.74961621  0.59525899
   0.75048330  0.24970808  0.59502874
   0.08321333  0.08469549  0.40240081
   0.50066263 -0.00215850  0.59555512
   0.41833488  0.16599840  0.50011061
   0.58080333  0.08565957  0.40455264
   0.66446613  0.91805994  0.49936438
   0.16558259  0.66738870  0.50027049
   0.33285800  0.58227967  0.40292201
   0.25108196  0.24847065  0.59608318
   0.16638094  0.41702645  0.49943942
   0.33477828  0.33318759  0.40277269
   0.33401954  0.08514602  0.40319035
   0.08554394  0.58199199  0.40352543
   0.91379882  0.16762305  0.49957893
   0.58273240  0.33306780  0.40322974
   0.74759982  0.75031694  0.59495469
Direct configuration=    14
   0.25226498  0.74947014  0.60463733
   0.58620752  0.57888973  0.39627992
   0.50038430  0.24736137  0.60241986
   0.41578595  0.41546497  0.49966685
   0.58354893  0.83418730  0.39815256
   0.83113191  0.08726810  0.39621025
   0.16632298  0.91743181  0.49957514
   0.33303110  0.83476173  0.39432063
   0.25054196  0.49825562  0.60243545
   0.74752314 -0.00050109  0.60293424
   0.41746193  0.66698166  0.49926969
   0.25443753 -0.00089505  0.60467728
   0.16796116  0.16732416  0.49971237
   0.50539066  0.49827651  0.60382802
  -0.00132487  0.74972491  0.60484335
   0.83262637  0.83277174  0.39472158
   0.91432991  0.91895717  0.49929913
  -0.00129334  0.00208913  0.60525315
   0.08467255  0.33381199  0.39588618
   0.08444638  0.83198934  0.39479576
  -0.00165208  0.49935917  0.60364270
   0.91533659  0.66758137  0.49953764
   0.91392720  0.41678531  0.49954670
  -0.00129759  0.25094438  0.60429810
   0.41760016  0.91767009  0.49878241
   0.66628252  0.16618688  0.49986162
   0.66487688  0.66776118  0.49776667
   0.74897168  0.50126680  0.59567946
   0.83419310  0.33265453  0.40273966
   0.66601846  0.41611529  0.49918174
   0.83527381  0.58163751  0.40171102
   0.50280069  0.74955324  0.59507978
   0.75036755  0.24967124  0.59495511
   0.08319040  0.08480002  0.40245198
   0.50067654 -0.00211019  0.59543655
   0.41839121  0.16598068  0.50014782
   0.58085067  0.08561112  0.40459168
   0.66431296  0.91825829  0.49927611
   0.16548667  0.66751473  0.50042529
   0.33294373  0.58235718  0.40303712
   0.25112684  0.24845628  0.59608014
   0.16648983  0.41704563  0.49948663
   0.33474245  0.33308811  0.40285595
   0.33401351  0.08523493  0.40323990
   0.08550842  0.58195860  0.40358614
   0.91379807  0.16756632  0.49958573
   0.58272702  0.33314932  0.40328893
   0.74759167  0.75028075  0.59480869
Direct configuration=    15
   0.25231036  0.74933443  0.60473627
   0.58625403  0.57894726  0.39605567
   0.50028131  0.24734911  0.60251197
   0.41577362  0.41561228  0.49993636
   0.58350944  0.83415278  0.39791414
   0.83110847  0.08739227  0.39623988
   0.16598956  0.91757516  0.49961578
   0.33314210  0.83498397  0.39416909
   0.25041398  0.49828196  0.60258379
   0.74786560 -0.00078600  0.60282751
   0.41736874  0.66709753  0.49918666
   0.25471083 -0.00110357  0.60470327
   0.16801698  0.16727146  0.49981000
   0.50530373  0.49840613  0.60382356
  -0.00130391  0.74964317  0.60489870
   0.83276387  0.83276305  0.39453831
   0.91448450  0.91879678  0.49929821
  -0.00140048  0.00208570  0.60543799
   0.08451653  0.33400462  0.39601891
   0.08444995  0.83180488  0.39492036
  -0.00151673  0.49929381  0.60366237
   0.91561625  0.66760045  0.49943741
   0.91412434  0.41665684  0.49951923
  -0.00144226  0.25094440  0.60432231
   0.41756432  0.91747512  0.49858116
   0.66614085  0.16625389  0.49993474
   0.66464565  0.66805959  0.49760323
   0.74903358  0.50126890  0.59556586
   0.83435355  0.33259072  0.40266561
   0.66587277  0.41600474  0.49922981
   0.83523956  0.58168262  0.40157887
   0.50266372  0.74955503  0.59486284
   0.75053982  0.24938940  0.59493857
   0.08319606  0.08490830  0.40249160
   0.50058100 -0.00201272  0.59524222
   0.41834827  0.16604276  0.50019275
   0.58079053  0.08577165  0.40455393
   0.66418369  0.91831258  0.49911687
   0.16525803  0.66764266  0.50070310
   0.33301145  0.58222955  0.40318261
   0.25115152  0.24839957  0.59621212
   0.16646545  0.41710853  0.49967866
   0.33497127  0.33296579  0.40297245
   0.33422749  0.08497170  0.40321023
   0.08538017  0.58211578  0.40361454
   0.91383108  0.16751280  0.49965263
   0.58270105  0.33325934  0.40336276
   0.74750829  0.75038320  0.59468511
Direct configuration=    16
   0.25233704  0.74925468  0.60479443
   0.58628136  0.57898107  0.39592386
   0.50022079  0.24734191  0.60256611
   0.41576638  0.41569886  0.50009476
   0.58348623  0.83413249  0.39777402
   0.83109470  0.08746525  0.39625728
   0.16579361  0.91765942  0.49963966
   0.33320733  0.83511459  0.39408002
   0.25033876  0.49829743  0.60267097
   0.74806687 -0.00095345  0.60276478
   0.41731398  0.66716564  0.49913787
   0.25487146 -0.00122612  0.60471855
   0.16804978  0.16724049  0.49986737
   0.50525264  0.49848232  0.60382094
  -0.00129159  0.74959513  0.60493122
   0.83284468  0.83275795  0.39443060
   0.91457536  0.91870252  0.49929766
  -0.00146344  0.00208369  0.60554662
   0.08442483  0.33411783  0.39609692
   0.08445205  0.83169647  0.39499358
  -0.00143718  0.49925539  0.60367394
   0.91578062  0.66761166  0.49937850
   0.91424021  0.41658134  0.49950309
  -0.00152728  0.25094442  0.60433654
   0.41754326  0.91736053  0.49846288
   0.66605758  0.16629328  0.49997772
   0.66450974  0.66823498  0.49750717
   0.74906996  0.50127013  0.59549910
   0.83444785  0.33255322  0.40262209
   0.66578714  0.41593977  0.49925806
   0.83521943  0.58170913  0.40150119
   0.50258322  0.74955608  0.59473534
   0.75064107  0.24922375  0.59492885
   0.08319939  0.08497194  0.40251488
   0.50052484 -0.00195543  0.59512801
   0.41832303  0.16607924  0.50021916
   0.58075518  0.08586601  0.40453174
   0.66410771  0.91834449  0.49902329
   0.16512365  0.66771784  0.50086638
   0.33305124  0.58215454  0.40326812
   0.25116603  0.24836625  0.59628969
   0.16645113  0.41714550  0.49979151
   0.33510575  0.33289390  0.40304092
   0.33435326  0.08481699  0.40319279
   0.08530479  0.58220816  0.40363123
   0.91385049  0.16748135  0.49969194
   0.58268579  0.33332400  0.40340616
   0.74745929  0.75044341  0.59461248
Direct configuration=    17
   0.25231469  0.74926594  0.60487584
   0.58628250  0.57896958  0.39574106
   0.50030511  0.24724528  0.60267902
   0.41569263  0.41579507  0.50026469