unknown system                          
           1
    11.002582    0.000000    0.000000
     5.501291    9.528515    0.000000
     0.000000    0.000000   24.491785
   Au   Pd
  24  24
Direct configuration=     1
   0.08333333  0.08333333  0.40830017
   0.83333333  0.83333333  0.40830017
   0.75000000  0.50000000  0.59169983
   0.75000000  0.25000000  0.59169983
   0.75000000  0.00000000  0.59169983
   0.66666667  0.16666667  0.50000000
   0.83333333  0.08333333  0.40830017
   0.50000000  0.50000000  0.59169983
   0.50000000  0.25000000  0.59169983
   0.58333333  0.33333333  0.40830017
   0.58333333  0.08333333  0.40830017
   0.16666667  0.91666667  0.50000000
   0.25000000  0.25000000  0.59169983
   0.33333333  0.33333333  0.40830017
   0.75000000  0.75000000  0.59169983
   0.16666667  0.16666667  0.50000000
   0.91666667  0.16666667  0.50000000
   0.33333333  0.08333333  0.40830017
   0.08333333  0.33333333  0.40830017
   0.00000000  0.75000000  0.59169983
   0.25000000  0.00000000  0.59169983
   0.91666667  0.91666667  0.50000000
   0.00000000  0.25000000  0.59169983
   0.91666667  0.41666667  0.50000000
   0.41666667  0.91666667  0.50000000
   0.50000000  0.75000000  0.59169983
   0.08333333  0.58333333  0.40830017
   0.66666667  0.41666667  0.50000000
   0.83333333  0.58333333  0.40830017
   0.66666667  0.66666667  0.50000000
   0.00000000  0.00000000  0.59169983
   0.83333333  0.33333333  0.40830017
   0.58333333  0.83333333  0.40830017
   0.41666667  0.66666667  0.50000000
   0.58333333  0.58333333  0.40830017
   0.00000000  0.50000000  0.59169983
   0.41666667  0.41666667  0.50000000
   0.08333333  0.83333333  0.40830017
   0.50000000  0.00000000  0.59169983
   0.41666667  0.16666667  0.50000000
   0.66666667  0.91666667  0.50000000
   0.33333333  0.83333333  0.40830017
   0.25000000  0.50000000  0.59169983
   0.16666667  0.66666667  0.50000000
   0.33333333  0.58333333  0.40830017
   0.16666667  0.41666667  0.50000000
   0.91666667  0.66666667  0.50000000
   0.25000000  0.75000000  0.59169983
Direct configuration=     2
   0.08341734  0.08253560  0.40570817
   0.83384892  0.83145309  0.40648963
   0.74940452  0.50119114  0.59359744
   0.75035025  0.24989110  0.59400875
   0.74965896 -0.00035836  0.59390166
   0.66483654  0.16755980  0.50003513
   0.83404918  0.08342452  0.40567163
   0.49843980  0.50166428  0.59317736
   0.49859196  0.25030974  0.59355309
   0.58295958  0.33548044  0.40642891
   0.58297261  0.08228486  0.40637679
   0.16883326  0.91344315  0.50000618
   0.25033024  0.25109585  0.59356076
   0.33255399  0.33490473  0.40672216
   0.74920055  0.75001278  0.59325932
   0.16863001  0.16660548  0.50003277
   0.91572369  0.16756883  0.49996313
   0.33474490  0.08145464  0.40636685
   0.08208382  0.33519385  0.40610843
   0.00178628  0.74859492  0.59353450
   0.25137597 -0.00181177  0.59384484
   0.91807417  0.91456931  0.50002480
   0.00007124  0.25004209  0.59430296
   0.91533202  0.41947787  0.49953019
   0.41870758  0.91514105  0.49998693
   0.49957892  0.75038689  0.59237150
   0.08355874  0.58378012  0.40760754
   0.66534161  0.41857027  0.49942241
   0.83239143  0.58384901  0.40748706
   0.66556241  0.66756346  0.49947502
   0.00042165 -0.00040559  0.59314478
   0.83261839  0.33430885  0.40706177
   0.58335102  0.83229594  0.40766189
   0.41700335  0.66655508  0.49971399
   0.58306175  0.58394154  0.40774334
   0.00060594  0.50018553  0.59270650
   0.41508574  0.41840667  0.49991785
   0.08453642  0.83191722  0.40716237
   0.50001767 -0.00063619  0.59244347
   0.41699972  0.16602680  0.50026682
   0.66506885  0.91590960  0.50002064
   0.33420342  0.83209672  0.40744529
   0.24941677  0.50060528  0.59235975
   0.16764009  0.66527945  0.49974415
   0.33300441  0.58421123  0.40766847
   0.16686583  0.41840538  0.50015676
   0.91725760  0.66557335  0.49968795
   0.25043086  0.74944442  0.59253832
Direct configuration=     3
   0.08366937  0.08014240  0.39793218
   0.83539567  0.82581237  0.40105803
   0.74761809  0.50476458  0.59929028
   0.75140101  0.24956438  0.60093549
   0.74863585 -0.00143346  0.60050713
   0.65934618  0.17023920  0.50014053
   0.83619673  0.08369810  0.39778599
   0.49375920  0.50665712  0.59760995
   0.49436783  0.25123897  0.59911287
   0.58183831  0.34192176  0.40081512
   0.58189045  0.07913944  0.40060664
   0.17533303  0.90377259  0.50002472
   0.25132097  0.25438341  0.59914353
   0.33021598  0.33961890  0.40198813
   0.74680220  0.75005112  0.59793779
   0.17452005  0.16642191  0.50013110
   0.91289475  0.17027532  0.49985251
   0.33897961  0.07581855  0.40056688
   0.07833529  0.34077540  0.39953322
   0.00714510  0.74437966  0.59903852
   0.25550388 -0.00724706  0.60027985
   0.92229667  0.90827725  0.50009921
   0.00028496  0.25016835  0.60211234
   0.91132807  0.42791150  0.49812075
   0.42483031  0.91056422  0.49994773
   0.49831567  0.75154754  0.59438652
   0.08423497  0.58512048  0.40552963
   0.66136644  0.42428108  0.49768962
   0.82956572  0.58539604  0.40504771
   0.66224965  0.67025384  0.49790007
   0.00168661 -0.00162234  0.59747963
   0.83047356  0.33723538  0.40334658
   0.58340409  0.82918377  0.40574706
   0.41801340  0.66622032  0.49885598
   0.58224700  0.58576616  0.40607283
   0.00242378  0.50074210  0.59572649
   0.41034295  0.42362667  0.49967138
   0.08814567  0.82766889  0.40374898
   0.50007068 -0.00254475  0.59467440
   0.41799888  0.16410719  0.50106729
   0.66027542  0.91363839  0.50008256
   0.33681370  0.82838689  0.40488065
   0.24766709  0.50242111  0.59433952
   0.17056035  0.66111779  0.49897661
   0.33201764  0.58684491  0.40577338
   0.16746331  0.42362153  0.50062702
   0.91903041  0.66229338  0.49875180
   0.25172344  0.74777766  0.59505378
Direct configuration=     4
   0.08497533  0.08042542  0.39641713
   0.83501508  0.82755384  0.39967651
   0.74794441  0.50355785  0.60057094
   0.74984655  0.25047938  0.60243475
   0.74939763 -0.00174260  0.60181323
   0.66064332  0.16956784  0.49995042
   0.83494138  0.08301649  0.39610019
   0.49541633  0.50475540  0.59877851
   0.49640282  0.25173076  0.60061505
   0.58172196  0.34028750  0.39922343
   0.58353815  0.07997094  0.39922978
   0.17358838  0.90844438  0.50000006
   0.24939171  0.25336926  0.60071907
   0.33119011  0.33794046  0.40079884
   0.74832836  0.74986919  0.59910045
   0.17224822  0.16648098  0.50003079
   0.91439156  0.16974648  0.49988656
   0.33640005  0.07711453  0.39909434
   0.07924725  0.33919753  0.39796347
   0.00550811  0.74586636  0.60053359
   0.25396740 -0.00539615  0.60178574
   0.91957180  0.91008354  0.50011428
   0.00160714  0.24998097  0.60363039
   0.91325318  0.42355450  0.49880959
   0.42114143  0.91254129  0.49999186
   0.49863840  0.75076679  0.59507755
   0.08405018  0.58535636  0.40449043
   0.66139319  0.42326681  0.49851633
   0.82882595  0.58552468  0.40350835
   0.66317205  0.66927532  0.49874127
   0.00176358 -0.00169443  0.59801707
   0.83149603  0.33666053  0.40235919
   0.58392461  0.82865957  0.40435955
   0.41957771  0.66461793  0.49925595
   0.58200947  0.58646052  0.40470250
   0.00133961  0.50042642  0.59648926
   0.41277692  0.42154234  0.49964902
   0.08729627  0.82844437  0.40258770
   0.49935405 -0.00180328  0.59553798
   0.41759028  0.16537113  0.50062654
   0.66368114  0.91382315  0.50007736
   0.33634011  0.82872960  0.40378365
   0.24867163  0.50213590  0.59540522
   0.16938083  0.66212886  0.49924490
   0.33229752  0.58725070  0.40467160
   0.16802130  0.42062337  0.50033080
   0.91759231  0.66575388  0.49926857
   0.25112919  0.74828333  0.59603025
Direct configuration=     5
   0.08586571  0.08061838  0.39538419
   0.83475561  0.82874114  0.39873461
   0.74816688  0.50273514  0.60144407
   0.74878674  0.25110321  0.60345692
   0.74991700 -0.00195337  0.60270370
   0.66152769  0.16911012  0.49982081
   0.83408550  0.08255179  0.39495084
   0.49654612  0.50345885  0.59957521
   0.49779024  0.25206604  0.60163921
   0.58164263  0.33917330  0.39813824
   0.58466152  0.08053784  0.39829107
   0.17239892  0.91162950  0.49998324
   0.24807637  0.25267783  0.60179324
   0.33185425  0.33679614  0.39998800
   0.74936887  0.74974515  0.59989313
   0.17069933  0.16652124  0.49996240
   0.91541206  0.16938594  0.49990978
   0.33464136  0.07799810  0.39809040
   0.07986900  0.33812177  0.39689325
   0.00439204  0.74687996  0.60155289
   0.25291986 -0.00413423  0.60281243
   0.91771405  0.91131504  0.50012456
   0.00250857  0.24985322  0.60466536
   0.91456567  0.42058399  0.49927922
   0.41862643  0.91388921  0.50002194
   0.49885844  0.75023448  0.59554868
   0.08392419  0.58551717  0.40378193
   0.66141142  0.42257531  0.49907997
   0.82832160  0.58561238  0.40245885
   0.66380093  0.66860819  0.49931479
   0.00181605 -0.00174357  0.59838349
   0.83219312  0.33626860  0.40168600
   0.58427949  0.82830218  0.40341357
   0.42064423  0.66352546  0.49952864
   0.58184753  0.58693392  0.40376824
   0.00060045  0.50021119  0.59700929
   0.41443635  0.42012129  0.49963377
   0.08671717  0.82897307  0.40179596
   0.49886546 -0.00129775  0.59612675
   0.41731170  0.16623287  0.50032604
   0.66600309  0.91394911  0.50007381
   0.33601724  0.82896325  0.40303574
   0.24935650  0.50194145  0.59613179
   0.16857665  0.66281819  0.49942781
   0.33248834  0.58752736  0.40392043
   0.16840173  0.41857928  0.50012884
   0.91661184  0.66811317  0.49962089
   0.25072405  0.74862809  0.59669599
Direct configuration=     6
   0.08452577  0.08094956  0.39487924
   0.83468742  0.82925455  0.39831036
   0.74896776  0.50181934  0.60184020
   0.75005134  0.25032862  0.60386936
   0.74989247 -0.00117126  0.60303940
   0.66350137  0.16841380  0.49974129
   0.83484421  0.08273861  0.39447067
   0.49684304  0.50325360  0.59998926
   0.49756295  0.25120834  0.60196366
   0.58226295  0.33842008  0.39773599
   0.58381393  0.08088271  0.39797782
   0.17068677  0.91283735  0.49986003
   0.24939745  0.25225590  0.60214648
   0.33215201  0.33583892  0.39975248
   0.74941838  0.74968391  0.60020294
   0.16980591  0.16687048  0.49989531
   0.91525143  0.16828816  0.49988199
   0.33531448  0.07875288  0.39774959
   0.08013324  0.33786007  0.39647457
   0.00397377  0.74721366  0.60203948
   0.25242719 -0.00371106  0.60329740
   0.91734244  0.91403905  0.50004625
   0.00108622  0.24968216  0.60522363
   0.91528887  0.42030803  0.49942886
   0.41853548  0.91512769  0.49988499
   0.49892817  0.75043466  0.59572898
   0.08367395  0.58489834  0.40367501
   0.66304948  0.42051223  0.49930802
   0.82938967  0.58485850  0.40238678
   0.66514157  0.66818190  0.49977535
   0.00106126 -0.00077041  0.59812385
   0.83249449  0.33516869  0.40171698
   0.58375315  0.82987812  0.40324433
   0.41934636  0.66435355  0.49977824
   0.58225665  0.58588841  0.40340669
   0.00030513  0.50038623  0.59696352
   0.41494010  0.41905970  0.49951723
   0.08587938  0.83031709  0.40172432
   0.49874299 -0.00051904  0.59600875
   0.41715183  0.16620669  0.50011004
   0.66541702  0.91482790  0.49999973
   0.33538727  0.82954297  0.40282410
   0.24936860  0.50118264  0.59626075
   0.16801956  0.66396751  0.49968648
   0.33269484  0.58686745  0.40367342
   0.16813895  0.41770799  0.49989746
   0.91649404  0.66687314  0.49975718
   0.25059872  0.74903054  0.59673157
Direct configuration=     7
   0.08429230  0.08100726  0.39479125
   0.83467555  0.82934400  0.39823644
   0.74910731  0.50165978  0.60190922
   0.75027168  0.25019366  0.60394122
   0.74988819 -0.00103499  0.60309789
   0.66384525  0.16829248  0.49972743
   0.83497640  0.08277116  0.39438700
   0.49689477  0.50321784  0.60006140
   0.49752334  0.25105890  0.60202019
   0.58237103  0.33828884  0.39766591
   0.58366625  0.08094280  0.39792324
   0.17038846  0.91304780  0.49983857
   0.24962762  0.25218239  0.60220803
   0.33220389  0.33567214  0.39971145
   0.74942700  0.74967324  0.60025692
   0.16965025  0.16693133  0.49988362
   0.91522345  0.16809689  0.49987715
   0.33543176  0.07888439  0.39769021
   0.08017928  0.33781448  0.39640162
   0.00390090  0.74727181  0.60212426
   0.25234135 -0.00363732  0.60338190
   0.91727769  0.91451366  0.50003261
   0.00083840  0.24965235  0.60532090
   0.91541487  0.42025995  0.49945493
   0.41851963  0.91534348  0.49986113
   0.49894032  0.75046954  0.59576040
   0.08363035  0.58479052  0.40365638
   0.66333488  0.42015277  0.49934776
   0.82957576  0.58472715  0.40237423
   0.66537515  0.66810762  0.49985559
   0.00092975 -0.00060085  0.59807861
   0.83254700  0.33497705  0.40172238
   0.58366144  0.83015270  0.40321484
   0.41912022  0.66449784  0.49982173
   0.58232793  0.58570625  0.40334370
   0.00025367  0.50041673  0.59695554
   0.41502787  0.41887474  0.49949692
   0.08573340  0.83055127  0.40171183
   0.49872165 -0.00038336  0.59598819
   0.41712397  0.16620213  0.50007241
   0.66531490  0.91498102  0.49998682
   0.33527750  0.82964397  0.40278722
   0.24937070  0.50105043  0.59628323
   0.16792250  0.66416776  0.49973155
   0.33273082  0.58675247  0.40363038
   0.16809317  0.41755618  0.49985714
   0.91647352  0.66665709  0.49978093
   0.25057688  0.74910066  0.59673777
Direct configuration=     8
   0.08419271  0.08126336  0.39450235
   0.83475331  0.82931902  0.39822485
   0.74918609  0.50165520  0.60205305
   0.75036668  0.24989196  0.60416701
   0.74973929 -0.00078084  0.60320752
   0.66377802  0.16822045  0.49968926
   0.83489086  0.08296451  0.39402859
   0.49685982  0.50310191  0.60013962
   0.49771336  0.25072938  0.60200873
   0.58271547  0.33794181  0.39758764
   0.58371448  0.08104074  0.39783876
   0.17055148  0.91297856  0.49972051
   0.24957039  0.25218096  0.60223200
   0.33215550  0.33587066  0.39967223
   0.74900228  0.75005744  0.60035605
   0.16943967  0.16695204  0.49988575
   0.91523802  0.16850438  0.49980177
   0.33524955  0.07907013  0.39758678
   0.08020955  0.33750182  0.39623682
   0.00398681  0.74732202  0.60223096
   0.25224070 -0.00350092  0.60352192
   0.91725965  0.91417081  0.49992860
   0.00089576  0.24956982  0.60562209
   0.91540831  0.42011795  0.49940890
   0.41882378  0.91546510  0.49973653
   0.49891729  0.75082676  0.59572845
   0.08362640  0.58462331  0.40384984
   0.66380350  0.41982050  0.49940163
   0.82995742  0.58446899  0.40263997
   0.66541940  0.66809639  0.49992946
   0.00077272 -0.00046956  0.59788710
   0.83262602  0.33469802  0.40194870
   0.58354751  0.83038341  0.40344430
   0.41868072  0.66495548  0.49985884
   0.58262087  0.58534903  0.40356517
   0.00068996  0.50004771  0.59682892
   0.41495913  0.41863018  0.49943135
   0.08558232  0.83061028  0.40185407
   0.49897968 -0.00047807  0.59571985
   0.41729613  0.16618930  0.49996272
   0.66487934  0.91533214  0.49992088
   0.33508824  0.83001298  0.40289744
   0.24911799  0.50097023  0.59608406
   0.16747914  0.66437414  0.49983525
   0.33260844  0.58632651  0.40373722
   0.16814797  0.41773419  0.49971811
   0.91674900  0.66666818  0.49976609
   0.25050931  0.74922164  0.59660232
Direct configuration=     9
   0.08409525  0.08151396  0.39421965
   0.83482940  0.82929458  0.39821350
   0.74926318  0.50165071  0.60219380
   0.75045964  0.24959673  0.60438795
   0.74959359 -0.00053215  0.60331478
   0.66371223  0.16814997  0.49965190
   0.83480715  0.08315371  0.39367787
   0.49682562  0.50298846  0.60021616
   0.49789929  0.25040693  0.60199751
   0.58305251  0.33760223  0.39751105
   0.58376167  0.08113658  0.39775610
   0.17071101  0.91291081  0.49960499
   0.24951439  0.25217957  0.60225546
   0.33210815  0.33606491  0.39963386
   0.74858668  0.75043340  0.60045304
   0.16923362  0.16697230  0.49988783
   0.91525227  0.16890313  0.49972801
   0.33507124  0.07925188  0.39748557
   0.08023917  0.33719587  0.39607556
   0.00407087  0.74737116  0.60233536
   0.25214220 -0.00336745  0.60365893
   0.91724199  0.91383532  0.49982682
   0.00095188  0.24948907  0.60591682
   0.91540189  0.41997899  0.49936387
   0.41912139  0.91558411  0.49961460
   0.49889476  0.75117631  0.59569718
   0.08362252  0.58445969  0.40403915
   0.66426206  0.41949537  0.49945435
   0.83033088  0.58421637  0.40290001
   0.66546270  0.66808540  0.50000174
   0.00061906 -0.00034109  0.59769969
   0.83270334  0.33442497  0.40217016
   0.58343603  0.83060917  0.40366883
   0.41825065  0.66540330  0.49989515
   0.58290752  0.58499949  0.40378188
   0.00111689  0.49968660  0.59670503
   0.41489187  0.41839087  0.49936720
   0.08543448  0.83066802  0.40199326
   0.49923217 -0.00057074  0.59545728
   0.41746459  0.16617675  0.49985539
   0.66445312  0.91567572  0.49985634
   0.33490305  0.83037407  0.40300529
   0.24887070  0.50089175  0.59588917
   0.16704530  0.66457608  0.49993673
   0.33248869  0.58590968  0.40384177
   0.16820160  0.41790839  0.49958207
   0.91701856  0.66667903  0.49975157
   0.25044319  0.74934002  0.59646977
Direct configuration=    10
   0.08411406  0.08148945  0.39377123
   0.83476429  0.82927097  0.39822813
   0.74923179  0.50176062  0.60235113
   0.75036997  0.24969211  0.60469453
   0.74977089 -0.00075971  0.60344020
   0.66392844  0.16806790  0.49961241
   0.83488252  0.08301857  0.39314441
   0.49675940  0.50296309  0.60018309
   0.49778623  0.25050704  0.60192003
   0.58312767  0.33751575  0.39744925
   0.58385815  0.08116974  0.39760594
   0.17066510  0.91322799  0.49949589
   0.24958536  0.25191474  0.60220804
   0.33212703  0.33602767  0.39954011
   0.74880847  0.75046211  0.60052415
   0.16949709  0.16693912  0.49991620
   0.91537774  0.16854692  0.49970524
   0.33488270  0.07951096  0.39734977
   0.08034606  0.33692565  0.39582952
   0.00379490  0.74750259  0.60245626
   0.25213240 -0.00326260  0.60377432
   0.91687552  0.91399183  0.49972395
   0.00102933  0.24947984  0.60635407
   0.91554680  0.42021887  0.49943921
   0.41900650  0.91578522  0.49950013
   0.49877543  0.75128692  0.59561958
   0.08357768  0.58436439  0.40425404
   0.66379556  0.41982694  0.49966468
   0.83046554  0.58415415  0.40327789
   0.66545929  0.66802348  0.50015845
   0.00064507 -0.00037560  0.59738799
   0.83284251  0.33427865  0.40236929
   0.58355147  0.83044640  0.40396540
   0.41839843  0.66519112  0.49993861
   0.58292476  0.58489313  0.40422693
   0.00111915  0.49965470  0.59648108
   0.41493698  0.41852070  0.49931986
   0.08546643  0.83061189  0.40216240
   0.49911231 -0.00045927  0.59508523
   0.41711677  0.16642758  0.49966299
   0.66464251  0.91564212  0.49976878
   0.33486196  0.83035532  0.40313899
   0.24894828  0.50078085  0.59561126
   0.16697903  0.66457838  0.50006497
   0.33247439  0.58585975  0.40408330
   0.16832190  0.41774926  0.49939724
   0.91682035  0.66681847  0.49985748
   0.25049580  0.74940426  0.59628634
Direct configuration=    11
   0.08413477  0.08146247  0.39327763
   0.83469261  0.82924499  0.39824422
   0.74919724  0.50188160  0.60252432
   0.75027128  0.24979710  0.60503200
   0.74996606 -0.00101019  0.60357826
   0.66416644  0.16797756  0.49956894
   0.83496548  0.08286981  0.39255720
   0.49668652  0.50293516  0.60014670
   0.49766177  0.25061724  0.60183475
   0.58321041  0.33742056  0.39738123
   0.58396435  0.08120624  0.39744065
   0.17061457  0.91357711  0.49937581
   0.24966349  0.25162322  0.60215584
   0.33214780  0.33598668  0.39943692
   0.74905260  0.75049371  0.60060243
   0.16978710  0.16690261  0.49994744
   0.91551585  0.16815483  0.49968017
   0.33467515  0.07979614  0.39720029
   0.08046372  0.33662821  0.39555870
   0.00349112  0.74764726  0.60258934
   0.25212161 -0.00314719  0.60390134
   0.91647214  0.91416411  0.49961072
   0.00111458  0.24946969  0.60683538
   0.91570631  0.42048291  0.49952215
   0.41888003  0.91600659  0.49937412
   0.49864408  0.75140867  0.59553417
   0.08352831  0.58425949  0.40449057
   0.66328207  0.42019191  0.49989620
   0.83061375  0.58408566  0.40369383
   0.66545553  0.66795532  0.50033094
   0.00067369 -0.00041360  0.59704488
   0.83299569  0.33411758  0.40258849
   0.58367855  0.83026723  0.40429184
   0.41856110  0.66495755  0.49998645
   0.58294374  0.58477607  0.40471682
   0.00112165  0.49961959  0.59623456
   0.41498664  0.41866361  0.49926776
   0.08550160  0.83055012  0.40234858
   0.49898038 -0.00033657  0.59467571
   0.41673390  0.16670368  0.49945120
   0.66485098  0.91560513  0.49967240
   0.33481674  0.83033469  0.40328616
   0.24903368  0.50065878  0.59530535
   0.16690608  0.66458092  0.50020614
   0.33245865  0.58580479  0.40434916
   0.16845432  0.41757410  0.49919379
   0.91660217  0.66697195  0.49997405
   0.25055370  0.74947496  0.59608442
Direct configuration=    12
   0.08414687  0.08107028  0.39279083
   0.83470176  0.82920734  0.39822318
   0.74920097  0.50187170  0.60269260
   0.75030951  0.24993162  0.60528431
   0.74984297 -0.00076387  0.60366334
   0.66400870  0.16825790  0.49952596
   0.83515951  0.08259843  0.39198718
   0.49667137  0.50310228  0.60014177
   0.49770922  0.25061511  0.60165667
   0.58317353  0.33758079  0.39739254
   0.58395324  0.08108177  0.39726295
   0.17052151  0.91372389  0.49929515
   0.24965049  0.25169127  0.60205107
   0.33227908  0.33583984  0.39923126
   0.74915472  0.75020796  0.60066857
   0.16936603  0.16716305  0.49996160
   0.91542914  0.16848928  0.49965180
   0.33496250  0.07948318  0.39701028
   0.08033864  0.33676212  0.39531577
   0.00381479  0.74745064  0.60267563
   0.25209439 -0.00327141  0.60397529
   0.91650037  0.91435263  0.49952342
   0.00077043  0.24964759  0.60727458
   0.91592986  0.41971538  0.49974024
   0.41861248  0.91591474  0.49933022
   0.49866704  0.75131952  0.59546650
   0.08349985  0.58428612  0.40459981
   0.66352832  0.41986267  0.50024756
   0.83054795  0.58406673  0.40396318
   0.66534915  0.66815132  0.50074457
   0.00078427 -0.00037710  0.59680123
   0.83305907  0.33403663  0.40276489
   0.58373142  0.83013795  0.40444575
   0.41845067  0.66513264  0.50012928
   0.58284295  0.58480942  0.40510469
   0.00103090  0.49963854  0.59606611
   0.41520189  0.41854942  0.49921245
   0.08556325  0.83046198  0.40243841
   0.49898744 -0.00028054  0.59431845
   0.41699375  0.16692740  0.49917452
   0.66500723  0.91556793  0.49964941
   0.33496305  0.83008860  0.40331873
   0.24898590  0.50068310  0.59512144
   0.16676468  0.66494805  0.50034001
   0.33249548  0.58604617  0.40456303
   0.16846034  0.41738717  0.49902689
   0.91634892  0.66728148  0.50020057
   0.25043441  0.74955130  0.59597629
Direct configuration=    13
   0.08415225  0.08089606  0.39257459
   0.83470582  0.82919062  0.39821383
   0.74920263  0.50186731  0.60276736
   0.75032649  0.24999138  0.60539639
   0.74978830 -0.00065446  0.60370114
   0.66393863  0.16838243  0.49950687
   0.83524571  0.08247788  0.39173396
   0.49666464  0.50317652  0.60013959
   0.49773030  0.25061417  0.60157756
   0.58315715  0.33765196  0.39739757
   0.58394831  0.08102648  0.39718401
   0.17048017  0.91378909  0.49925932
   0.24964472  0.25172150  0.60200452
   0.33233739  0.33577462  0.39913990
   0.74920008  0.75008102  0.60069795
   0.16917899  0.16727875  0.49996789
   0.91539062  0.16863784  0.49963919
   0.33509015  0.07934416  0.39692587
   0.08028307  0.33682160  0.39520786
   0.00395857  0.74736330  0.60271397
   0.25208230 -0.00332660  0.60400814
   0.91651291  0.91443638  0.49948464
   0.00061755  0.24972661  0.60746968
   0.91602916  0.41937443  0.49983712
   0.41849363  0.91587393  0.49931072
   0.49867724  0.75127992  0.59543644
   0.08348720  0.58429795  0.40464834
   0.66363771  0.41971641  0.50040365
   0.83051872  0.58405832  0.40408282
   0.66530189  0.66823839  0.50092832
   0.00083338 -0.00036089  0.59669300
   0.83308723  0.33400068  0.40284324
   0.58375491  0.83008052  0.40451413
   0.41840161  0.66521042  0.50019273
   0.58279817  0.58482423  0.40527699
   0.00099058  0.49964696  0.59599127
   0.41529752  0.41849870  0.49918788
   0.08559063  0.83042282  0.40247832
   0.49899057 -0.00025564  0.59415976
   0.41710918  0.16702678  0.49905162
   0.66507664  0.91555141  0.49963919
   0.33502804  0.82997928  0.40333320
   0.24896467  0.50069391  0.59503975
   0.16670186  0.66511114  0.50039948
   0.33251184  0.58615339  0.40465803
   0.16846301  0.41730413  0.49895275
   0.91623642  0.66741898  0.50030119
   0.25038141  0.74958521  0.59592826
Direct configuration=    14
   0.08443517  0.08063898  0.39218625
   0.83479103  0.82908971  0.39818223
   0.74920022  0.50178099  0.60301349
   0.75035656  0.24992704  0.60559668
   0.74985988 -0.00064796  0.60367958
   0.66419414  0.16830265  0.49940908
   0.83517649  0.08246065  0.39125963
   0.49656906  0.50326361  0.60021395
   0.49778337  0.25069719  0.60138350
   0.58331385  0.33761095  0.39746285
   0.58417395  0.08084962  0.39700115
   0.17023361  0.91411271  0.49916185
   0.24944070  0.25186073  0.60183477
   0.33229798  0.33583643  0.39888755
   0.74915067  0.75030160  0.60083362
   0.16930053  0.16710577  0.49988665
   0.91516262  0.16861599  0.49959233
   0.33506024  0.07893859  0.39679285
   0.08016425  0.33683901  0.39505257
   0.00401715  0.74740831  0.60277462
   0.25201471 -0.00323852  0.60401368
   0.91641721  0.91494013  0.49943574
   0.00066350  0.24969953  0.60785023
   0.91583178  0.41939002  0.50002316
   0.41812544  0.91617574  0.49929149
   0.49865629  0.75132876  0.59552844
   0.08355095  0.58437361  0.40470668
   0.66397180  0.41952690  0.50073731
   0.83037251  0.58402204  0.40436518
   0.66563860  0.66799796  0.50130167
   0.00073581 -0.00017021  0.59660154
   0.83305526  0.33387853  0.40289921
   0.58384877  0.82991480  0.40454334
   0.41824514  0.66533710  0.50037324
   0.58293940  0.58478615  0.40560596
   0.00108840  0.49949190  0.59596187
   0.41516247  0.41866339  0.49912432
   0.08557703  0.83029646  0.40240526
   0.49909624 -0.00033688  0.59394548
   0.41723953  0.16681116  0.49875102
   0.66497066  0.91577658  0.49964032
   0.33512186  0.82994374  0.40323559
   0.24905125  0.50058920  0.59498757
   0.16656375  0.66522632  0.50043403
   0.33247480  0.58621379  0.40478787
   0.16832179  0.41745952  0.49879199
   0.91629090  0.66727722  0.50048375
   0.25029268  0.74963247  0.59596886
Direct configuration=    15
   0.08451762  0.08056405  0.39207307
   0.83481587  0.82906030  0.39817302
   0.74919951  0.50175584  0.60308522
   0.75036532  0.24990829  0.60565505
   0.74988074 -0.00064607  0.60367329
   0.66426861  0.16827940  0.49938058
   0.83515632  0.08245563  0.39112139
   0.49654120  0.50328898  0.60023562
   0.49779884  0.25072139  0.60132694
   0.58335952  0.33759900  0.39748187
   0.58423971  0.08079807  0.39694786
   0.17016175  0.91420703  0.49913344
   0.24938125  0.25190130  0.60178530
   0.33228650  0.33585444  0.39881401
   0.74913627  0.75036588  0.60087316
   0.16933595  0.16705536  0.49986298
   0.91509618  0.16860962  0.49957868
   0.33505152  0.07882039  0.39675409
   0.08012961  0.33684409  0.39500731
   0.00403422  0.74742143  0.60279230
   0.25199502 -0.00321286  0.60401530
   0.91638931  0.91508694  0.49942149
   0.00067689  0.24969164  0.60796114
   0.91577426  0.41939457  0.50007738
   0.41801813  0.91626370  0.49928589
   0.49865019  0.75134299  0.59555525
   0.08356953  0.58439565  0.40472369
   0.66406916  0.41947167  0.50083456
   0.83032990  0.58401146  0.40444747
   0.66573673  0.66792790  0.50141048
   0.00070738 -0.00011465  0.59657489
   0.83304594  0.33384293  0.40291552
   0.58387612  0.82986651  0.40455185
   0.41819953  0.66537402  0.50042584
   0.58298055  0.58477506  0.40570183
   0.00111691  0.49944672  0.59595330
   0.41512311  0.41871138  0.49910580
   0.08557306  0.83025963  0.40238397
   0.49912703 -0.00036056  0.59388303
   0.41727752  0.16674833  0.49866341
   0.66493977  0.91584221  0.49964064
   0.33514920  0.82993338  0.40320714
   0.24907649  0.50055868  0.59497237
   0.16652350  0.66525989  0.50044411
   0.33246401  0.58623140  0.40482571
   0.16828063  0.41750481  0.49874514
   0.91630678  0.66723591  0.50053696
   0.25026682  0.74964625  0.59598069
Direct configuration=    16
   0.08445849  0.08060324  0.39179672
   0.83491694  0.82886621  0.39819288
   0.74921625  0.50177578  0.60344117
   0.75037313  0.24981296  0.60582134
   0.74998765 -0.00070107  0.60359173
   0.66418390  0.16828940  0.49923529
   0.83520673  0.08253107  0.39077308
   0.49646492  0.50327528  0.60039421
   0.49781743  0.25066607  0.60111713
   0.58340503  0.33750441  0.39757890
   0.58425763  0.08074417  0.39678238
   0.17003114  0.91424696  0.49901296
   0.24946760  0.25181466  0.60155619
   0.33226718  0.33577364  0.39858673
   0.74915782  0.75058301  0.60107101
   0.16924534  0.16718512  0.49969951
   0.91524349  0.16857910  0.49949432
   0.33502523  0.07886177  0.39663845
   0.08008779  0.33674720  0.39496266
   0.00388372  0.74758292  0.60281605
   0.25195372 -0.00302065  0.60396567
   0.91632380  0.91495529  0.49934165
   0.00087986  0.24955135  0.60823047
   0.91589107  0.41937447  0.50018479
   0.41814952  0.91617272  0.49925095
   0.49855621  0.75153600  0.59576346
   0.08357819  0.58437513  0.40471520
   0.66390938  0.41962005  0.50107369
   0.83033881  0.58393095  0.40469089
   0.66572719  0.66800219  0.50161927
   0.00058484  0.00006925  0.59661856
   0.83324431  0.33354442  0.40291586
   0.58403459  0.82971616  0.40458915
   0.41814516  0.66551878  0.50057571
   0.58315340  0.58463113  0.40602079
   0.00113238  0.49943870  0.59607759
   0.41499092  0.41874432  0.49904518
   0.08546732  0.83034891  0.40222257
   0.49905613 -0.00020203  0.59384014
   0.41718371  0.16668074  0.49837310
   0.66496678  0.91583272  0.49958356
   0.33521254  0.82982157  0.40311337
   0.24908695  0.50051242  0.59499502
   0.16629265  0.66539448  0.50042386
   0.33254810  0.58605010  0.40485057
   0.16826844  0.41750390  0.49862410
   0.91644143  0.66736196  0.50062256
   0.25018519  0.74979306  0.59610958
Direct configuration=    17
   0.08439947  0.08064236  0.39152088
   0.83501782  0.82867249  0.39821269
   0.74923296  0.50179569  0.60379646
   0.75038093  0.24971781  0.60598731