  56  56   0   0
  0.4903395E+02  0.1100258E-08  0.1100258E-08  0.2619179E-08  0.3500000E-15
  1.000000000000000E-004
  CAR 
 unknown system                          
      6.41331613    -21.77713259  301     -1.25558609      1.00000000
    -21.777  0.0000E+00  0.0000E+00
    -21.683  0.0000E+00  0.0000E+00
    -21.589  0.0000E+00  0.0000E+00
    -21.495  0.0000E+00  0.0000E+00
    -21.401  0.0000E+00  0.0000E+00
    -21.307  0.0000E+00  0.0000E+00
    -21.213  0.0000E+00  0.0000E+00
    -21.119  0.0000E+00  0.0000E+00
    -21.025  0.9424E-15  0.8856E-16
    -20.931  0.1059E-10  0.9949E-12
    -20.837  0.2122E-07  0.1995E-08
    -20.743  0.7749E-05  0.7301E-06
    -20.650  0.5338E-03  0.5089E-04
    -20.556  0.7470E-02  0.7528E-03
    -20.462  0.2610E-01  0.3205E-02
    -20.368  0.4086E-01  0.7045E-02
    -20.274  0.5120E-01  0.1186E-01
    -20.180  0.6258E-01  0.1774E-01
    -20.086  0.5900E-01  0.2328E-01
    -19.992  0.4873E-01  0.2786E-01
    -19.898  0.3483E-01  0.3113E-01
    -19.804  0.8686E-02  0.3195E-01
    -19.710  0.5300E-03  0.3200E-01
    -19.616  0.6871E-05  0.3200E-01
    -19.522  0.1730E-07  0.3200E-01
    -19.428  0.8020E-11  0.3200E-01
    -19.334  0.6656E-15  0.3200E-01
    -19.240  0.0000E+00  0.3200E-01
    -19.146  0.0000E+00  0.3200E-01
    -19.052  0.0000E+00  0.3200E-01
    -18.958  0.0000E+00  0.3200E-01
    -18.864  0.0000E+00  0.3200E-01
    -18.770  0.0000E+00  0.3200E-01
    -18.676  0.0000E+00  0.3200E-01
    -18.582  0.0000E+00  0.3200E-01
    -18.488  0.0000E+00  0.3200E-01
    -18.394  0.0000E+00  0.3200E-01
    -18.300  0.0000E+00  0.3200E-01
    -18.206  0.0000E+00  0.3200E-01
    -18.112  0.0000E+00  0.3200E-01
    -18.018  0.0000E+00  0.3200E-01
    -17.924  0.0000E+00  0.3200E-01
    -17.830  0.0000E+00  0.3200E-01
    -17.737  0.0000E+00  0.3200E-01
    -17.643  0.0000E+00  0.3200E-01
    -17.549  0.0000E+00  0.3200E-01
    -17.455  0.0000E+00  0.3200E-01
    -17.361  0.0000E+00  0.3200E-01
    -17.267  0.0000E+00  0.3200E-01
    -17.173  0.0000E+00  0.3200E-01
    -17.079  0.0000E+00  0.3200E-01
    -16.985  0.0000E+00  0.3200E-01
    -16.891  0.0000E+00  0.3200E-01
    -16.797  0.0000E+00  0.3200E-01
    -16.703  0.0000E+00  0.3200E-01
    -16.609  0.0000E+00  0.3200E-01
    -16.515  0.0000E+00  0.3200E-01
    -16.421  0.0000E+00  0.3200E-01
    -16.327  0.0000E+00  0.3200E-01
    -16.233  0.0000E+00  0.3200E-01
    -16.139  0.0000E+00  0.3200E-01
    -16.045  0.0000E+00  0.3200E-01
    -15.951  0.0000E+00  0.3200E-01
    -15.857  0.0000E+00  0.3200E-01
    -15.763  0.0000E+00  0.3200E-01
    -15.669  0.0000E+00  0.3200E-01
    -15.575  0.0000E+00  0.3200E-01
    -15.481  0.0000E+00  0.3200E-01
    -15.387  0.0000E+00  0.3200E-01
    -15.293  0.0000E+00  0.3200E-01
    -15.199  0.0000E+00  0.3200E-01
    -15.105  0.0000E+00  0.3200E-01
    -15.011  0.0000E+00  0.3200E-01
    -14.917  0.0000E+00  0.3200E-01
    -14.823  0.0000E+00  0.3200E-01
    -14.730  0.0000E+00  0.3200E-01
    -14.636  0.0000E+00  0.3200E-01
    -14.542  0.0000E+00  0.3200E-01
    -14.448  0.0000E+00  0.3200E-01
    -14.354  0.0000E+00  0.3200E-01
    -14.260  0.0000E+00  0.3200E-01
    -14.166  0.0000E+00  0.3200E-01
    -14.072  0.0000E+00  0.3200E-01
    -13.978  0.0000E+00  0.3200E-01
    -13.884  0.0000E+00  0.3200E-01
    -13.790  0.0000E+00  0.3200E-01
    -13.696  0.0000E+00  0.3200E-01
    -13.602  0.0000E+00  0.3200E-01
    -13.508  0.0000E+00  0.3200E-01
    -13.414  0.0000E+00  0.3200E-01
    -13.320  0.0000E+00  0.3200E-01
    -13.226  0.0000E+00  0.3200E-01
    -13.132  0.0000E+00  0.3200E-01
    -13.038  0.0000E+00  0.3200E-01
    -12.944  0.0000E+00  0.3200E-01
    -12.850  0.0000E+00  0.3200E-01
    -12.756  0.0000E+00  0.3200E-01
    -12.662  0.0000E+00  0.3200E-01
    -12.568  0.0000E+00  0.3200E-01
    -12.474  0.0000E+00  0.3200E-01
    -12.380  0.0000E+00  0.3200E-01
    -12.286  0.0000E+00  0.3200E-01
    -12.192  0.0000E+00  0.3200E-01
    -12.098  0.0000E+00  0.3200E-01
    -12.004  0.0000E+00  0.3200E-01
    -11.910  0.0000E+00  0.3200E-01
    -11.817  0.0000E+00  0.3200E-01
    -11.723  0.0000E+00  0.3200E-01
    -11.629  0.0000E+00  0.3200E-01
    -11.535  0.0000E+00  0.3200E-01
    -11.441  0.0000E+00  0.3200E-01
    -11.347  0.0000E+00  0.3200E-01
    -11.253  0.0000E+00  0.3200E-01
    -11.159  0.0000E+00  0.3200E-01
    -11.065  0.0000E+00  0.3200E-01
    -10.971  0.0000E+00  0.3200E-01
    -10.877  0.0000E+00  0.3200E-01
    -10.783  0.0000E+00  0.3200E-01
    -10.689  0.0000E+00  0.3200E-01
    -10.595  0.0000E+00  0.3200E-01
    -10.501  0.0000E+00  0.3200E-01
    -10.407  0.0000E+00  0.3200E-01
    -10.313  0.0000E+00  0.3200E-01
    -10.219  0.0000E+00  0.3200E-01
    -10.125  0.3151E-16  0.3200E-01
    -10.031  0.5520E-12  0.3200E-01
     -9.937  0.1723E-08  0.3200E-01
     -9.843  0.9754E-06  0.3200E-01
     -9.749  0.1029E-03  0.3201E-01
     -9.655  0.2118E-02  0.3221E-01
     -9.561  0.9023E-02  0.3306E-01
     -9.467  0.8693E-02  0.3387E-01
     -9.373  0.5829E-02  0.3442E-01
     -9.279  0.1030E-01  0.3539E-01
     -9.185  0.5749E-02  0.3593E-01
     -9.091  0.8075E-03  0.3601E-01
     -8.997  0.1259E-02  0.3612E-01
     -8.903  0.5366E-02  0.3663E-01
     -8.810  0.1131E-01  0.3769E-01
     -8.716  0.1771E-01  0.3936E-01
     -8.622  0.1959E-01  0.4120E-01
     -8.528  0.1399E-01  0.4251E-01
     -8.434  0.7988E-02  0.4326E-01
     -8.340  0.7819E-02  0.4400E-01
     -8.246  0.1836E-01  0.4572E-01
     -8.152  0.2285E-01  0.4787E-01
     -8.058  0.3038E-01  0.5072E-01
     -7.964  0.6419E-01  0.5675E-01
     -7.870  0.9652E-01  0.6582E-01
     -7.776  0.1107E+00  0.7623E-01
     -7.682  0.1170E+00  0.8722E-01
     -7.588  0.1214E+00  0.9863E-01
     -7.494  0.1081E+00  0.1088E+00
     -7.400  0.9642E-01  0.1178E+00
     -7.306  0.9426E-01  0.1267E+00
     -7.212  0.1000E+00  0.1361E+00
     -7.118  0.1295E+00  0.1483E+00
     -7.024  0.1509E+00  0.1625E+00
     -6.930  0.1470E+00  0.1763E+00
     -6.836  0.1470E+00  0.1901E+00
     -6.742  0.1459E+00  0.2038E+00
     -6.648  0.1499E+00  0.2179E+00
     -6.554  0.1708E+00  0.2339E+00
     -6.460  0.1900E+00  0.2518E+00
     -6.366  0.1639E+00  0.2672E+00
     -6.272  0.1294E+00  0.2793E+00
     -6.178  0.1246E+00  0.2911E+00
     -6.084  0.1382E+00  0.3040E+00
     -5.990  0.1648E+00  0.3195E+00
     -5.897  0.1800E+00  0.3364E+00
     -5.803  0.1721E+00  0.3526E+00
     -5.709  0.1672E+00  0.3683E+00
     -5.615  0.1694E+00  0.3842E+00
     -5.521  0.1736E+00  0.4005E+00
     -5.427  0.1775E+00  0.4172E+00
     -5.333  0.1879E+00  0.4349E+00
     -5.239  0.1876E+00  0.4525E+00
     -5.145  0.1773E+00  0.4692E+00
     -5.051  0.1691E+00  0.4851E+00
     -4.957  0.1664E+00  0.5007E+00
     -4.863  0.1851E+00  0.5181E+00
     -4.769  0.1955E+00  0.5365E+00
     -4.675  0.1965E+00  0.5549E+00
     -4.581  0.1892E+00  0.5727E+00
     -4.487  0.1874E+00  0.5903E+00
     -4.393  0.2018E+00  0.6093E+00
     -4.299  0.2250E+00  0.6304E+00
     -4.205  0.2215E+00  0.6512E+00
     -4.111  0.2163E+00  0.6716E+00
     -4.017  0.2100E+00  0.6913E+00
     -3.923  0.1969E+00  0.7098E+00
     -3.829  0.1976E+00  0.7283E+00
     -3.735  0.1963E+00  0.7468E+00
     -3.641  0.1999E+00  0.7656E+00
     -3.547  0.2059E+00  0.7849E+00
     -3.453  0.2011E+00  0.8038E+00
     -3.359  0.1849E+00  0.8212E+00
     -3.265  0.1628E+00  0.8365E+00
     -3.171  0.1528E+00  0.8509E+00
     -3.077  0.1568E+00  0.8656E+00
     -2.984  0.1655E+00  0.8811E+00
     -2.890  0.1653E+00  0.8967E+00
     -2.796  0.1640E+00  0.9121E+00
     -2.702  0.1548E+00  0.9266E+00
     -2.608  0.1559E+00  0.9413E+00
     -2.514  0.1641E+00  0.9567E+00
     -2.420  0.1605E+00  0.9718E+00
     -2.326  0.1614E+00  0.9869E+00
     -2.232  0.1647E+00  0.1002E+01
     -2.138  0.1598E+00  0.1017E+01
     -2.044  0.1421E+00  0.1031E+01
     -1.950  0.1275E+00  0.1043E+01
     -1.856  0.1181E+00  0.1054E+01
     -1.762  0.1060E+00  0.1064E+01
     -1.668  0.9405E-01  0.1073E+01
     -1.574  0.8767E-01  0.1081E+01
     -1.480  0.8432E-01  0.1089E+01
     -1.386  0.6992E-01  0.1095E+01
     -1.292  0.6403E-01  0.1101E+01
     -1.198  0.7533E-01  0.1109E+01
     -1.104  0.8388E-01  0.1116E+01
     -1.010  0.8418E-01  0.1124E+01
     -0.916  0.7873E-01  0.1132E+01
     -0.822  0.6142E-01  0.1137E+01
     -0.728  0.5641E-01  0.1143E+01
     -0.634  0.5437E-01  0.1148E+01
     -0.540  0.5717E-01  0.1153E+01
     -0.446  0.5835E-01  0.1159E+01
     -0.352  0.3947E-01  0.1162E+01
     -0.258  0.2881E-01  0.1165E+01
     -0.164  0.2970E-01  0.1168E+01
     -0.070  0.2095E-01  0.1170E+01
      0.023  0.2534E-01  0.1172E+01
      0.117  0.3688E-01  0.1176E+01
      0.211  0.3854E-01  0.1179E+01
      0.305  0.3998E-01  0.1183E+01
      0.399  0.3095E-01  0.1186E+01
      0.493  0.3039E-01  0.1189E+01
      0.587  0.3490E-01  0.1192E+01
      0.681  0.2900E-01  0.1195E+01
      0.775  0.2233E-01  0.1197E+01
      0.869  0.2285E-01  0.1199E+01
      0.963  0.1783E-01  0.1201E+01
      1.057  0.1318E-01  0.1202E+01
      1.151  0.1700E-01  0.1204E+01
      1.245  0.2655E-01  0.1206E+01
      1.339  0.2543E-01  0.1209E+01
      1.433  0.2139E-01  0.1211E+01
      1.527  0.3792E-01  0.1214E+01
      1.621  0.5244E-01  0.1219E+01
      1.715  0.4358E-01  0.1223E+01
      1.809  0.2842E-01  0.1226E+01
      1.903  0.2908E-01  0.1229E+01
      1.997  0.3498E-01  0.1232E+01
      2.091  0.3115E-01  0.1235E+01
      2.185  0.2514E-01  0.1237E+01
      2.279  0.1726E-01  0.1239E+01
      2.373  0.1121E-01  0.1240E+01
      2.467  0.1361E-01  0.1241E+01
      2.561  0.1107E-01  0.1242E+01
      2.655  0.1226E-01  0.1243E+01
      2.749  0.2077E-01  0.1245E+01
      2.843  0.2796E-01  0.1248E+01
      2.936  0.3098E-01  0.1251E+01
      3.030  0.3489E-01  0.1254E+01
      3.124  0.2840E-01  0.1257E+01
      3.218  0.2546E-01  0.1259E+01
      3.312  0.2586E-01  0.1262E+01
      3.406  0.2021E-01  0.1263E+01
      3.500  0.2180E-01  0.1265E+01
      3.594  0.2668E-01  0.1268E+01
      3.688  0.3885E-01  0.1272E+01
      3.782  0.5200E-01  0.1277E+01
      3.876  0.5259E-01  0.1281E+01
      3.970  0.4425E-01  0.1286E+01
      4.064  0.4025E-01  0.1289E+01
      4.158  0.4092E-01  0.1293E+01
      4.252  0.4274E-01  0.1297E+01
      4.346  0.4241E-01  0.1301E+01
      4.440  0.4147E-01  0.1305E+01
      4.534  0.4318E-01  0.1309E+01
      4.628  0.4889E-01  0.1314E+01
      4.722  0.6154E-01  0.1320E+01
      4.816  0.5779E-01  0.1325E+01
      4.910  0.5790E-01  0.1330E+01
      5.004  0.6121E-01  0.1336E+01
      5.098  0.5206E-01  0.1341E+01
      5.192  0.2590E-01  0.1344E+01
      5.286  0.4806E-02  0.1344E+01
      5.380  0.2456E-03  0.1344E+01
      5.474  0.2909E-05  0.1344E+01
      5.568  0.7162E-08  0.1344E+01
      5.662  0.3414E-11  0.1344E+01
      5.756  0.3009E-15  0.1344E+01
      5.850  0.0000E+00  0.1344E+01
      5.943  0.0000E+00  0.1344E+01
      6.037  0.0000E+00  0.1344E+01
      6.131  0.0000E+00  0.1344E+01
      6.225  0.0000E+00  0.1344E+01
      6.319  0.0000E+00  0.1344E+01
      6.413  0.0000E+00  0.1344E+01
