<?xml version="1.0" encoding="ISO-8859-1"?>
<modeling>
 <generator>
  <i name="program" type="string">vasp </i>
  <i name="version" type="string">5.4.1  </i>
  <i name="subversion" type="string">24Jun15 (build Mar 14 2019 10:18:33) complex                          parallel </i>
  <i name="platform" type="string">INTEL-19.0.2+OPENMPI-3.1.3 </i>
  <i name="date" type="string">2023 03 12 </i>
  <i name="time" type="string">18:14:58 </i>
 </generator>
 <incar>
  <i type="int" name="ISTART">     0</i>
  <i type="string" name="PREC">normal</i>
  <i type="string" name="ALGO"> Fast</i>
  <i type="int" name="NELM">   500</i>
  <i type="int" name="IBRION">     2</i>
  <i type="int" name="NFREE">     2</i>
  <i name="EDIFF">      0.00000100</i>
  <i name="EDIFFG">     -0.02000000</i>
  <i type="int" name="NSW">   500</i>
  <i type="int" name="ISIF">     0</i>
  <i type="int" name="ISYM">     2</i>
  <i name="ENCUT">    400.00000000</i>
  <i name="POTIM">      0.35000000</i>
  <i type="string" name="LREAL"> Auto</i>
  <i type="logical" name="LPLANE"> T  </i>
  <i type="int" name="ISMEAR">     0</i>
  <i name="SIGMA">      0.10000000</i>
  <i type="int" name="NWRITE">     1</i>
  <i type="logical" name="LWAVE"> F  </i>
  <i type="logical" name="LCHARG"> F  </i>
  <i type="logical" name="LVTOT"> F  </i>
  <i type="logical" name="LORBIT"> F  </i>
  <i type="logical" name="LAECHG"> F  </i>
  <v type="int" name="KPOINT_BSE">    -1     0     0     0</v>
  <i type="int" name="NELM">   500</i>
  <i type="string" name="GGA"> PE          ! optPBE-vdW XC-functional</i>
  <i type="int" name="VOSKOWN">     1</i>
  <i type="logical" name="LDIPOL"> T  </i>
  <i type="logical" name="LMONO"> F  </i>
  <i type="int" name="IDIPOL">     3</i>
  <v name="DIPOL">      0.00000000      0.00000000      0.50000000</v>
 </incar>
 <kpoints>
  <generation param="Monkhorst-Pack">
   <v type="int" name="divisions">       2        2        1 </v>
   <v name="usershift">      0.00000000       0.00000000       0.00000000 </v>
   <v name="genvec1">      0.50000000       0.00000000       0.00000000 </v>
   <v name="genvec2">      0.00000000       0.50000000       0.00000000 </v>
   <v name="genvec3">      0.00000000       0.00000000       1.00000000 </v>
   <v name="shift">      0.50000000       0.50000000       0.00000000 </v>
  </generation>
  <varray name="kpointlist" >
   <v>       0.25000000       0.25000000       0.00000000 </v>
   <v>       0.00000000       0.25000000       0.00000000 </v>
   <v>      -0.25000000       0.00000000       0.00000000 </v>
   <v>      -0.25000000       0.25000000       0.00000000 </v>
   <v>       0.50000000      -0.25000000       0.00000000 </v>
   <v>      -0.25000000       0.50000000       0.00000000 </v>
  </varray>
  <varray name="weights" >
   <v>       0.16666667 </v>
   <v>       0.16666667 </v>
   <v>       0.16666667 </v>
   <v>       0.16666667 </v>
   <v>       0.16666667 </v>
   <v>       0.16666667 </v>
  </varray>
 </kpoints>
 <parameters>
  <separator name="general" >
   <i type="string" name="SYSTEM">unknown system</i>
   <i type="logical" name="LCOMPAT"> F  </i>
  </separator>
  <separator name="electronic" >
   <i type="string" name="PREC">normal</i>
   <i name="ENMAX">    400.00000000</i>
   <i name="ENAUG">    605.39200000</i>
   <i name="EDIFF">      0.00000100</i>
   <i type="int" name="IALGO">    68</i>
   <i type="int" name="IWAVPR">    11</i>
   <i type="int" name="NBANDS">   336</i>
   <i name="NELECT">    552.00000000</i>
   <i type="int" name="TURBO">     0</i>
   <i type="int" name="IRESTART">     0</i>
   <i type="int" name="NREBOOT">     0</i>
   <i type="int" name="NMIN">     0</i>
   <i name="EREF">      0.00000000</i>
   <separator name="electronic smearing" >
    <i type="int" name="ISMEAR">     0</i>
    <i name="SIGMA">      0.10000000</i>
    <i name="KSPACING">      0.50000000</i>
    <i type="logical" name="KGAMMA"> T  </i>
   </separator>
   <separator name="electronic projectors" >
    <i type="logical" name="LREAL"> T  </i>
    <v name="ROPT">     -0.00050000     -0.00050000     -0.00050000</v>
    <i type="int" name="LMAXPAW">  -100</i>
    <i type="int" name="LMAXMIX">     2</i>
    <i type="logical" name="NLSPLINE"> F  </i>
   </separator>
   <separator name="electronic startup" >
    <i type="int" name="ISTART">     0</i>
    <i type="int" name="ICHARG">     2</i>
    <i type="int" name="INIWAV">     1</i>
   </separator>
   <separator name="electronic spin" >
    <i type="int" name="ISPIN">     1</i>
    <i type="logical" name="LNONCOLLINEAR"> F  </i>
    <v name="MAGMOM">      1.00000000      1.00000000      1.00000000      1.00000000      1.00000000      1.00000000      1.00000000      1.00000000      1.00000000      1.00000000      1.00000000      1.00000000      1.00000000      1.00000000      1.00000000      1.00000000      1.00000000      1.00000000      1.00000000      1.00000000
      1.00000000      1.00000000      1.00000000      1.00000000      1.00000000      1.00000000      1.00000000      1.00000000      1.00000000      1.00000000      1.00000000      1.00000000      1.00000000      1.00000000      1.00000000      1.00000000      1.00000000      1.00000000      1.00000000      1.00000000
      1.00000000      1.00000000      1.00000000      1.00000000      1.00000000      1.00000000      1.00000000      1.00000000      1.00000000      1.00000000      1.00000000      1.00000000      1.00000000      1.00000000      1.00000000      1.00000000</v>
    <i name="NUPDOWN">     -1.00000000</i>
    <i type="logical" name="LSORBIT"> F  </i>
    <v name="SAXIS">      0.00000000      0.00000000      1.00000000</v>
    <i type="logical" name="LSPIRAL"> F  </i>
    <v name="QSPIRAL">      0.00000000      0.00000000      0.00000000</v>
    <i type="logical" name="LZEROZ"> F  </i>
   </separator>
   <separator name="electronic exchange-correlation" >
    <i type="logical" name="LASPH"> F  </i>
    <i type="logical" name="LMETAGGA"> F  </i>
   </separator>
   <separator name="electronic convergence" >
    <i type="int" name="NELM">   500</i>
    <i type="int" name="NELMDL">    -5</i>
    <i type="int" name="NELMIN">     2</i>
    <i name="ENINI">    400.00000000</i>
    <separator name="electronic convergence detail" >
     <i type="logical" name="LDIAG"> T  </i>
     <i type="logical" name="LSUBROT"> F  </i>
     <i name="WEIMIN">      0.00100000</i>
     <i name="EBREAK">      0.00000000</i>
     <i name="DEPER">      0.30000000</i>
     <i type="int" name="NRMM">     4</i>
     <i name="TIME">      0.40000000</i>
    </separator>
   </separator>
   <separator name="electronic mixer" >
    <i name="AMIX">      0.40000000</i>
    <i name="BMIX">      1.00000000</i>
    <i name="AMIN">      0.10000000</i>
    <i name="AMIX_MAG">      1.60000000</i>
    <i name="BMIX_MAG">      1.00000000</i>
    <separator name="electronic mixer details" >
     <i type="int" name="IMIX">     4</i>
     <i type="logical" name="MIXFIRST"> F  </i>
     <i type="int" name="MAXMIX">   -45</i>
     <i name="WC">    100.00000000</i>
     <i type="int" name="INIMIX">     1</i>
     <i type="int" name="MIXPRE">     1</i>
     <i type="int" name="MREMOVE">     5</i>
    </separator>
   </separator>
   <separator name="electronic dipolcorrection" >
    <i type="logical" name="LDIPOL"> T  </i>
    <i type="logical" name="LMONO"> F  </i>
    <i type="int" name="IDIPOL">     3</i>
    <i name="EPSILON">      1.00000000</i>
    <v name="DIPOL">      0.00000000      0.00000000      0.50000000</v>
    <i name="EFIELD">      0.00000000</i>
   </separator>
  </separator>
  <separator name="grids" >
   <i type="int" name="NGX">    54</i>
   <i type="int" name="NGY">    54</i>
   <i type="int" name="NGZ">   128</i>
   <i type="int" name="NGXF">   108</i>
   <i type="int" name="NGYF">   108</i>
   <i type="int" name="NGZF">   256</i>
   <i type="logical" name="ADDGRID"> F  </i>
  </separator>
  <separator name="ionic" >
   <i type="int" name="NSW">   500</i>
   <i type="int" name="IBRION">     2</i>
   <i type="int" name="ISIF">     0</i>
   <i name="PSTRESS">      0.00000000</i>
   <i name="EDIFFG">     -0.02000000</i>
   <i type="int" name="NFREE">     2</i>
   <i name="POTIM">      0.35000000</i>
   <i name="SMASS">     -3.00000000</i>
   <i name="SCALEE">      1.00000000</i>
  </separator>
  <separator name="ionic md" >
   <i name="TEBEG">      0.00010000</i>
   <i name="TEEND">      0.00010000</i>
   <i type="int" name="NBLOCK">     1</i>
   <i type="int" name="KBLOCK">   500</i>
   <i type="int" name="NPACO">   256</i>
   <i name="APACO">     16.00000000</i>
  </separator>
  <separator name="symmetry" >
   <i type="int" name="ISYM">     2</i>
   <i name="SYMPREC">      0.00001000</i>
  </separator>
  <separator name="dos" >
   <i type="logical" name="LORBIT"> F  </i>
   <v name="RWIGS">     -1.00000000     -1.00000000     -1.00000000</v>
   <i type="int" name="NEDOS">   301</i>
   <i name="EMIN">     10.00000000</i>
   <i name="EMAX">    -10.00000000</i>
   <i name="EFERMI">      0.00000000</i>
  </separator>
  <separator name="writing" >
   <i type="int" name="NWRITE">     1</i>
   <i type="logical" name="LWAVE"> F  </i>
   <i type="logical" name="LCHARG"> F  </i>
   <i type="logical" name="LPARD"> F  </i>
   <i type="logical" name="LVTOT"> F  </i>
   <i type="logical" name="LVHAR"> F  </i>
   <i type="logical" name="LELF"> F  </i>
   <i type="logical" name="LOPTICS"> F  </i>
   <v name="STM">      0.00000000      0.00000000      0.00000000      0.00000000      0.00000000      0.00000000      0.00000000</v>
  </separator>
  <separator name="performance" >
   <i type="int" name="NPAR">     6</i>
   <i type="int" name="NSIM">     4</i>
   <i type="int" name="NBLK">    -1</i>
   <i type="logical" name="LPLANE"> T  </i>
   <i type="logical" name="LSCALAPACK"> T  </i>
   <i type="logical" name="LSCAAWARE"> F  </i>
   <i type="logical" name="LSCALU"> F  </i>
   <i type="logical" name="LASYNC"> F  </i>
   <i type="logical" name="LORBITALREAL"> F  </i>
  </separator>
  <separator name="miscellaneous" >
   <i type="int" name="IDIOT">     3</i>
   <i type="logical" name="LMUSIC"> F  </i>
   <v name="POMASS">    196.96600000     16.00000000    106.42000000</v>
   <v name="DARWINR">      0.00000000      0.00000000      0.00000000</v>
   <v name="DARWINV">      1.00000000      1.00000000      1.00000000</v>
   <i type="logical" name="LCORR"> T  </i>
  </separator>
  <i type="logical" name="GGA_COMPAT"> T  </i>
  <i type="logical" name="LBERRY"> F  </i>
  <i type="int" name="ICORELEVEL">     0</i>
  <i type="logical" name="LDAU"> F  </i>
  <i type="int" name="I_CONSTRAINED_M">     0</i>
  <separator name="electronic exchange-correlation" >
   <i type="string" name="GGA">PE</i>
   <i type="int" name="VOSKOWN">     1</i>
   <i type="logical" name="LHFCALC"> F  </i>
   <i type="string" name="PRECFOCK"></i>
   <i type="logical" name="LSYMGRAD"> F  </i>
   <i type="logical" name="LHFONE"> F  </i>
   <i type="logical" name="LRHFCALC"> F  </i>
   <i type="logical" name="LTHOMAS"> F  </i>
   <i type="logical" name="LMODELHF"> F  </i>
   <i name="ENCUT4O">     -1.00000000</i>
   <i type="int" name="EXXOEP">     0</i>
   <i type="int" name="FOURORBIT">     0</i>
   <i name="AEXX">      0.00000000</i>
   <i name="HFALPHA">      0.00000000</i>
   <i name="MCALPHA">      0.00000000</i>
   <i name="ALDAX">      1.00000000</i>
   <i name="AGGAX">      1.00000000</i>
   <i name="ALDAC">      1.00000000</i>
   <i name="AGGAC">      1.00000000</i>
   <i type="int" name="NKREDX">     1</i>
   <i type="int" name="NKREDY">     1</i>
   <i type="int" name="NKREDZ">     1</i>
   <i type="logical" name="SHIFTRED"> F  </i>
   <i type="logical" name="ODDONLY"> F  </i>
   <i type="logical" name="EVENONLY"> F  </i>
   <i type="int" name="LMAXFOCK">     0</i>
   <i type="int" name="NMAXFOCKAE">     0</i>
   <i type="logical" name="LFOCKAEDFT"> F  </i>
   <i name="HFSCREEN">      0.00000000</i>
   <i name="HFSCREENC">      0.00000000</i>
   <i type="int" name="NBANDSGWLOW">     0</i>
  </separator>
  <separator name="vdW DFT" >
   <i type="logical" name="LUSE_VDW"> F  </i>
   <i name="Zab_VDW">     -0.84910000</i>
   <i name="PARAM1">      0.12340000</i>
   <i name="PARAM2">      1.00000000</i>
   <i name="PARAM3">      0.00000000</i>
  </separator>
  <separator name="model GW" >
   <i type="int" name="MODEL_GW">     0</i>
   <i name="MODEL_EPS0">     29.42037089</i>
   <i name="MODEL_ALPHA">      1.00000000</i>
  </separator>
  <separator name="linear response parameters" >
   <i type="logical" name="LEPSILON"> F  </i>
   <i type="logical" name="LRPA"> F  </i>
   <i type="logical" name="LNABLA"> F  </i>
   <i type="logical" name="LVEL"> F  </i>
   <i type="int" name="KINTER">     0</i>
   <i name="CSHIFT">      0.10000000</i>
   <i name="OMEGAMAX">     -1.00000000</i>
   <i name="DEG_THRESHOLD">      0.00200000</i>
  </separator>
  <separator name="orbital magnetization" >
   <i type="logical" name="NUCIND"> F  </i>
   <v name="MAGPOS">      0.00000000      0.00000000      0.00000000</v>
   <i type="logical" name="LNICSALL"> T  </i>
   <i type="logical" name="ORBITALMAG"> F  </i>
   <i type="logical" name="LMAGBLOCH"> F  </i>
   <i type="logical" name="LCHIMAG"> F  </i>
   <i type="logical" name="LGAUGE"> T  </i>
   <i type="int" name="MAGATOM">     0</i>
   <v name="MAGDIPOL">      0.00000000      0.00000000      0.00000000</v>
   <v name="AVECCONST">      0.00000000      0.00000000      0.00000000</v>
  </separator>
  <separator name="response functions" >
   <i type="logical" name="LADDER"> F  </i>
   <i type="logical" name="LFXC"> F  </i>
   <i type="logical" name="LHARTREE"> T  </i>
   <i type="int" name="IBSE">     0</i>
   <v type="int" name="KPOINT">    -1     0     0     0</v>
   <i type="logical" name="LTCTE"> F  </i>
   <i type="logical" name="LTETE"> F  </i>
   <i type="logical" name="LTRIPLET"> F  </i>
   <i type="logical" name="LFXCEPS"> F  </i>
   <i type="logical" name="LFXHEG"> F  </i>
   <i type="int" name="NATURALO">     0</i>
   <i type="logical" name="L2ORDER"> F  </i>
   <i type="logical" name="LUSEW"> F  </i>
   <i name="ENCUTGW">     -2.00000000</i>
   <i name="ENCUTGWSOFT">     -2.00000000</i>
   <i name="ENCUTLF">     -1.00000000</i>
   <i type="int" name="LMAXMP2">    -1</i>
   <i name="SCISSOR">      0.00000000</i>
   <i type="int" name="NOMEGA">     0</i>
   <i type="int" name="NOMEGAR">     0</i>
   <i type="int" name="NBANDSGW">    -1</i>
   <i type="int" name="NBANDSO">    -1</i>
   <i type="int" name="NBANDSV">    -1</i>
   <i type="int" name="NELM">   500</i>
   <i type="int" name="NELMHF">     1</i>
   <i type="int" name="DIM">     3</i>
   <i type="int" name="ANTIRES">     0</i>
   <i name="OMEGAMAX">    -30.00000000</i>
   <i name="OMEGAMIN">    -30.00000000</i>
   <i name="OMEGATL">   -200.00000000</i>
   <i type="int" name="OMEGAGRID">     0</i>
   <i name="CSHIFT">     -0.10000000</i>
   <i type="logical" name="SELFENERGY"> F  </i>
   <i type="logical" name="LSPECTRAL"> F  </i>
   <i type="logical" name="LSPECTRALGW"> F  </i>
   <i type="logical" name="LSINGLES"> F  </i>
   <i type="logical" name="LFERMIGW"> F  </i>
   <i type="logical" name="ODDONLYGW"> F  </i>
   <i type="logical" name="EVENONLYGW"> F  </i>
   <i type="int" name="NKREDLFX">     1</i>
   <i type="int" name="NKREDLFY">     1</i>
   <i type="int" name="NKREDLFZ">     1</i>
   <i type="int" name="MAXMEM">  1800</i>
   <i type="int" name="TELESCOPE">     0</i>
   <i type="int" name="TAUPAR">     1</i>
   <i type="int" name="OMEGAPAR">    -1</i>
   <i name="LAMBDA">      1.00000000</i>
  </separator>
  <separator name="External order field" >
   <i name="OFIELD_KAPPA">      0.00000000</i>
   <v name="OFIELD_K">      0.00000000      0.00000000      0.00000000</v>
   <i name="OFIELD_Q6_NEAR">      0.00000000</i>
   <i name="OFIELD_Q6_FAR">      0.00000000</i>
   <i name="OFIELD_A">      0.00000000</i>
  </separator>
 </parameters>
 <atominfo>
  <atoms>      56 </atoms>
  <types>       3 </types>
  <array name="atoms" >
   <dimension dim="1">ion</dimension>
   <field type="string">element</field>
   <field type="int">atomtype</field>
   <set>
    <rc><c>Au</c><c>   1</c></rc>
    <rc><c>Au</c><c>   1</c></rc>
    <rc><c>Au</c><c>   1</c></rc>
    <rc><c>Au</c><c>   1</c></rc>
    <rc><c>Au</c><c>   1</c></rc>
    <rc><c>Au</c><c>   1</c></rc>
    <rc><c>Au</c><c>   1</c></rc>
    <rc><c>Au</c><c>   1</c></rc>
    <rc><c>Au</c><c>   1</c></rc>
    <rc><c>Au</c><c>   1</c></rc>
    <rc><c>Au</c><c>   1</c></rc>
    <rc><c>Au</c><c>   1</c></rc>
    <rc><c>Au</c><c>   1</c></rc>
    <rc><c>Au</c><c>   1</c></rc>
    <rc><c>Au</c><c>   1</c></rc>
    <rc><c>Au</c><c>   1</c></rc>
    <rc><c>Au</c><c>   1</c></rc>
    <rc><c>Au</c><c>   1</c></rc>
    <rc><c>Au</c><c>   1</c></rc>
    <rc><c>Au</c><c>   1</c></rc>
    <rc><c>Au</c><c>   1</c></rc>
    <rc><c>Au</c><c>   1</c></rc>
    <rc><c>Au</c><c>   1</c></rc>
    <rc><c>Au</c><c>   1</c></rc>
    <rc><c>O </c><c>   2</c></rc>
    <rc><c>O </c><c>   2</c></rc>
    <rc><c>O </c><c>   2</c></rc>
    <rc><c>O </c><c>   2</c></rc>
    <rc><c>O </c><c>   2</c></rc>
    <rc><c>O </c><c>   2</c></rc>
    <rc><c>O </c><c>   2</c></rc>
    <rc><c>O </c><c>   2</c></rc>
    <rc><c>Pd</c><c>   3</c></rc>
    <rc><c>Pd</c><c>   3</c></rc>
    <rc><c>Pd</c><c>   3</c></rc>
    <rc><c>Pd</c><c>   3</c></rc>
    <rc><c>Pd</c><c>   3</c></rc>
    <rc><c>Pd</c><c>   3</c></rc>
    <rc><c>Pd</c><c>   3</c></rc>
    <rc><c>Pd</c><c>   3</c></rc>
    <rc><c>Pd</c><c>   3</c></rc>
    <rc><c>Pd</c><c>   3</c></rc>
    <rc><c>Pd</c><c>   3</c></rc>
    <rc><c>Pd</c><c>   3</c></rc>
    <rc><c>Pd</c><c>   3</c></rc>
    <rc><c>Pd</c><c>   3</c></rc>
    <rc><c>Pd</c><c>   3</c></rc>
    <rc><c>Pd</c><c>   3</c></rc>
    <rc><c>Pd</c><c>   3</c></rc>
    <rc><c>Pd</c><c>   3</c></rc>
    <rc><c>Pd</c><c>   3</c></rc>
    <rc><c>Pd</c><c>   3</c></rc>
    <rc><c>Pd</c><c>   3</c></rc>
    <rc><c>Pd</c><c>   3</c></rc>
    <rc><c>Pd</c><c>   3</c></rc>
    <rc><c>Pd</c><c>   3</c></rc>
   </set>
  </array>
  <array name="atomtypes" >
   <dimension dim="1">type</dimension>
   <field type="int">atomspertype</field>
   <field type="string">element</field>
   <field>mass</field>
   <field>valence</field>
   <field type="string">pseudopotential</field>
   <set>
    <rc><c>  24</c><c>Au</c><c>    196.96600000</c><c>     11.00000000</c><c>  PAW_PBE Au 04Oct2007                  </c></rc>
    <rc><c>   8</c><c>O </c><c>     16.00000000</c><c>      6.00000000</c><c>  PAW_PBE O 08Apr2002                   </c></rc>
    <rc><c>  24</c><c>Pd</c><c>    106.42000000</c><c>     10.00000000</c><c>  PAW_PBE Pd 04Jan2005                  </c></rc>
   </set>
  </array>
 </atominfo>
 <structure name="initialpos" >
  <crystal>
   <varray name="basis" >
    <v>      11.00258152       0.00000000       0.00000000 </v>
    <v>       5.50129076       9.52851510       0.00000000 </v>
    <v>       0.00000000       0.00000000      26.19178509 </v>
   </varray>
   <i name="volume">   2745.90128299 </i>
   <varray name="rec_basis" >
    <v>       0.09088776      -0.05247407       0.00000000 </v>
    <v>       0.00000000       0.10494815       0.00000000 </v>
    <v>       0.00000000       0.00000000       0.03817991 </v>
   </varray>
  </crystal>
  <varray name="positions" >
   <v>       0.08333333       0.08333333       0.38179910 </v>
   <v>       0.08333333       0.58333333       0.38179910 </v>
   <v>       0.33333333       0.08333333       0.38179910 </v>
   <v>       0.83333333       0.83333333       0.38179910 </v>
   <v>       0.08333333       0.83333333       0.38179910 </v>
   <v>       0.91666667       0.41666667       0.46754708 </v>
   <v>       0.08333333       0.33333333       0.38179910 </v>
   <v>       0.83333333       0.58333333       0.38179910 </v>
   <v>       0.16666667       0.16666667       0.46754708 </v>
   <v>       0.58333333       0.33333333       0.38179910 </v>
   <v>       0.83333333       0.33333333       0.38179910 </v>
   <v>       0.41666667       0.91666667       0.46754708 </v>
   <v>       0.83333333       0.08333333       0.38179910 </v>
   <v>       0.58333333       0.58333333       0.38179910 </v>
   <v>       0.41666667       0.41666667       0.46754708 </v>
   <v>       0.58333333       0.08333333       0.38179910 </v>
   <v>       0.25000000       0.00000000       0.55329505 </v>
   <v>       0.16666667       0.91666667       0.46754708 </v>
   <v>       0.33333333       0.83333333       0.38179910 </v>
   <v>       0.16666667       0.66666667       0.46754708 </v>
   <v>       0.33333333       0.58333333       0.38179910 </v>
   <v>       0.16666667       0.41666667       0.46754708 </v>
   <v>       0.33333333       0.33333333       0.38179910 </v>
   <v>       0.58333333       0.83333333       0.38179910 </v>
   <v>       0.33333333       0.58333333       0.61820090 </v>
   <v>       0.33333333       0.33333333       0.61820090 </v>
   <v>       0.83333333       0.58333333       0.61820090 </v>
   <v>       0.08333333       0.33333333       0.61820090 </v>
   <v>       0.58333333       0.33333333       0.61820090 </v>
   <v>       0.58333333       0.58333333       0.61820090 </v>
   <v>       0.83333333       0.08333333       0.61820090 </v>
   <v>       0.08333333       0.83333333       0.61820090 </v>
   <v>       0.25000000       0.75000000       0.55329505 </v>
   <v>       0.75000000       0.75000000       0.55329505 </v>
   <v>       0.75000000       0.25000000       0.55329505 </v>
   <v>       0.41666667       0.16666667       0.46754708 </v>
   <v>       0.50000000       0.00000000       0.55329505 </v>
   <v>       0.75000000       0.50000000       0.55329505 </v>
   <v>       0.25000000       0.50000000       0.55329505 </v>
   <v>       0.00000000       0.25000000       0.55329505 </v>
   <v>       0.50000000       0.25000000       0.55329505 </v>
   <v>       0.25000000       0.25000000       0.55329505 </v>
   <v>       0.41666667       0.66666667       0.46754708 </v>
   <v>       0.91666667       0.66666667       0.46754708 </v>
   <v>       0.91666667       0.91666667       0.46754708 </v>
   <v>       0.00000000       0.75000000       0.55329505 </v>
   <v>       0.66666667       0.91666667       0.46754708 </v>
   <v>       0.50000000       0.75000000       0.55329505 </v>
   <v>       0.66666667       0.66666667       0.46754708 </v>
   <v>       0.00000000       0.00000000       0.55329505 </v>
   <v>       0.66666667       0.16666667       0.46754708 </v>
   <v>       0.75000000       0.00000000       0.55329505 </v>
   <v>       0.91666667       0.16666667       0.46754708 </v>
   <v>       0.66666667       0.41666667       0.46754708 </v>
   <v>       0.00000000       0.50000000       0.55329505 </v>
   <v>       0.50000000       0.50000000       0.55329505 </v>
  </varray>
  <varray name="selective"  type="logical" >
   <v type="logical" >  F  F  F </v>
   <v type="logical" >  F  F  F </v>
   <v type="logical" >  F  F  F </v>
   <v type="logical" >  F  F  F </v>
   <v type="logical" >  F  F  F </v>
   <v type="logical" >  T  T  T </v>
   <v type="logical" >  F  F  F </v>
   <v type="logical" >  F  F  F </v>
   <v type="logical" >  T  T  T </v>
   <v type="logical" >  F  F  F </v>
   <v type="logical" >  F  F  F </v>
   <v type="logical" >  T  T  T </v>
   <v type="logical" >  F  F  F </v>
   <v type="logical" >  F  F  F </v>
   <v type="logical" >  T  T  T </v>
   <v type="logical" >  F  F  F </v>
   <v type="logical" >  T  T  T </v>
   <v type="logical" >  T  T  T </v>
   <v type="logical" >  F  F  F </v>
   <v type="logical" >  T  T  T </v>
   <v type="logical" >  F  F  F </v>
   <v type="logical" >  T  T  T </v>
   <v type="logical" >  F  F  F </v>
   <v type="logical" >  F  F  F </v>
   <v type="logical" >  T  T  T </v>
   <v type="logical" >  T  T  T </v>
   <v type="logical" >  T  T  T </v>
   <v type="logical" >  T  T  T </v>
   <v type="logical" >  T  T  T </v>
   <v type="logical" >  T  T  T </v>
   <v type="logical" >  T  T  T </v>
   <v type="logical" >  T  T  T </v>
   <v type="logical" >  T  T  T </v>
   <v type="logical" >  T  T  T </v>
   <v type="logical" >  T  T  T </v>
   <v type="logical" >  T  T  T </v>
   <v type="logical" >  T  T  T </v>
   <v type="logical" >  T  T  T </v>
   <v type="logical" >  T  T  T </v>
   <v type="logical" >  T  T  T </v>
   <v type="logical" >  T  T  T </v>
   <v type="logical" >  T  T  T </v>
   <v type="logical" >  T  T  T </v>
   <v type="logical" >  T  T  T </v>
   <v type="logical" >  T  T  T </v>
   <v type="logical" >  T  T  T </v>
   <v type="logical" >  T  T  T </v>
   <v type="logical" >  T  T  T </v>
   <v type="logical" >  T  T  T </v>
   <v type="logical" >  T  T  T </v>
   <v type="logical" >  T  T  T </v>
   <v type="logical" >  T  T  T </v>
   <v type="logical" >  T  T  T </v>
   <v type="logical" >  T  T  T </v>
   <v type="logical" >  T  T  T </v>
   <v type="logical" >  T  T  T </v>
  </varray>
  <nose>
   <v>      -3.00000000       0.00000000       0.00010000       0.00010000 </v>
  </nose>
 </structure>
 <calculation>
  <scstep>
   <time name="dav">    8.55    8.57</time>
   <time name="total">    8.62    8.93</time>
   <dipole>
    <v name="dipole">      0.00000000       0.00000000       0.00007633 </v>
    <i name="Tr[quadrupol]"> -11342.38139158 </i>
    <i name="Echarged">      0.00000000 </i>
    <i name="Edipol_quadrupol">      0.00000000 </i>
    <i name="Eion">      0.00000000 </i>
   </dipole>
   <energy>
    <i name="alphaZ">    862.57805831 </i>
    <i name="ewald"> 254347.84459337 </i>
    <i name="hartreedc">-299918.90144396 </i>
    <i name="XCdc">   -110.07666598 </i>
    <i name="pawpsdc">  43112.45544455 </i>
    <i name="pawaedc"> -41079.41300390 </i>
    <i name="eentropy">     -0.13890081 </i>
    <i name="bandstr">   1325.80811019 </i>
    <i name="atom">  45117.89144060 </i>
    <i name="e_fr_energy">   3658.04763238 </i>
    <i name="e_wo_entrp">   3658.18653319 </i>
    <i name="e_0_energy">   3658.11708279 </i>
   </energy>
  </scstep>
  <scstep>
   <time name="dav">   10.18   10.21</time>
   <time name="total">   10.18   10.30</time>
   <dipole>
    <v name="dipole">      0.00000000       0.00000000       0.00007633 </v>
    <i name="Tr[quadrupol]"> -11342.38139158 </i>
    <i name="Echarged">      0.00000000 </i>
    <i name="Edipol_quadrupol">      0.00000000 </i>
    <i name="Eion">      0.00000000 </i>
   </dipole>
   <energy>
    <i name="e_fr_energy">     49.02382112 </i>
    <i name="e_wo_entrp">     49.19627597 </i>
    <i name="e_0_energy">     49.11004854 </i>
   </energy>
  </scstep>
  <scstep>
   <time name="dav">    9.82    9.92</time>
   <time name="total">    9.82    9.93</time>
   <dipole>
    <v name="dipole">      0.00000000       0.00000000       0.00007633 </v>
    <i name="Tr[quadrupol]"> -11342.38139158 </i>
    <i name="Echarged">      0.00000000 </i>
    <i name="Edipol_quadrupol">      0.00000000 </i>
    <i name="Eion">      0.00000000 </i>
   </dipole>
   <energy>
    <i name="e_fr_energy">   -257.72953470 </i>
    <i name="e_wo_entrp">   -257.27070536 </i>
    <i name="e_0_energy">   -257.50012003 </i>
   </energy>
  </scstep>
  <scstep>
   <time name="dav">    9.66    9.69</time>
   <time name="total">    9.66    9.69</time>
   <dipole>
    <v name="dipole">      0.00000000       0.00000000       0.00007633 </v>
    <i name="Tr[quadrupol]"> -11342.38139158 </i>
    <i name="Echarged">      0.00000000 </i>
    <i name="Edipol_quadrupol">      0.00000000 </i>
    <i name="Eion">      0.00000000 </i>
   </dipole>
   <energy>
    <i name="e_fr_energy">   -268.90715656 </i>
    <i name="e_wo_entrp">   -268.43820649 </i>
    <i name="e_0_energy">   -268.67268153 </i>
   </energy>
  </scstep>
  <scstep>
   <time name="dav">   10.08   10.11</time>
   <time name="total">   10.36   10.39</time>
   <dipole>
    <v name="dipole">      0.00000000       0.00000000       0.00007633 </v>
    <i name="Tr[quadrupol]"> -11342.38139158 </i>
    <i name="Echarged">      0.00000000 </i>
    <i name="Edipol_quadrupol">      0.00000000 </i>
    <i name="Eion">      0.00000000 </i>
   </dipole>
   <energy>
    <i name="e_fr_energy">   -269.24188511 </i>
    <i name="e_wo_entrp">   -268.77227244 </i>
    <i name="e_0_energy">   -269.00707877 </i>
   </energy>
  </scstep>
  <scstep>
   <time name="diag">    1.56    1.57</time>
   <time name="diis">    4.51    4.57</time>
   <time name="orth">    0.44    0.44</time>
   <time name="total">    6.85    6.92</time>
   <dipole>
    <v name="dipole">      0.00000000       0.00000000       9.34229883 </v>
    <i name="Tr[quadrupol]"> -11345.41595130 </i>
    <i name="Echarged">      0.00000000 </i>
    <i name="Edipol_quadrupol">      0.00000000 </i>
    <i name="Eion">      0.00000000 </i>
   </dipole>
   <energy>
    <i name="e_fr_energy">   -684.41480072 </i>
    <i name="e_wo_entrp">   -684.05821298 </i>
    <i name="e_0_energy">   -684.23650685 </i>
   </energy>
  </scstep>
  <scstep>
   <time name="diag">    1.57    1.58</time>
   <time name="diis">    4.09    4.10</time>
   <time name="orth">    0.44    0.44</time>
   <time name="total">    6.42    6.45</time>
   <dipole>
    <v name="dipole">      0.00000000       0.00000000       2.98668462 </v>
    <i name="Tr[quadrupol]"> -11336.96312540 </i>
    <i name="Echarged">      0.00000000 </i>
    <i name="Edipol_quadrupol">      0.00000000 </i>
    <i name="Eion">      0.00000000 </i>
   </dipole>
   <energy>
    <i name="e_fr_energy">   -267.05969409 </i>
    <i name="e_wo_entrp">   -266.84417972 </i>
    <i name="e_0_energy">   -266.95193691 </i>
   </energy>
  </scstep>
  <scstep>
   <time name="diag">    1.57    1.57</time>
   <time name="diis">    3.96    4.06</time>
   <time name="orth">    0.44    0.44</time>
   <time name="total">    6.28    6.39</time>
   <dipole>
    <v name="dipole">      0.00000000       0.00000000       3.23292674 </v>
    <i name="Tr[quadrupol]"> -11351.31603859 </i>
    <i name="Echarged">      0.00000000 </i>
    <i name="Edipol_quadrupol">      0.00000000 </i>
    <i name="Eion">      0.00000000 </i>
   </dipole>
   <energy>
    <i name="e_fr_energy">   -318.22414995 </i>
    <i name="e_wo_entrp">   -318.06245761 </i>
    <i name="e_0_energy">   -318.14330378 </i>
   </energy>
  </scstep>
  <scstep>
   <time name="diag">    1.58    1.58</time>
   <time name="diis">    4.14    4.15</time>
   <time name="orth">    0.44    0.44</time>
   <time name="total">    6.47    6.49</time>
   <dipole>
    <v name="dipole">      0.00000000       0.00000000       3.00297038 </v>
    <i name="Tr[quadrupol]"> -11354.58990034 </i>
    <i name="Echarged">      0.00000000 </i>
    <i name="Edipol_quadrupol">      0.00000000 </i>
    <i name="Eion">      0.00000000 </i>
   </dipole>
   <energy>
    <i name="e_fr_energy">   -246.12658321 </i>
    <i name="e_wo_entrp">   -245.93223520 </i>
    <i name="e_0_energy">   -246.02940920 </i>
   </energy>
  </scstep>
  <scstep>
   <time name="diag">    1.57    1.58</time>
   <time name="diis">    4.04    4.05</time>
   <time name="orth">    0.44    0.44</time>
   <time name="total">    6.37    6.39</time>
   <dipole>
    <v name="dipole">      0.00000000       0.00000000       2.98954554 </v>
    <i name="Tr[quadrupol]"> -11361.77294653 </i>
    <i name="Echarged">      0.00000000 </i>
    <i name="Edipol_quadrupol">      0.00000000 </i>
    <i name="Eion">      0.00000000 </i>
   </dipole>
   <energy>
    <i name="e_fr_energy">   -233.88225613 </i>
    <i name="e_wo_entrp">   -233.69712840 </i>
    <i name="e_0_energy">   -233.78969226 </i>
   </energy>
  </scstep>
  <scstep>
   <time name="diag">    1.58    1.59</time>
   <time name="diis">    4.05    4.06</time>
   <time name="orth">    0.43    0.43</time>
   <time name="total">    6.38    6.40</time>
   <dipole>
    <v name="dipole">      0.00000000       0.00000000       2.85000484 </v>
    <i name="Tr[quadrupol]"> -11362.36749037 </i>
    <i name="Echarged">      0.00000000 </i>
    <i name="Edipol_quadrupol">      0.00000000 </i>
    <i name="Eion">      0.00000000 </i>
   </dipole>
   <energy>
    <i name="e_fr_energy">   -230.87520795 </i>
    <i name="e_wo_entrp">   -230.57895410 </i>
    <i name="e_0_energy">   -230.72708103 </i>
   </energy>
  </scstep>
  <scstep>
   <time name="diag">    1.57    1.57</time>
   <time name="diis">    4.15    4.16</time>
   <time name="orth">    0.43    0.44</time>
   <time name="total">    6.47    6.49</time>
   <dipole>
    <v name="dipole">      0.00000000       0.00000000       2.49458695 </v>
    <i name="Tr[quadrupol]"> -11359.78347752 </i>
    <i name="Echarged">      0.00000000 </i>
    <i name="Edipol_quadrupol">      0.00000000 </i>
    <i name="Eion">      0.00000000 </i>
   </dipole>
   <energy>
    <i name="e_fr_energy">   -228.12030457 </i>
    <i name="e_wo_entrp">   -227.82269345 </i>
    <i name="e_0_energy">   -227.97149901 </i>
   </energy>
  </scstep>
  <scstep>
   <time name="diag">    1.56    1.57</time>
   <time name="diis">    4.16    4.18</time>
   <time name="orth">    0.43    0.43</time>
   <time name="total">    6.48    6.50</time>
   <dipole>
    <v name="dipole">      0.00000000       0.00000000       2.53402754 </v>
    <i name="Tr[quadrupol]"> -11358.57879275 </i>
    <i name="Echarged">      0.00000000 </i>
    <i name="Edipol_quadrupol">      0.00000000 </i>
    <i name="Eion">      0.00000000 </i>
   </dipole>
   <energy>
    <i name="e_fr_energy">   -224.88894984 </i>
    <i name="e_wo_entrp">   -224.62747843 </i>
    <i name="e_0_energy">   -224.75821413 </i>
   </energy>
  </scstep>
  <scstep>
   <time name="diag">    1.56    1.57</time>
   <time name="diis">    4.00    4.10</time>
   <time name="orth">    0.43    0.44</time>
   <time name="total">    6.32    6.43</time>
   <dipole>
    <v name="dipole">      0.00000000       0.00000000       2.60543140 </v>
    <i name="Tr[quadrupol]"> -11357.65624387 </i>
    <i name="Echarged">      0.00000000 </i>
    <i name="Edipol_quadrupol">      0.00000000 </i>
    <i name="Eion">      0.00000000 </i>
   </dipole>
   <energy>
    <i name="e_fr_energy">   -223.71852110 </i>
    <i name="e_wo_entrp">   -223.47031440 </i>
    <i name="e_0_energy">   -223.59441775 </i>
   </energy>
  </scstep>
  <scstep>
   <time name="diag">    1.56    1.57</time>
   <time name="diis">    4.11    4.14</time>
   <time name="orth">    0.43    0.44</time>
   <time name="total">    6.41    6.47</time>
   <dipole>
    <v name="dipole">      0.00000000       0.00000000       2.64644420 </v>
    <i name="Tr[quadrupol]"> -11356.70510638 </i>
    <i name="Echarged">      0.00000000 </i>
    <i name="Edipol_quadrupol">      0.00000000 </i>
    <i name="Eion">      0.00000000 </i>
   </dipole>
   <energy>
    <i name="e_fr_energy">   -223.12359028 </i>
    <i name="e_wo_entrp">   -222.85053547 </i>
    <i name="e_0_energy">   -222.98706287 </i>
   </energy>
  </scstep>
  <scstep>
   <time name="diag">    1.56    1.56</time>
   <time name="diis">    4.15    4.16</time>
   <time name="orth">    0.43    0.44</time>
   <time name="total">    6.47    6.48</time>
   <dipole>
    <v name="dipole">      0.00000000       0.00000000       2.60847206 </v>
    <i name="Tr[quadrupol]"> -11355.88240160 </i>
    <i name="Echarged">      0.00000000 </i>
    <i name="Edipol_quadrupol">      0.00000000 </i>
    <i name="Eion">      0.00000000 </i>
   </dipole>
   <energy>
    <i name="e_fr_energy">   -222.97571132 </i>
    <i name="e_wo_entrp">   -222.68781616 </i>
    <i name="e_0_energy">   -222.83176374 </i>
   </energy>
  </scstep>
  <scstep>
   <time name="diag">    1.56    1.57</time>
   <time name="diis">    4.17    4.18</time>
   <time name="orth">    0.43    0.43</time>
   <time name="total">    6.48    6.50</time>
   <dipole>
    <v name="dipole">      0.00000000       0.00000000       2.53400708 </v>
    <i name="Tr[quadrupol]"> -11354.85725806 </i>
    <i name="Echarged">      0.00000000 </i>
    <i name="Edipol_quadrupol">      0.00000000 </i>
    <i name="Eion">      0.00000000 </i>
   </dipole>
   <energy>
    <i name="e_fr_energy">   -222.78463144 </i>
    <i name="e_wo_entrp">   -222.49868440 </i>
    <i name="e_0_energy">   -222.64165792 </i>
   </energy>
  </scstep>
  <scstep>
   <time name="diag">    1.56    1.57</time>
   <time name="diis">    4.16    4.17</time>
   <time name="orth">    0.43    0.44</time>
   <time name="total">    6.48    6.50</time>
   <dipole>
    <v name="dipole">      0.00000000       0.00000000       2.39213710 </v>
    <i name="Tr[quadrupol]"> -11353.52645869 </i>
    <i name="Echarged">      0.00000000 </i>
    <i name="Edipol_quadrupol">      0.00000000 </i>
    <i name="Eion">      0.00000000 </i>
   </dipole>
   <energy>
    <i name="e_fr_energy">   -222.77075412 </i>
    <i name="e_wo_entrp">   -222.49422250 </i>
    <i name="e_0_energy">   -222.63248831 </i>
   </energy>
  </scstep>
  <scstep>
   <time name="diag">    1.57    1.58</time>
   <time name="diis">    4.15    4.16</time>
   <time name="orth">    0.43    0.43</time>
   <time name="total">    6.47    6.49</time>
   <dipole>
    <v name="dipole">      0.00000000       0.00000000       2.31896101 </v>
    <i name="Tr[quadrupol]"> -11352.59471259 </i>
    <i name="Echarged">      0.00000000 </i>
    <i name="Edipol_quadrupol">      0.00000000 </i>
    <i name="Eion">      0.00000000 </i>
   </dipole>
   <energy>
    <i name="e_fr_energy">   -222.70116808 </i>
    <i name="e_wo_entrp">   -222.41837677 </i>
    <i name="e_0_energy">   -222.55977243 </i>
   </energy>
  </scstep>
  <scstep>
   <time name="diag">    1.56    1.56</time>
   <time name="diis">    4.04    4.14</time>
   <time name="orth">    0.43    0.43</time>
   <time name="total">    6.35    6.46</time>
   <dipole>
    <v name="dipole">      0.00000000       0.00000000       2.25634657 </v>
    <i name="Tr[quadrupol]"> -11351.51211327 </i>
    <i name="Echarged">      0.00000000 </i>
    <i name="Edipol_quadrupol">      0.00000000 </i>
    <i name="Eion">      0.00000000 </i>
   </dipole>
   <energy>
    <i name="e_fr_energy">   -222.64462320 </i>
    <i name="e_wo_entrp">   -222.36127552 </i>
    <i name="e_0_energy">   -222.50294936 </i>
   </energy>
  </scstep>
  <scstep>
   <time name="diag">    1.56    1.56</time>
   <time name="diis">    4.13    4.15</time>
   <time name="orth">    0.43    0.44</time>
   <time name="total">    6.45    6.47</time>
   <dipole>
    <v name="dipole">      0.00000000       0.00000000       2.18283568 </v>
    <i name="Tr[quadrupol]"> -11350.30692341 </i>
    <i name="Echarged">      0.00000000 </i>
    <i name="Edipol_quadrupol">      0.00000000 </i>
    <i name="Eion">      0.00000000 </i>
   </dipole>
   <energy>
    <i name="e_fr_energy">   -222.59313987 </i>
    <i name="e_wo_entrp">   -222.30775647 </i>
    <i name="e_0_energy">   -222.45044817 </i>
   </energy>
  </scstep>
  <scstep>
   <time name="diag">    1.56    1.56</time>
   <time name="diis">    4.13    4.14</time>
   <time name="orth">    0.43    0.43</time>
   <time name="total">    6.45    6.47</time>
   <dipole>
    <v name="dipole">      0.00000000       0.00000000       2.13858243 </v>
    <i name="Tr[quadrupol]"> -11349.71995769 </i>
    <i name="Echarged">      0.00000000 </i>
    <i name="Edipol_quadrupol">      0.00000000 </i>
    <i name="Eion">      0.00000000 </i>
   </dipole>
   <energy>
    <i name="e_fr_energy">   -222.57928712 </i>
    <i name="e_wo_entrp">   -222.29415095 </i>
    <i name="e_0_energy">   -222.43671904 </i>
   </energy>
  </scstep>
  <scstep>
   <time name="diag">    1.56    1.57</time>
   <time name="diis">    4.18    4.19</time>
   <time name="orth">    0.43    0.43</time>
   <time name="total">    6.49    6.51</time>
   <dipole>
    <v name="dipole">      0.00000000       0.00000000       2.09179464 </v>
    <i name="Tr[quadrupol]"> -11349.14034954 </i>
    <i name="Echarged">      0.00000000 </i>
    <i name="Edipol_quadrupol">      0.00000000 </i>
    <i name="Eion">      0.00000000 </i>
   </dipole>
   <energy>
    <i name="e_fr_energy">   -222.57064859 </i>
    <i name="e_wo_entrp">   -222.28283460 </i>
    <i name="e_0_energy">   -222.42674160 </i>
   </energy>
  </scstep>
  <scstep>
   <time name="diag">    1.56    1.57</time>
   <time name="diis">    4.18    4.19</time>
   <time name="orth">    0.43    0.43</time>
   <time name="total">    6.49    6.51</time>
   <dipole>
    <v name="dipole">      0.00000000       0.00000000       2.03258040 </v>
    <i name="Tr[quadrupol]"> -11348.31501757 </i>
    <i name="Echarged">      0.00000000 </i>
    <i name="Edipol_quadrupol">      0.00000000 </i>
    <i name="Eion">      0.00000000 </i>
   </dipole>
   <energy>
    <i name="e_fr_energy">   -222.55844573 </i>
    <i name="e_wo_entrp">   -222.27189560 </i>
    <i name="e_0_energy">   -222.41517067 </i>
   </energy>
  </scstep>
  <scstep>
   <time name="diag">    1.54    1.57</time>
   <time name="diis">    4.16    4.18</time>
   <time name="orth">    0.43    0.43</time>
   <time name="total">    6.45    6.50</time>
   <dipole>
    <v name="dipole">      0.00000000       0.00000000       1.95249782 </v>
    <i name="Tr[quadrupol]"> -11347.11430209 </i>
    <i name="Echarged">      0.00000000 </i>
    <i name="Edipol_quadrupol">      0.00000000 </i>
    <i name="Eion">      0.00000000 </i>
   </dipole>
   <energy>
    <i name="e_fr_energy">   -222.54256353 </i>
    <i name="e_wo_entrp">   -222.25688873 </i>
    <i name="e_0_energy">   -222.39972613 </i>
   </energy>
  </scstep>
  <scstep>
   <time name="diag">    1.56    1.56</time>
   <time name="diis">    4.08    4.09</time>
   <time name="orth">    0.43    0.43</time>
   <time name="total">    6.40    6.42</time>
   <dipole>
    <v name="dipole">      0.00000000       0.00000000       1.87540743 </v>
    <i name="Tr[quadrupol]"> -11345.98626095 </i>
    <i name="Echarged">      0.00000000 </i>
    <i name="Edipol_quadrupol">      0.00000000 </i>
    <i name="Eion">      0.00000000 </i>
   </dipole>
   <energy>
    <i name="e_fr_energy">   -222.53176779 </i>
    <i name="e_wo_entrp">   -222.24497992 </i>
    <i name="e_0_energy">   -222.38837386 </i>
   </energy>
  </scstep>
  <scstep>
   <time name="diag">    1.55    1.62</time>
   <time name="diis">    4.10    4.12</time>
   <time name="orth">    0.43    0.43</time>
   <time name="total">    6.40    6.50</time>
   <dipole>
    <v name="dipole">      0.00000000       0.00000000       1.77107579 </v>
    <i name="Tr[quadrupol]"> -11344.55907037 </i>
    <i name="Echarged">      0.00000000 </i>
    <i name="Edipol_quadrupol">      0.00000000 </i>
    <i name="Eion">      0.00000000 </i>
   </dipole>
   <energy>
    <i name="e_fr_energy">   -222.52165387 </i>
    <i name="e_wo_entrp">   -222.23591967 </i>
    <i name="e_0_energy">   -222.37878677 </i>
   </energy>
  </scstep>
  <scstep>
   <time name="diag">    1.56    1.56</time>
   <time name="diis">    4.14    4.15</time>
   <time name="orth">    0.43    0.43</time>
   <time name="total">    6.46    6.47</time>
   <dipole>
    <v name="dipole">      0.00000000       0.00000000       1.70994782 </v>
    <i name="Tr[quadrupol]"> -11343.67290628 </i>
    <i name="Echarged">      0.00000000 </i>
    <i name="Edipol_quadrupol">      0.00000000 </i>
    <i name="Eion">      0.00000000 </i>
   </dipole>
   <energy>
    <i name="e_fr_energy">   -222.51577885 </i>
    <i name="e_wo_entrp">   -222.22955462 </i>
    <i name="e_0_energy">   -222.37266673 </i>
   </energy>
  </scstep>
  <scstep>
   <time name="diag">    1.56    1.56</time>
   <time name="diis">    4.17    4.18</time>
   <time name="orth">    0.43    0.43</time>
   <time name="total">    6.47    6.49</time>
   <dipole>
    <v name="dipole">      0.00000000       0.00000000       1.67290805 </v>
    <i name="Tr[quadrupol]"> -11343.17805322 </i>
    <i name="Echarged">      0.00000000 </i>
    <i name="Edipol_quadrupol">      0.00000000 </i>
    <i name="Eion">      0.00000000 </i>
   </dipole>
   <energy>
    <i name="e_fr_energy">   -222.51372894 </i>
    <i name="e_wo_entrp">   -222.22711288 </i>
    <i name="e_0_energy">   -222.37042091 </i>
   </energy>
  </scstep>
  <scstep>
   <time name="diag">    1.56    1.56</time>
   <time name="diis">    4.20    4.22</time>
   <time name="orth">    0.43    0.43</time>
   <time name="total">    6.52    6.54</time>
   <dipole>
    <v name="dipole">      0.00000000       0.00000000       1.62827040 </v>
    <i name="Tr[quadrupol]"> -11342.56850136 </i>
    <i name="Echarged">      0.00000000 </i>
    <i name="Edipol_quadrupol">      0.00000000 </i>
    <i name="Eion">      0.00000000 </i>
   </dipole>
   <energy>
    <i name="e_fr_energy">   -222.51134554 </i>
    <i name="e_wo_entrp">   -222.22582710 </i>
    <i name="e_0_energy">   -222.36858632 </i>
   </energy>
  </scstep>
  <scstep>
   <time name="diag">    1.56    1.57</time>
   <time name="diis">    4.20    4.21</time>
   <time name="orth">    0.43    0.43</time>
   <time name="total">    6.52    6.54</time>
   <dipole>
    <v name="dipole">      0.00000000       0.00000000       1.58683425 </v>
    <i name="Tr[quadrupol]"> -11342.01157879 </i>
    <i name="Echarged">      0.00000000 </i>
    <i name="Edipol_quadrupol">      0.00000000 </i>
    <i name="Eion">      0.00000000 </i>
   </dipole>
   <energy>
    <i name="e_fr_energy">   -222.50958731 </i>
    <i name="e_wo_entrp">   -222.22384522 </i>
    <i name="e_0_energy">   -222.36671626 </i>
   </energy>
  </scstep>
  <scstep>
   <time name="diag">    1.56    1.57</time>
   <time name="diis">    4.28    4.29</time>
   <time name="orth">    0.43    0.43</time>
   <time name="total">    6.61    6.62</time>
   <dipole>
    <v name="dipole">      0.00000000       0.00000000       1.52794593 </v>
    <i name="Tr[quadrupol]"> -11341.26281442 </i>
    <i name="Echarged">      0.00000000 </i>
    <i name="Edipol_quadrupol">      0.00000000 </i>
    <i name="Eion">      0.00000000 </i>
   </dipole>
   <energy>
    <i name="e_fr_energy">   -222.50794803 </i>
    <i name="e_wo_entrp">   -222.22208505 </i>
    <i name="e_0_energy">   -222.36501654 </i>
   </energy>
  </scstep>
  <scstep>
   <time name="diag">    1.56    1.56</time>
   <time name="diis">    3.99    4.09</time>
   <time name="orth">    0.43    0.43</time>
   <time name="total">    6.31    6.42</time>
   <dipole>
    <v name="dipole">      0.00000000       0.00000000       1.49183291 </v>
    <i name="Tr[quadrupol]"> -11340.82341607 </i>
    <i name="Echarged">      0.00000000 </i>
    <i name="Edipol_quadrupol">      0.00000000 </i>
    <i name="Eion">      0.00000000 </i>
   </dipole>
   <energy>
    <i name="e_fr_energy">   -222.50725222 </i>
    <i name="e_wo_entrp">   -222.22127507 </i>
    <i name="e_0_energy">   -222.36426364 </i>
   </energy>
  </scstep>
  <scstep>
   <time name="diag">    1.56    1.57</time>
   <time name="diis">    4.11    4.12</time>
   <time name="orth">    0.43    0.43</time>
   <time name="total">    6.43    6.45</time>
   <dipole>
    <v name="dipole">      0.00000000       0.00000000       1.48206318 </v>
    <i name="Tr[quadrupol]"> -11340.72080186 </i>
    <i name="Echarged">      0.00000000 </i>
    <i name="Edipol_quadrupol">      0.00000000 </i>
    <i name="Eion">      0.00000000 </i>
   </dipole>
   <energy>
    <i name="e_fr_energy">   -222.50713513 </i>
    <i name="e_wo_entrp">   -222.22126905 </i>
    <i name="e_0_energy">   -222.36420209 </i>
   </energy>
  </scstep>
  <scstep>
   <time name="diag">    1.56    1.57</time>
   <time name="diis">    4.04    4.05</time>
   <time name="orth">    0.43    0.43</time>
   <time name="total">    6.36    6.38</time>
   <dipole>
    <v name="dipole">      0.00000000       0.00000000       1.47268446 </v>
    <i name="Tr[quadrupol]"> -11340.64205325 </i>
    <i name="Echarged">      0.00000000 </i>
    <i name="Edipol_quadrupol">      0.00000000 </i>
    <i name="Eion">      0.00000000 </i>
   </dipole>
   <energy>
    <i name="e_fr_energy">   -222.50716154 </i>
    <i name="e_wo_entrp">   -222.22118928 </i>
    <i name="e_0_energy">   -222.36417541 </i>
   </energy>
  </scstep>
  <scstep>
   <time name="diag">    1.56    1.57</time>
   <time name="diis">    4.17    4.18</time>
   <time name="orth">    0.43    0.43</time>
   <time name="total">    6.48    6.51</time>
   <dipole>
    <v name="dipole">      0.00000000       0.00000000       1.45650492 </v>
    <i name="Tr[quadrupol]"> -11340.51878065 </i>
    <i name="Echarged">      0.00000000 </i>
    <i name="Edipol_quadrupol">      0.00000000 </i>
    <i name="Eion">      0.00000000 </i>
   </dipole>
   <energy>
    <i name="e_fr_energy">   -222.50726276 </i>
    <i name="e_wo_entrp">   -222.22130021 </i>
    <i name="e_0_energy">   -222.36428149 </i>
   </energy>
  </scstep>
  <scstep>
   <time name="diag">    1.56    1.56</time>
   <time name="diis">    3.99    4.00</time>
   <time name="orth">    0.43    0.43</time>
   <time name="total">    6.30    6.32</time>
   <dipole>
    <v name="dipole">      0.00000000       0.00000000       1.44667384 </v>
    <i name="Tr[quadrupol]"> -11340.44792334 </i>
    <i name="Echarged">      0.00000000 </i>
    <i name="Edipol_quadrupol">      0.00000000 </i>
    <i name="Eion">      0.00000000 </i>
   </dipole>
   <energy>
    <i name="e_fr_energy">   -222.50734287 </i>
    <i name="e_wo_entrp">   -222.22137941 </i>
    <i name="e_0_energy">   -222.36436114 </i>
   </energy>
  </scstep>
  <scstep>
   <time name="diag">    1.56    1.57</time>
   <time name="diis">    3.63    3.64</time>
   <time name="orth">    0.43    0.43</time>
   <time name="total">    5.96    5.98</time>
   <dipole>
    <v name="dipole">      0.00000000       0.00000000       1.43876187 </v>
    <i name="Tr[quadrupol]"> -11340.37818461 </i>
    <i name="Echarged">      0.00000000 </i>
    <i name="Edipol_quadrupol">      0.00000000 </i>
    <i name="Eion">      0.00000000 </i>
   </dipole>
   <energy>
    <i name="e_fr_energy">   -222.50736599 </i>
    <i name="e_wo_entrp">   -222.22148617 </i>
    <i name="e_0_energy">   -222.36442608 </i>
   </energy>
  </scstep>
  <scstep>
   <time name="diag">    1.57    1.57</time>
   <time name="diis">    3.15    3.25</time>
   <time name="orth">    0.43    0.43</time>
   <time name="total">    5.48    5.58</time>
   <dipole>
    <v name="dipole">      0.00000000       0.00000000       1.43262475 </v>
    <i name="Tr[quadrupol]"> -11340.32499882 </i>
    <i name="Echarged">      0.00000000 </i>
    <i name="Edipol_quadrupol">      0.00000000 </i>
    <i name="Eion">      0.00000000 </i>
   </dipole>
   <energy>
    <i name="e_fr_energy">   -222.50742176 </i>
    <i name="e_wo_entrp">   -222.22155443 </i>
    <i name="e_0_energy">   -222.36448810 </i>
   </energy>
  </scstep>
  <scstep>
   <time name="diag">    1.57    1.57</time>
   <time name="diis">    3.06    3.07</time>
   <time name="orth">    0.43    0.43</time>
   <time name="total">    5.39    5.41</time>
   <dipole>
    <v name="dipole">      0.00000000       0.00000000       1.42623785 </v>
    <i name="Tr[quadrupol]"> -11340.27668043 </i>
    <i name="Echarged">      0.00000000 </i>
    <i name="Edipol_quadrupol">      0.00000000 </i>
    <i name="Eion">      0.00000000 </i>
   </dipole>
   <energy>
    <i name="e_fr_energy">   -222.50751879 </i>
    <i name="e_wo_entrp">   -222.22155212 </i>
    <i name="e_0_energy">   -222.36453546 </i>
   </energy>
  </scstep>
  <scstep>
   <time name="diag">    1.56    1.57</time>
   <time name="diis">    2.88    2.88</time>
   <time name="orth">    0.43    0.43</time>
   <time name="total">    5.20    5.22</time>
   <dipole>
    <v name="dipole">      0.00000000       0.00000000       1.42229045 </v>
    <i name="Tr[quadrupol]"> -11340.25055007 </i>
    <i name="Echarged">      0.00000000 </i>
    <i name="Edipol_quadrupol">      0.00000000 </i>
    <i name="Eion">      0.00000000 </i>
   </dipole>
   <energy>
    <i name="e_fr_energy">   -222.50762921 </i>
    <i name="e_wo_entrp">   -222.22172675 </i>
    <i name="e_0_energy">   -222.36467798 </i>
   </energy>
  </scstep>
  <scstep>
   <time name="diag">    1.57    1.57</time>
   <time name="diis">    2.72    2.73</time>
   <time name="orth">    0.43    0.43</time>
   <time name="total">    5.06    5.07</time>
   <dipole>
    <v name="dipole">      0.00000000       0.00000000       1.42007403 </v>
    <i name="Tr[quadrupol]"> -11340.23696819 </i>
    <i name="Echarged">      0.00000000 </i>
    <i name="Edipol_quadrupol">      0.00000000 </i>
    <i name="Eion">      0.00000000 </i>
   </dipole>
   <energy>
    <i name="e_fr_energy">   -222.50770006 </i>
    <i name="e_wo_entrp">   -222.22179143 </i>
    <i name="e_0_energy">   -222.36474575 </i>
   </energy>
  </scstep>
  <scstep>
   <time name="diag">    1.58    1.58</time>
   <time name="diis">    2.60    2.61</time>
   <time name="orth">    0.43    0.43</time>
   <time name="total">    4.94    4.95</time>
   <dipole>
    <v name="dipole">      0.00000000       0.00000000       1.41816015 </v>
    <i name="Tr[quadrupol]"> -11340.21915494 </i>
    <i name="Echarged">      0.00000000 </i>
    <i name="Edipol_quadrupol">      0.00000000 </i>
    <i name="Eion">      0.00000000 </i>
   </dipole>
   <energy>
    <i name="e_fr_energy">   -222.50774821 </i>
    <i name="e_wo_entrp">   -222.22183538 </i>
    <i name="e_0_energy">   -222.36479180 </i>
   </energy>
  </scstep>
  <scstep>
   <time name="diag">    1.57    1.57</time>
   <time name="diis">    2.52    2.55</time>
   <time name="orth">    0.43    0.44</time>
   <time name="total">    4.84    4.89</time>
   <dipole>
    <v name="dipole">      0.00000000       0.00000000       1.41740388 </v>
    <i name="Tr[quadrupol]"> -11340.21326946 </i>
    <i name="Echarged">      0.00000000 </i>
    <i name="Edipol_quadrupol">      0.00000000 </i>
    <i name="Eion">      0.00000000 </i>
   </dipole>
   <energy>
    <i name="e_fr_energy">   -222.50778880 </i>
    <i name="e_wo_entrp">   -222.22185748 </i>
    <i name="e_0_energy">   -222.36482314 </i>
   </energy>
  </scstep>
  <scstep>
   <time name="diag">    1.56    1.57</time>
   <time name="diis">    2.52    2.52</time>
   <time name="orth">    0.43    0.43</time>
   <time name="total">    4.84    4.87</time>
   <dipole>
    <v name="dipole">      0.00000000       0.00000000       1.41652766 </v>
    <i name="Tr[quadrupol]"> -11340.20193462 </i>
    <i name="Echarged">      0.00000000 </i>
    <i name="Edipol_quadrupol">      0.00000000 </i>
    <i name="Eion">      0.00000000 </i>
   </dipole>
   <energy>
    <i name="e_fr_energy">   -222.50782407 </i>
    <i name="e_wo_entrp">   -222.22190078 </i>
    <i name="e_0_energy">   -222.36486243 </i>
   </energy>
  </scstep>
  <scstep>
   <time name="diag">    1.56    1.56</time>
   <time name="diis">    2.46    2.47</time>
   <time name="orth">    0.43    0.43</time>
   <time name="total">    4.79    4.81</time>
   <dipole>
    <v name="dipole">      0.00000000       0.00000000       1.41623486 </v>
    <i name="Tr[quadrupol]"> -11340.19612813 </i>
    <i name="Echarged">      0.00000000 </i>
    <i name="Edipol_quadrupol">      0.00000000 </i>
    <i name="Eion">      0.00000000 </i>
   </dipole>
   <energy>
    <i name="e_fr_energy">   -222.50784447 </i>
    <i name="e_wo_entrp">   -222.22192211 </i>
    <i name="e_0_energy">   -222.36488329 </i>
   </energy>
  </scstep>
  <scstep>
   <time name="diag">    1.57    1.57</time>
   <time name="diis">    2.06    2.14</time>
   <time name="orth">    0.43    0.44</time>
   <time name="total">    4.39    4.48</time>
   <dipole>
    <v name="dipole">      0.00000000       0.00000000       1.41618899 </v>
    <i name="Tr[quadrupol]"> -11340.19086011 </i>
    <i name="Echarged">      0.00000000 </i>
    <i name="Edipol_quadrupol">      0.00000000 </i>
    <i name="Eion">      0.00000000 </i>
   </dipole>
   <energy>
    <i name="e_fr_energy">   -222.50785532 </i>
    <i name="e_wo_entrp">   -222.22193272 </i>
    <i name="e_0_energy">   -222.36489402 </i>
   </energy>
  </scstep>
  <scstep>
   <time name="diag">    1.56    1.56</time>
   <time name="diis">    2.27    2.28</time>
   <time name="orth">    0.43    0.43</time>
   <time name="total">    4.59    4.61</time>
   <dipole>
    <v name="dipole">      0.00000000       0.00000000       1.41636450 </v>
    <i name="Tr[quadrupol]"> -11340.18868104 </i>
    <i name="Echarged">      0.00000000 </i>
    <i name="Edipol_quadrupol">      0.00000000 </i>
    <i name="Eion">      0.00000000 </i>
   </dipole>
   <energy>
    <i name="e_fr_energy">   -222.50786154 </i>
    <i name="e_wo_entrp">   -222.22193774 </i>
    <i name="e_0_energy">   -222.36489964 </i>
   </energy>
  </scstep>
  <scstep>
   <time name="diag">    1.56    1.56</time>
   <time name="diis">    1.97    1.98</time>
   <time name="orth">    0.43    0.43</time>
   <time name="total">    4.29    4.31</time>
   <dipole>
    <v name="dipole">      0.00000000       0.00000000       1.41664633 </v>
    <i name="Tr[quadrupol]"> -11340.18672383 </i>
    <i name="Echarged">      0.00000000 </i>
    <i name="Edipol_quadrupol">      0.00000000 </i>
    <i name="Eion">      0.00000000 </i>
   </dipole>
   <energy>
    <i name="e_fr_energy">   -222.50786572 </i>
    <i name="e_wo_entrp">   -222.22194363 </i>
    <i name="e_0_energy">   -222.36490467 </i>
   </energy>
  </scstep>
  <scstep>
   <time name="diag">    1.55    1.56</time>
   <time name="diis">    1.79    1.80</time>
   <time name="orth">    0.43    0.43</time>
   <time name="total">    4.11    4.13</time>
   <dipole>
    <v name="dipole">      0.00000000       0.00000000       1.41686541 </v>
    <i name="Tr[quadrupol]"> -11340.18613816 </i>
    <i name="Echarged">      0.00000000 </i>
    <i name="Edipol_quadrupol">      0.00000000 </i>
    <i name="Eion">      0.00000000 </i>
   </dipole>
   <energy>
    <i name="e_fr_energy">   -222.50786729 </i>
    <i name="e_wo_entrp">   -222.22194426 </i>
    <i name="e_0_energy">   -222.36490577 </i>
   </energy>
  </scstep>
  <scstep>
   <time name="diag">    1.56    1.57</time>
   <time name="diis">    1.67    1.68</time>
   <time name="orth">    0.43    0.43</time>
   <time name="total">    3.72    3.73</time>
   <dipole>
    <v name="dipole">      0.00000000       0.00000000       1.41705512 </v>
    <i name="Tr[quadrupol]"> -11340.18466740 </i>
    <i name="Echarged">      0.00000000 </i>
    <i name="Edipol_quadrupol">      0.00000000 </i>
    <i name="Eion">      0.00000000 </i>
   </dipole>
   <energy>
    <i name="alphaZ">    891.78459324 </i>
    <i name="ewald"> 254347.84459337 </i>
    <i name="hartreedc">-299320.66394146 </i>
    <i name="XCdc">   -125.18729007 </i>
    <i name="pawpsdc">  52772.18473673 </i>
    <i name="pawaedc"> -50874.84624008 </i>
    <i name="eentropy">     -0.28592146 </i>
    <i name="bandstr">  -3031.22983906 </i>
    <i name="atom">  45117.89144060 </i>
    <i name="e_fr_energy">   -222.50786819 </i>
    <i name="e_wo_entrp">   -222.22194673 </i>
    <i name="e_0_energy">   -222.36490746 </i>
   </energy>
  </scstep>
  <structure>
   <crystal>
    <varray name="basis" >
     <v>      11.00258152       0.00000000       0.00000000 </v>
     <v>       5.50129076       9.52851510       0.00000000 </v>
     <v>       0.00000000       0.00000000      26.19178509 </v>
    </varray>
    <i name="volume">   2745.90128299 </i>
    <varray name="rec_basis" >
     <v>       0.09088776      -0.05247407       0.00000000 </v>
     <v>       0.00000000       0.10494815       0.00000000 </v>
     <v>       0.00000000       0.00000000       0.03817991 </v>
    </varray>
   </crystal>
   <varray name="positions" >
    <v>       0.08333333       0.08333333       0.38179910 </v>
    <v>       0.08333333       0.58333333       0.38179910 </v>
    <v>       0.33333333       0.08333333       0.38179910 </v>
    <v>       0.83333333       0.83333333       0.38179910 </v>
    <v>       0.08333333       0.83333333       0.38179910 </v>
    <v>       0.91666667       0.41666667       0.46754708 </v>
    <v>       0.08333333       0.33333333       0.38179910 </v>
    <v>       0.83333333       0.58333333       0.38179910 </v>
    <v>       0.16666667       0.16666667       0.46754708 </v>
    <v>       0.58333333       0.33333333       0.38179910 </v>
    <v>       0.83333333       0.33333333       0.38179910 </v>
    <v>       0.41666667       0.91666667       0.46754708 </v>
    <v>       0.83333333       0.08333333       0.38179910 </v>
    <v>       0.58333333       0.58333333       0.38179910 </v>
    <v>       0.41666667       0.41666667       0.46754708 </v>
    <v>       0.58333333       0.08333333       0.38179910 </v>
    <v>       0.25000000       0.00000000       0.55329505 </v>
    <v>       0.16666667       0.91666667       0.46754708 </v>
    <v>       0.33333333       0.83333333       0.38179910 </v>
    <v>       0.16666667       0.66666667       0.46754708 </v>
    <v>       0.33333333       0.58333333       0.38179910 </v>
    <v>       0.16666667       0.41666667       0.46754708 </v>
    <v>       0.33333333       0.33333333       0.38179910 </v>
    <v>       0.58333333       0.83333333       0.38179910 </v>
    <v>       0.33333333       0.58333333       0.61820090 </v>
    <v>       0.33333333       0.33333333       0.61820090 </v>
    <v>       0.83333333       0.58333333       0.61820090 </v>
    <v>       0.08333333       0.33333333       0.61820090 </v>
    <v>       0.58333333       0.33333333       0.61820090 </v>
    <v>       0.58333333       0.58333333       0.61820090 </v>
    <v>       0.83333333       0.08333333       0.61820090 </v>
    <v>       0.08333333       0.83333333       0.61820090 </v>
    <v>       0.25000000       0.75000000       0.55329505 </v>
    <v>       0.75000000       0.75000000       0.55329505 </v>
    <v>       0.75000000       0.25000000       0.55329505 </v>
    <v>       0.41666667       0.16666667       0.46754708 </v>
    <v>       0.50000000       0.00000000       0.55329505 </v>
    <v>       0.75000000       0.50000000       0.55329505 </v>
    <v>       0.25000000       0.50000000       0.55329505 </v>
    <v>       0.00000000       0.25000000       0.55329505 </v>
    <v>       0.50000000       0.25000000       0.55329505 </v>
    <v>       0.25000000       0.25000000       0.55329505 </v>
    <v>       0.41666667       0.66666667       0.46754708 </v>
    <v>       0.91666667       0.66666667       0.46754708 </v>
    <v>       0.91666667       0.91666667       0.46754708 </v>
    <v>       0.00000000       0.75000000       0.55329505 </v>
    <v>       0.66666667       0.91666667       0.46754708 </v>
    <v>       0.50000000       0.75000000       0.55329505 </v>
    <v>       0.66666667       0.66666667       0.46754708 </v>
    <v>       0.00000000       0.00000000       0.55329505 </v>
    <v>       0.66666667       0.16666667       0.46754708 </v>
    <v>       0.75000000       0.00000000       0.55329505 </v>
    <v>       0.91666667       0.16666667       0.46754708 </v>
    <v>       0.66666667       0.41666667       0.46754708 </v>
    <v>       0.00000000       0.50000000       0.55329505 </v>
    <v>       0.50000000       0.50000000       0.55329505 </v>
   </varray>
  </structure>
  <varray name="forces" >
   <v>      -0.18271753       0.09519152      -1.62200877 </v>
   <v>      -0.16371865       0.08357784      -1.63118199 </v>
   <v>       0.22759911       0.03409824      -1.64125679 </v>
   <v>      -0.01686133      -0.01968768      -1.05653594 </v>
   <v>      -0.14462974       0.06072967      -1.59368533 </v>
   <v>      -0.53420267       0.32892085       0.90697517 </v>
   <v>      -0.00530315       0.04798115      -1.87427244 </v>
   <v>       0.01755637       0.21841805      -1.32916692 </v>
   <v>       0.07216165       0.25910127       0.74892658 </v>
   <v>       0.22391810      -0.05444032      -1.31460978 </v>
   <v>      -0.21219646      -0.12497485      -1.38507042 </v>
   <v>       0.70357799      -0.44155556       0.91329289 </v>
   <v>       0.00252943       0.03968468      -1.05679709 </v>
   <v>      -0.03941425      -0.03678212      -1.09518954 </v>
   <v>       0.48979426      -0.16889475       0.81432522 </v>
   <v>      -0.03486070      -0.02590446      -1.11022711 </v>
   <v>       0.13405127      -0.03586468       1.58278640 </v>
   <v>      -0.59767861      -0.17891566       0.89647708 </v>
   <v>      -0.04383390      -0.19553279      -1.61201639 </v>
   <v>      -0.15759228       0.15179815       0.97391024 </v>
   <v>       0.17429769       0.08311095      -1.65014847 </v>
   <v>       0.03222727       0.16705675       1.09517229 </v>
   <v>      -0.01783186      -0.14324865      -1.60902771 </v>
   <v>       0.18697989      -0.06598005      -1.32752736 </v>
   <v>      -0.07404898       0.15112258      -3.13534726 </v>
   <v>      -0.06380789      -0.27940875      -3.12161083 </v>
   <v>      -0.07656229       0.38070982      -3.40141351 </v>
   <v>      -0.04754030      -0.26636838      -3.34945218 </v>
   <v>       0.02548136      -0.37652573      -3.08065111 </v>
   <v>       0.26613653       0.51796294      -3.11559434 </v>
   <v>      -0.23561074      -0.00798424      -3.32084025 </v>
   <v>      -0.15435574      -0.08222458      -3.31345178 </v>
   <v>      -0.21446866      -0.04353880       2.70161508 </v>
   <v>       0.01474316      -0.20700818       1.50349092 </v>
   <v>      -0.09351563      -0.25312361       2.32755815 </v>
   <v>       0.34089534      -0.11237651       0.97694188 </v>
   <v>       0.27345369      -0.10361760       0.48940519 </v>
   <v>      -0.01003431       0.45424763       2.69628525 </v>
   <v>       0.10907412      -0.02748187       3.03208698 </v>
   <v>       0.08743872       0.16052029       1.71333255 </v>
   <v>      -0.07206816      -0.05976370       2.56238586 </v>
   <v>       0.03425329       0.17131896       2.84836184 </v>
   <v>       0.17494303      -0.27176330       0.79283001 </v>
   <v>      -0.09750559       0.34765679       1.05443204 </v>
   <v>      -0.33571704       0.11042694       0.32531980 </v>
   <v>       0.15043522       0.29361341       1.64383845 </v>
   <v>       0.28337665      -0.05657987       1.22300289 </v>
   <v>       0.20397836      -0.58040355       1.78870181 </v>
   <v>       0.01756727       0.02882198       0.34661462 </v>
   <v>      -0.41343560      -0.15839150       2.60113011 </v>
   <v>       0.00358021      -0.13236825       0.58284827 </v>
   <v>       0.31313218       0.11292928       1.48606185 </v>
   <v>      -0.45854475       0.02564667       1.22020592 </v>
   <v>      -0.01105195      -0.00473959       1.09432927 </v>
   <v>      -0.18629032       0.07114154       2.68844688 </v>
   <v>       0.13221692       0.11966164       3.11599184 </v>
  </varray>
  <energy>
   <i name="e_fr_energy">   -222.50786819 </i>
   <i name="e_wo_entrp">   -222.36490746 </i>
   <i name="e_0_energy">     -0.28592146 </i>
  </energy>
  <time name="totalsc">  325.46  328.00</time>
 </calculation>
 <calculation>
  <scstep>
   <time name="dav">    8.73    8.75</time>
   <time name="total">    9.04    9.07</time>
   <dipole>
    <v name="dipole">      0.00000000       0.00000000       1.41713216 </v>
    <i name="Tr[quadrupol]"> -11338.50707088 </i>
    <i name="Echarged">      0.00000000 </i>
    <i name="Edipol_quadrupol">      0.00000000 </i>
    <i name="Eion">      0.00000000 </i>
   </dipole>
   <energy>
    <i name="alphaZ">    890.71274183 </i>
    <i name="ewald"> 253868.66527777 </i>
    <i name="hartreedc">-298828.91245484 </i>
    <i name="XCdc">   -124.63378130 </i>
    <i name="pawpsdc">  52772.18065662 </i>
    <i name="pawaedc"> -50874.84207184 </i>
    <i name="eentropy">     -0.24744124 </i>
    <i name="bandstr">  -3046.45766086 </i>
    <i name="atom">  45117.89144060 </i>
    <i name="e_fr_energy">   -225.64329325 </i>
    <i name="e_wo_entrp">   -225.39585201 </i>
    <i name="e_0_energy">   -225.51957263 </i>
   </energy>
  </scstep>
  <scstep>
   <time name="diag">    1.56    1.56</time>
   <time name="diis">    4.09    4.10</time>
   <time name="orth">    0.43    0.43</time>
   <time name="total">    6.41    6.43</time>
   <dipole>
    <v name="dipole">      0.00000000       0.00000000       0.96540488 </v>
    <i name="Tr[quadrupol]"> -11338.04141888 </i>
    <i name="Echarged">      0.00000000 </i>
    <i name="Edipol_quadrupol">      0.00000000 </i>
    <i name="Eion">      0.00000000 </i>
   </dipole>
   <energy>
    <i name="e_fr_energy">   -230.97782857 </i>
    <i name="e_wo_entrp">   -230.63309719 </i>
    <i name="e_0_energy">   -230.80546288 </i>
   </energy>
  </scstep>
  <scstep>
   <time name="diag">    1.57    1.57</time>
   <time name="diis">    4.03    4.13</time>
   <time name="orth">    0.43    0.43</time>
   <time name="total">    6.35    6.46</time>
   <dipole>
    <v name="dipole">      0.00000000       0.00000000       1.34435075 </v>
    <i name="Tr[quadrupol]"> -11338.06931874 </i>
    <i name="Echarged">      0.00000000 </i>
    <i name="Edipol_quadrupol">      0.00000000 </i>
    <i name="Eion">      0.00000000 </i>
   </dipole>
   <energy>
    <i name="e_fr_energy">   -228.65344371 </i>
    <i name="e_wo_entrp">   -228.42170384 </i>
    <i name="e_0_energy">   -228.53757378 </i>
   </energy>
  </scstep>
  <scstep>
   <time name="diag">    1.56    1.57</time>
   <time name="diis">    4.09    4.14</time>
   <time name="orth">    0.43    0.43</time>
   <time name="total">    6.40    6.47</time>
   <dipole>
    <v name="dipole">      0.00000000       0.00000000       1.12524605 </v>
    <i name="Tr[quadrupol]"> -11338.99582809 </i>
    <i name="Echarged">      0.00000000 </i>
    <i name="Edipol_quadrupol">      0.00000000 </i>
    <i name="Eion">      0.00000000 </i>
   </dipole>
   <energy>
    <i name="e_fr_energy">   -229.43813857 </i>
    <i name="e_wo_entrp">   -229.16709720 </i>
    <i name="e_0_energy">   -229.30261789 </i>
   </energy>
  </scstep>
  <scstep>
   <time name="diag">    1.57    1.58</time>
   <time name="diis">    4.14    4.15</time>
   <time name="orth">    0.43    0.43</time>
   <time name="total">    6.46    6.48</time>
   <dipole>
    <v name="dipole">      0.00000000       0.00000000       1.02988456 </v>
    <i name="Tr[quadrupol]"> -11339.02642423 </i>
    <i name="Echarged">      0.00000000 </i>
    <i name="Edipol_quadrupol">      0.00000000 </i>
    <i name="Eion">      0.00000000 </i>
   </dipole>
   <energy>
    <i name="e_fr_energy">   -229.17070078 </i>
    <i name="e_wo_entrp">   -228.88508615 </i>
    <i name="e_0_energy">   -229.02789346 </i>
   </energy>
  </scstep>
  <scstep>
   <time name="diag">    1.56    1.56</time>
   <time name="diis">    4.13    4.14</time>
   <time name="orth">    0.43    0.43</time>
   <time name="total">    6.44    6.46</time>
   <dipole>
    <v name="dipole">      0.00000000       0.00000000       1.12152551 </v>
    <i name="Tr[quadrupol]"> -11339.01169201 </i>
    <i name="Echarged">      0.00000000 </i>
    <i name="Edipol_quadrupol">      0.00000000 </i>
    <i name="Eion">      0.00000000 </i>
   </dipole>
   <energy>
    <i name="e_fr_energy">   -228.51548153 </i>
    <i name="e_wo_entrp">   -228.24289852 </i>
    <i name="e_0_energy">   -228.37919003 </i>
   </energy>
  </scstep>
  <scstep>
   <time name="diag">    1.56    1.56</time>
   <time name="diis">    4.10    4.11</time>
   <time name="orth">    0.43    0.43</time>
   <time name="total">    6.41    6.43</time>
   <dipole>
    <v name="dipole">      0.00000000       0.00000000       1.12624396 </v>
    <i name="Tr[quadrupol]"> -11339.17576744 </i>
    <i name="Echarged">      0.00000000 </i>
    <i name="Edipol_quadrupol">      0.00000000 </i>
    <i name="Eion">      0.00000000 </i>
   </dipole>
   <energy>
    <i name="e_fr_energy">   -228.49186406 </i>
    <i name="e_wo_entrp">   -228.23645303 </i>
    <i name="e_0_energy">   -228.36415854 </i>
   </energy>
  </scstep>
  <scstep>
   <time name="diag">    1.56    1.56</time>
   <time name="diis">    4.12    4.13</time>
   <time name="orth">    0.43    0.43</time>
   <time name="total">    6.43    6.45</time>
   <dipole>
    <v name="dipole">      0.00000000       0.00000000       1.15997827 </v>
    <i name="Tr[quadrupol]"> -11339.33733435 </i>
    <i name="Echarged">      0.00000000 </i>
    <i name="Edipol_quadrupol">      0.00000000 </i>
    <i name="Eion">      0.00000000 </i>
   </dipole>
   <energy>
    <i name="e_fr_energy">   -228.34558999 </i>
    <i name="e_wo_entrp">   -228.09467595 </i>
    <i name="e_0_energy">   -228.22013297 </i>
   </energy>
  </scstep>
  <scstep>
   <time name="diag">    1.56    1.57</time>
   <time name="diis">    4.01    4.11</time>
   <time name="orth">    0.43    0.43</time>
   <time name="total">    6.32    6.43</time>
   <dipole>
    <v name="dipole">      0.00000000       0.00000000       1.18335158 </v>
    <i name="Tr[quadrupol]"> -11339.38739610 </i>
    <i name="Echarged">      0.00000000 </i>
    <i name="Edipol_quadrupol">      0.00000000 </i>
    <i name="Eion">      0.00000000 </i>
   </dipole>
   <energy>
    <i name="e_fr_energy">   -228.32750881 </i>
    <i name="e_wo_entrp">   -228.07411374 </i>
    <i name="e_0_energy">   -228.20081127 </i>
   </energy>
  </scstep>
  <scstep>
   <time name="diag">    1.56    1.57</time>
   <time name="diis">    4.20    4.21</time>
   <time name="orth">    0.43    0.43</time>
   <time name="total">    6.51    6.53</time>
   <dipole>
    <v name="dipole">      0.00000000       0.00000000       1.15813420 </v>
    <i name="Tr[quadrupol]"> -11339.36285779 </i>
    <i name="Echarged">      0.00000000 </i>
    <i name="Edipol_quadrupol">      0.00000000 </i>
    <i name="Eion">      0.00000000 </i>
   </dipole>
   <energy>
    <i name="e_fr_energy">   -228.32357761 </i>
    <i name="e_wo_entrp">   -228.07191918 </i>
    <i name="e_0_energy">   -228.19774840 </i>
   </energy>
  </scstep>
  <scstep>
   <time name="diag">    1.56    1.56</time>
   <time name="diis">    4.13    4.14</time>
   <time name="orth">    0.43    0.43</time>
   <time name="total">    6.44    6.46</time>
   <dipole>
    <v name="dipole">      0.00000000       0.00000000       1.16344448 </v>
    <i name="Tr[quadrupol]"> -11339.37227167 </i>
    <i name="Echarged">      0.00000000 </i>
    <i name="Edipol_quadrupol">      0.00000000 </i>
    <i name="Eion">      0.00000000 </i>
   </dipole>
   <energy>
    <i name="e_fr_energy">   -228.31996589 </i>
    <i name="e_wo_entrp">   -228.06890847 </i>
    <i name="e_0_energy">   -228.19443718 </i>
   </energy>
  </scstep>
  <scstep>
   <time name="diag">    1.56    1.56</time>
   <time name="diis">    4.17    4.18</time>
   <time name="orth">    0.43    0.43</time>
   <time name="total">    6.49    6.51</time>
   <dipole>
    <v name="dipole">      0.00000000       0.00000000       1.17124737 </v>
    <i name="Tr[quadrupol]"> -11339.39340674 </i>
    <i name="Echarged">      0.00000000 </i>
    <i name="Edipol_quadrupol">      0.00000000 </i>
    <i name="Eion">      0.00000000 </i>
   </dipole>
   <energy>
    <i name="e_fr_energy">   -228.31896738 </i>
    <i name="e_wo_entrp">   -228.06686946 </i>
    <i name="e_0_energy">   -228.19291842 </i>
   </energy>
  </scstep>
  <scstep>
   <time name="diag">    1.56    1.57</time>
   <time name="diis">    4.08    4.11</time>
   <time name="orth">    0.43    0.43</time>
   <time name="total">    6.39    6.43</time>
   <dipole>
    <v name="dipole">      0.00000000       0.00000000       1.16618770 </v>
    <i name="Tr[quadrupol]"> -11339.41141969 </i>
    <i name="Echarged">      0.00000000 </i>
    <i name="Edipol_quadrupol">      0.00000000 </i>
    <i name="Eion">      0.00000000 </i>
   </dipole>
   <energy>
    <i name="e_fr_energy">   -228.31790237 </i>
    <i name="e_wo_entrp">   -228.06555902 </i>
    <i name="e_0_energy">   -228.19173069 </i>
   </energy>
  </scstep>
  <scstep>
   <time name="diag">    1.56    1.57</time>
   <time name="diis">    4.15    4.16</time>
   <time name="orth">    0.43    0.43</time>
   <time name="total">    6.47    6.49</time>
   <dipole>
    <v name="dipole">      0.00000000       0.00000000       1.16582502 </v>
    <i name="Tr[quadrupol]"> -11339.41786309 </i>
    <i name="Echarged">      0.00000000 </i>
    <i name="Edipol_quadrupol">      0.00000000 </i>
    <i name="Eion">      0.00000000 </i>
   </dipole>
   <energy>
    <i name="e_fr_energy">   -228.31720243 </i>
    <i name="e_wo_entrp">   -228.06580088 </i>
    <i name="e_0_energy">   -228.19150165 </i>
   </energy>
  </scstep>
  <scstep>
   <time name="diag">    1.56    1.56</time>
   <time name="diis">    4.14    4.17</time>
   <time name="orth">    0.43    0.46</time>
   <time name="total">    6.45    6.54</time>
   <dipole>
    <v name="dipole">      0.00000000       0.00000000       1.16508424 </v>
    <i name="Tr[quadrupol]"> -11339.42758152 </i>
    <i name="Echarged">      0.00000000 </i>
    <i name="Edipol_quadrupol">      0.00000000 </i>
    <i name="Eion">      0.00000000 </i>
   </dipole>
   <energy>
    <i name="e_fr_energy">   -228.31717395 </i>
    <i name="e_wo_entrp">   -228.06555471 </i>
    <i name="e_0_energy">   -228.19136433 </i>
   </energy>
  </scstep>
  <scstep>
   <time name="diag">    1.56    1.56</time>
   <time name="diis">    4.06    4.07</time>
   <time name="orth">    0.43    0.43</time>
   <time name="total">    6.37    6.39</time>
   <dipole>
    <v name="dipole">      0.00000000       0.00000000       1.16465327 </v>
    <i name="Tr[quadrupol]"> -11339.44061856 </i>
    <i name="Echarged">      0.00000000 </i>
    <i name="Edipol_quadrupol">      0.00000000 </i>
    <i name="Eion">      0.00000000 </i>
   </dipole>
   <energy>
    <i name="e_fr_energy">   -228.31723767 </i>
    <i name="e_wo_entrp">   -228.06563930 </i>
    <i name="e_0_energy">   -228.19143849 </i>
   </energy>
  </scstep>
  <scstep>
   <time name="diag">    1.56    1.56</time>
   <time name="diis">    4.02    4.03</time>
   <time name="orth">    0.44    0.44</time>
   <time name="total">    6.34    6.36</time>
   <dipole>
    <v name="dipole">      0.00000000       0.00000000       1.16324056 </v>
    <i name="Tr[quadrupol]"> -11339.45161758 </i>
    <i name="Echarged">      0.00000000 </i>
    <i name="Edipol_quadrupol">      0.00000000 </i>
    <i name="Eion">      0.00000000 </i>
   </dipole>
   <energy>
    <i name="e_fr_energy">   -228.31728915 </i>
    <i name="e_wo_entrp">   -228.06576808 </i>
    <i name="e_0_energy">   -228.19152861 </i>
   </energy>
  </scstep>
  <scstep>
   <time name="diag">    1.56    1.56</time>
   <time name="diis">    4.05    4.06</time>
   <time name="orth">    0.43    0.43</time>
   <time name="total">    6.36    6.37</time>
   <dipole>
    <v name="dipole">      0.00000000       0.00000000       1.16058417 </v>
    <i name="Tr[quadrupol]"> -11339.47635617 </i>
    <i name="Echarged">      0.00000000 </i>
    <i name="Edipol_quadrupol">      0.00000000 </i>
    <i name="Eion">      0.00000000 </i>
   </dipole>
   <energy>
    <i name="e_fr_energy">   -228.31748292 </i>
    <i name="e_wo_entrp">   -228.06596665 </i>
    <i name="e_0_energy">   -228.19172478 </i>
   </energy>
  </scstep>
  <scstep>
   <time name="diag">    1.56    1.56</time>
   <time name="diis">    3.99    4.01</time>
   <time name="orth">    0.43    0.43</time>
   <time name="total">    6.30    6.33</time>
   <dipole>
    <v name="dipole">      0.00000000       0.00000000       1.16022206 </v>
    <i name="Tr[quadrupol]"> -11339.49140997 </i>
    <i name="Echarged">      0.00000000 </i>
    <i name="Edipol_quadrupol">      0.00000000 </i>
    <i name="Eion">      0.00000000 </i>
   </dipole>
[...]
       <r>   -19.4279     0.0000    16.0000 </r>
       <r>   -19.3340     0.0000    16.0000 </r>
       <r>   -19.2400     0.0000    16.0000 </r>
       <r>   -19.1460     0.0000    16.0000 </r>
       <r>   -19.0521     0.0000    16.0000 </r>
       <r>   -18.9581     0.0000    16.0000 </r>
       <r>   -18.8641     0.0000    16.0000 </r>
       <r>   -18.7702     0.0000    16.0000 </r>
       <r>   -18.6762     0.0000    16.0000 </r>
       <r>   -18.5822     0.0000    16.0000 </r>
       <r>   -18.4882     0.0000    16.0000 </r>
       <r>   -18.3943     0.0000    16.0000 </r>
       <r>   -18.3003     0.0000    16.0000 </r>
       <r>   -18.2063     0.0000    16.0000 </r>
       <r>   -18.1124     0.0000    16.0000 </r>
       <r>   -18.0184     0.0000    16.0000 </r>
       <r>   -17.9244     0.0000    16.0000 </r>
       <r>   -17.8305     0.0000    16.0000 </r>
       <r>   -17.7365     0.0000    16.0000 </r>
       <r>   -17.6425     0.0000    16.0000 </r>
       <r>   -17.5486     0.0000    16.0000 </r>
       <r>   -17.4546     0.0000    16.0000 </r>
       <r>   -17.3606     0.0000    16.0000 </r>
       <r>   -17.2667     0.0000    16.0000 </r>
       <r>   -17.1727     0.0000    16.0000 </r>
       <r>   -17.0787     0.0000    16.0000 </r>
       <r>   -16.9848     0.0000    16.0000 </r>
       <r>   -16.8908     0.0000    16.0000 </r>
       <r>   -16.7968     0.0000    16.0000 </r>
       <r>   -16.7029     0.0000    16.0000 </r>
       <r>   -16.6089     0.0000    16.0000 </r>
       <r>   -16.5149     0.0000    16.0000 </r>
       <r>   -16.4209     0.0000    16.0000 </r>
       <r>   -16.3270     0.0000    16.0000 </r>
       <r>   -16.2330     0.0000    16.0000 </r>
       <r>   -16.1390     0.0000    16.0000 </r>
       <r>   -16.0451     0.0000    16.0000 </r>
       <r>   -15.9511     0.0000    16.0000 </r>
       <r>   -15.8571     0.0000    16.0000 </r>
       <r>   -15.7632     0.0000    16.0000 </r>
       <r>   -15.6692     0.0000    16.0000 </r>
       <r>   -15.5752     0.0000    16.0000 </r>
       <r>   -15.4813     0.0000    16.0000 </r>
       <r>   -15.3873     0.0000    16.0000 </r>
       <r>   -15.2933     0.0000    16.0000 </r>
       <r>   -15.1994     0.0000    16.0000 </r>
       <r>   -15.1054     0.0000    16.0000 </r>
       <r>   -15.0114     0.0000    16.0000 </r>
       <r>   -14.9175     0.0000    16.0000 </r>
       <r>   -14.8235     0.0000    16.0000 </r>
       <r>   -14.7295     0.0000    16.0000 </r>
       <r>   -14.6356     0.0000    16.0000 </r>
       <r>   -14.5416     0.0000    16.0000 </r>
       <r>   -14.4476     0.0000    16.0000 </r>
       <r>   -14.3536     0.0000    16.0000 </r>
       <r>   -14.2597     0.0000    16.0000 </r>
       <r>   -14.1657     0.0000    16.0000 </r>
       <r>   -14.0717     0.0000    16.0000 </r>
       <r>   -13.9778     0.0000    16.0000 </r>
       <r>   -13.8838     0.0000    16.0000 </r>
       <r>   -13.7898     0.0000    16.0000 </r>
       <r>   -13.6959     0.0000    16.0000 </r>
       <r>   -13.6019     0.0000    16.0000 </r>
       <r>   -13.5079     0.0000    16.0000 </r>
       <r>   -13.4140     0.0000    16.0000 </r>
       <r>   -13.3200     0.0000    16.0000 </r>
       <r>   -13.2260     0.0000    16.0000 </r>
       <r>   -13.1321     0.0000    16.0000 </r>
       <r>   -13.0381     0.0000    16.0000 </r>
       <r>   -12.9441     0.0000    16.0000 </r>
       <r>   -12.8502     0.0000    16.0000 </r>
       <r>   -12.7562     0.0000    16.0000 </r>
       <r>   -12.6622     0.0000    16.0000 </r>
       <r>   -12.5683     0.0000    16.0000 </r>
       <r>   -12.4743     0.0000    16.0000 </r>
       <r>   -12.3803     0.0000    16.0000 </r>
       <r>   -12.2863     0.0000    16.0000 </r>
       <r>   -12.1924     0.0000    16.0000 </r>
       <r>   -12.0984     0.0000    16.0000 </r>
       <r>   -12.0044     0.0000    16.0000 </r>
       <r>   -11.9105     0.0000    16.0000 </r>
       <r>   -11.8165     0.0000    16.0000 </r>
       <r>   -11.7225     0.0000    16.0000 </r>
       <r>   -11.6286     0.0000    16.0000 </r>
       <r>   -11.5346     0.0000    16.0000 </r>
       <r>   -11.4406     0.0000    16.0000 </r>
       <r>   -11.3467     0.0000    16.0000 </r>
       <r>   -11.2527     0.0000    16.0000 </r>
       <r>   -11.1587     0.0000    16.0000 </r>
       <r>   -11.0648     0.0000    16.0000 </r>
       <r>   -10.9708     0.0000    16.0000 </r>
       <r>   -10.8768     0.0000    16.0000 </r>
       <r>   -10.7829     0.0000    16.0000 </r>
       <r>   -10.6889     0.0000    16.0000 </r>
       <r>   -10.5949     0.0000    16.0000 </r>
       <r>   -10.5010     0.0000    16.0000 </r>
       <r>   -10.4070     0.0000    16.0000 </r>
       <r>   -10.3130     0.0000    16.0000 </r>
       <r>   -10.2190     0.0000    16.0000 </r>
       <r>   -10.1251     0.0000    16.0000 </r>
       <r>   -10.0311     0.0000    16.0000 </r>
       <r>    -9.9371     0.0000    16.0000 </r>
       <r>    -9.8432     0.0005    16.0000 </r>
       <r>    -9.7492     0.0515    16.0049 </r>
       <r>    -9.6552     1.0589    16.1044 </r>
       <r>    -9.5613     4.5116    16.5283 </r>
       <r>    -9.4673     4.3463    16.9368 </r>
       <r>    -9.3733     2.9143    17.2106 </r>
       <r>    -9.2794     5.1524    17.6948 </r>
       <r>    -9.1854     2.8745    17.9649 </r>
       <r>    -9.0914     0.4037    18.0028 </r>
       <r>    -8.9975     0.6293    18.0620 </r>
       <r>    -8.9035     2.6828    18.3141 </r>
       <r>    -8.8095     5.6541    18.8454 </r>
       <r>    -8.7156     8.8573    19.6777 </r>
       <r>    -8.6216     9.7939    20.5980 </r>
       <r>    -8.5276     6.9951    21.2553 </r>
       <r>    -8.4337     3.9940    21.6306 </r>
       <r>    -8.3397     3.9096    21.9980 </r>
       <r>    -8.2457     9.1795    22.8606 </r>
       <r>    -8.1517    11.4256    23.9342 </r>
       <r>    -8.0578    15.1876    25.3613 </r>
       <r>    -7.9638    32.0961    28.3774 </r>
       <r>    -7.8698    48.2591    32.9122 </r>
       <r>    -7.7759    55.3586    38.1141 </r>
       <r>    -7.6819    58.5002    43.6113 </r>
       <r>    -7.5879    60.6962    49.3148 </r>
       <r>    -7.4940    54.0522    54.3940 </r>
       <r>    -7.4000    48.2076    58.9240 </r>
       <r>    -7.3060    47.1290    63.3526 </r>
       <r>    -7.2121    50.0099    68.0519 </r>
       <r>    -7.1181    64.7651    74.1378 </r>
       <r>    -7.0241    75.4417    81.2269 </r>
       <r>    -6.9302    73.4958    88.1332 </r>
       <r>    -6.8362    73.5138    95.0411 </r>
       <r>    -6.7422    72.9457   101.8957 </r>
       <r>    -6.6483    74.9396   108.9376 </r>
       <r>    -6.5543    85.4014   116.9626 </r>
       <r>    -6.4603    95.0217   125.8917 </r>
       <r>    -6.3664    81.9724   133.5944 </r>
       <r>    -6.2724    64.7071   139.6749 </r>
       <r>    -6.1784    62.2848   145.5276 </r>
       <r>    -6.0844    69.0769   152.0187 </r>
       <r>    -5.9905    82.4217   159.7637 </r>
       <r>    -5.8965    89.9944   168.2203 </r>
       <r>    -5.8025    86.0486   176.3061 </r>
       <r>    -5.7086    83.5861   184.1606 </r>
       <r>    -5.6146    84.6800   192.1178 </r>
       <r>    -5.5206    86.8068   200.2749 </r>
       <r>    -5.4267    88.7266   208.6123 </r>
       <r>    -5.3327    93.9741   217.4429 </r>
       <r>    -5.2387    93.7763   226.2549 </r>
       <r>    -5.1448    88.6408   234.5843 </r>
       <r>    -5.0508    84.5268   242.5271 </r>
       <r>    -4.9568    83.2068   250.3459 </r>
       <r>    -4.8629    92.5277   259.0406 </r>
       <r>    -4.7689    97.7621   268.2271 </r>
       <r>    -4.6749    98.2310   277.4577 </r>
       <r>    -4.5810    94.5967   286.3468 </r>
       <r>    -4.4870    93.7167   295.1532 </r>
       <r>    -4.3930   100.8937   304.6340 </r>
       <r>    -4.2991   112.5062   315.2060 </r>
       <r>    -4.2051   110.7728   325.6151 </r>
       <r>    -4.1111   108.1338   335.7762 </r>
       <r>    -4.0171   104.9924   345.6422 </r>
       <r>    -3.9232    98.4484   354.8932 </r>
       <r>    -3.8292    98.7758   364.1750 </r>
       <r>    -3.7352    98.1537   373.3983 </r>
       <r>    -3.6413    99.9332   382.7888 </r>
       <r>    -3.5473   102.9741   392.4651 </r>
       <r>    -3.4533   100.5475   401.9134 </r>
       <r>    -3.3594    92.4599   410.6017 </r>
       <r>    -3.2654    81.4044   418.2511 </r>
       <r>    -3.1714    76.4216   425.4323 </r>
       <r>    -3.0775    78.3822   432.7977 </r>
       <r>    -2.9835    82.7474   440.5733 </r>
       <r>    -2.8895    82.6336   448.3383 </r>
       <r>    -2.7956    81.9780   456.0416 </r>
       <r>    -2.7016    77.3777   463.3126 </r>
       <r>    -2.6076    77.9281   470.6354 </r>
       <r>    -2.5137    82.0685   478.3472 </r>
       <r>    -2.4197    80.2637   485.8895 </r>
       <r>    -2.3257    80.7071   493.4734 </r>
       <r>    -2.2318    82.3678   501.2133 </r>
       <r>    -2.1378    79.9128   508.7226 </r>
       <r>    -2.0438    71.0493   515.3989 </r>
       <r>    -1.9499    63.7505   521.3895 </r>
       <r>    -1.8559    59.0746   526.9406 </r>
       <r>    -1.7619    52.9979   531.9207 </r>
       <r>    -1.6679    47.0272   536.3398 </r>
       <r>    -1.5740    43.8341   540.4588 </r>
       <r>    -1.4800    42.1603   544.4205 </r>
       <r>    -1.3860    34.9586   547.7055 </r>
       <r>    -1.2921    32.0151   550.7139 </r>
       <r>    -1.1981    37.6647   554.2532 </r>
       <r>    -1.1041    41.9392   558.1941 </r>
       <r>    -1.0102    42.0907   562.1493 </r>
       <r>    -0.9162    39.3656   565.8484 </r>
       <r>    -0.8222    30.7110   568.7343 </r>
       <r>    -0.7283    28.2056   571.3847 </r>
       <r>    -0.6343    27.1826   573.9390 </r>
       <r>    -0.5403    28.5872   576.6253 </r>
       <r>    -0.4464    29.1759   579.3669 </r>
       <r>    -0.3524    19.7338   581.2213 </r>
       <r>    -0.2584    14.4041   582.5748 </r>
       <r>    -0.1645    14.8521   583.9704 </r>
       <r>    -0.0705    10.4729   584.9545 </r>
       <r>     0.0235    12.6706   586.1452 </r>
       <r>     0.1174    18.4405   587.8780 </r>
       <r>     0.2114    19.2682   589.6886 </r>
       <r>     0.3054    19.9884   591.5668 </r>
       <r>     0.3994    15.4758   593.0211 </r>
       <r>     0.4933    15.1965   594.4491 </r>
       <r>     0.5873    17.4479   596.0886 </r>
       <r>     0.6813    14.4991   597.4511 </r>
       <r>     0.7752    11.1626   598.5000 </r>
       <r>     0.8692    11.4256   599.5736 </r>
       <r>     0.9632     8.9159   600.4114 </r>
       <r>     1.0571     6.5880   601.0305 </r>
       <r>     1.1511     8.4990   601.8291 </r>
       <r>     1.2451    13.2747   603.0765 </r>
       <r>     1.3390    12.7129   604.2711 </r>
       <r>     1.4330    10.6954   605.2762 </r>
       <r>     1.5270    18.9620   607.0580 </r>
       <r>     1.6209    26.2185   609.5217 </r>
       <r>     1.7149    21.7916   611.5694 </r>
       <r>     1.8089    14.2077   612.9045 </r>
       <r>     1.9028    14.5390   614.2707 </r>
       <r>     1.9968    17.4908   615.9143 </r>
       <r>     2.0908    15.5730   617.3776 </r>
       <r>     2.1847    12.5718   618.5590 </r>
       <r>     2.2787     8.6284   619.3698 </r>
       <r>     2.3727     5.6046   619.8964 </r>
       <r>     2.4667     6.8062   620.5360 </r>
       <r>     2.5606     5.5333   621.0559 </r>
       <r>     2.6546     6.1311   621.6321 </r>
       <r>     2.7486    10.3841   622.6078 </r>
       <r>     2.8425    13.9816   623.9217 </r>
       <r>     2.9365    15.4920   625.3774 </r>
       <r>     3.0305    17.4467   627.0169 </r>
       <r>     3.1244    14.2012   628.3513 </r>
       <r>     3.2184    12.7275   629.5473 </r>
       <r>     3.3124    12.9289   630.7622 </r>
       <r>     3.4063    10.1039   631.7116 </r>
       <r>     3.5003    10.8984   632.7358 </r>
       <r>     3.5943    13.3402   633.9893 </r>
       <r>     3.6882    19.4266   635.8148 </r>
       <r>     3.7822    26.0009   638.2580 </r>
       <r>     3.8762    26.2953   640.7290 </r>
       <r>     3.9701    22.1266   642.8082 </r>
       <r>     4.0641    20.1268   644.6994 </r>
       <r>     4.1581    20.4587   646.6219 </r>
       <r>     4.2520    21.3675   648.6298 </r>
       <r>     4.3460    21.2067   650.6225 </r>
       <r>     4.4400    20.7332   652.5708 </r>
       <r>     4.5340    21.5891   654.5995 </r>
       <r>     4.6279    24.4453   656.8966 </r>
       <r>     4.7219    30.7702   659.7880 </r>
       <r>     4.8159    28.8954   662.5032 </r>
       <r>     4.9098    28.9517   665.2238 </r>
       <r>     5.0038    30.6071   668.0999 </r>
       <r>     5.0978    26.0300   670.5458 </r>
       <r>     5.1917    12.9477   671.7625 </r>
       <r>     5.2857     2.4030   671.9883 </r>
       <r>     5.3797     0.1228   671.9999 </r>
       <r>     5.4736     0.0015   672.0000 </r>
       <r>     5.5676     0.0000   672.0000 </r>
       <r>     5.6616     0.0000   672.0000 </r>
       <r>     5.7555     0.0000   672.0000 </r>
       <r>     5.8495     0.0000   672.0000 </r>
       <r>     5.9435     0.0000   672.0000 </r>
       <r>     6.0374     0.0000   672.0000 </r>
       <r>     6.1314     0.0000   672.0000 </r>
       <r>     6.2254     0.0000   672.0000 </r>
       <r>     6.3193     0.0000   672.0000 </r>
       <r>     6.4133     0.0000   672.0000 </r>
      </set>
     </set>
    </array>
   </total>
  </dos>
 </calculation>
 <structure name="finalpos" >
  <crystal>
   <varray name="basis" >
    <v>      11.00258152       0.00000000       0.00000000 </v>
    <v>       5.50129076       9.52851510       0.00000000 </v>
    <v>       0.00000000       0.00000000      26.19178509 </v>
   </varray>
   <i name="volume">   2745.90128299 </i>
   <varray name="rec_basis" >
    <v>       0.09088776      -0.05247407       0.00000000 </v>
    <v>       0.00000000       0.10494815       0.00000000 </v>
    <v>       0.00000000       0.00000000       0.03817991 </v>
   </varray>
  </crystal>
  <varray name="positions" >
   <v>       0.08333333       0.08333333       0.38179910 </v>
   <v>       0.08333333       0.58333333       0.38179910 </v>
   <v>       0.33333333       0.08333333       0.38179910 </v>
   <v>       0.83333333       0.83333333       0.38179910 </v>
   <v>       0.08333333       0.83333333       0.38179910 </v>
   <v>       0.91171490       0.41991096       0.48192903 </v>
   <v>       0.08333333       0.33333333       0.38179910 </v>
   <v>       0.83333333       0.58333333       0.38179910 </v>
   <v>       0.16772203       0.16831742       0.48012309 </v>
   <v>       0.58333333       0.33333333       0.38179910 </v>
   <v>       0.83333333       0.33333333       0.38179910 </v>
   <v>       0.42012696       0.91565731       0.47803511 </v>
   <v>       0.83333333       0.08333333       0.38179910 </v>
   <v>       0.58333333       0.58333333       0.38179910 </v>
   <v>       0.42158179       0.41561242       0.48443765 </v>
   <v>       0.58333333       0.08333333       0.38179910 </v>
   <v>       0.25382555      -0.00235143       0.57638134 </v>
   <v>       0.16577796       0.91645540       0.48149200 </v>
   <v>       0.33333333       0.83333333       0.38179910 </v>
   <v>       0.16865510       0.66602876       0.47979073 </v>
   <v>       0.33333333       0.58333333       0.38179910 </v>
   <v>       0.16719351       0.41879559       0.48440923 </v>
   <v>       0.33333333       0.33333333       0.38179910 </v>
   <v>       0.58333333       0.83333333       0.38179910 </v>
   <v>       0.32961767       0.58972669       0.62008930 </v>
   <v>       0.33892266       0.31989789       0.61891848 </v>
   <v>       0.82733907       0.61155874       0.61498970 </v>
   <v>       0.07610256       0.32521068       0.61695893 </v>
   <v>       0.59348957       0.32097893       0.61549920 </v>
   <v>       0.57758156       0.60950660       0.61698865 </v>
   <v>       0.82661351       0.07752936       0.61090666 </v>
   <v>       0.07264885       0.82881216       0.61362225 </v>
   <v>       0.25196968       0.75370845       0.57395889 </v>
   <v>       0.74431722       0.75647238       0.56245563 </v>
   <v>       0.75389916       0.25183188       0.56833493 </v>
   <v>       0.41924411       0.16796831       0.48038199 </v>
   <v>       0.50195889      -0.00458325       0.56637077 </v>
   <v>       0.75631867       0.49562449       0.57872901 </v>
   <v>       0.24069031       0.50308352       0.57934968 </v>
   <v>      -0.00211538       0.24408657       0.56881771 </v>
   <v>       0.50609730       0.23489317       0.57329731 </v>
   <v>       0.25189721       0.24058896       0.57487312 </v>
   <v>       0.41932532       0.66472731       0.47851041 </v>
   <v>       0.91592445       0.66786389       0.47690031 </v>
   <v>       0.91535255       0.91749868       0.47454334 </v>
   <v>      -0.00580741       0.74728731       0.56526939 </v>
   <v>       0.66877001       0.91664431       0.47715493 </v>
   <v>       0.49999247       0.75553364       0.56554799 </v>
   <v>       0.66712114       0.66551437       0.47492192 </v>
   <v>       0.00350856      -0.00068728       0.57076788 </v>
   <v>       0.66744206       0.16698977       0.47608056 </v>
   <v>       0.74804011      -0.00591922       0.56376908 </v>
   <v>       0.91410596       0.16726111       0.47972912 </v>
   <v>       0.66655162       0.41809786       0.48131198 </v>
   <v>       0.00194999       0.50453293       0.57455577 </v>
   <v>       0.50220471       0.50332655       0.57722437 </v>
  </varray>
  <varray name="selective"  type="logical" >
   <v type="logical" >  F  F  F </v>
   <v type="logical" >  F  F  F </v>
   <v type="logical" >  F  F  F </v>
   <v type="logical" >  F  F  F </v>
   <v type="logical" >  F  F  F </v>
   <v type="logical" >  T  T  T </v>
   <v type="logical" >  F  F  F </v>
   <v type="logical" >  F  F  F </v>
   <v type="logical" >  T  T  T </v>
   <v type="logical" >  F  F  F </v>
   <v type="logical" >  F  F  F </v>
   <v type="logical" >  T  T  T </v>
   <v type="logical" >  F  F  F </v>
   <v type="logical" >  F  F  F </v>
   <v type="logical" >  T  T  T </v>
   <v type="logical" >  F  F  F </v>
   <v type="logical" >  T  T  T </v>
   <v type="logical" >  T  T  T </v>
   <v type="logical" >  F  F  F </v>
   <v type="logical" >  T  T  T </v>
   <v type="logical" >  F  F  F </v>
   <v type="logical" >  T  T  T </v>
   <v type="logical" >  F  F  F </v>
   <v type="logical" >  F  F  F </v>
   <v type="logical" >  T  T  T </v>
   <v type="logical" >  T  T  T </v>
   <v type="logical" >  T  T  T </v>
   <v type="logical" >  T  T  T </v>
   <v type="logical" >  T  T  T </v>
   <v type="logical" >  T  T  T </v>
   <v type="logical" >  T  T  T </v>
   <v type="logical" >  T  T  T </v>
   <v type="logical" >  T  T  T </v>
   <v type="logical" >  T  T  T </v>
   <v type="logical" >  T  T  T </v>
   <v type="logical" >  T  T  T </v>
   <v type="logical" >  T  T  T </v>
   <v type="logical" >  T  T  T </v>
   <v type="logical" >  T  T  T </v>
   <v type="logical" >  T  T  T </v>
   <v type="logical" >  T  T  T </v>
   <v type="logical" >  T  T  T </v>
   <v type="logical" >  T  T  T </v>
   <v type="logical" >  T  T  T </v>
   <v type="logical" >  T  T  T </v>
   <v type="logical" >  T  T  T </v>
   <v type="logical" >  T  T  T </v>
   <v type="logical" >  T  T  T </v>
   <v type="logical" >  T  T  T </v>
   <v type="logical" >  T  T  T </v>
   <v type="logical" >  T  T  T </v>
   <v type="logical" >  T  T  T </v>
   <v type="logical" >  T  T  T </v>
   <v type="logical" >  T  T  T </v>
   <v type="logical" >  T  T  T </v>
   <v type="logical" >  T  T  T </v>
  </varray>
  <nose>
   <v>      -3.00000000       0.00000000       0.00010000       0.00010000 </v>
  </nose>
 </structure>
</modeling>
