unknown system                          
           1
    11.002582    0.000000    0.000000
     5.501291    9.528515    0.000000
     0.000000    0.000000   26.191785
   Au   O    Pd
  24   8  24
Direct configuration=     1
   0.08333333  0.08333333  0.38179910
   0.08333333  0.58333333  0.38179910
   0.33333333  0.08333333  0.38179910
   0.83333333  0.83333333  0.38179910
   0.08333333  0.83333333  0.38179910
   0.91666667  0.41666667  0.46754708
   0.08333333  0.33333333  0.38179910
   0.83333333  0.58333333  0.38179910
   0.16666667  0.16666667  0.46754708
   0.58333333  0.33333333  0.38179910
   0.83333333  0.33333333  0.38179910
   0.41666667  0.91666667  0.46754708
   0.83333333  0.08333333  0.38179910
   0.58333333  0.58333333  0.38179910
   0.41666667  0.41666667  0.46754708
   0.58333333  0.08333333  0.38179910
   0.25000000  0.00000000  0.55329505
   0.16666667  0.91666667  0.46754708
   0.33333333  0.83333333  0.38179910
   0.16666667  0.66666667  0.46754708
   0.33333333  0.58333333  0.38179910
   0.16666667  0.41666667  0.46754708
   0.33333333  0.33333333  0.38179910
   0.58333333  0.83333333  0.38179910
   0.33333333  0.58333333  0.61820090
   0.33333333  0.33333333  0.61820090
   0.83333333  0.58333333  0.61820090
   0.08333333  0.33333333  0.61820090
   0.58333333  0.33333333  0.61820090
   0.58333333  0.58333333  0.61820090
   0.83333333  0.08333333  0.61820090
   0.08333333  0.83333333  0.61820090
   0.25000000  0.75000000  0.55329505
   0.75000000  0.75000000  0.55329505
   0.75000000  0.25000000  0.55329505
   0.41666667  0.16666667  0.46754708
   0.50000000  0.00000000  0.55329505
   0.75000000  0.50000000  0.55329505
   0.25000000  0.50000000  0.55329505
   0.00000000  0.25000000  0.55329505
   0.50000000  0.25000000  0.55329505
   0.25000000  0.25000000  0.55329505
   0.41666667  0.66666667  0.46754708
   0.91666667  0.66666667  0.46754708
   0.91666667  0.91666667  0.46754708
   0.00000000  0.75000000  0.55329505
   0.66666667  0.91666667  0.46754708
   0.50000000  0.75000000  0.55329505
   0.66666667  0.66666667  0.46754708
   0.00000000  0.00000000  0.55329505
   0.66666667  0.16666667  0.46754708
   0.75000000  0.00000000  0.55329505
   0.91666667  0.16666667  0.46754708
   0.66666667  0.41666667  0.46754708
   0.00000000  0.50000000  0.55329505
   0.50000000  0.50000000  0.55329505
Direct configuration=     2
   0.08333333  0.08333333  0.38179910
   0.08333333  0.58333333  0.38179910
   0.33333333  0.08333333  0.38179910
   0.83333333  0.83333333  0.38179910
   0.08333333  0.83333333  0.38179910
   0.91444419  0.41783239  0.46871647
   0.08333333  0.33333333  0.38179910
   0.83333333  0.58333333  0.38179910
   0.16642901  0.16758494  0.46851269
   0.58333333  0.33333333  0.38179910
   0.83333333  0.33333333  0.38179910
   0.41960859  0.91510176  0.46872461
   0.83333333  0.08333333  0.38179910
   0.58333333  0.58333333  0.38179910
   0.41846926  0.41606809  0.46859701
   0.58333333  0.08333333  0.38179910
   0.25047499 -0.00012711  0.55533579
   0.16514928  0.91603257  0.46870293
   0.33333333  0.83333333  0.38179910
   0.16591398  0.66720465  0.46880277
   0.33333333  0.58333333  0.38179910
   0.16646955  0.41725873  0.46895912
   0.33333333  0.33333333  0.38179910
   0.58333333  0.83333333  0.38179910
   0.33283826  0.58386892  0.61415840
   0.33363261  0.33234309  0.61417611
   0.83242371  0.58468260  0.61381535
   0.08365944  0.33238930  0.61388235
   0.58407876  0.33199889  0.61422892
   0.58323233  0.58516904  0.61418387
   0.83262433  0.08330504  0.61391924
   0.08300528  0.83304192  0.61392877
   0.24941889  0.74984569  0.55677833
   0.75041208  0.74926635  0.55523355
   0.75016152  0.24910291  0.55629604
   0.41791210  0.16626839  0.46880668
   0.50102292 -0.00036723  0.55392606
   0.74916426  0.50160989  0.55677145
   0.25038348  0.49990260  0.55720441
  -0.00001608  0.25056890  0.55550410
   0.49988471  0.24978819  0.55659881
   0.24980155  0.25060717  0.55696753
   0.41768519  0.66570351  0.46856930
   0.91575133  0.66789879  0.46890659
   0.91544058  0.91705803  0.46796652
  -0.00005857  0.75104059  0.55541450
   0.66763669  0.91646614  0.46912393
   0.50165456  0.74794300  0.55560128
   0.66666951  0.66676881  0.46799398
  -0.00098827 -0.00056135  0.55664877
   0.66691222  0.16619754  0.46829856
   0.75076097  0.00040023  0.55521108
   0.91521382  0.16675756  0.46912032
   0.66664114  0.41664987  0.46895803
  -0.00069784  0.50025213  0.55676135
   0.50019376  0.50042409  0.55731259
Direct configuration=     3
   0.08333333  0.08333333  0.38179910
   0.08333333  0.58333333  0.38179910
   0.33333333  0.08333333  0.38179910
   0.83333333  0.83333333  0.38179910
   0.08333333  0.83333333  0.38179910
   0.91010628  0.42010770  0.47099893
   0.08333333  0.33333333  0.38179910
   0.83333333  0.58333333  0.38179910
   0.16596515  0.16937728  0.47039742
   0.58333333  0.33333333  0.38179910
   0.83333333  0.33333333  0.38179910
   0.42535076  0.91204730  0.47102298
   0.83333333  0.08333333  0.38179910
   0.58333333  0.58333333  0.38179910
   0.42198765  0.41489976  0.47064632
   0.58333333  0.08333333  0.38179910
   0.25140210 -0.00037520  0.55931898
   0.16218757  0.91479493  0.47095898
   0.33333333  0.83333333  0.38179910
   0.16444486  0.66825472  0.47125368
   0.33333333  0.58333333  0.38179910
   0.16608481  0.41841434  0.47171519
   0.33333333  0.33333333  0.38179910
   0.58333333  0.83333333  0.38179910
   0.33187196  0.58491431  0.60626808
   0.33421676  0.33041028  0.60632036
   0.83064827  0.58731616  0.60525546
   0.08429594  0.33054670  0.60545322
   0.58553372  0.32939428  0.60647625
   0.58303517  0.58875204  0.60634326
   0.83124047  0.08324981  0.60556211
   0.08236497  0.83247313  0.60559023
   0.24828466  0.74954452  0.56357713
   0.75121639  0.74783437  0.55901719
   0.75047679  0.24735193  0.56215351
   0.42034299  0.16549103  0.47126522
   0.50301949 -0.00108400  0.55515768
   0.74753302  0.50475215  0.56355684
   0.25113196  0.49971250  0.56483487
  -0.00004745  0.25167930  0.55981582
   0.49965967  0.24937478  0.56304724
   0.24941420  0.25179227  0.56413563
   0.41967319  0.66382359  0.47056451
   0.91396475  0.67030371  0.47156014
   0.91304745  0.91782191  0.46878521
  -0.00017289  0.75307166  0.55955134
   0.66953001  0.91607475  0.47220170
   0.50488401  0.74392806  0.56010267
   0.66667506  0.66696819  0.46886626
  -0.00291721 -0.00165703  0.56319469
   0.66739149  0.16528189  0.46976534
   0.75224627  0.00118142  0.55895086
   0.91237810  0.16693497  0.47219106
   0.66659133  0.41661708  0.47171198
  -0.00205992  0.50074425  0.56352701
   0.50057196  0.50125185  0.56515421
Direct configuration=     4
   0.08333333  0.08333333  0.38179910
   0.08333333  0.58333333  0.38179910
   0.33333333  0.08333333  0.38179910
   0.83333333  0.83333333  0.38179910
   0.08333333  0.83333333  0.38179910
   0.91125468  0.41950534  0.47039468
   0.08333333  0.33333333  0.38179910
   0.83333333  0.58333333  0.38179910
   0.16608795  0.16890278  0.46989846
   0.58333333  0.33333333  0.38179910
   0.83333333  0.33333333  0.38179910
   0.42383061  0.91285592  0.47041452
   0.83333333  0.08333333  0.38179910
   0.58333333  0.58333333  0.38179910
   0.42105621  0.41520906  0.47010379
   0.58333333  0.08333333  0.38179910
   0.25115667 -0.00030952  0.55826449
   0.16297164  0.91512258  0.47036172
   0.33333333  0.83333333  0.38179910
   0.16483379  0.66797673  0.47060484
   0.33333333  0.58333333  0.38179910
   0.16618666  0.41810841  0.47098556
   0.33333333  0.33333333  0.38179910
   0.58333333  0.83333333  0.38179910
   0.33212777  0.58463756  0.60835692
   0.33406212  0.33092196  0.60840005
   0.83111829  0.58661896  0.60752156
   0.08412743  0.33103450  0.60768470
   0.58514854  0.33008381  0.60852865
   0.58308737  0.58780350  0.60841894
   0.83160682  0.08326443  0.60777454
   0.08253448  0.83262371  0.60779773
   0.24858493  0.74962425  0.56177725
   0.75100346  0.74821346  0.55801553
   0.75039332  0.24781547  0.56060283
   0.41969945  0.16569683  0.47061436
   0.50249093 -0.00089425  0.55483163
   0.74796486  0.50392028  0.56176051
   0.25093381  0.49976282  0.56281482
  -0.00003915  0.25138533  0.55867436
   0.49971925  0.24948422  0.56134011
   0.24951675  0.25147853  0.56223799
   0.41914689  0.66432127  0.47003631
   0.91443772  0.66966704  0.47085765
   0.91368100  0.91761968  0.46856848
  -0.00014262  0.75253396  0.55845617
   0.66902878  0.91617837  0.47138691
   0.50402906  0.74499096  0.55891100
   0.66667359  0.66691541  0.46863533
  -0.00240655 -0.00136696  0.56146176
   0.66726461  0.16552429  0.46937703
   0.75185306  0.00097461  0.55796080
   0.91312882  0.16688800  0.47137813
   0.66660452  0.41662576  0.47098292
  -0.00169933  0.50061397  0.56173590
   0.50047184  0.50103271  0.56307826
Direct configuration=     5
   0.08333333  0.08333333  0.38179910
   0.08333333  0.58333333  0.38179910
   0.33333333  0.08333333  0.38179910
   0.83333333  0.83333333  0.38179910
   0.08333333  0.83333333  0.38179910
   0.91089372  0.41969467  0.47058461
   0.08333333  0.33333333  0.38179910
   0.83333333  0.58333333  0.38179910
   0.16604935  0.16905192  0.47005529
   0.58333333  0.33333333  0.38179910
   0.83333333  0.33333333  0.38179910
   0.42430842  0.91260176  0.47060577
   0.83333333  0.08333333  0.38179910
   0.58333333  0.58333333  0.38179910
   0.42134898  0.41511184  0.47027432
   0.58333333  0.08333333  0.38179910
   0.25123381 -0.00033017  0.55859593
   0.16272519  0.91501959  0.47054945
   0.33333333  0.83333333  0.38179910
   0.16471154  0.66806410  0.47080878
   0.33333333  0.58333333  0.38179910
   0.16615465  0.41820457  0.47121490
   0.33333333  0.33333333  0.38179910
   0.58333333  0.83333333  0.38179910
   0.33204737  0.58472455  0.60770037
   0.33411073  0.33076113  0.60774637
   0.83097055  0.58683810  0.60680929
   0.08418040  0.33088118  0.60698331
   0.58526961  0.32986708  0.60788355
   0.58307096  0.58810164  0.60776652
   0.83149167  0.08325983  0.60707913
   0.08248120  0.83257638  0.60710388
   0.24849055  0.74959919  0.56234298
   0.75107039  0.74809431  0.55833037
   0.75041956  0.24766977  0.56109023
   0.41990173  0.16563214  0.47081893
   0.50265706 -0.00095389  0.55493411
   0.74782913  0.50418175  0.56232513
   0.25099609  0.49974701  0.56344976
  -0.00004176  0.25147773  0.55903314
   0.49970052  0.24944982  0.56187669
   0.24948451  0.25157714  0.56283445
   0.41931232  0.66416484  0.47020233
   0.91428906  0.66986716  0.47107846
   0.91348186  0.91768324  0.46863660
  -0.00015214  0.75270297  0.55880040
   0.66918633  0.91614580  0.47164301
   0.50429779  0.74465687  0.55928556
   0.66667406  0.66693200  0.46870792
  -0.00256706 -0.00145813  0.56200645
   0.66730449  0.16544810  0.46949908
   0.75197665  0.00103961  0.55827199
   0.91289285  0.16690277  0.47163365
   0.66660037  0.41662303  0.47121207
  -0.00181267  0.50065492  0.56229888
   0.50050331  0.50110159  0.56373076
Direct configuration=     6
   0.08333333  0.08333333  0.38179910
   0.08333333  0.58333333  0.38179910
   0.33333333  0.08333333  0.38179910
   0.83333333  0.83333333  0.38179910
   0.08333333  0.83333333  0.38179910
   0.91031512  0.42018620  0.47238828
   0.08333333  0.33333333  0.38179910
   0.83333333  0.58333333  0.38179910
   0.16638152  0.16845685  0.47171181
   0.58333333  0.33333333  0.38179910
   0.83333333  0.33333333  0.38179910
   0.42318689  0.91240543  0.47200016
   0.83333333  0.08333333  0.38179910
   0.58333333  0.58333333  0.38179910
   0.42139254  0.41502941  0.47232159
   0.58333333  0.08333333  0.38179910
   0.25244135 -0.00139550  0.56003031
   0.16307302  0.91549646  0.47263175
   0.33333333  0.83333333  0.38179910
   0.16546578  0.66690906  0.47257306
   0.33333333  0.58333333  0.38179910
   0.16612214  0.41889450  0.47344696
   0.33333333  0.33333333  0.38179910
   0.58333333  0.83333333  0.38179910
   0.33083606  0.58649451  0.60739728
   0.33512229  0.32853401  0.60720014
   0.83043900  0.59080271  0.60600621
   0.08287078  0.32914432  0.60635319
   0.58731248  0.32757420  0.60663032
   0.58245166  0.59107429  0.60713498
   0.83041067  0.08273380  0.60612089
   0.08109094  0.83233610  0.60634526
   0.25116409  0.75271786  0.56300705
   0.74940267  0.75332215  0.55902155
   0.75220463  0.25102393  0.56174882
   0.41978792  0.16648528  0.47227696
   0.50370511 -0.00213859  0.55630035
   0.75065487  0.49747112  0.56306442
   0.24422380  0.50307845  0.56410436
  -0.00198046  0.24880181  0.55981165
   0.50264452  0.24365355  0.56276883
   0.25229997  0.24632579  0.56338083
   0.41914657  0.66421431  0.47180014
   0.91418777  0.66989171  0.47258833
   0.91264987  0.91810811  0.46973603
  -0.00315499  0.75002497  0.55945297
   0.67073776  0.91575144  0.47317641
   0.50091992  0.75126595  0.55981115
   0.66711091  0.66627544  0.46985589
   0.00082183  0.00117680  0.56268736
   0.66734998  0.16551458  0.47077931
   0.74922958 -0.00208263  0.55880454
   0.91269644  0.16698409  0.47355906
   0.66662027  0.41657287  0.47304411
   0.00033052  0.50433082  0.56296272
   0.50186722  0.50007598  0.56442818
Direct configuration=     7
   0.08333333  0.08333333  0.38179910
   0.08333333  0.58333333  0.38179910
   0.33333333  0.08333333  0.38179910
   0.83333333  0.83333333  0.38179910
   0.08333333  0.83333333  0.38179910
   0.90983213  0.42059651  0.47389394
   0.08333333  0.33333333  0.38179910
   0.83333333  0.58333333  0.38179910
   0.16665881  0.16796011  0.47309462
   0.58333333  0.33333333  0.38179910
   0.83333333  0.33333333  0.38179910
   0.42225067  0.91224155  0.47316415
   0.83333333  0.08333333  0.38179910
   0.58333333  0.58333333  0.38179910
   0.42142890  0.41496060  0.47403060
   0.58333333  0.08333333  0.38179910
   0.25344937 -0.00228480  0.56122768
   0.16336338  0.91589453  0.47436999
   0.33333333  0.83333333  0.38179910
   0.16609540  0.66594487  0.47404583
   0.33333333  0.58333333  0.38179910
   0.16609501  0.41947043  0.47531021
   0.33333333  0.33333333  0.38179910
   0.58333333  0.83333333  0.38179910
   0.32982490  0.58797202  0.60714428
   0.33596672  0.32667489  0.60674416
   0.82999528  0.59411223  0.60533583
   0.08177756  0.32769445  0.60582719
   0.58901781  0.32566017  0.60558416
   0.58193469  0.59355577  0.60660780
   0.82950828  0.08229468  0.60532098
   0.07993039  0.83213551  0.60571198
   0.25339589  0.75532123  0.56356140
   0.74801051  0.75768620  0.55959854
   0.75369475  0.25382388  0.56229859
   0.41969292  0.16719746  0.47349407
   0.50457998 -0.00312755  0.55744085
   0.75301371  0.49186930  0.56368155
   0.23857050  0.50585944  0.56465079
  -0.00359883  0.24656803  0.56046153
   0.50510207  0.23881501  0.56351355
   0.25465022  0.24194212  0.56383693
   0.41900821  0.66425560  0.47313394
   0.91410321  0.66991221  0.47384873
   0.91195535  0.91846277  0.47065380
  -0.00566168  0.74778946  0.55999771
   0.67203284  0.91542225  0.47445644
   0.49810019  0.75678299  0.56024990
   0.66747558  0.66572737  0.47081417
   0.00365077  0.00337635  0.56325576
   0.66738795  0.16557007  0.47184801
   0.74693641 -0.00468899  0.55924909
   0.91253248  0.16705198  0.47516634
   0.66663689  0.41653099  0.47457344
   0.00211959  0.50739935  0.56351687
   0.50300578  0.49921983  0.56501036
Direct configuration=     8
   0.08333333  0.08333333  0.38179910
   0.08333333  0.58333333  0.38179910
   0.33333333  0.08333333  0.38179910
   0.83333333  0.83333333  0.38179910
   0.08333333  0.83333333  0.38179910
   0.91111204  0.41996094  0.47508169
   0.08333333  0.33333333  0.38179910
   0.83333333  0.58333333  0.38179910
   0.16653874  0.16836789  0.47410661
   0.58333333  0.33333333  0.38179910
   0.83333333  0.33333333  0.38179910
   0.42170726  0.91316190  0.47343346
   0.83333333  0.08333333  0.38179910
   0.58333333  0.58333333  0.38179910
   0.42137515  0.41487620  0.47570840
   0.58333333  0.08333333  0.38179910
   0.25427224 -0.00071425  0.56326441
   0.16327823  0.91588074  0.47514438
   0.33333333  0.83333333  0.38179910
   0.16633431  0.66670449  0.47512037
   0.33333333  0.58333333  0.38179910
   0.16597012  0.41861887  0.47645594
   0.33333333  0.33333333  0.38179910
   0.58333333  0.83333333  0.38179910
   0.32916777  0.58856236  0.60742648
   0.33605102  0.32632729  0.60734549
   0.82859490  0.59717386  0.60521704
   0.08012559  0.32713391  0.60587854
   0.58998628  0.32384461  0.60660830
   0.58158763  0.59737620  0.60663650
   0.82898310  0.08046870  0.60491020
   0.07827085  0.83156781  0.60553806
   0.25422338  0.75625731  0.56432002
   0.74505401  0.75859156  0.56039622
   0.75639713  0.25170504  0.56230466
   0.41949714  0.16700689  0.47426797
   0.50390035 -0.00400945  0.55918194
   0.75539070  0.49259298  0.56495940
   0.23746731  0.50685747  0.56567081
  -0.00265342  0.24573442  0.56137807
   0.50674760  0.23486480  0.56362600
   0.25553096  0.23769370  0.56407091
   0.41897606  0.66429142  0.47417452
   0.91402965  0.66941340  0.47420860
   0.91299518  0.91837872  0.47164655
  -0.00654418  0.75020799  0.56095044
   0.67107103  0.91546549  0.47452321
   0.49966345  0.75769370  0.56136992
   0.66725978  0.66580179  0.47188485
   0.00394153  0.00333707  0.56408206
   0.66762898  0.16579580  0.47285008
   0.74799199 -0.00464223  0.56030360
   0.91267299  0.16698109  0.47570396
   0.66620718  0.41661549  0.47519537
   0.00299913  0.50610242  0.56432314
   0.49966851  0.50174892  0.56480557
Direct configuration=     9
   0.08333333  0.08333333  0.38179910
   0.08333333  0.58333333  0.38179910
   0.33333333  0.08333333  0.38179910
   0.83333333  0.83333333  0.38179910
   0.08333333  0.83333333  0.38179910
   0.91147003  0.41978318  0.47541390
   0.08333333  0.33333333  0.38179910
   0.83333333  0.58333333  0.38179910
   0.16650515  0.16848194  0.47438966
   0.58333333  0.33333333  0.38179910
   0.83333333  0.33333333  0.38179910
   0.42155527  0.91341933  0.47350878
   0.83333333  0.08333333  0.38179910
   0.58333333  0.58333333  0.38179910
   0.42136011  0.41485259  0.47617767
   0.58333333  0.08333333  0.38179910
   0.25450240 -0.00027497  0.56383409
   0.16325441  0.91587688  0.47536097
   0.33333333  0.83333333  0.38179910
   0.16640114  0.66691695  0.47542091
   0.33333333  0.58333333  0.38179910
   0.16593519  0.41838068  0.47677640
   0.33333333  0.33333333  0.38179910
   0.58333333  0.83333333  0.38179910
   0.32898397  0.58872747  0.60750541
   0.33607460  0.32623006  0.60751368
   0.82820322  0.59803020  0.60518382
   0.07966353  0.32697713  0.60589290
   0.59025717  0.32333680  0.60689475
   0.58149056  0.59844477  0.60664453
   0.82883621  0.07995798  0.60479530
   0.07780668  0.83140903  0.60548941
   0.25445483  0.75651913  0.56453220
   0.74422708  0.75884478  0.56061933
   0.75715298  0.25111240  0.56230636
   0.41944238  0.16695358  0.47448443
   0.50371025 -0.00425611  0.55966892
   0.75605554  0.49279539  0.56531682
   0.23715875  0.50713662  0.56595611
  -0.00238898  0.24550126  0.56163442
   0.50720786  0.23375993  0.56365745
   0.25577730  0.23650542  0.56413635
   0.41896707  0.66430144  0.47446557
   0.91400908  0.66927388  0.47430925
   0.91328602  0.91835521  0.47192421
  -0.00679102  0.75088445  0.56121692
   0.67080202  0.91547759  0.47454189
   0.50010070  0.75794842  0.56168318
   0.66719942  0.66582261  0.47218431
   0.00402286  0.00332609  0.56431317
   0.66769639  0.16585894  0.47313035
   0.74828724 -0.00462915  0.56059855
   0.91271229  0.16696126  0.47585433
   0.66608699  0.41663912  0.47536932
   0.00324513  0.50573968  0.56454865
   0.49873509  0.50245630  0.56474829
Direct configuration=    10
   0.08333333  0.08333333  0.38179910
   0.08333333  0.58333333  0.38179910
   0.33333333  0.08333333  0.38179910
   0.83333333  0.83333333  0.38179910
   0.08333333  0.83333333  0.38179910
   0.91210766  0.41928490  0.47596381
   0.08333333  0.33333333  0.38179910
   0.83333333  0.58333333  0.38179910
   0.16636467  0.16811440  0.47473545
   0.58333333  0.33333333  0.38179910
   0.83333333  0.33333333  0.38179910
   0.42108602  0.91443555  0.47367015
   0.83333333  0.08333333  0.38179910
   0.58333333  0.58333333  0.38179910
   0.42080879  0.41466192  0.47719940
   0.58333333  0.08333333  0.38179910
   0.25489541 -0.00066101  0.56593807
   0.16370158  0.91633023  0.47573634
   0.33333333  0.83333333  0.38179910
   0.16627461  0.66726847  0.47597628
   0.33333333  0.58333333  0.38179910
   0.16624243  0.41795381  0.47728373
   0.33333333  0.33333333  0.38179910
   0.58333333  0.83333333  0.38179910
   0.32849687  0.58908497  0.60852990
   0.33603660  0.32515099  0.60769536
   0.82818023  0.59960767  0.60642636
   0.08023789  0.32640442  0.60684830
   0.59035120  0.32292142  0.60703574
   0.58128449  0.60008614  0.60728406
   0.82901013  0.07865693  0.60570837
   0.07770257  0.83101234  0.60646080
   0.25393653  0.75732490  0.56541385
   0.74242388  0.75966104  0.56078797
   0.75551420  0.25151153  0.56259118
   0.41969427  0.16610291  0.47484931
   0.50343038 -0.00506506  0.56127461
   0.75603941  0.49402188  0.56634744
   0.23827654  0.50582138  0.56713426
  -0.00196665  0.24473682  0.56222994
   0.50737298  0.23405484  0.56465425
   0.25563592  0.23774262  0.56533542
   0.41904818  0.66483577  0.47497015
   0.91387525  0.66923460  0.47449123
   0.91405108  0.91801129  0.47258991
  -0.00835114  0.75216402  0.56160879
   0.66948901  0.91603981  0.47449103
   0.50142379  0.75857603  0.56246556
   0.66699569  0.66567857  0.47289580
   0.00464266  0.00259456  0.56484060
   0.66799548  0.16575969  0.47375953
   0.74891056 -0.00554245  0.56108891
   0.91320997  0.16696368  0.47563057
   0.66614842  0.41687948  0.47573766
   0.00314566  0.50495773  0.56522404
   0.49969529  0.50153808  0.56520533
Direct configuration=    11
   0.08333333  0.08333333  0.38179910
   0.08333333  0.58333333  0.38179910
   0.33333333  0.08333333  0.38179910
   0.83333333  0.83333333  0.38179910
   0.08333333  0.83333333  0.38179910
   0.91273052  0.41879817  0.47650099
   0.08333333  0.33333333  0.38179910
   0.83333333  0.58333333  0.38179910
   0.16622745  0.16775537  0.47507323
   0.58333333  0.33333333  0.38179910
   0.83333333  0.33333333  0.38179910
   0.42062764  0.91542823  0.47382779
   0.83333333  0.08333333  0.38179910
   0.58333333  0.58333333  0.38179910
   0.42027023  0.41447566  0.47819745
   0.58333333  0.08333333  0.38179910
   0.25527931 -0.00103811  0.56799332
   0.16413838  0.91677308  0.47610302
   0.33333333  0.83333333  0.38179910
   0.16615102  0.66761184  0.47651878
   0.33333333  0.58333333  0.38179910
   0.16654255  0.41753682  0.47777932
   0.33333333  0.33333333  0.38179910
   0.58333333  0.83333333  0.38179910
   0.32802105  0.58943419  0.60953067
   0.33599948  0.32409691  0.60787283
   0.82815777  0.60114860  0.60764012
   0.08079894  0.32584499  0.60778156
   0.59044306  0.32251566  0.60717348
   0.58108319  0.60168949  0.60790879
   0.82918001  0.07738602  0.60660028
   0.07760087  0.83062484  0.60740969
   0.25343024  0.75811200  0.56627507
   0.74066245  0.76045840  0.56095269
   0.75391338  0.25190141  0.56286940
   0.41994032  0.16527195  0.47520574
   0.50315698 -0.00585528  0.56284310
   0.75602366  0.49521995  0.56735419
   0.23936844  0.50453661  0.56828511
  -0.00155411  0.24399008  0.56281166
   0.50753427  0.23434292  0.56562795
   0.25549782  0.23895116  0.56650671
   0.41912741  0.66535772  0.47546305
   0.91374453  0.66919624  0.47466900
   0.91479842  0.91767534  0.47324018
  -0.00987513  0.75341395  0.56199158
   0.66820641  0.91658900  0.47444134
   0.50271623  0.75918909  0.56322981
   0.66679668  0.66553787  0.47359080
   0.00524810  0.00187998  0.56535580
   0.66828765  0.16566274  0.47437414
   0.74951945 -0.00643458  0.56156791
   0.91369613  0.16696605  0.47541200
   0.66620842  0.41711427  0.47609747
   0.00304849  0.50419391  0.56588379
   0.50063325  0.50064112  0.56565177
Direct configuration=    12
   0.08333333  0.08333333  0.38179910
   0.08333333  0.58333333  0.38179910
   0.33333333  0.08333333  0.38179910
   0.83333333  0.83333333  0.38179910
   0.08333333  0.83333333  0.38179910
   0.91269830  0.41875000  0.47686438
   0.08333333  0.33333333  0.38179910
   0.83333333  0.58333333  0.38179910
   0.16651868  0.16720423  0.47553561
   0.58333333  0.33333333  0.38179910
   0.83333333  0.33333333  0.38179910
   0.42021929  0.91598838  0.47437283
   0.83333333  0.08333333  0.38179910
   0.58333333  0.58333333  0.38179910
   0.41994565  0.41441367  0.47875377
   0.58333333  0.08333333  0.38179910
   0.25536698 -0.00123258  0.56990617
   0.16492909  0.91708614  0.47653625
   0.33333333  0.83333333  0.38179910
   0.16617795  0.66749878  0.47700603
   0.33333333  0.58333333  0.38179910
   0.16685882  0.41744075  0.47812409
   0.33333333  0.33333333  0.38179910
   0.58333333  0.83333333  0.38179910
   0.32879438  0.58939717  0.61047344
   0.33686721  0.32373846  0.60924054
   0.82854833  0.60266128  0.60885273
   0.08086108  0.32564910  0.60917552
   0.59022110  0.32324173  0.60787309
   0.58088858  0.60186081  0.60891644
   0.82938896  0.07723884  0.60747336
   0.07742701  0.83048381  0.60855872
   0.25332356  0.75733098  0.56721052
   0.74149041  0.75956368  0.56120302
   0.75429707  0.25102538  0.56319851
   0.42017000  0.16474632  0.47574707
   0.50253466 -0.00478101  0.56407209
   0.75591993  0.49564933  0.56838136
   0.23927411  0.50482416  0.56917076
  -0.00151860  0.24346809  0.56337987
   0.50761376  0.23362432  0.56619306
   0.25467785  0.23885735  0.56694459
   0.41910572  0.66583827  0.47592146
   0.91352093  0.66935643  0.47492863
   0.91491199  0.91757020  0.47353717
  -0.01005560  0.75257819  0.56240896
   0.66761422  0.91705661  0.47464912
   0.50211886  0.75977741  0.56370134
   0.66672076  0.66530850  0.47398587
   0.00497805  0.00178474  0.56596494
   0.66838444  0.16548519  0.47469965
   0.74919153 -0.00687217  0.56194599
   0.91383572  0.16704027  0.47535665
   0.66636441  0.41732143  0.47633977
   0.00208053  0.50483713  0.56660642
   0.50104560  0.50128232  0.56659668
Direct configuration=    13
   0.08333333  0.08333333  0.38179910
   0.08333333  0.58333333  0.38179910
   0.33333333  0.08333333  0.38179910
   0.83333333  0.83333333  0.38179910
   0.08333333  0.83333333  0.38179910
   0.91264793  0.41867467  0.47743259
   0.08333333  0.33333333  0.38179910
   0.83333333  0.58333333  0.38179910
   0.16697406  0.16634246  0.47625862
   0.58333333  0.33333333  0.38179910
   0.83333333  0.33333333  0.38179910
   0.41958078  0.91686426  0.47522507
   0.83333333  0.08333333  0.38179910
   0.58333333  0.58333333  0.38179910
   0.41943811  0.41431674  0.47962365
   0.58333333  0.08333333  0.38179910
   0.25550405 -0.00153666  0.57289718
   0.16616548  0.91757566  0.47721365
   0.33333333  0.83333333  0.38179910
   0.16622007  0.66732200  0.47776791
   0.33333333  0.58333333  0.38179910
   0.16735336  0.41729053  0.47866319
   0.33333333  0.33333333  0.38179910
   0.58333333  0.83333333  0.38179910
   0.33000359  0.58933928  0.61194759
   0.33822403  0.32317796  0.61137914
   0.82915903  0.60502657  0.61074882
   0.08095825  0.32534280  0.61135517
   0.58987403  0.32437703  0.60896705
   0.58058427  0.60212870  0.61049205
   0.82971567  0.07700871  0.60883855
   0.07715517  0.83026329  0.61035540
   0.25315675  0.75610975  0.56867323
   0.74278503  0.75816468  0.56159444
   0.75489702  0.24965560  0.56371312
   0.42052913  0.16392443  0.47659350
   0.50156158 -0.00310123  0.56599378
   0.75575773  0.49632073  0.56998748
   0.23912661  0.50527379  0.57055560
  -0.00146308  0.24265188  0.56426834
   0.50773805  0.23250070  0.56707669
   0.25339571  0.23871067  0.56762928
   0.41907180  0.66658967  0.47663825
   0.91317130  0.66960690  0.47533459
   0.91508957  0.91740580  0.47400155
  -0.01033779  0.75127136  0.56306158
   0.66668825  0.91778778  0.47497402
   0.50118479  0.76069732  0.56443864
   0.66660205  0.66494987  0.47460362
   0.00455580  0.00163583  0.56691741
   0.66853577  0.16520757  0.47520864
   0.74867878 -0.00755638  0.56253718
   0.91405400  0.16715633  0.47527012
   0.66660832  0.41764534  0.47671863
   0.00056699  0.50584289  0.56773636
   0.50169038  0.50228493  0.56807417
Direct configuration=    14
   0.08333333  0.08333333  0.38179910
   0.08333333  0.58333333  0.38179910
   0.33333333  0.08333333  0.38179910
   0.83333333  0.83333333  0.38179910
   0.08333333  0.83333333  0.38179910
   0.91249186  0.41893868  0.47788919
   0.08333333  0.33333333  0.38179910
   0.83333333  0.58333333  0.38179910
   0.16724853  0.16661682  0.47696386
   0.58333333  0.33333333  0.38179910
   0.83333333  0.33333333  0.38179910
   0.42000639  0.91641336  0.47641341
   0.83333333  0.08333333  0.38179910
   0.58333333  0.58333333  0.38179910
   0.42010897  0.41456952  0.48003308
   0.58333333  0.08333333  0.38179910
   0.25474639 -0.00191107  0.57477457
   0.16647062  0.91710579  0.47814074
   0.33333333  0.83333333  0.38179910
   0.16654673  0.66727726  0.47822302
   0.33333333  0.58333333  0.38179910
   0.16703342  0.41743387  0.47916493
   0.33333333  0.33333333  0.38179910
   0.58333333  0.83333333  0.38179910
   0.33153788  0.58823612  0.61303156
   0.33847630  0.32240175  0.61249375
   0.82931062  0.60625511  0.61179341
   0.08020562  0.32521428  0.61204899
   0.59045784  0.32434469  0.60956580
   0.58017520  0.60245770  0.61162311
   0.82922942  0.07767146  0.60919666
   0.07604675  0.83033934  0.61095098
   0.25217128  0.75599538  0.56961908
   0.74375800  0.75733606  0.56188167
   0.75559041  0.24873162  0.56460918
   0.42032921  0.16445162  0.47737277
   0.50167256 -0.00244569  0.56686932
   0.75603799  0.49619089  0.57145169
   0.23921486  0.50507423  0.57180623
  -0.00112407  0.24374979  0.56530258
   0.50718035  0.23343016  0.56805101
   0.25188371  0.24069993  0.56872939
   0.41888137  0.66643180  0.47711776
   0.91318496  0.66956116  0.47557637
   0.91498304  0.91750395  0.47405781