  48  48   0   0
  0.5349325E+02  0.1100258E-08  0.1100258E-08  0.2449179E-08  0.3500000E-15
  1.000000000000000E-004
  CAR 
 unknown system                          
      6.36431212     -9.84879041  301     -1.08841844      1.00000000
     -9.849  0.0000E+00  0.0000E+00
     -9.795  0.0000E+00  0.0000E+00
     -9.741  0.0000E+00  0.0000E+00
     -9.687  0.0000E+00  0.0000E+00
     -9.633  0.0000E+00  0.0000E+00
     -9.579  0.0000E+00  0.0000E+00
     -9.525  0.0000E+00  0.0000E+00
     -9.470  0.0000E+00  0.0000E+00
     -9.416  0.1370E-16  0.7401E-18
     -9.362  0.5232E-14  0.2835E-15
     -9.308  0.1141E-11  0.6196E-13
     -9.254  0.1405E-09  0.7655E-11
     -9.200  0.9778E-08  0.5361E-09
     -9.146  0.3857E-06  0.2138E-07
     -9.092  0.8640E-05  0.4883E-06
     -9.038  0.1102E-03  0.6445E-05
     -8.984  0.8030E-03  0.4984E-04
     -8.930  0.3353E-02  0.2310E-03
     -8.876  0.8089E-02  0.6682E-03
     -8.822  0.1167E-01  0.1299E-02
     -8.768  0.1163E-01  0.1927E-02
     -8.714  0.1136E-01  0.2541E-02
     -8.660  0.1182E-01  0.3180E-02
     -8.606  0.9247E-02  0.3680E-02
     -8.552  0.4452E-02  0.3920E-02
     -8.498  0.1254E-02  0.3988E-02
     -8.444  0.2087E-03  0.3999E-02
     -8.390  0.8256E-04  0.4004E-02
     -8.336  0.4831E-03  0.4030E-02
     -8.282  0.2141E-02  0.4145E-02
     -8.227  0.5688E-02  0.4453E-02
     -8.173  0.9522E-02  0.4967E-02
     -8.119  0.1136E-01  0.5581E-02
     -8.065  0.1204E-01  0.6232E-02
     -8.011  0.1290E-01  0.6929E-02
     -7.957  0.1284E-01  0.7623E-02
     -7.903  0.1232E-01  0.8288E-02
     -7.849  0.1343E-01  0.9014E-02
     -7.795  0.1566E-01  0.9860E-02
     -7.741  0.1657E-01  0.1076E-01
     -7.687  0.1452E-01  0.1154E-01
     -7.633  0.1239E-01  0.1221E-01
     -7.579  0.1506E-01  0.1302E-01
     -7.525  0.1969E-01  0.1409E-01
     -7.471  0.1867E-01  0.1510E-01
     -7.417  0.1209E-01  0.1575E-01
     -7.363  0.7911E-02  0.1618E-01
     -7.309  0.1214E-01  0.1683E-01
     -7.255  0.2389E-01  0.1812E-01
     -7.201  0.3656E-01  0.2010E-01
     -7.147  0.4697E-01  0.2264E-01
     -7.093  0.6050E-01  0.2591E-01
     -7.039  0.7615E-01  0.3002E-01
     -6.984  0.8305E-01  0.3451E-01
     -6.930  0.7777E-01  0.3871E-01
     -6.876  0.6905E-01  0.4245E-01
     -6.822  0.6597E-01  0.4601E-01
     -6.768  0.6780E-01  0.4968E-01
     -6.714  0.6823E-01  0.5336E-01
     -6.660  0.6526E-01  0.5689E-01
     -6.606  0.6464E-01  0.6038E-01
     -6.552  0.7347E-01  0.6435E-01
     -6.498  0.9190E-01  0.6932E-01
     -6.444  0.1139E+00  0.7548E-01
     -6.390  0.1293E+00  0.8246E-01
     -6.336  0.1301E+00  0.8950E-01
     -6.282  0.1217E+00  0.9607E-01
     -6.228  0.1209E+00  0.1026E+00
     -6.174  0.1356E+00  0.1099E+00
     -6.120  0.1562E+00  0.1184E+00
     -6.066  0.1676E+00  0.1274E+00
     -6.012  0.1642E+00  0.1363E+00
     -5.958  0.1546E+00  0.1447E+00
     -5.904  0.1512E+00  0.1528E+00
     -5.850  0.1534E+00  0.1611E+00
     -5.796  0.1509E+00  0.1693E+00
     -5.741  0.1421E+00  0.1770E+00
     -5.687  0.1343E+00  0.1842E+00
     -5.633  0.1305E+00  0.1913E+00
     -5.579  0.1290E+00  0.1982E+00
     -5.525  0.1291E+00  0.2052E+00
     -5.471  0.1343E+00  0.2125E+00
     -5.417  0.1468E+00  0.2204E+00
     -5.363  0.1606E+00  0.2291E+00
     -5.309  0.1683E+00  0.2382E+00
     -5.255  0.1716E+00  0.2475E+00
     -5.201  0.1749E+00  0.2569E+00
     -5.147  0.1793E+00  0.2666E+00
     -5.093  0.1824E+00  0.2765E+00
     -5.039  0.1814E+00  0.2863E+00
     -4.985  0.1767E+00  0.2958E+00
     -4.931  0.1720E+00  0.3051E+00
     -4.877  0.1711E+00  0.3143E+00
     -4.823  0.1725E+00  0.3237E+00
     -4.769  0.1711E+00  0.3329E+00
     -4.715  0.1693E+00  0.3421E+00
     -4.661  0.1734E+00  0.3514E+00
     -4.607  0.1806E+00  0.3612E+00
     -4.553  0.1846E+00  0.3712E+00
     -4.498  0.1839E+00  0.3811E+00
     -4.444  0.1790E+00  0.3908E+00
     -4.390  0.1731E+00  0.4001E+00
     -4.336  0.1684E+00  0.4092E+00
     -4.282  0.1639E+00  0.4181E+00
     -4.228  0.1607E+00  0.4268E+00
     -4.174  0.1636E+00  0.4356E+00
     -4.120  0.1734E+00  0.4450E+00
     -4.066  0.1826E+00  0.4549E+00
     -4.012  0.1846E+00  0.4648E+00
     -3.958  0.1822E+00  0.4747E+00
     -3.904  0.1823E+00  0.4845E+00
     -3.850  0.1852E+00  0.4945E+00
     -3.796  0.1872E+00  0.5047E+00
     -3.742  0.1888E+00  0.5149E+00
     -3.688  0.1934E+00  0.5253E+00
     -3.634  0.2035E+00  0.5363E+00
     -3.580  0.2147E+00  0.5479E+00
     -3.526  0.2189E+00  0.5597E+00
     -3.472  0.2171E+00  0.5715E+00
     -3.418  0.2144E+00  0.5831E+00
     -3.364  0.2108E+00  0.5945E+00
     -3.310  0.2046E+00  0.6055E+00
     -3.255  0.1972E+00  0.6162E+00
     -3.201  0.1914E+00  0.6265E+00
     -3.147  0.1886E+00  0.6367E+00
     -3.093  0.1881E+00  0.6469E+00
     -3.039  0.1867E+00  0.6570E+00
     -2.985  0.1832E+00  0.6669E+00
     -2.931  0.1803E+00  0.6766E+00
     -2.877  0.1796E+00  0.6863E+00
     -2.823  0.1789E+00  0.6960E+00
     -2.769  0.1752E+00  0.7055E+00
     -2.715  0.1703E+00  0.7147E+00
     -2.661  0.1693E+00  0.7238E+00
     -2.607  0.1743E+00  0.7332E+00
     -2.553  0.1841E+00  0.7432E+00
     -2.499  0.1949E+00  0.7537E+00
     -2.445  0.2014E+00  0.7646E+00
     -2.391  0.1994E+00  0.7754E+00
     -2.337  0.1896E+00  0.7856E+00
     -2.283  0.1795E+00  0.7953E+00
     -2.229  0.1742E+00  0.8047E+00
     -2.175  0.1736E+00  0.8141E+00
     -2.121  0.1747E+00  0.8236E+00
     -2.067  0.1755E+00  0.8330E+00
     -2.012  0.1786E+00  0.8427E+00
     -1.958  0.1881E+00  0.8529E+00
     -1.904  0.2006E+00  0.8637E+00
     -1.850  0.2068E+00  0.8749E+00
     -1.796  0.2010E+00  0.8857E+00
     -1.742  0.1873E+00  0.8959E+00
     -1.688  0.1759E+00  0.9054E+00
     -1.634  0.1749E+00  0.9148E+00
     -1.580  0.1823E+00  0.9247E+00
     -1.526  0.1901E+00  0.9349E+00
     -1.472  0.1962E+00  0.9456E+00
     -1.418  0.2017E+00  0.9565E+00
     -1.364  0.2023E+00  0.9674E+00
     -1.310  0.1928E+00  0.9778E+00
     -1.256  0.1740E+00  0.9872E+00
     -1.202  0.1498E+00  0.9953E+00
     -1.148  0.1241E+00  0.1002E+01
     -1.094  0.1019E+00  0.1008E+01
     -1.040  0.8287E-01  0.1012E+01
     -0.986  0.6283E-01  0.1015E+01
     -0.932  0.4386E-01  0.1018E+01
     -0.878  0.2948E-01  0.1019E+01
     -0.823  0.2096E-01  0.1020E+01
     -0.769  0.1896E-01  0.1022E+01
     -0.715  0.2207E-01  0.1023E+01
     -0.661  0.2896E-01  0.1024E+01
     -0.607  0.3707E-01  0.1026E+01
     -0.553  0.4269E-01  0.1029E+01
     -0.499  0.4315E-01  0.1031E+01
     -0.445  0.3823E-01  0.1033E+01
     -0.391  0.3084E-01  0.1035E+01
     -0.337  0.2634E-01  0.1036E+01
     -0.283  0.2968E-01  0.1038E+01
     -0.229  0.3736E-01  0.1040E+01
     -0.175  0.4003E-01  0.1042E+01
     -0.121  0.3516E-01  0.1044E+01
     -0.067  0.2741E-01  0.1045E+01
     -0.013  0.2225E-01  0.1046E+01
      0.041  0.2358E-01  0.1048E+01
      0.095  0.3084E-01  0.1049E+01
      0.149  0.3731E-01  0.1051E+01
      0.203  0.3600E-01  0.1053E+01
      0.257  0.3028E-01  0.1055E+01
      0.311  0.2952E-01  0.1057E+01
      0.365  0.3464E-01  0.1058E+01
      0.420  0.4010E-01  0.1061E+01
      0.474  0.4343E-01  0.1063E+01
      0.528  0.4551E-01  0.1065E+01
      0.582  0.4788E-01  0.1068E+01
      0.636  0.4935E-01  0.1071E+01
      0.690  0.4621E-01  0.1073E+01
      0.744  0.3868E-01  0.1075E+01
      0.798  0.2956E-01  0.1077E+01
      0.852  0.2158E-01  0.1078E+01
      0.906  0.1815E-01  0.1079E+01
      0.960  0.1903E-01  0.1080E+01
      1.014  0.2177E-01  0.1081E+01
      1.068  0.2442E-01  0.1083E+01
      1.122  0.2427E-01  0.1084E+01
      1.176  0.2083E-01  0.1085E+01
      1.230  0.1652E-01  0.1086E+01
      1.284  0.1355E-01  0.1087E+01
      1.338  0.1266E-01  0.1087E+01
      1.392  0.1411E-01  0.1088E+01
      1.446  0.1967E-01  0.1089E+01
      1.500  0.2855E-01  0.1091E+01
      1.554  0.3397E-01  0.1092E+01
      1.608  0.3177E-01  0.1094E+01
      1.663  0.2635E-01  0.1096E+01
      1.717  0.2537E-01  0.1097E+01
      1.771  0.3062E-01  0.1099E+01
      1.825  0.3480E-01  0.1101E+01
      1.879  0.3185E-01  0.1102E+01
      1.933  0.2517E-01  0.1104E+01
      1.987  0.2226E-01  0.1105E+01
      2.041  0.2519E-01  0.1106E+01
      2.095  0.2983E-01  0.1108E+01
      2.149  0.3384E-01  0.1110E+01
      2.203  0.3895E-01  0.1112E+01
      2.257  0.4443E-01  0.1114E+01
      2.311  0.4625E-01  0.1117E+01
      2.365  0.4364E-01  0.1119E+01
      2.419  0.3876E-01  0.1121E+01
      2.473  0.3293E-01  0.1123E+01
      2.527  0.3067E-01  0.1125E+01
      2.581  0.3685E-01  0.1127E+01
      2.635  0.4675E-01  0.1129E+01
      2.689  0.5112E-01  0.1132E+01
      2.743  0.4652E-01  0.1134E+01
      2.797  0.3536E-01  0.1136E+01
      2.851  0.2331E-01  0.1137E+01
      2.906  0.1606E-01  0.1138E+01
      2.960  0.1348E-01  0.1139E+01
      3.014  0.1070E-01  0.1140E+01
      3.068  0.8091E-02  0.1140E+01
      3.122  0.1091E-01  0.1141E+01
      3.176  0.1899E-01  0.1142E+01
      3.230  0.2540E-01  0.1143E+01
      3.284  0.2504E-01  0.1144E+01
      3.338  0.1950E-01  0.1145E+01
      3.392  0.1527E-01  0.1146E+01
      3.446  0.1709E-01  0.1147E+01
      3.500  0.2294E-01  0.1148E+01
      3.554  0.3011E-01  0.1150E+01
      3.608  0.3840E-01  0.1152E+01
      3.662  0.4482E-01  0.1155E+01
      3.716  0.4438E-01  0.1157E+01
      3.770  0.3701E-01  0.1159E+01
      3.824  0.2787E-01  0.1161E+01
      3.878  0.2186E-01  0.1162E+01
      3.932  0.2152E-01  0.1163E+01
      3.986  0.2539E-01  0.1164E+01
      4.040  0.2793E-01  0.1166E+01
      4.094  0.2659E-01  0.1167E+01
      4.149  0.2395E-01  0.1168E+01
      4.203  0.2154E-01  0.1170E+01
      4.257  0.1896E-01  0.1171E+01
      4.311  0.1671E-01  0.1172E+01
      4.365  0.1749E-01  0.1172E+01
      4.419  0.2323E-01  0.1174E+01
      4.473  0.3047E-01  0.1175E+01
      4.527  0.3848E-01  0.1177E+01
      4.581  0.5032E-01  0.1180E+01
      4.635  0.5936E-01  0.1183E+01
      4.689  0.5771E-01  0.1187E+01
      4.743  0.5170E-01  0.1189E+01
      4.797  0.4972E-01  0.1192E+01
      4.851  0.5029E-01  0.1195E+01
      4.905  0.4995E-01  0.1197E+01
      4.959  0.5084E-01  0.1200E+01
      5.013  0.5764E-01  0.1203E+01
      5.067  0.6769E-01  0.1207E+01
      5.121  0.7083E-01  0.1211E+01
      5.175  0.6527E-01  0.1214E+01
      5.229  0.5869E-01  0.1217E+01
      5.283  0.5113E-01  0.1220E+01
      5.337  0.3742E-01  0.1222E+01
      5.392  0.2081E-01  0.1223E+01
      5.446  0.8464E-02  0.1224E+01
      5.500  0.2421E-02  0.1224E+01
      5.554  0.4610E-03  0.1224E+01
      5.608  0.5543E-04  0.1224E+01
      5.662  0.4043E-05  0.1224E+01
      5.716  0.1741E-06  0.1224E+01
      5.770  0.4352E-08  0.1224E+01
      5.824  0.6245E-10  0.1224E+01
      5.878  0.5105E-12  0.1224E+01
      5.932  0.2365E-14  0.1224E+01
      5.986  0.5478E-17  0.1224E+01
      6.040  0.0000E+00  0.1224E+01
      6.094  0.0000E+00  0.1224E+01
      6.148  0.0000E+00  0.1224E+01
      6.202  0.0000E+00  0.1224E+01
      6.256  0.0000E+00  0.1224E+01
      6.310  0.0000E+00  0.1224E+01
      6.364  0.0000E+00  0.1224E+01
