unknown system                          
           1
    11.002582    0.000000    0.000000
     5.501291    9.528515    0.000000
     0.000000    0.000000   24.491785
   Au   Pd
  24  24
Direct configuration=     1
   0.33333333  0.33333333  0.40830017
   0.16666667  0.91666667  0.50000000
   0.66666667  0.16666667  0.50000000
   0.75000000  0.00000000  0.59169983
   0.83333333  0.33333333  0.40830017
   0.66666667  0.41666667  0.50000000
   0.58333333  0.33333333  0.40830017
   0.41666667  0.41666667  0.50000000
   0.25000000  0.00000000  0.59169983
   0.83333333  0.58333333  0.40830017
   0.66666667  0.91666667  0.50000000
   0.33333333  0.08333333  0.40830017
   0.91666667  0.91666667  0.50000000
   0.08333333  0.83333333  0.40830017
   0.50000000  0.25000000  0.59169983
   0.91666667  0.66666667  0.50000000
   0.08333333  0.58333333  0.40830017
   0.00000000  0.25000000  0.59169983
   0.75000000  0.50000000  0.59169983
   0.08333333  0.33333333  0.40830017
   0.83333333  0.83333333  0.40830017
   0.91666667  0.16666667  0.50000000
   0.00000000  0.75000000  0.59169983
   0.58333333  0.08333333  0.40830017
   0.41666667  0.91666667  0.50000000
   0.08333333  0.08333333  0.40830017
   0.83333333  0.08333333  0.40830017
   0.75000000  0.25000000  0.59169983
   0.58333333  0.83333333  0.40830017
   0.66666667  0.66666667  0.50000000
   0.50000000  0.75000000  0.59169983
   0.50000000  0.50000000  0.59169983
   0.25000000  0.75000000  0.59169983
   0.58333333  0.58333333  0.40830017
   0.50000000  0.00000000  0.59169983
   0.41666667  0.16666667  0.50000000
   0.33333333  0.83333333  0.40830017
   0.25000000  0.50000000  0.59169983
   0.16666667  0.66666667  0.50000000
   0.33333333  0.58333333  0.40830017
   0.25000000  0.25000000  0.59169983
   0.16666667  0.41666667  0.50000000
   0.16666667  0.16666667  0.50000000
   0.00000000  0.50000000  0.59169983
   0.91666667  0.41666667  0.50000000
   0.00000000  0.00000000  0.59169983
   0.41666667  0.66666667  0.50000000
   0.75000000  0.75000000  0.59169983
Direct configuration=     2
   0.33298617  0.33380158  0.40643309
   0.16857298  0.91556147  0.49996874
   0.66686912  0.16672035  0.50013134
   0.74991931  0.00005956  0.59424254
   0.83367955  0.33293501  0.40613196
   0.66569604  0.41901959  0.50037604
   0.58330205  0.33416099  0.40574489
   0.41398971  0.41926670  0.50046270
   0.25105407 -0.00053938  0.59350607
   0.83148465  0.58383843  0.40636319
   0.66394167  0.91587450  0.50037702
   0.33338465  0.08185811  0.40675190
   0.91775533  0.91694194  0.50009036
   0.08450018  0.83343499  0.40611553
   0.49888825  0.25051455  0.59383942
   0.91725595  0.66429396  0.50081367
   0.08464890  0.58307530  0.40639296
   0.00028980  0.25033945  0.59356898
   0.74943737  0.50101212  0.59354211
   0.08338769  0.33253309  0.40673094
   0.83255688  0.83400568  0.40571007
   0.91765688  0.16641395  0.50001161
   0.00139538  0.74890363  0.59382280
   0.58342548  0.08277453  0.40604443
   0.41736764  0.91591504  0.50002554
   0.08367369  0.08306068  0.40712273
   0.83370641  0.08331921  0.40682039
   0.74995729  0.25006334  0.59317505
   0.58276261  0.83282902  0.40732096
   0.66508780  0.66752140  0.50008471
   0.49991470  0.74981415  0.59248014
   0.49912420  0.50122042  0.59280073
   0.25096959  0.74910861  0.59264476
   0.58211064  0.58480579  0.40739699
   0.49965144 -0.00050482  0.59262676
   0.41524681  0.16630208  0.50048159
   0.33429530  0.83253940  0.40754691
   0.24973042  0.50006625  0.59258850
   0.16849636  0.66542871  0.50027187
   0.33365139  0.58420746  0.40736611
   0.24988210  0.25048026  0.59240999
   0.16674885  0.41615863  0.50070646
   0.16738139  0.16728736  0.50001697
   0.00077231  0.49959121  0.59260872
   0.91756311  0.41688733  0.50027925
   0.00006715 -0.00013804  0.59317099
   0.41658587  0.66741603  0.50005374
   0.74917488  0.74982038  0.59282780
Direct configuration=     3
   0.33197779  0.33516166  0.40100995
   0.17411008  0.91235133  0.49987795
   0.66745717  0.16687628  0.50051281
   0.74968494  0.00023254  0.60162809
   0.83468517  0.33177803  0.39983417
   0.66287675  0.42585391  0.50146830
   0.58321118  0.33656499  0.39832282
   0.40621423  0.42681876  0.50180665
   0.25411572 -0.00210607  0.59875246
   0.82611497  0.58530554  0.40073705
   0.65602666  0.91357355  0.50147209
   0.33353369  0.07757318  0.40225480
   0.92091748  0.91774152  0.50035281
   0.08788942  0.83373025  0.39977001
   0.49565905  0.25200912  0.60005408
   0.91896759  0.65740221  0.50317707
   0.08847009  0.58232583  0.40085328
   0.00113153  0.25132542  0.59899811
   0.74780315  0.50395191  0.59889319
   0.08354556  0.33020869  0.40217296
   0.83030160  0.83595859  0.39818685
   0.92053305  0.16567991  0.50004533
   0.00544840  0.74571910  0.59998919
   0.58369314  0.08115143  0.39949242
   0.41940368  0.91373188  0.50009972
   0.08466227  0.08226873  0.40370274
   0.83479004  0.08327818  0.40252222
   0.74983323  0.25024733  0.59745997
   0.58110487  0.83136419  0.40447675
   0.66050184  0.67000405  0.50033077
   0.49966694  0.74927432  0.59474662
   0.49658036  0.50476527  0.59599840
   0.25378585  0.74651946  0.59538942
   0.57855921  0.58908270  0.40477361
   0.49863900 -0.00197112  0.59531911
   0.41112268  0.16524310  0.50188040
   0.33708941  0.83023334  0.40535899
   0.24894739  0.50025867  0.59516975
   0.17381091  0.66183293  0.50106154
   0.33457521  0.58674644  0.40465302
   0.24953964  0.25187523  0.59447273
   0.16698757  0.41468297  0.50275844
   0.16945738  0.16909024  0.50006624
   0.00301555  0.49840384  0.59524870
   0.92016691  0.41752829  0.50109038
   0.00026219 -0.00053898  0.59744410
   0.41635121  0.66959264  0.50020982
   0.74677823  0.74929865  0.59610410
Direct configuration=     4
   0.33365004  0.33363994  0.39982806
   0.17341845  0.91368557  0.50010173
   0.66480483  0.16811179  0.50045705
   0.74973376 -0.00052133  0.60342060
   0.83371026  0.33206922  0.39838265
   0.66412691  0.42341136  0.50122753
   0.58305564  0.33668853  0.39668511
   0.41156776  0.42118743  0.50126771
   0.25311214 -0.00175122  0.60032200
   0.82736287  0.58539203  0.39937986
   0.66097539  0.91474199  0.50110456
   0.33404904  0.07774776  0.40084832
   0.92029879  0.91434208  0.50028536
   0.08717753  0.83400707  0.39800850
   0.49636823  0.25188709  0.60163128
   0.91794803  0.66182382  0.50236803
   0.08610465  0.58371281  0.39970974
   0.00103135  0.25084210  0.60057262
   0.74846903  0.50317215  0.60070165
   0.08323951  0.33134651  0.40092645
   0.83177822  0.83440717  0.39681005
   0.92048735  0.16790576  0.50015543
   0.00443470  0.74691175  0.60166878
   0.58280907  0.08231392  0.39810517
   0.41554914  0.91525703  0.50014856
   0.08477401  0.08150921  0.40288883
   0.83461657  0.08320800  0.40157835
   0.74933095  0.25097479  0.59835394
   0.58146115  0.83198392  0.40327165
   0.66232570  0.66795389  0.50027883
   0.49931842  0.74933530  0.59591855
   0.49677821  0.50425416  0.59734535
   0.25352051  0.74716935  0.59656578
   0.57877419  0.58784732  0.40379003
   0.49880858 -0.00162496  0.59684078
   0.41275555  0.16636001  0.50126149
   0.33682822  0.83027575  0.40428917
   0.24912450  0.49999130  0.59697239
   0.16850857  0.66599270  0.50062328
   0.33540033  0.58623254  0.40375360
   0.24949302  0.25124529  0.59594834
   0.16740540  0.41425755  0.50176100
   0.16889038  0.16808000  0.50012653
   0.00274478  0.49818657  0.59718683
   0.91892279  0.41573130  0.50079333
   0.00107874 -0.00086857  0.59861546
   0.41653941  0.66969538  0.50027305
   0.74733735  0.74987693  0.59744666
Direct configuration=     5
   0.33427218  0.33307380  0.39938834
   0.17316114  0.91418196  0.50018499
   0.66381805  0.16857145  0.50043630
   0.74975192 -0.00080181  0.60408749
   0.83334755  0.33217755  0.39784262
   0.66459202  0.42250263  0.50113795
   0.58299777  0.33673449  0.39607582
   0.41355949  0.41909235  0.50106720
   0.25273877 -0.00161920  0.60090593
   0.82782714  0.58542421  0.39887493
   0.66281653  0.91517670  0.50096783
   0.33424077  0.07781271  0.40032506
   0.92006861  0.91307735  0.50026027
   0.08691269  0.83411006  0.39735314
   0.49663207  0.25184170  0.60221806
   0.91756870  0.66346884  0.50206704
   0.08522461  0.58422882  0.39928429
   0.00099408  0.25066228  0.60115839
   0.74871676  0.50288205  0.60137447
   0.08312565  0.33176983  0.40046270
   0.83232758  0.83382998  0.39629782
   0.92047035  0.16873386  0.50019639
   0.00405756  0.74735546  0.60229366
   0.58248016  0.08274641  0.39758906
   0.41411509  0.91582445  0.50016672
   0.08481558  0.08122663  0.40258602
   0.83455203  0.08318190  0.40122719
   0.74914408  0.25124543  0.59868653
   0.58159370  0.83221448  0.40282331
   0.66300425  0.66719115  0.50025951
   0.49918876  0.74935798  0.59635455
   0.49685182  0.50406401  0.59784647
   0.25342180  0.74741113  0.59700344
   0.57885418  0.58738771  0.40342410
   0.49887167 -0.00149618  0.59740691
   0.41336304  0.16677554  0.50103124
   0.33673104  0.83029153  0.40389115
   0.24919040  0.49989182  0.59764304
   0.16653589  0.66754030  0.50046023
   0.33570731  0.58604134  0.40341898
   0.24947568  0.25101093  0.59649732
   0.16756084  0.41409927  0.50138991
   0.16867944  0.16770415  0.50014896
   0.00264404  0.49810573  0.59790790
   0.91845992  0.41506274  0.50068281
   0.00138253 -0.00099120  0.59905125
   0.41660942  0.66973360  0.50029657
   0.74754536  0.75009207  0.59794614
Direct configuration=     6
   0.33399603  0.33341390  0.39909967
   0.17008966  0.91528201  0.50032542
   0.66513122  0.16759211  0.50037105
   0.74988657 -0.00061953  0.60460102
   0.83304696  0.33243824  0.39749188
   0.66521126  0.42074599  0.50098900
   0.58324285  0.33612043  0.39551723
   0.41338475  0.41939754  0.50087285
   0.25205360 -0.00123107  0.60153748
   0.82877770  0.58501325  0.39859223
   0.66347332  0.91587453  0.50074734
   0.33397970  0.07868195  0.39993325
   0.91841198  0.91509781  0.50020934
   0.08631213  0.83419003  0.39681324
   0.49741170  0.25140050  0.60271604
   0.91728045  0.66319323  0.50172134
   0.08490880  0.58404628  0.39910298
   0.00073511  0.25031044  0.60170351
   0.74904864  0.50244575  0.60194043
   0.08307575  0.33232432  0.40019994
   0.83239957  0.83398441  0.39593434
   0.91923898  0.16751212  0.50028856
   0.00328516  0.74790244  0.60288788
   0.58323729  0.08257587  0.39725233
   0.41551369  0.91697057  0.50029587
   0.08461246  0.08138217  0.40251201
   0.83407607  0.08305036  0.40141742
   0.74907233  0.25109321  0.59867131
   0.58226908  0.83258265  0.40272107
   0.66448576  0.66715245  0.50027421
   0.49945992  0.74947133  0.59672968
   0.49721573  0.50326797  0.59820958
   0.25279044  0.74773830  0.59733416
   0.58002370  0.58633132  0.40315996
   0.49922579 -0.00119152  0.59766584
   0.41439522  0.16628236  0.50066342
   0.33623041  0.83057157  0.40343977
   0.24939175  0.49985199  0.59787944
   0.16702717  0.66651524  0.50025367
   0.33516221  0.58528733  0.40340477
   0.24969871  0.25060360  0.59693005
   0.16709085  0.41511667  0.50077368
   0.16878792  0.16770260  0.50019663
   0.00206310  0.49870196  0.59828833
   0.91802786  0.41620993  0.50058908
   0.00117770 -0.00089734  0.59907942
   0.41645247  0.66834409  0.50044249
   0.74813047  0.75016866  0.59821978
Direct configuration=     7
   0.33392869  0.33349685  0.39902926
   0.16934056  0.91555030  0.50035966
   0.66545148  0.16735326  0.50035514
   0.74991941 -0.00057507  0.60472627
   0.83297364  0.33250181  0.39740634
   0.66536229  0.42031756  0.50095267
   0.58330262  0.33597067  0.39538099
   0.41334213  0.41947197  0.50082545
   0.25188650 -0.00113640  0.60169151
   0.82900953  0.58491302  0.39852329
   0.66363350  0.91604472  0.50069357
   0.33391603  0.07889395  0.39983770
   0.91800795  0.91559058  0.50019692
   0.08616566  0.83420953  0.39668156
   0.49760185  0.25129290  0.60283750
   0.91721015  0.66312601  0.50163703
   0.08483178  0.58400176  0.39905876
   0.00067195  0.25022463  0.60183646
   0.74912958  0.50233934  0.60207846
   0.08306358  0.33245955  0.40013586
   0.83241713  0.83402208  0.39584569
   0.91893867  0.16721415  0.50031104
   0.00309678  0.74803584  0.60303280
   0.58342194  0.08253427  0.39717021
   0.41585479  0.91725009  0.50032737
   0.08456292  0.08142011  0.40249396
   0.83395998  0.08301828  0.40146381
   0.74905484  0.25105608  0.59866759
   0.58243380  0.83267244  0.40269613
   0.66484708  0.66714301  0.50027779
   0.49952605  0.74949897  0.59682117
   0.49730448  0.50307382  0.59829813
   0.25263646  0.74781810  0.59741482
   0.58030894  0.58607368  0.40309554
   0.49931215 -0.00111722  0.59772900
   0.41464696  0.16616208  0.50057371
   0.33610831  0.83063987  0.40332968
   0.24944086  0.49984228  0.59793710
   0.16714699  0.66626524  0.50020329
   0.33502927  0.58510344  0.40340131
   0.24975310  0.25050425  0.59703559
   0.16697622  0.41536480  0.50062339
   0.16881437  0.16770222  0.50020825
   0.00192142  0.49884737  0.59838111
   0.91792249  0.41648972  0.50056622
   0.00112774 -0.00087445  0.59908629
   0.41641420  0.66800520  0.50047808
   0.74827317  0.75018733  0.59828652
Direct configuration=     8
   0.33381789  0.33364667  0.39891222
   0.16969485  0.91507151  0.50037818
   0.66526793  0.16739786  0.50037130
   0.74999371 -0.00033957  0.60500340
   0.83328925  0.33225504  0.39735193
   0.66551194  0.42032897  0.50089614
   0.58335163  0.33561871  0.39506159
   0.41292432  0.41955842  0.50087839
   0.25199021 -0.00127880  0.60189304
   0.82917364  0.58483698  0.39840332
   0.66360301  0.91592499  0.50066626
   0.33378255  0.07919747  0.39972900
   0.91772034  0.91543117  0.50023368
   0.08604341  0.83410474  0.39645174
   0.49770783  0.25117589  0.60296615
   0.91744804  0.66313397  0.50161747
   0.08486530  0.58401640  0.39896461
   0.00049243  0.25033510  0.60195399
   0.74901972  0.50231813  0.60220803
   0.08298687  0.33224213  0.40009783
   0.83245156  0.83416125  0.39562362
   0.91864896  0.16757353  0.50034749
   0.00295132  0.74803995  0.60317523
   0.58366150  0.08249682  0.39698298
   0.41627924  0.91700564  0.50041815
   0.08431712  0.08180505  0.40262220
   0.83387358  0.08305462  0.40160889
   0.74915846  0.25085329  0.59860263
   0.58260081  0.83261556  0.40283295
   0.66468760  0.66724474  0.50035839
   0.49966929  0.74955326  0.59681244
   0.49757760  0.50273228  0.59833612
   0.25240850  0.74784220  0.59741314
   0.58059354  0.58604766  0.40318044
   0.49948388 -0.00103621  0.59767591
   0.41476091  0.16638539  0.50046879
   0.33608162  0.83061945  0.40344667
   0.24940995  0.49978295  0.59776546
   0.16731839  0.66582396  0.50021965
   0.33472313  0.58496436  0.40348574
   0.24983138  0.25061308  0.59696188
   0.16691262  0.41555666  0.50049689
   0.16860401  0.16803062  0.50031800
   0.00188462  0.49901559  0.59827668
   0.91797731  0.41642402  0.50062867
   0.00076118 -0.00080363  0.59907175
   0.41624325  0.66841440  0.50057983
   0.74844378  0.75020773  0.59825116
Direct configuration=     9
   0.33371324  0.33378818  0.39880167
   0.17002948  0.91461927  0.50039566
   0.66509455  0.16743998  0.50038656
   0.75006389 -0.00011713  0.60526516
   0.83358735  0.33202196  0.39730053
   0.66565329  0.42033975  0.50084275
   0.58339791  0.33528627  0.39475990
   0.41252968  0.41964008  0.50092840
   0.25208818 -0.00141329  0.60208339
   0.82932866  0.58476516  0.39829001
   0.66357420  0.91581190  0.50064047
   0.33365648  0.07948416  0.39962632
   0.91744868  0.91528060  0.50026841
   0.08592795  0.83400577  0.39623467
   0.49780794  0.25106536  0.60308768
   0.91767273  0.66314148  0.50159899
   0.08489696  0.58403023  0.39887570
   0.00032286  0.25043945  0.60206500
   0.74891596  0.50229810  0.60233042
   0.08291441  0.33203677  0.40006190
   0.83248407  0.83429270  0.39541387
   0.91837533  0.16791299  0.50038193
   0.00281394  0.74804383  0.60330976
   0.58388777  0.08246144  0.39680614
   0.41668015  0.91677475  0.50050390
   0.08408494  0.08216865  0.40274334
   0.83379198  0.08308894  0.40174593
   0.74925635  0.25066173  0.59854126
   0.58275856  0.83256183  0.40296218
   0.66453697  0.66734083  0.50043453
   0.49980459  0.74960454  0.59680419
   0.49783558  0.50240968  0.59837199
   0.25219318  0.74786497  0.59741154
   0.58086235  0.58602308  0.40326063
   0.49964608 -0.00095968  0.59762576
   0.41486853  0.16659631  0.50036968
   0.33605642  0.83060017  0.40355717
   0.24938076  0.49972691  0.59760334
   0.16748029  0.66540714  0.50023510
   0.33443398  0.58483299  0.40356548
   0.24990531  0.25071587  0.59689226
   0.16685254  0.41573788  0.50037740
   0.16840532  0.16834081  0.50042166
   0.00184986  0.49917447  0.59817803
   0.91802910  0.41636197  0.50068765
   0.00041495 -0.00073674  0.59905801
   0.41608179  0.66880090  0.50067594
   0.74860494  0.75022699  0.59821777
Direct configuration=    10
   0.33369362  0.33372751  0.39862451
   0.17005866  0.91460315  0.50042031
   0.66465112  0.16774147  0.50041742
   0.75007518 -0.00001117  0.60567916
   0.83348818  0.33193885  0.39722863
   0.66513060  0.42080339  0.50074130
   0.58337596  0.33539077  0.39433492
   0.41286741  0.41959065  0.50097587
   0.25211964 -0.00149225  0.60228478
   0.82951451  0.58474804  0.39815433
   0.66360966  0.91572946  0.50062451
   0.33376830  0.07943145  0.39957372
   0.91760023  0.91502252  0.50032565
   0.08587257  0.83420099  0.39596540
   0.49785318  0.25101066  0.60324082
   0.91770195  0.66312653  0.50154213
   0.08470476  0.58400255  0.39870119
   0.00036006  0.25049020  0.60221825
   0.74879042  0.50236678  0.60247482
   0.08290415  0.33202806  0.40001777
   0.83255384  0.83428252  0.39504070
   0.91859336  0.16774123  0.50046149
   0.00273971  0.74805199  0.60349607
   0.58385065  0.08240585  0.39652094
   0.41648271  0.91698159  0.50060519
   0.08405732  0.08199719  0.40301917
   0.83394109  0.08305702  0.40197524
   0.74927821  0.25063419  0.59848330
   0.58280165  0.83259496  0.40317001
   0.66463907  0.66713632  0.50056100
   0.49990732  0.74961564  0.59683584
   0.49802499  0.50216716  0.59834437
   0.25207409  0.74778666  0.59740860
   0.58091272  0.58584000  0.40345995
   0.49979682 -0.00083439  0.59751243
   0.41475752  0.16673721  0.50019423
   0.33604405  0.83060133  0.40378255
   0.24934926  0.49969095  0.59738868
   0.16724824  0.66555237  0.50024316
   0.33456375  0.58476415  0.40372487
   0.24992130  0.25079646  0.59669958
   0.16668842  0.41564110  0.50017813
   0.16845398  0.16829374  0.50061361
   0.00185577  0.49917213  0.59799092
   0.91804925  0.41650629  0.50079910
   0.00028784 -0.00070303  0.59898754
   0.41627702  0.66873644  0.50081218
   0.74870986  0.75030336  0.59814568
Direct configuration=    11
   0.33367365  0.33366576  0.39844417
   0.17008837  0.91458675  0.50044540
   0.66419977  0.16804835  0.50044884
   0.75008666  0.00009668  0.60610056
   0.83338725  0.33185426  0.39715545
   0.66459857  0.42127532  0.50063804
   0.58335361  0.33549714  0.39390235
   0.41321119  0.41954033  0.50102419
   0.25215167 -0.00157262  0.60248977
   0.82970368  0.58473061  0.39801622
   0.66364575  0.91564555  0.50060827
   0.33388213  0.07937780  0.39952018
   0.91775449  0.91475981  0.50038391
   0.08581621  0.83439970  0.39569131
   0.49789923  0.25095497  0.60339670
   0.91773170  0.66311131  0.50148425
   0.08450912  0.58397438  0.39852357
   0.00039793  0.25054185  0.60237424
   0.74866263  0.50243668  0.60262181
   0.08289371  0.33201919  0.39997285
   0.83262486  0.83427216  0.39466086
   0.91881530  0.16756640  0.50054247
   0.00266415  0.74806029  0.60368571
   0.58381286  0.08234927  0.39623063
   0.41628173  0.91719212  0.50070829
   0.08402921  0.08182266  0.40329994
   0.83409288  0.08302454  0.40220865
   0.74930046  0.25060616  0.59842430
   0.58284550  0.83262869  0.40338156
   0.66474300  0.66692815  0.50068974
   0.50001189  0.74962694  0.59686806
   0.49821779  0.50192029  0.59831625
   0.25195287  0.74770694  0.59740561
   0.58096399  0.58565365  0.40366283
   0.49995026 -0.00070686  0.59739706
   0.41464452  0.16688063  0.50001563
   0.33603146  0.83060251  0.40401196
   0.24931720  0.49965434  0.59717017
   0.16701205  0.66570019  0.50025137
   0.33469585  0.58469408  0.40388712
   0.24993758  0.25087848  0.59650345
   0.16652136  0.41554259  0.49997530
   0.16850351  0.16824583  0.50080899
   0.00186178  0.49916975  0.59780047
   0.91806975  0.41665319  0.50091254
   0.00015847 -0.00066873  0.59891582
   0.41647575  0.66867082  0.50095086
   0.74881665  0.75038109  0.59807231
Direct configuration=    12
   0.33381870  0.33362782  0.39827347
   0.16995384  0.91467036  0.50056470
   0.66450452  0.16780990  0.50044143
   0.75007200  0.00001882  0.60655865
   0.83320985  0.33201975  0.39715317
   0.66498746  0.42082065  0.50057523
   0.58322835  0.33563365  0.39340521
   0.41306086  0.41962027  0.50094836
   0.25215933 -0.00158926  0.60267667
   0.82945351  0.58475599  0.39792494
   0.66383234  0.91588542  0.50056438
   0.33389262  0.07903708  0.39954331
   0.91760007  0.91498051  0.50043441
   0.08603754  0.83426117  0.39544966
   0.49784691  0.25101046  0.60352707
   0.91746329  0.66327834  0.50131479
   0.08459211  0.58414589  0.39830317
   0.00052860  0.25049519  0.60255400
   0.74872906  0.50243370  0.60276229
   0.08287204  0.33184329  0.39995855
   0.83261923  0.83430716  0.39417857
   0.91855033  0.16771390  0.50070255
   0.00267832  0.74807132  0.60388196
   0.58384355  0.08237260  0.39594027
   0.41583685  0.91759899  0.50084262
   0.08437740  0.08158012  0.40361672
   0.83397655  0.08296688  0.40248763
   0.74927095  0.25081733  0.59834954
   0.58290576  0.83249983  0.40361531
   0.66513305  0.66686475  0.50079897
   0.49990763  0.74969593  0.59699139
   0.49802212  0.50208173  0.59832439
   0.25213088  0.74760719  0.59741383
   0.58090074  0.58566914  0.40381030
   0.49988979 -0.00061101  0.59727675
   0.41449504  0.16688065  0.49977675
   0.33612441  0.83057165  0.40430442
   0.24930271  0.49966934  0.59695050
   0.16693388  0.66586124  0.50016583
   0.33477259  0.58478744  0.40408392
   0.25000433  0.25079931  0.59627251
   0.16675089  0.41536454  0.49965360
   0.16862033  0.16793647  0.50097183
   0.00185173  0.49905167  0.59763382
   0.91773073  0.41655507  0.50096976
   0.00043303 -0.00071594  0.59888277
   0.41628891  0.66874015  0.50115822
   0.74880527  0.75050357  0.59801181
Direct configuration=    13
   0.33388172  0.33361133  0.39819930
   0.16989539  0.91470669  0.50061654
   0.66463693  0.16770629  0.50043822
   0.75006563 -0.00001500  0.60675768
   0.83313277  0.33209166  0.39715218
   0.66515643  0.42062310  0.50054795
   0.58317393  0.33569296  0.39318921
   0.41299555  0.41965500  0.50091541
   0.25216266 -0.00159648  0.60275788
   0.82934481  0.58476702  0.39788528
   0.66391341  0.91598964  0.50054532
   0.33389717  0.07888903  0.39955336
   0.91753297  0.91507640  0.50045635
   0.08613371  0.83420098  0.39534466
   0.49782418  0.25103457  0.60358372
   0.91734667  0.66335092  0.50124115
   0.08462816  0.58422041  0.39820741
   0.00058537  0.25047491  0.60263210
   0.74875792  0.50243240  0.60282332
   0.08286262  0.33176686  0.39995235
   0.83261678  0.83432236  0.39396903
   0.91843521  0.16777798  0.50077210
   0.00268447  0.74807611  0.60396723
   0.58385688  0.08238274  0.39581410
   0.41564355  0.91777577  0.50090098
   0.08452869  0.08147474  0.40375436
   0.83392601  0.08294183  0.40260885
   0.74925813  0.25090907  0.59831706
   0.58293194  0.83244384  0.40371688
   0.66530252  0.66683721  0.50084643
   0.49986233  0.74972591  0.59704497
   0.49793711  0.50215187  0.59832792
   0.25220823  0.74756385  0.59741741
   0.58087325  0.58567587  0.40387437
   0.49986351 -0.00056936  0.59722448
   0.41443010  0.16688066  0.49967295
   0.33616479  0.83055825  0.40443150
   0.24929642  0.49967585  0.59685506
   0.16689992  0.66593121  0.50012866
   0.33480593  0.58482800  0.40416943
   0.25003333  0.25076491  0.59617217
   0.16685062  0.41528718  0.49951382
   0.16867109  0.16780206  0.50104258
   0.00184737  0.49900036  0.59756141
   0.91758343  0.41651244  0.50099462
   0.00055232 -0.00073645  0.59886841
   0.41620773  0.66877027  0.50124832
   0.74880032  0.75055679  0.59798552
Direct configuration=    14
   0.33391182  0.33359286  0.39808146
   0.16951024  0.91474746  0.50079105
   0.66452288  0.16762899  0.50045239
   0.75008909 -0.00000462  0.60700055
   0.83320152  0.33198374  0.39720725
   0.66517302  0.42038410  0.50056377
   0.58315641  0.33567290  0.39290644
   0.41314035  0.41936081  0.50077367
   0.25221927 -0.00156038  0.60290930
   0.82923701  0.58476341  0.39786771
   0.66373143  0.91637289  0.50047939
   0.33395701  0.07886879  0.39960231
   0.91754858  0.91507993  0.50049981
   0.08624073  0.83411910  0.39528175
   0.49787833  0.25109504  0.60354379
   0.91755521  0.66330603  0.50105114
   0.08476197  0.58423965  0.39806927
   0.00065797  0.25039507  0.60276249
   0.74878077  0.50250267  0.60288986
   0.08286567  0.33172586  0.39999717
   0.83264568  0.83422356  0.39366641
   0.91843279  0.16785401  0.50088453
   0.00277087  0.74805428  0.60399989
   0.58386233  0.08237320  0.39567424
   0.41592856  0.91761378  0.50102718
   0.08445867  0.08154239  0.40389162
   0.83383986  0.08291999  0.40270816
   0.74914025  0.25101928  0.59834807
   0.58303085  0.83242720  0.40384348
   0.66506302  0.66710421  0.50093463
   0.49984556  0.74973083  0.59717839
   0.49784062  0.50234323  0.59832582
   0.25228368  0.74757949  0.59747449
   0.58070758  0.58583614  0.40395038
   0.49974049 -0.00055530  0.59716279
   0.41476828  0.16673488  0.49950200
   0.33631962  0.83035515  0.40463533
   0.24915806  0.49973674  0.59673264
   0.16660965  0.66606550  0.50003419
   0.33483140  0.58488330  0.40421943
   0.25011317  0.25074263  0.59604716
   0.16670992  0.41548936  0.49925367
   0.16833464  0.16788253  0.50106641
   0.00190504  0.49901392  0.59742173
   0.91771387  0.41628596  0.50095358
   0.00069729 -0.00081482  0.59896051
   0.41639196  0.66869424  0.50140759
   0.74871702  0.75059003  0.59796512
Direct configuration=    15
   0.33391628  0.33359012  0.39806399
   0.16945315  0.91475350  0.50081691
   0.66450598  0.16761754  0.50045449
   0.75009257 -0.00000308  0.60703655
   0.83321171  0.33196775  0.39721541
   0.66517548  0.42034867  0.50056611
   0.58315382  0.33566992  0.39286453
   0.41316181  0.41931721  0.50075266
   0.25222766 -0.00155502  0.60293175
   0.82922104  0.58476287  0.39786510
   0.66370446  0.91642969  0.50046961
   0.33396587  0.07886579  0.39960957
   0.91755089  0.91508045  0.50050625
   0.08625659  0.83410697  0.39527243
   0.49788636  0.25110401  0.60353788
   0.91758611  0.66329938  0.50102298
   0.08478180  0.58424250  0.39804880
   0.00066873  0.25038323  0.60278182
   0.74878416  0.50251309  0.60289972
   0.08286612  0.33171978  0.40000382
   0.83264996  0.83420892  0.39362156
   0.91843243  0.16786528  0.50090120
   0.00278368  0.74805104  0.60400474
   0.58386314  0.08237178  0.39565351
   0.41597080  0.91758977  0.50104588
   0.08444829  0.08155241  0.40391196
   0.83382709  0.08291675  0.40272288
   0.74912278  0.25103561  0.59835266
   0.58304551  0.83242473  0.40386224
   0.66502752  0.66714378  0.50094770
   0.49984307  0.74973156  0.59719816
   0.49782632  0.50237160  0.59832551
   0.25229486  0.74758181  0.59748296
   0.58068303  0.58585990  0.40396165
   0.49972225 -0.00055322  0.59715365
   0.41481841  0.16671327  0.49947667
   0.33634257  0.83032505  0.40466554
   0.24913755  0.49974577  0.59671449
   0.16656663  0.66608540  0.50002019
   0.33483518  0.58489150  0.40422684
   0.25012501  0.25073932  0.59602864
   0.16668906  0.41551932  0.49921511
   0.16828478  0.16789446  0.50106994
   0.00191358  0.49901593  0.59740102
   0.91773321  0.41625239  0.50094749
   0.00071878 -0.00082644  0.59897416
   0.41641926  0.66868297  0.50143119
   0.74870467  0.75059496  0.59796209
Direct configuration=    16
   0.33389526  0.33360826  0.39794025
   0.16955719  0.91463779  0.50096677
   0.66451656  0.16762730  0.50048664
   0.75012728  0.00001630  0.60713873
   0.83320565  0.33185781  0.39729482
   0.66501326  0.42046189  0.50060666
   0.58325415  0.33562484  0.39270740
   0.41315416  0.41928146  0.50062935
   0.25226977 -0.00150136  0.60305919
   0.82928620  0.58468314  0.39789217
   0.66388743  0.91636073  0.50043857
   0.33398622  0.07889338  0.39967945
   0.91735738  0.91508188  0.50055121
   0.08619254  0.83423646  0.39530576
   0.49789552  0.25117158  0.60341645
   0.91748461  0.66337527  0.50086630
   0.08479602  0.58415293  0.39790586
   0.00063033  0.25040747  0.60290013
   0.74886569  0.50250020  0.60290854
   0.08289057  0.33180230  0.40003031
   0.83272668  0.83409358  0.39344937
   0.91833355  0.16780739  0.50100667
   0.00276713  0.74807413  0.60394162
   0.58392276  0.08230824  0.39555455
   0.41601328  0.91741405  0.50116467
   0.08432442  0.08154536  0.40396097
   0.83381453  0.08285246  0.40274357
   0.74910172  0.25100541  0.59844625
   0.58310015  0.83249173  0.40388119
   0.66493968  0.66719030  0.50101924
   0.49989563  0.74970583  0.59735759
   0.49783154  0.50241333  0.59831242
   0.25223738  0.74765474  0.59756404
   0.58067089  0.58585768  0.40402845
   0.49969423 -0.00052218  0.59714415
   0.41476301  0.16675900  0.49936264
   0.33632254  0.83031841  0.40486969
   0.24909985  0.49974217  0.59658696
   0.16659605  0.66600160  0.49993992
   0.33491175  0.58482766  0.40419886
   0.25020747  0.25079749  0.59590430
   0.16663808  0.41559742  0.49903104
   0.16828225  0.16793932  0.50104959
   0.00193451  0.49908568  0.59724649
   0.91779498  0.41635000  0.50089263
   0.00063700 -0.00082410  0.59915983
   0.41645910  0.66860485  0.50154711
   0.74871403  0.75062881  0.59791166
Direct configuration=    17
   0.33387532  0.33362547  0.39782290
   0.16965586  0.91452805  0.50110888
   0.66452659  0.16763655  0.50051712
   0.75016019  0.00003467  0.60723563