       N       E                     dE             d eps       ncg     rms          rms(c)
DAV:   1     0.320026903671E+04    0.32003E+04   -0.18978E+05  3672   0.112E+03
DAV:   2     0.150176811361E+02   -0.31853E+04   -0.29279E+04  4380   0.263E+02
DAV:   3    -0.200600318105E+03   -0.21562E+03   -0.20014E+03  4128   0.652E+01
DAV:   4    -0.206451686859E+03   -0.58514E+01   -0.57848E+01  4224   0.109E+01
DAV:   5    -0.206638182933E+03   -0.18650E+00   -0.18582E+00  4428   0.196E+00    0.624E+01
RMM:   6    -0.207556364841E+03   -0.91818E+00   -0.99193E+01  3678   0.155E+01    0.585E+01
RMM:   7    -0.219541727730E+03   -0.11985E+02   -0.61611E+01  3680   0.122E+01    0.540E+01
RMM:   8    -0.214962117641E+03    0.45796E+01   -0.91604E+01  3676   0.143E+01    0.398E+01
RMM:   9    -0.209659013190E+03    0.53031E+01   -0.40947E+01  3677   0.103E+01    0.336E+01
RMM:  10    -0.198243606082E+03    0.11415E+02   -0.17514E+01  3682   0.699E+00    0.193E+01
RMM:  11    -0.193952941695E+03    0.42907E+01   -0.13706E+01  3681   0.584E+00    0.178E+01
RMM:  12    -0.190287501631E+03    0.36654E+01   -0.51517E+00  3681   0.359E+00    0.107E+01
RMM:  13    -0.189144334981E+03    0.11432E+01   -0.13659E+00  3682   0.179E+00    0.661E+00
RMM:  14    -0.189175720711E+03   -0.31386E-01   -0.64367E-01  3681   0.117E+00    0.662E+00
RMM:  15    -0.189083887105E+03    0.91834E-01   -0.31955E-01  3679   0.882E-01    0.550E+00
RMM:  16    -0.188979189614E+03    0.10470E+00   -0.33389E-01  3681   0.902E-01    0.470E+00
RMM:  17    -0.188757021664E+03    0.22217E+00   -0.31857E-01  3679   0.844E-01    0.246E+00
RMM:  18    -0.188710146584E+03    0.46875E-01   -0.87688E-02  3679   0.453E-01    0.155E+00
RMM:  19    -0.188686025867E+03    0.24121E-01   -0.24588E-02  3682   0.235E-01    0.703E-01
RMM:  20    -0.188683391620E+03    0.26342E-02   -0.53882E-03  3681   0.110E-01    0.540E-01
RMM:  21    -0.188682924654E+03    0.46697E-03   -0.46907E-03  3682   0.104E-01    0.546E-01
RMM:  22    -0.188681005962E+03    0.19187E-02   -0.38705E-03  3679   0.957E-02    0.372E-01
RMM:  23    -0.188679735881E+03    0.12701E-02   -0.21047E-03  3681   0.712E-02    0.170E-01
RMM:  24    -0.188679580908E+03    0.15497E-03   -0.75495E-04  3679   0.410E-02    0.118E-01
RMM:  25    -0.188679589116E+03   -0.82080E-05   -0.30930E-04  3681   0.261E-02    0.744E-02
RMM:  26    -0.188679803889E+03   -0.21477E-03   -0.10674E-04  3682   0.153E-02    0.541E-02
RMM:  27    -0.188680207557E+03   -0.40367E-03   -0.77823E-05  3679   0.126E-02    0.323E-02
RMM:  28    -0.188680734271E+03   -0.52671E-03   -0.51707E-05  3672   0.989E-03    0.334E-02
RMM:  29    -0.188681249092E+03   -0.51482E-03   -0.39016E-05  3672   0.873E-03    0.194E-02
RMM:  30    -0.188681743433E+03   -0.49434E-03   -0.27306E-05  3646   0.702E-03    0.184E-02
RMM:  31    -0.188682351007E+03   -0.60757E-03   -0.35769E-05  3645   0.801E-03    0.205E-02
RMM:  32    -0.188682721913E+03   -0.37091E-03   -0.28121E-05  3410   0.676E-03    0.141E-02
RMM:  33    -0.188682822943E+03   -0.10103E-03   -0.65614E-06  2726   0.318E-03    0.789E-03
RMM:  34    -0.188682942393E+03   -0.11945E-03   -0.31738E-06  2513   0.237E-03    0.337E-03
RMM:  35    -0.188683019401E+03   -0.77008E-04   -0.16096E-06  2250   0.177E-03    0.379E-03
RMM:  36    -0.188683082641E+03   -0.63240E-04   -0.12286E-06  2189   0.154E-03    0.331E-03
RMM:  37    -0.188683123869E+03   -0.41228E-04   -0.79318E-07  2155   0.119E-03    0.264E-03
RMM:  38    -0.188683139467E+03   -0.15598E-04   -0.38280E-07  1877   0.790E-04    0.200E-03
RMM:  39    -0.188683151567E+03   -0.12100E-04   -0.35367E-07  1927   0.766E-04    0.785E-04
RMM:  40    -0.188683154843E+03   -0.32768E-05   -0.11366E-07  1195   0.416E-04    0.636E-04
RMM:  41    -0.188683156187E+03   -0.13436E-05   -0.27176E-08   692   0.337E-04    0.488E-04
RMM:  42    -0.188683158104E+03   -0.19171E-05   -0.56131E-08   984   0.405E-04    0.412E-04
RMM:  43    -0.188683159456E+03   -0.13520E-05   -0.44783E-08   954   0.396E-04    0.316E-04
RMM:  44    -0.188683160207E+03   -0.75144E-06   -0.20456E-08   636   0.335E-04
   1 F= -.18868316E+03 E0= -.18855721E+03  d E =-.188683E+03
       N       E                     dE             d eps       ncg     rms          rms(c)
DAV:   1    -0.189316032239E+03   -0.63287E+00   -0.23513E+02  3672   0.234E+01    0.272E+00
RMM:   2    -0.189566551936E+03   -0.25052E+00   -0.24934E+00  3682   0.339E+00    0.200E+00
RMM:   3    -0.189736281362E+03   -0.16973E+00   -0.27068E-01  3706   0.870E-01    0.356E+00
RMM:   4    -0.189574568361E+03    0.16171E+00   -0.13441E-01  3687   0.566E-01    0.208E+00
RMM:   5    -0.189550067334E+03    0.24501E-01   -0.61254E-02  3683   0.398E-01    0.111E+00
RMM:   6    -0.189549629338E+03    0.43800E-03   -0.25344E-02  3687   0.260E-01    0.963E-01
RMM:   7    -0.189540455634E+03    0.91737E-02   -0.11494E-02  3681   0.173E-01    0.311E-01
RMM:   8    -0.189539495217E+03    0.96042E-03   -0.25628E-03  3681   0.778E-02    0.234E-01
RMM:   9    -0.189539040880E+03    0.45434E-03   -0.11262E-03  3686   0.526E-02    0.149E-01
RMM:  10    -0.189538854191E+03    0.18669E-03   -0.51743E-04  3685   0.354E-02    0.812E-02
RMM:  11    -0.189538796481E+03    0.57710E-04   -0.12527E-04  3686   0.179E-02    0.381E-02
RMM:  12    -0.189538797098E+03   -0.61713E-06   -0.30132E-05  3681   0.877E-03    0.308E-02
RMM:  13    -0.189538788572E+03    0.85259E-05   -0.15078E-05  3669   0.637E-03    0.139E-02
RMM:  14    -0.189538788504E+03    0.68590E-07   -0.56745E-06  2949   0.387E-03
   2 F= -.18953879E+03 E0= -.18941372E+03  d E =-.855628E+00
       N       E                     dE             d eps       ncg     rms          rms(c)
DAV:   1    -0.189005192437E+03    0.53360E+00   -0.12391E+03  3672   0.542E+01    0.504E+00
RMM:   2    -0.190292912871E+03   -0.12877E+01   -0.12999E+01  3683   0.775E+00    0.357E+00
RMM:   3    -0.190698658312E+03   -0.40575E+00   -0.10582E+00  3710   0.175E+00    0.557E+00
RMM:   4    -0.190288060722E+03    0.41060E+00   -0.39232E-01  3683   0.994E-01    0.372E+00
RMM:   5    -0.190207280196E+03    0.80781E-01   -0.16728E-01  3686   0.652E-01    0.212E+00
RMM:   6    -0.190227339613E+03   -0.20059E-01   -0.13023E-01  3687   0.575E-01    0.227E+00
RMM:   7    -0.190178624442E+03    0.48715E-01   -0.65168E-02  3684   0.408E-01    0.866E-01
RMM:   8    -0.190170847234E+03    0.77772E-02   -0.16542E-02  3683   0.204E-01    0.498E-01
RMM:   9    -0.190168357747E+03    0.24895E-02   -0.63410E-03  3684   0.123E-01    0.309E-01
RMM:  10    -0.190167426070E+03    0.93168E-03   -0.23607E-03  3683   0.744E-02    0.195E-01
RMM:  11    -0.190167153612E+03    0.27246E-03   -0.75163E-04  3684   0.434E-02    0.104E-01
RMM:  12    -0.190167100848E+03    0.52765E-04   -0.20988E-04  3685   0.230E-02    0.741E-02
RMM:  13    -0.190167075314E+03    0.25533E-04   -0.10324E-04  3679   0.165E-02    0.400E-02
RMM:  14    -0.190167072394E+03    0.29207E-05   -0.34170E-05  3677   0.948E-03    0.266E-02
RMM:  15    -0.190167069325E+03    0.30683E-05   -0.10751E-05  3534   0.530E-03    0.141E-02
RMM:  16    -0.190167071369E+03   -0.20437E-05   -0.34019E-06  2642   0.302E-03    0.837E-03
RMM:  17    -0.190167074621E+03   -0.32518E-05   -0.14059E-06  2100   0.210E-03    0.446E-03
RMM:  18    -0.190167078314E+03   -0.36934E-05   -0.57515E-07  2044   0.134E-03    0.357E-03
RMM:  19    -0.190167081820E+03   -0.35056E-05   -0.26706E-07  2038   0.885E-04    0.193E-03
RMM:  20    -0.190167084382E+03   -0.25623E-05   -0.61581E-08  1008   0.442E-04    0.126E-03
RMM:  21    -0.190167086679E+03   -0.22966E-05   -0.37230E-08   860   0.432E-04    0.119E-03
RMM:  22    -0.190167091629E+03   -0.49505E-05   -0.17315E-07  1698   0.585E-04    0.150E-03
RMM:  23    -0.190167095175E+03   -0.35461E-05   -0.13729E-07  1366   0.464E-04    0.139E-03
RMM:  24    -0.190167097499E+03   -0.23234E-05   -0.77117E-08   929   0.411E-04    0.102E-03
RMM:  25    -0.190167099431E+03   -0.19321E-05   -0.12872E-07  1324   0.485E-04    0.724E-04
RMM:  26    -0.190167100338E+03   -0.90768E-06   -0.58207E-08   893   0.386E-04
   3 F= -.19016710E+03 E0= -.19004309E+03  d E =-.148394E+01
       N       E                     dE             d eps       ncg     rms          rms(c)
DAV:   1    -0.190517681765E+03   -0.35058E+00   -0.45571E+02  3672   0.328E+01    0.239E+00
RMM:   2    -0.190997498377E+03   -0.47982E+00   -0.45755E+00  3683   0.467E+00    0.227E+00
RMM:   3    -0.191102667367E+03   -0.10517E+00   -0.33705E-01  3717   0.100E+00    0.355E+00
RMM:   4    -0.190954686491E+03    0.14798E+00   -0.70215E-02  3677   0.452E-01    0.157E+00
RMM:   5    -0.190941903469E+03    0.12783E-01   -0.38481E-02  3684   0.319E-01    0.124E+00
RMM:   6    -0.190940962105E+03    0.94136E-03   -0.57694E-02  3685   0.380E-01    0.102E+00
RMM:   7    -0.190932017522E+03    0.89446E-02   -0.19188E-02  3683   0.220E-01    0.602E-01
RMM:   8    -0.190928217835E+03    0.37997E-02   -0.41889E-03  3685   0.103E-01    0.289E-01
RMM:   9    -0.190927479965E+03    0.73787E-03   -0.15021E-03  3684   0.619E-02    0.166E-01
RMM:  10    -0.190927254060E+03    0.22590E-03   -0.55844E-04  3684   0.371E-02    0.121E-01
RMM:  11    -0.190927135535E+03    0.11852E-03   -0.19960E-04  3683   0.224E-02    0.697E-02
RMM:  12    -0.190927105235E+03    0.30300E-04   -0.15831E-04  3686   0.195E-02    0.509E-02
RMM:  13    -0.190927084878E+03    0.20357E-04   -0.57858E-05  3685   0.121E-02    0.204E-02
RMM:  14    -0.190927085740E+03   -0.86194E-06   -0.11538E-05  3646   0.544E-03    0.166E-02
RMM:  15    -0.190927083836E+03    0.19036E-05   -0.28000E-06  2421   0.289E-03    0.686E-03
RMM:  16    -0.190927083914E+03   -0.77795E-07   -0.11200E-06  2015   0.187E-03
   4 F= -.19092708E+03 E0= -.19080581E+03  d E =-.759984E+00
       N       E                     dE             d eps       ncg     rms          rms(c)
DAV:   1    -0.188112293649E+03    0.28148E+01   -0.43332E+03  3672   0.105E+02    0.627E+00
RMM:   2    -0.192100545677E+03   -0.39883E+01   -0.40682E+01  3682   0.141E+01    0.461E+00
RMM:   3    -0.192546664513E+03   -0.44612E+00   -0.21594E+00  3703   0.254E+00    0.693E+00
RMM:   4    -0.191929487814E+03    0.61718E+00   -0.36852E-01  3689   0.103E+00    0.395E+00
RMM:   5    -0.191903258183E+03    0.26230E-01   -0.19429E-01  3687   0.699E-01    0.379E+00
RMM:   6    -0.191845297187E+03    0.57961E-01   -0.39761E-01  3682   0.993E-01    0.314E+00
RMM:   7    -0.191800483773E+03    0.44813E-01   -0.26878E-01  3683   0.825E-01    0.230E+00
RMM:   8    -0.191749524735E+03    0.50959E-01   -0.72063E-02  3686   0.434E-01    0.915E-01
RMM:   9    -0.191742341026E+03    0.71837E-02   -0.16041E-02  3684   0.199E-01    0.679E-01
RMM:  10    -0.191738777590E+03    0.35634E-02   -0.68082E-03  3682   0.133E-01    0.481E-01
RMM:  11    -0.191736811913E+03    0.19657E-02   -0.46030E-03  3685   0.105E-01    0.309E-01
RMM:  12    -0.191736033465E+03    0.77845E-03   -0.31790E-03  3682   0.878E-02    0.167E-01
RMM:  13    -0.191735940889E+03    0.92576E-04   -0.97364E-04  3684   0.496E-02    0.127E-01
RMM:  14    -0.191735756666E+03    0.18422E-03   -0.24187E-04  3684   0.254E-02    0.377E-02
RMM:  15    -0.191735751889E+03    0.47770E-05   -0.36914E-05  3677   0.967E-03    0.291E-02
RMM:  16    -0.191735746371E+03    0.55178E-05   -0.21071E-05  3682   0.733E-03    0.147E-02
RMM:  17    -0.191735748404E+03   -0.20326E-05   -0.59835E-06  3086   0.394E-03    0.851E-03
RMM:  18    -0.191735752624E+03   -0.42202E-05   -0.17021E-06  2133   0.232E-03    0.346E-03
RMM:  19    -0.191735755351E+03   -0.27264E-05   -0.47632E-07  2021   0.125E-03    0.264E-03
RMM:  20    -0.191735758983E+03   -0.36324E-05   -0.19778E-07  2052   0.740E-04    0.132E-03
RMM:  21    -0.191735762109E+03   -0.31261E-05   -0.90034E-08  1148   0.491E-04    0.940E-04
RMM:  22    -0.191735764220E+03   -0.21107E-05   -0.45228E-08   878   0.448E-04    0.459E-04
RMM:  23    -0.191735767633E+03   -0.34133E-05   -0.16888E-07  1930   0.564E-04    0.714E-04
RMM:  24    -0.191735769581E+03   -0.19480E-05   -0.55248E-08   855   0.370E-04    0.520E-04
RMM:  25    -0.191735771317E+03   -0.17358E-05   -0.12875E-07  1131   0.451E-04    0.366E-04
RMM:  26    -0.191735771806E+03   -0.48969E-06   -0.36803E-08   714   0.383E-04
   5 F= -.19173577E+03 E0= -.19162145E+03  d E =-.156867E+01
       N       E                     dE             d eps       ncg     rms          rms(c)
DAV:   1    -0.191219324037E+03    0.51645E+00   -0.10178E+03  3672   0.497E+01    0.330E+00
RMM:   2    -0.192277277938E+03   -0.10580E+01   -0.10640E+01  3684   0.707E+00    0.261E+00
RMM:   3    -0.192572932238E+03   -0.29565E+00   -0.71248E-01  3705   0.143E+00    0.510E+00
RMM:   4    -0.192228762500E+03    0.34417E+00   -0.14220E-01  3678   0.634E-01    0.212E+00
RMM:   5    -0.192200427764E+03    0.28335E-01   -0.51109E-02  3684   0.367E-01    0.154E+00
RMM:   6    -0.192194788758E+03    0.56390E-02   -0.10969E-01  3683   0.519E-01    0.137E+00
RMM:   7    -0.192186454614E+03    0.83341E-02   -0.56405E-02  3681   0.376E-01    0.100E+00
RMM:   8    -0.192175993130E+03    0.10461E-01   -0.11615E-02  3684   0.175E-01    0.447E-01
RMM:   9    -0.192173889739E+03    0.21034E-02   -0.35011E-03  3683   0.950E-02    0.237E-01
RMM:  10    -0.192173416197E+03    0.47354E-03   -0.11163E-03  3682   0.528E-02    0.164E-01
RMM:  11    -0.192173192733E+03    0.22346E-03   -0.58506E-04  3682   0.378E-02    0.106E-01
RMM:  12    -0.192173085827E+03    0.10691E-03   -0.36260E-04  3682   0.294E-02    0.549E-02
RMM:  13    -0.192173089153E+03   -0.33267E-05   -0.13430E-04  3686   0.183E-02    0.474E-02
RMM:  14    -0.192173069575E+03    0.19578E-04   -0.39047E-05  3682   0.102E-02    0.157E-02
RMM:  15    -0.192173068242E+03    0.13336E-05   -0.58747E-06  2885   0.401E-03    0.107E-02
RMM:  16    -0.192173067126E+03    0.11161E-05   -0.24904E-06  2087   0.274E-03    0.514E-03
RMM:  17    -0.192173067486E+03   -0.36055E-06   -0.12499E-06  2002   0.208E-03
   6 F= -.19217307E+03 E0= -.19206293E+03  d E =-.437296E+00
       N       E                     dE             d eps       ncg     rms          rms(c)
DAV:   1    -0.192171988167E+03    0.10790E-02   -0.20875E+00  3744   0.223E+00    0.137E-01
RMM:   2    -0.192174244410E+03   -0.22562E-02   -0.22512E-02  3684   0.325E-01    0.132E-01
RMM:   3    -0.192174687877E+03   -0.44347E-03   -0.15293E-03  3721   0.674E-02    0.240E-01
RMM:   4    -0.192174042109E+03    0.64577E-03   -0.25121E-04  3679   0.276E-02    0.762E-02
RMM:   5    -0.192174054288E+03   -0.12179E-04   -0.11578E-04  3684   0.176E-02    0.745E-02
RMM:   6    -0.192174057135E+03   -0.28464E-05   -0.25851E-04  3684   0.255E-02    0.590E-02
RMM:   7    -0.192174039700E+03    0.17435E-04   -0.98537E-05  3683   0.157E-02    0.303E-02
RMM:   8    -0.192174031874E+03    0.78265E-05   -0.17230E-05  3673   0.674E-03    0.203E-02
RMM:   9    -0.192174027959E+03    0.39143E-05   -0.62802E-06  3109   0.406E-03    0.111E-02
RMM:  10    -0.192174026702E+03    0.12576E-05   -0.26219E-06  2101   0.275E-03    0.630E-03
RMM:  11    -0.192174026478E+03    0.22376E-06   -0.14138E-06  1951   0.217E-03
   7 F= -.19217403E+03 E0= -.19206370E+03  d E =-.438255E+00
       N       E                     dE             d eps       ncg     rms          rms(c)
DAV:   1    -0.192169708918E+03    0.43178E-02   -0.56509E+01  3672   0.116E+01    0.917E-01
RMM:   2    -0.192238115610E+03   -0.68407E-01   -0.66186E-01  3683   0.170E+00    0.945E-01
RMM:   3    -0.192255831124E+03   -0.17716E-01   -0.52396E-02  3699   0.371E-01    0.146E+00
RMM:   4    -0.192230751226E+03    0.25080E-01   -0.11570E-02  3687   0.176E-01    0.476E-01
RMM:   5    -0.192229989994E+03    0.76123E-03   -0.48162E-03  3681   0.112E-01    0.394E-01
RMM:   6    -0.192230129681E+03   -0.13969E-03   -0.71830E-03  3684   0.132E-01    0.377E-01
RMM:   7    -0.192228928890E+03    0.12008E-02   -0.29965E-03  3681   0.860E-02    0.168E-01
RMM:   8    -0.192228689549E+03    0.23934E-03   -0.54095E-04  3681   0.376E-02    0.112E-01
RMM:   9    -0.192228523829E+03    0.16572E-03   -0.20320E-04  3682   0.225E-02    0.438E-02
RMM:  10    -0.192228504034E+03    0.19795E-04   -0.61157E-05  3682   0.120E-02    0.295E-02
RMM:  11    -0.192228492680E+03    0.11355E-04   -0.33611E-05  3680   0.877E-03    0.141E-02
RMM:  12    -0.192228492684E+03   -0.41910E-08   -0.12091E-05  3672   0.528E-03    0.121E-02
RMM:  13    -0.192228491869E+03    0.81468E-06   -0.47519E-06  2835   0.351E-03
   8 F= -.19222849E+03 E0= -.19211878E+03  d E =-.544654E-01
       N       E                     dE             d eps       ncg     rms          rms(c)
DAV:   1    -0.192228277294E+03    0.21539E-03   -0.77822E-01  3744   0.136E+00    0.104E-01
RMM:   2    -0.192229225242E+03   -0.94795E-03   -0.91102E-03  3683   0.200E-01    0.118E-01
RMM:   3    -0.192229390626E+03   -0.16538E-03   -0.71398E-04  3699   0.435E-02    0.164E-01
RMM:   4    -0.192229088087E+03    0.30254E-03   -0.14529E-04  3686   0.199E-02    0.545E-02
RMM:   5    -0.192229089785E+03   -0.16983E-05   -0.62553E-05  3679   0.129E-02    0.439E-02
RMM:   6    -0.192229099920E+03   -0.10135E-04   -0.10725E-04  3683   0.162E-02    0.428E-02
RMM:   7    -0.192229082498E+03    0.17422E-04   -0.37083E-05  3678   0.958E-03    0.162E-02
RMM:   8    -0.192229081014E+03    0.14841E-05   -0.64018E-06  3185   0.411E-03    0.137E-02
RMM:   9    -0.192229078708E+03    0.23067E-05   -0.24308E-06  2245   0.263E-03    0.517E-03
RMM:  10    -0.192229078541E+03    0.16634E-06   -0.10221E-06  1948   0.178E-03
   9 F= -.19222908E+03 E0= -.19211940E+03  d E =-.550521E-01
       N       E                     dE             d eps       ncg     rms          rms(c)
DAV:   1    -0.192229885977E+03   -0.80727E-03   -0.79431E+00  3672   0.436E+00    0.271E-01
RMM:   2    -0.192239518399E+03   -0.96324E-02   -0.92509E-02  3684   0.642E-01    0.347E-01
RMM:   3    -0.192240056311E+03   -0.53791E-03   -0.63964E-03  3712   0.133E-01    0.387E-01
RMM:   4    -0.192238448874E+03    0.16074E-02   -0.11018E-03  3682   0.555E-02    0.173E-01
RMM:   5    -0.192238323962E+03    0.12491E-03   -0.46375E-04  3684   0.352E-02    0.138E-01
RMM:   6    -0.192238342425E+03   -0.18464E-04   -0.11402E-03  3681   0.521E-02    0.133E-01
RMM:   7    -0.192238207509E+03    0.13492E-03   -0.50524E-04  3682   0.351E-02    0.511E-02
RMM:   8    -0.192238192188E+03    0.15321E-04   -0.62782E-05  3685   0.128E-02    0.414E-02
RMM:   9    -0.192238169987E+03    0.22201E-04   -0.25134E-05  3675   0.792E-03    0.239E-02
RMM:  10    -0.192238162890E+03    0.70973E-05   -0.13913E-05  3673   0.575E-03    0.157E-02
RMM:  11    -0.192238159220E+03    0.36694E-05   -0.11199E-05  3677   0.496E-03    0.700E-03
RMM:  12    -0.192238158937E+03    0.28290E-06   -0.46341E-06  2829   0.327E-03
  10 F= -.19223816E+03 E0= -.19212867E+03  d E =-.908040E-02
       N       E                     dE             d eps       ncg     rms          rms(c)
DAV:   1    -0.192237615463E+03    0.54376E-03   -0.12807E+00  3684   0.175E+00    0.108E-01
RMM:   2    -0.192239161921E+03   -0.15465E-02   -0.14904E-02  3683   0.258E-01    0.142E-01
RMM:   3    -0.192239217168E+03   -0.55247E-04   -0.10297E-03  3713   0.533E-02    0.153E-01
RMM:   4    -0.192238975474E+03    0.24169E-03   -0.17272E-04  3684   0.220E-02    0.692E-02
RMM:   5    -0.192238961690E+03    0.13784E-04   -0.73414E-05  3683   0.140E-02    0.556E-02
RMM:   6    -0.192238974917E+03   -0.13227E-04   -0.18831E-04  3681   0.212E-02    0.546E-02
RMM:   7    -0.192238952139E+03    0.22778E-04   -0.84224E-05  3682   0.143E-02    0.200E-02
RMM:   8    -0.192238949766E+03    0.23725E-05   -0.98521E-06  3483   0.508E-03    0.161E-02
RMM:   9    -0.192238946286E+03    0.34804E-05   -0.38991E-06  2651   0.321E-03    0.967E-03
RMM:  10    -0.192238945250E+03    0.10356E-05   -0.23370E-06  2011   0.261E-03    0.673E-03
RMM:  11    -0.192238944719E+03    0.53173E-06   -0.21399E-06  1950   0.252E-03
  11 F= -.19223894E+03 E0= -.19212953E+03  d E =-.986618E-02
       N       E                     dE             d eps       ncg     rms          rms(c)
DAV:   1    -0.192238523683E+03    0.42157E-03   -0.33370E+00  3672   0.282E+00    0.167E-01
RMM:   2    -0.192242301375E+03   -0.37777E-02   -0.38507E-02  3683   0.416E-01    0.172E-01
RMM:   3    -0.192242767725E+03   -0.46635E-03   -0.25688E-03  3715   0.857E-02    0.250E-01
RMM:   4    -0.192242101734E+03    0.66599E-03   -0.43502E-04  3680   0.345E-02    0.118E-01
RMM:   5    -0.192242039567E+03    0.62167E-04   -0.17697E-04  3684   0.218E-02    0.926E-02
RMM:   6    -0.192242064222E+03   -0.24655E-04   -0.43769E-04  3681   0.324E-02    0.981E-02
RMM:   7    -0.192241999675E+03    0.64548E-04   -0.29388E-04  3683   0.267E-02    0.410E-02
RMM:   8    -0.192241995301E+03    0.43735E-05   -0.40539E-05  3686   0.102E-02    0.312E-02
RMM:   9    -0.192241983640E+03    0.11661E-04   -0.11779E-05  3670   0.554E-03    0.182E-02
RMM:  10    -0.192241979297E+03    0.43435E-05   -0.75257E-06  3646   0.422E-03    0.117E-02
RMM:  11    -0.192241977310E+03    0.19872E-05   -0.58620E-06  3390   0.362E-03    0.610E-03
RMM:  12    -0.192241976827E+03    0.48251E-06   -0.34677E-06  2308   0.297E-03
  12 F= -.19224198E+03 E0= -.19213268E+03  d E =-.303211E-02
       N       E                     dE             d eps       ncg     rms          rms(c)
DAV:   1    -0.192241873219E+03    0.10409E-03   -0.30256E-01  3720   0.850E-01    0.499E-02
RMM:   2    -0.192242214221E+03   -0.34100E-03   -0.34845E-03  3683   0.125E-01    0.535E-02
RMM:   3    -0.192242249858E+03   -0.35638E-04   -0.23264E-04  3716   0.258E-02    0.748E-02
RMM:   4    -0.192242191328E+03    0.58530E-04   -0.38118E-05  3679   0.103E-02    0.349E-02
RMM:   5    -0.192242187923E+03    0.34044E-05   -0.15969E-05  3677   0.655E-03    0.282E-02
RMM:   6    -0.192242193222E+03   -0.52982E-05   -0.42177E-05  3683   0.100E-02    0.302E-02
RMM:   7    -0.192242187238E+03    0.59832E-05   -0.27241E-05  3678   0.813E-03    0.121E-02
RMM:   8    -0.192242186764E+03    0.47424E-06   -0.33339E-06  2599   0.303E-03
  13 F= -.19224219E+03 E0= -.19213291E+03  d E =-.324205E-02
       N       E                     dE             d eps       ncg     rms          rms(c)
DAV:   1    -0.192242053932E+03    0.13331E-03   -0.99713E-01  3672   0.154E+00    0.901E-02
RMM:   2    -0.192243099415E+03   -0.10455E-02   -0.11063E-02  3684   0.225E-01    0.689E-02
RMM:   3    -0.192243134148E+03   -0.34733E-04   -0.60270E-04  3706   0.434E-02    0.776E-02
RMM:   4    -0.192243099020E+03    0.35128E-04   -0.95661E-05  3697   0.164E-02    0.634E-02
RMM:   5    -0.192243087928E+03    0.11091E-04   -0.57012E-05  3686   0.117E-02    0.646E-02
RMM:   6    -0.192243072104E+03    0.15825E-04   -0.11319E-04  3682   0.166E-02    0.484E-02
RMM:   7    -0.192243057806E+03    0.14298E-04   -0.68209E-05  3683   0.130E-02    0.228E-02
RMM:   8    -0.192243055560E+03    0.22460E-05   -0.11477E-05  3594   0.545E-03    0.158E-02
RMM:   9    -0.192243052503E+03    0.30568E-05   -0.32492E-06  2525   0.303E-03    0.901E-03
RMM:  10    -0.192243051360E+03    0.11428E-05   -0.21286E-06  1969   0.246E-03    0.580E-03
RMM:  11    -0.192243050875E+03    0.48467E-06   -0.17586E-06  1935   0.234E-03
  14 F= -.19224305E+03 E0= -.19213385E+03  d E =-.864111E-03
       N       E                     dE             d eps       ncg     rms          rms(c)
DAV:   1    -0.192243040781E+03    0.10579E-04   -0.37731E-02  3744   0.300E-01    0.172E-02
RMM:   2    -0.192243080893E+03   -0.40111E-04   -0.41758E-04  3685   0.439E-02    0.152E-02
RMM:   3    -0.192243083334E+03   -0.24410E-05   -0.24199E-05  3711   0.862E-03    0.201E-02
RMM:   4    -0.192243079740E+03    0.35937E-05   -0.33213E-06  2488   0.320E-03    0.123E-02
RMM:   5    -0.192243079324E+03    0.41609E-06   -0.21512E-06  2188   0.258E-03
  15 F= -.19224308E+03 E0= -.19213392E+03  d E =-.892560E-03
       N       E                     dE             d eps       ncg     rms          rms(c)
DAV:   1    -0.192242870384E+03    0.20936E-03   -0.82679E-01  3672   0.140E+00    0.649E-02
RMM:   2    -0.192243721051E+03   -0.85067E-03   -0.87238E-03  3683   0.203E-01    0.648E-02
RMM:   3    -0.192243729718E+03   -0.86672E-05   -0.48381E-04  3726   0.392E-02    0.637E-02
RMM:   4    -0.192243696829E+03    0.32889E-04   -0.52580E-05  3678   0.129E-02    0.449E-02
RMM:   5    -0.192243713602E+03   -0.16773E-04   -0.48394E-05  3678   0.108E-02    0.673E-02
RMM:   6    -0.192243685464E+03    0.28138E-04   -0.75432E-05  3679   0.133E-02    0.501E-02
RMM:   7    -0.192243668601E+03    0.16862E-04   -0.83135E-05  3681   0.142E-02    0.183E-02
RMM:   8    -0.192243670022E+03   -0.14207E-05   -0.97628E-06  3661   0.498E-03    0.161E-02
RMM:   9    -0.192243667562E+03    0.24602E-05   -0.18929E-06  2139   0.239E-03    0.115E-02
RMM:  10    -0.192243665567E+03    0.19952E-05   -0.29577E-06  2044   0.288E-03    0.727E-03
RMM:  11    -0.192243664684E+03    0.88277E-06   -0.34755E-06  2187   0.317E-03
  16 F= -.19224366E+03 E0= -.19213449E+03  d E =-.585360E-03
