 vasp.5.4.1 24Jun15 (build Mar 14 2019 10:18:33) complex                        
  
 executed on INTEL-19.0.2+OPENMPI date 2023.01.30  16:27:00
 running on   36 total cores
 distrk:  each k-point on   36 cores,    1 groups
 distr:  one band on NCORES_PER_BAND=   6 cores,    6 groups


--------------------------------------------------------------------------------------------------------


 INCAR:
 POTCAR:    PAW_PBE Au 04Oct2007                  
 POTCAR:    PAW_PBE Pd 04Jan2005                  
 POTCAR:    PAW_PBE Au 04Oct2007                  
  local pseudopotential read in
  partial core-charges read in
  partial kinetic energy density read in
  atomic valenz-charges read in
  non local Contribution for L=           2  read in
    real space projection operators read in
  non local Contribution for L=           2  read in
    real space projection operators read in
  non local Contribution for L=           0  read in
    real space projection operators read in
  non local Contribution for L=           0  read in
    real space projection operators read in
  non local Contribution for L=           1  read in
    real space projection operators read in
  non local Contribution for L=           1  read in
    real space projection operators read in
    PAW grid and wavefunctions read in
 
   number of l-projection  operators is LMAX  =           6
   number of lm-projection operators is LMMAX =          18
 
 POTCAR:    PAW_PBE Pd 04Jan2005                  
  local pseudopotential read in
  partial core-charges read in
  partial kinetic energy density read in
  atomic valenz-charges read in
  non local Contribution for L=           2  read in
    real space projection operators read in
  non local Contribution for L=           2  read in
    real space projection operators read in
  non local Contribution for L=           0  read in
    real space projection operators read in
  non local Contribution for L=           0  read in
    real space projection operators read in
  non local Contribution for L=           1  read in
    real space projection operators read in
  non local Contribution for L=           1  read in
    real space projection operators read in
    PAW grid and wavefunctions read in
 
   number of l-projection  operators is LMAX  =           6
   number of lm-projection operators is LMMAX =          18
 
 Optimization of the real space projectors (new method)

 maximal supplied QI-value         = 15.12
 optimisation between [QCUT,QGAM] = [ 10.13, 20.41] = [ 28.73,116.64] Ry 
 Optimized for a Real-space Cutoff    1.51 Angstroem

   l    n(q)    QCUT    max X(q) W(low)/X(q) W(high)/X(q)  e(spline) 
   2      8    10.129    60.898    0.46E-03    0.46E-03    0.14E-06
   2      8    10.129    58.894    0.47E-03    0.47E-03    0.14E-06
   0      9    10.129   109.617    0.16E-03    0.11E-03    0.54E-07
   0      9    10.129    75.026    0.15E-03    0.11E-03    0.52E-07
   1      9    10.129    16.344    0.96E-04    0.15E-03    0.14E-06
   1      9    10.129    10.160    0.81E-04    0.12E-03    0.11E-06
 Optimization of the real space projectors (new method)

 maximal supplied QI-value         = 14.36
 optimisation between [QCUT,QGAM] = [ 10.20, 20.39] = [ 29.12,116.47] Ry 
 Optimized for a Real-space Cutoff    1.51 Angstroem

   l    n(q)    QCUT    max X(q) W(low)/X(q) W(high)/X(q)  e(spline) 
   2      8    10.197    59.108    0.26E-03    0.14E-03    0.96E-07
   2      8    10.197    58.101    0.27E-03    0.14E-03    0.98E-07
   0      9    10.197   102.235    0.54E-04    0.60E-05    0.72E-07
   0      9    10.197    58.388    0.52E-04    0.60E-05    0.68E-07
   1      9    10.197    22.191    0.18E-03    0.25E-03    0.79E-07
   1      9    10.197    15.590    0.15E-03    0.21E-03    0.69E-07
  PAW_PBE Au 04Oct2007                  :
 energy of atom  1       EATOM= -926.0867
 kinetic energy error for atom=    0.0062 (will be added to EATOM!!)
  PAW_PBE Pd 04Jan2005                  :
 energy of atom  2       EATOM= -809.7530
 kinetic energy error for atom=    0.0091 (will be added to EATOM!!)
 
 
 POSCAR: Au Pd                                   
  positions in cartesian coordinates
  No initial velocities read in
 exchange correlation table for  LEXCH =        8
   RHO(1)=    0.500       N(1)  =     2000
   RHO(2)=  100.500       N(2)  =     4000

 VTST: version 3.2, (02/03/18)

 CHAIN: initializing optimizer
 
 OPT: Using VASP Conjugate-Gradient optimizer
 CHAIN: Read ICHAIN            0
 
 POSCAR: Au Pd                                   
  positions in cartesian coordinates
  No initial velocities read in
 


--------------------------------------------------------------------------------------------------------


 ion  position               nearest neighbor table
   1  0.083  0.083  0.408-   6 2.75   5 2.75  24 2.75  34 2.75  42 2.75  21 2.75  32 2.75  14 2.75
                            40 2.75
   2  0.917  0.417  0.500-  42 2.75   7 2.75  36 2.75  26 2.75   6 2.75  40 2.75  23 2.75   9 2.75
                            38 2.75  41 2.75  13 2.75   5 2.75
   3  0.000  0.000  0.592-  40 2.75  14 2.75   7 2.75  22 2.75  31 2.75   8 2.75  43 2.75  45 2.75
                            30 2.75
   4  0.083  0.583  0.408-  11 2.75   5 2.75  34 2.75  35 2.75  39 2.75  29 2.75  41 2.75   9 2.75
                            26 2.75
   5  0.083  0.333  0.408-   9 2.75   4 2.75   1 2.75  32 2.75  41 2.75  35 2.75  42 2.75   6 2.75
                             2 2.75
   6  0.167  0.167  0.500-   1 2.75  45 2.75   7 2.75   9 2.75  14 2.75  37 2.75   2 2.75  40 2.75
                            27 2.75   5 2.75  32 2.75  10 2.75
   7  0.000  0.250  0.592-   2 2.75   6 2.75   3 2.75  13 2.75  36 2.75  45 2.75  10 2.75  22 2.75
                            40 2.75
   8  0.250  0.750  0.592-  14 2.75  19 2.75   3 2.75  12 2.75  45 2.75  47 2.75  20 2.75  31 2.75
                            11 2.75
   9  0.167  0.417  0.500-   5 2.75  10 2.75  13 2.75  11 2.75   6 2.75  26 2.75  27 2.75   2 2.75
                            25 2.75   4 2.75  12 2.75  35 2.75
  10  0.250  0.250  0.592-   9 2.75  27 2.75  13 2.75  16 2.75  12 2.75  45 2.75   7 2.75  18 2.75
                             6 2.75
  11  0.167  0.667  0.500-   4 2.75  12 2.75  31 2.75  14 2.75  25 2.75  30 2.75   9 2.75  19 2.75
                            26 2.75  34 2.75  29 2.75   8 2.75
  12  0.250  0.500  0.592-  11 2.75  25 2.75   8 2.75  18 2.75  10 2.75  31 2.75  13 2.75  47 2.75
                             9 2.75
  13  0.000  0.500  0.592-  26 2.75   9 2.75  10 2.75   7 2.75  31 2.75  48 2.75  36 2.75  12 2.75
                             2 2.75
  14  0.167  0.917  0.500-  34 2.75   8 2.75   3 2.75  11 2.75  19 2.75   6 2.75  40 2.75  37 2.75
                            30 2.75   1 2.75  24 2.75  45 2.75
  15  0.667  0.917  0.500-  46 2.75  48 2.75  16 2.75  27 2.75  44 2.75  23 2.75  26 2.75  37 2.75
                            30 2.75  28 2.75  43 2.75  39 2.75
  16  0.500  0.000  0.592-  27 2.75  15 2.75  18 2.75  20 2.75  10 2.75  48 2.75  45 2.75  43 2.75
                            37 2.75
  17  0.583  0.333  0.408-  38 2.75  28 2.75  29 2.75  33 2.75  21 2.75  35 2.75  42 2.75  44 2.75
                            25 2.75
  18  0.500  0.250  0.592-  25 2.75  44 2.75  12 2.75  43 2.75  16 2.75  47 2.75  10 2.75  22 2.75
                            27 2.75
  19  0.417  0.667  0.500-  29 2.75  47 2.75   8 2.75  14 2.75  37 2.75  38 2.75  25 2.75  23 2.75
                            11 2.75  24 2.75  33 2.75  20 2.75
  20  0.500  0.750  0.592-  37 2.75  23 2.75  36 2.75  16 2.75  45 2.75  47 2.75   8 2.75  48 2.75
                            19 2.75
  21  0.833  0.083  0.408-  40 2.75  34 2.75  39 2.75  17 2.75  42 2.75   1 2.75  28 2.75  30 2.75
                            44 2.75
  22  0.750  0.250  0.592-  38 2.75  40 2.75   3 2.75  36 2.75  43 2.75  47 2.75  18 2.75   7 2.75
                            44 2.75
  23  0.667  0.667  0.500-  33 2.75  36 2.75  20 2.75  15 2.75   2 2.75  37 2.75  38 2.75  19 2.75
                            26 2.75  46 2.75  41 2.75  48 2.75
  24  0.333  0.833  0.408-  37 2.75  29 2.75  32 2.75  33 2.75   1 2.75  34 2.75  46 2.75  19 2.75
                            14 2.75
  25  0.417  0.417  0.500-  35 2.75  18 2.75  12 2.75  19 2.75  27 2.75  11 2.75  44 2.75  38 2.75
                             9 2.75  29 2.75  17 2.75  47 2.75
  26  0.917  0.667  0.500-  41 2.75  13 2.75  48 2.75  15 2.75  30 2.75   9 2.75   2 2.75  23 2.75
                            11 2.75  39 2.75  31 2.75   4 2.75
  27  0.417  0.167  0.500-  32 2.75  16 2.75  10 2.75   9 2.75  25 2.75  15 2.75  37 2.75   6 2.75
                            44 2.75  35 2.75  18 2.75  28 2.75
  28  0.583  0.083  0.408-  44 2.75  35 2.75  39 2.75  17 2.75  46 2.75  21 2.75  32 2.75  15 2.75
                            27 2.75
  29  0.333  0.583  0.408-  19 2.75  17 2.75  24 2.75  34 2.75  35 2.75   4 2.75  33 2.75  25 2.75
                            11 2.75
  30  0.917  0.917  0.500-  39 2.75  31 2.75  43 2.75  26 2.75  40 2.75  11 2.75  44 2.75  14 2.75
                            15 2.75  21 2.75   3 2.75  34 2.75
  31  0.000  0.750  0.592-  30 2.75  11 2.75  12 2.75  13 2.75   3 2.75  43 2.75   8 2.75  48 2.75
                            26 2.75
  32  0.333  0.083  0.408-  27 2.75  24 2.75   5 2.75  35 2.75  46 2.75   1 2.75  28 2.75  37 2.75
                             6 2.75
  33  0.583  0.583  0.408-  23 2.75  17 2.75  24 2.75  42 2.75  46 2.75  29 2.75  41 2.75  38 2.75
                            19 2.75
  34  0.083  0.833  0.408-  14 2.75   4 2.75   1 2.75  21 2.75  29 2.75  24 2.75  39 2.75  11 2.75
                            30 2.75
  35  0.333  0.333  0.408-  25 2.75   4 2.75  28 2.75  29 2.75  32 2.75   5 2.75  17 2.75  27 2.75
                             9 2.75
  36  0.750  0.500  0.592-  23 2.75   2 2.75  20 2.75  22 2.75   7 2.75  48 2.75  47 2.75  13 2.75
                            38 2.75
  37  0.417  0.917  0.500-  24 2.75  20 2.75  45 2.75  23 2.75  19 2.75  27 2.75   6 2.75  14 2.75
                            15 2.75  32 2.75  16 2.75  46 2.75
  38  0.667  0.417  0.500-  17 2.75  22 2.75  47 2.75  23 2.75  40 2.75  44 2.75  19 2.75  25 2.75
                             2 2.75  33 2.75  36 2.75  42 2.75
  39  0.833  0.833  0.408-  30 2.75  21 2.75  28 2.75   4 2.75  41 2.75  34 2.75  46 2.75  26 2.75
                            15 2.75
  40  0.917  0.167  0.500-  21 2.75   3 2.75  22 2.75   2 2.75  14 2.75  30 2.75  38 2.75   6 2.75
                            44 2.75  42 2.75   7 2.75   1 2.75
  41  0.833  0.583  0.408-  26 2.75   5 2.75  39 2.75  42 2.75  46 2.75  33 2.75   4 2.75   2 2.75
                            23 2.75
  42  0.833  0.333  0.408-   2 2.75   1 2.75  21 2.75  33 2.75  41 2.75  17 2.75   5 2.75  40 2.75
                            38 2.75
  43  0.750  0.000  0.592-  44 2.75  30 2.75  18 2.75  31 2.75  22 2.75  48 2.75   3 2.75  16 2.75
                            15 2.75
  44  0.667  0.167  0.500-  28 2.75  43 2.75  18 2.75  15 2.75  30 2.75  38 2.75  25 2.75  40 2.75
                            27 2.75  17 2.75  22 2.75  21 2.75
  45  0.250  0.000  0.592-   6 2.75  37 2.75   8 2.75  10 2.75  20 2.75   7 2.75   3 2.75  16 2.75
                            14 2.75
  46  0.583  0.833  0.408-  15 2.75  28 2.75  32 2.75  33 2.75  41 2.75  39 2.75  24 2.75  23 2.75
                            37 2.75
  47  0.500  0.500  0.592-  19 2.75  38 2.75   8 2.75  20 2.75  22 2.75  18 2.75  36 2.75  12 2.75
                            25 2.75
  48  0.750  0.750  0.592-  15 2.75  26 2.75  16 2.75  13 2.75  36 2.75  43 2.75  20 2.75  31 2.75
                            23 2.75
 
  LATTYP: Found a hexagonal cell.
 ALAT       =    11.0025815153
 C/A-ratio  =     2.2260035120
  
  Lattice vectors:
  
 A1 = (   5.5012907576,  -9.5285150994,   0.0000000000)
 A2 = ( -11.0025815153,   0.0000000000,   0.0000000000)
 A3 = (   0.0000000000,   0.0000000000, -24.4917850943)


Analysis of symmetry for initial positions (statically):
=====================================================================
 Subroutine PRICEL returns:
 Original cell was already a primitive cell.
 

 Routine SETGRP: Setting up the symmetry group for a 
 hexagonal supercell.


 Subroutine GETGRP returns: Found  1 space group operations
 (whereof  1 operations were pure point group operations)
 out of a pool of 24 trial point group operations.


The static configuration has the point symmetry C_1 .


Analysis of symmetry for dynamics (positions and initial velocities):
=====================================================================
 Subroutine PRICEL returns:
 Original cell was already a primitive cell.
 

 Routine SETGRP: Setting up the symmetry group for a 
 hexagonal supercell.


 Subroutine GETGRP returns: Found  1 space group operations
 (whereof  1 operations were pure point group operations)
 out of a pool of 24 trial point group operations.


The dynamic configuration has the point symmetry C_1 .


Analysis of constrained symmetry for selective dynamics:
=====================================================================
 Subroutine PRICEL returns:
 Original cell was already a primitive cell.
 

 Routine SETGRP: Setting up the symmetry group for a 
 hexagonal supercell.


 Subroutine GETGRP returns: Found  1 space group operations
 (whereof  1 operations were pure point group operations)
 out of a pool of 24 trial point group operations.


The constrained configuration has the point symmetry C_1 .
 
 
 KPOINTS: Automatic mesh                          

Automatic generation of k-mesh.
Space group operators:
 irot       det(A)        alpha          n_x          n_y          n_z        tau_x        tau_y        tau_z
    1     1.000000     0.000000     1.000000     0.000000     0.000000     0.000000     0.000000     0.000000
 
 Subroutine IBZKPT returns following result:
 ===========================================
 
 Found      6 irreducible k-points:
 
 Following reciprocal coordinates:
            Coordinates               Weight
  0.250000  0.250000  0.000000     16.000000
  0.000000  0.250000  0.000000     16.000000
 -0.250000  0.000000  0.000000     16.000000
 -0.250000  0.250000  0.000000     16.000000
  0.500000 -0.250000  0.000000     16.000000
 -0.250000  0.500000  0.000000     16.000000
 
 Following cartesian coordinates:
            Coordinates               Weight
  0.022722  0.013119  0.000000     16.000000
  0.000000  0.026237  0.000000     16.000000
 -0.022722  0.013119  0.000000     16.000000
 -0.022722  0.039356  0.000000     16.000000
  0.045444 -0.052474  0.000000     16.000000
 -0.022722  0.065593  0.000000     16.000000
 


--------------------------------------------------------------------------------------------------------




 Dimension of arrays:
   k-points           NKPTS =      6   k-points in BZ     NKDIM =      6   number of bands    NBANDS=    306
   number of dos      NEDOS =    301   number of ions     NIONS =     48
   non local maximal  LDIM  =      6   non local SUM 2l+1 LMDIM =     18
   total plane-waves  NPLWV = 349920
   max r-space proj   IRMAX =   2009   max aug-charges    IRDMAX=   8532
   dimension x,y,z NGX =    54 NGY =   54 NGZ =  120
   dimension x,y,z NGXF=   108 NGYF=  108 NGZF=  240
   support grid    NGXF=   108 NGYF=  108 NGZF=  240
   ions per type =              24  24
 NGX,Y,Z   is equivalent  to a cutoff of   8.16,  8.16,  8.15 a.u.
 NGXF,Y,Z  is equivalent  to a cutoff of  16.32, 16.32, 16.29 a.u.


 I would recommend the setting:
   dimension x,y,z NGX =    54 NGY =   54 NGZ =  120
 SYSTEM =  unknown system                          
 POSCAR =  Au Pd                                   

 Startparameter for this run:
   NWRITE =      1    write-flag & timer
   PREC   = normal    normal or accurate (medium, high low for compatibility)
   ISTART =      0    job   : 0-new  1-cont  2-samecut
   ICHARG =      2    charge: 1-file 2-atom 10-const
   ISPIN  =      1    spin polarized calculation?
   LNONCOLLINEAR =      F non collinear calculations
   LSORBIT =      F    spin-orbit coupling
   INIWAV =      1    electr: 0-lowe 1-rand  2-diag
   LASPH  =      F    aspherical Exc in radial PAW
   METAGGA=      F    non-selfconsistent MetaGGA calc.

 Electronic Relaxation 1
   ENCUT  =  400.0 eV  29.40 Ry    5.42 a.u.  17.94 17.94 39.94*2*pi/ulx,y,z
   ENINI  =  400.0     initial cutoff
   ENAUG  =  416.2 eV  augmentation charge cutoff
   NELM   =    500;   NELMIN=  2; NELMDL= -5     # of ELM steps 
   EDIFF  = 0.1E-05   stopping-criterion for ELM
   LREAL  =      T    real-space projection
   NLSPLINE    = F    spline interpolate recip. space projectors
   LCOMPAT=      F    compatible to vasp.4.4
   GGA_COMPAT  = T    GGA compatible to vasp.4.4-vasp.4.6
   LMAXPAW     = -100 max onsite density
   LMAXMIX     =    2 max onsite mixed and CHGCAR
   VOSKOWN=      1    Vosko Wilk Nusair interpolation
   ROPT   =   -0.00050  -0.00050
 Ionic relaxation
   EDIFFG = -.2E-01   stopping-criterion for IOM
   NSW    =    500    number of steps for IOM
   NBLOCK =      1;   KBLOCK =    500    inner block; outer block 
   IBRION =      2    ionic relax: 0-MD 1-quasi-New 2-CG
   NFREE  =      2    steps in history (QN), initial steepest desc. (CG)
   ISIF   =      0    stress and relaxation
   IWAVPR =     11    prediction:  0-non 1-charg 2-wave 3-comb
   ISYM   =      2    0-nonsym 1-usesym 2-fastsym
   LCORR  =      T    Harris-Foulkes like correction to forces

   POTIM  = 0.3500    time-step for ionic-motion
   TEIN   =    0.0    initial temperature
   TEBEG  =    0.0;   TEEND  =   0.0 temperature during run
   SMASS  =  -3.00    Nose mass-parameter (am)
   estimated Nose-frequenzy (Omega)   =  0.10E-29 period in steps =****** mass=  -0.277E-26a.u.
   SCALEE = 1.0000    scale energy and forces
   NPACO  =    256;   APACO  = 16.0  distance and # of slots for P.C.
   PSTRESS=    0.0 pullay stress

  Mass of Ions in am
   POMASS = 196.97106.42
  Ionic Valenz
   ZVAL   =  11.00 10.00
  Atomic Wigner-Seitz radii
   RWIGS  =  -1.00 -1.00
  virtual crystal weights 
   VCA    =   1.00  1.00
   NELECT =     504.0000    total number of electrons
   NUPDOWN=      -1.0000    fix difference up-down

 DOS related values:
   EMIN   =  10.00;   EMAX   =-10.00  energy-range for DOS
   EFERMI =   0.00
   ISMEAR =     0;   SIGMA  =   0.10  broadening in eV -4-tet -1-fermi 0-gaus

 Electronic relaxation 2 (details)
   IALGO  =     68    algorithm
   LDIAG  =      T    sub-space diagonalisation (order eigenvalues)
   LSUBROT=      F    optimize rotation matrix (better conditioning)
   TURBO    =      0    0=normal 1=particle mesh
   IRESTART =      0    0=no restart 2=restart with 2 vectors
   NREBOOT  =      0    no. of reboots
   NMIN     =      0    reboot dimension
   EREF     =   0.00    reference energy to select bands
   IMIX   =      4    mixing-type and parameters
     AMIX     =   0.40;   BMIX     =  1.00
     AMIX_MAG =   1.60;   BMIX_MAG =  1.00
     AMIN     =   0.10
     WC   =   100.;   INIMIX=   1;  MIXPRE=   1;  MAXMIX= -45

 Intra band minimization:
   WEIMIN = 0.0010     energy-eigenvalue tresh-hold
   EBREAK =  0.82E-09  absolut break condition
   DEPER  =   0.30     relativ break condition  

   TIME   =   0.40     timestep for ELM

  volume/ion in A,a.u.               =      53.49       360.99
  Fermi-wavevector in a.u.,A,eV,Ry     =   0.951418  1.797920 12.315955  0.905197
  Thomas-Fermi vector in A             =   2.079887
 
 Write flags
   LWAVE  =      F    write WAVECAR
   LCHARG =      F    write CHGCAR
   LVTOT  =      F    write LOCPOT, total local potential
   LVHAR  =      F    write LOCPOT, Hartree potential only
   LELF   =      F    write electronic localiz. function (ELF)
   LORBIT =      0    0 simple, 1 ext, 2 COOP (PROOUT)


 Dipole corrections
   LMONO  =      F    monopole corrections only (constant potential shift)
   LDIPOL =      T    correct potential (dipole corrections)
   IDIPOL =      3    1-x, 2-y, 3-z, 4-all directions 
   EPSILON=  1.0000000 bulk dielectric constant

 Exchange correlation treatment:
   GGA     =    PE    GGA type
   LEXCH   =     8    internal setting for exchange type
   VOSKOWN=      1    Vosko Wilk Nusair interpolation
   LHFCALC =     F    Hartree Fock is set to
   LHFONE  =     F    Hartree Fock one center treatment
   AEXX    =    0.0000 exact exchange contribution

 Linear response parameters
   LEPSILON=     F    determine dielectric tensor
   LRPA    =     F    only Hartree local field effects (RPA)
   LNABLA  =     F    use nabla operator in PAW spheres
   LVEL    =     F    velocity operator in full k-point grid
   LINTERFAST=   F  fast interpolation
   KINTER  =     0    interpolate to denser k-point grid
   CSHIFT  =0.1000    complex shift for real part using Kramers Kronig
   OMEGAMAX=  -1.0    maximum frequency
   DEG_THRESHOLD= 0.2000000E-02 threshold for treating states as degnerate
   RTIME   =    0.100 relaxation time in fs

 Orbital magnetization related:
   ORBITALMAG=     F  switch on orbital magnetization
   LCHIMAG   =     F  perturbation theory with respect to B field
   DQ        =  0.001000  dq finite difference perturbation B field



--------------------------------------------------------------------------------------------------------


 conjugate gradient relaxation of ions
   using selective dynamics as specified on POSCAR
   WARNING: If single coordinates had been selected the selection of coordinates
            is made according to the corresponding   d i r e c t   coordinates!
            Don't support selection of single cartesian coordinates -- sorry ...
  !
 charge density and potential will be updated during run
 non-spin polarized calculation
 RMM-DIIS sequential band-by-band and
  variant of blocked Davidson during initial phase
 perform sub-space diagonalisation
    before iterative eigenvector-optimisation
 modified Broyden-mixing scheme, WC =      100.0
 initial mixing is a Kerker type mixing with AMIX =  0.4000 and BMIX =      1.0000
 Hartree-type preconditioning will be used
 using additional bands           54
 real space projection scheme for non local part
 use partial core corrections
 calculate Harris-corrections to forces 
   (improved forces if not selfconsistent)
 use gradient corrections 
 use of overlap-Matrix (Vanderbilt PP)
 Gauss-broadening in eV      SIGMA  =   0.10


--------------------------------------------------------------------------------------------------------


  energy-cutoff  :      400.00
  volume of cell :     2567.68
      direct lattice vectors                 reciprocal lattice vectors
    11.002581515  0.000000000  0.000000000     0.090887761 -0.052474073  0.000000000
     5.501290758  9.528515099  0.000000000     0.000000000  0.104948147  0.000000000
     0.000000000  0.000000000 24.491785094     0.000000000  0.000000000  0.040830017

  length of vectors
    11.002581515 11.002581515 24.491785094     0.104948147  0.104948147  0.040830017


 
 k-points in units of 2pi/SCALE and weight: Automatic mesh                          
   0.02272194  0.01311852  0.00000000       0.167
   0.00000000  0.02623704  0.00000000       0.167
  -0.02272194  0.01311852  0.00000000       0.167
  -0.02272194  0.03935555  0.00000000       0.167
   0.04544388 -0.05247407  0.00000000       0.167
  -0.02272194  0.06559259  0.00000000       0.167
 
 k-points in reciprocal lattice and weights: Automatic mesh                          
   0.25000000  0.25000000  0.00000000       0.167
   0.00000000  0.25000000  0.00000000       0.167
  -0.25000000  0.00000000  0.00000000       0.167
  -0.25000000  0.25000000  0.00000000       0.167
   0.50000000 -0.25000000  0.00000000       0.167
  -0.25000000  0.50000000  0.00000000       0.167
 
 position of ions in fractional coordinates (direct lattice) 
   0.08333333  0.08333333  0.40830017
   0.91666667  0.41666667  0.50000000
   0.00000000  0.00000000  0.59169983
   0.08333333  0.58333333  0.40830017
   0.08333333  0.33333333  0.40830017
   0.16666667  0.16666667  0.50000000
   0.00000000  0.25000000  0.59169983
   0.25000000  0.75000000  0.59169983
   0.16666667  0.41666667  0.50000000
   0.25000000  0.25000000  0.59169983
   0.16666667  0.66666667  0.50000000
   0.25000000  0.50000000  0.59169983
   0.00000000  0.50000000  0.59169983
   0.16666667  0.91666667  0.50000000
   0.66666667  0.91666667  0.50000000
   0.50000000  0.00000000  0.59169983
   0.58333333  0.33333333  0.40830017
   0.50000000  0.25000000  0.59169983
   0.41666667  0.66666667  0.50000000
   0.50000000  0.75000000  0.59169983
   0.83333333  0.08333333  0.40830017
   0.75000000  0.25000000  0.59169983
   0.66666667  0.66666667  0.50000000
   0.33333333  0.83333333  0.40830017
   0.41666667  0.41666667  0.50000000
   0.91666667  0.66666667  0.50000000
   0.41666667  0.16666667  0.50000000
   0.58333333  0.08333333  0.40830017
   0.33333333  0.58333333  0.40830017
   0.91666667  0.91666667  0.50000000
   0.00000000  0.75000000  0.59169983
   0.33333333  0.08333333  0.40830017
   0.58333333  0.58333333  0.40830017
   0.08333333  0.83333333  0.40830017
   0.33333333  0.33333333  0.40830017
   0.75000000  0.50000000  0.59169983
   0.41666667  0.91666667  0.50000000
   0.66666667  0.41666667  0.50000000
   0.83333333  0.83333333  0.40830017
   0.91666667  0.16666667  0.50000000
   0.83333333  0.58333333  0.40830017
   0.83333333  0.33333333  0.40830017
   0.75000000  0.00000000  0.59169983
   0.66666667  0.16666667  0.50000000
   0.25000000  0.00000000  0.59169983
   0.58333333  0.83333333  0.40830017
   0.50000000  0.50000000  0.59169983
   0.75000000  0.75000000  0.59169983
 
 position of ions in cartesian coordinates  (Angst):
   1.37532269  0.79404292 10.00000000
  12.37790420  3.97021462 12.24589255
   0.00000000  0.00000000 14.49178509
   4.12596807  5.55830047 10.00000000
   2.75064538  3.17617170 10.00000000
   2.75064538  1.58808585 12.24589255
   1.37532269  2.38212877 14.49178509
   6.87661345  7.14638632 14.49178509
   4.12596807  3.97021462 12.24589255
   4.12596807  2.38212877 14.49178509
   5.50129076  6.35234340 12.24589255
   5.50129076  4.76425755 14.49178509
   2.75064538  4.76425755 14.49178509
   6.87661345  8.73447217 12.24589255
  12.37790420  8.73447217 12.24589255
   5.50129076  0.00000000 14.49178509
   8.25193614  3.17617170 10.00000000
   6.87661345  2.38212877 14.49178509
   8.25193614  6.35234340 12.24589255
   9.62725883  7.14638632 14.49178509
   9.62725883  0.79404292 10.00000000
   9.62725883  2.38212877 14.49178509
  11.00258152  6.35234340 12.24589255
   8.25193614  7.94042925 10.00000000
   6.87661345  3.97021462 12.24589255
  13.75322689  6.35234340 12.24589255
   5.50129076  1.58808585 12.24589255
   6.87661345  0.79404292 10.00000000
   6.87661345  5.55830047 10.00000000
  15.12854958  8.73447217 12.24589255
   4.12596807  7.14638632 14.49178509
   4.12596807  0.79404292 10.00000000
   9.62725883  5.55830047 10.00000000
   5.50129076  7.94042925 10.00000000
   5.50129076  3.17617170 10.00000000
  11.00258152  4.76425755 14.49178509
   9.62725883  8.73447217 12.24589255
   9.62725883  3.97021462 12.24589255
  13.75322689  7.94042925 10.00000000
  11.00258152  1.58808585 12.24589255
  12.37790420  5.55830047 10.00000000
  11.00258152  3.17617170 10.00000000
   8.25193614  0.00000000 14.49178509
   8.25193614  1.58808585 12.24589255
   2.75064538  0.00000000 14.49178509
  11.00258152  7.94042925 10.00000000
   8.25193614  4.76425755 14.49178509
  12.37790420  7.14638632 14.49178509
 


--------------------------------------------------------------------------------------------------------


 k-point  1 :   0.2500 0.2500 0.0000  plane waves:   46635
 k-point  2 :   0.0000 0.2500 0.0000  plane waves:   46635
 k-point  3 :  -0.2500 0.0000 0.0000  plane waves:   46635
 k-point  4 :  -0.2500 0.2500 0.0000  plane waves:   46644
 k-point  5 :   0.5000-0.2500 0.0000  plane waves:   46644
 k-point  6 :  -0.2500 0.5000 0.0000  plane waves:   46644

 maximum and minimum number of plane-waves per node :      7818     7732

 maximum number of plane-waves:     46644
 maximum index in each direction: 
   IXMAX=   18   IYMAX=   18   IZMAX=   39
   IXMIN=  -18   IYMIN=  -18   IZMIN=  -39

 WARNING: aliasing errors must be expected set NGX to  74 to avoid them
 WARNING: aliasing errors must be expected set NGY to  74 to avoid them
 WARNING: aliasing errors must be expected set NGZ to 158 to avoid them
 aliasing errors are usually negligible using standard VASP settings
 and one can safely disregard these warnings

 real space projection operators:
  total allocation   :      12803.06 KBytes
  max/ min on nodes  :       2145.66       2127.94


 parallel 3D FFT for wavefunctions:
    minimum data exchange during FFTs selected (reduces bandwidth)
 parallel 3D FFT for charge:
    minimum data exchange during FFTs selected (reduces bandwidth)


 total amount of memory used by VASP on root node    84353. kBytes
========================================================================

   base      :      30000. kBytes
   nonlr-proj:       4285. kBytes
   fftplans  :       4447. kBytes
   grid      :       6721. kBytes
   one-center:        124. kBytes
   wavefun   :      38776. kBytes
 
     INWAV:  cpu time    0.0000: real time    0.0000
 Broyden mixing: mesh for mixing (old mesh)
   NGX = 35   NGY = 35   NGZ = 79
  (NGX  =108   NGY  =108   NGZ  =240)
  gives a total of  96775 points

 initial charge density was supplied:
 charge density of overlapping atoms calculated
 number of electron     504.0000000 magnetization 
 keeping initial charge density in first step


--------------------------------------------------------------------------------------------------------


 Maximum index for non-local projection operator          355
 Maximum index for augmentation-charges          437 (set IRDMAX)


--------------------------------------------------------------------------------------------------------


 First call to EWALD:  gamma=   0.129
 Maximum number of real-space cells 4x 4x 2
 Maximum number of reciprocal cells 2x 2x 5

 FEWALD executed in parallel
    FEWALD:  cpu time    0.0024: real time    0.0024


----------------------------------------- Iteration    1(   1)  ---------------------------------------


    POTLOK:  cpu time    0.0547: real time    0.0549
    SETDIJ:  cpu time    0.0067: real time    0.0067
     EDDAV:  cpu time    9.0262: real time    9.0975
       DOS:  cpu time    0.0015: real time    0.0015
    --------------------------------------------
      LOOP:  cpu time    9.0929: real time    9.1672

 eigenvalue-minimisations  :  3672
 total energy-change (2. order) : 0.3200269E+04  (-0.1897776E+05)
 number of electron     504.0000000 magnetization 
 augmentation part      504.0000000 magnetization 

 DIPCOR: dipole corrections for dipol
 direction  3 min pos     1,
 dipolmoment           0.000000      0.000000     -0.000003 electrons x Angstroem
 Tr[quadrupol]    -10250.420606

 energy correction for charged system         0.000000 eV
 dipol+quadrupol energy correction           -0.000000 eV
 added-field ion interaction          0.000002 eV  (added to PSCEN)


 Free energy of the ion-electron system (eV)
  ---------------------------------------------------
  alpha Z        PSCENC =       805.86936616
  Ewald energy   TEWEN  =    200169.20993979
  -Hartree energ DENC   =   -242583.45269241
  -exchange      EXHF   =         0.00000000
  -V(xc)+E(xc)   XCENC  =      -327.62916105
  PAW double counting   =     40340.05962942   -38292.62782345
  entropy T*S    EENTRO =        -0.12630271
  eigenvalues    EBANDS =      1429.18020863
  atomic energy  EATOM  =     41659.78587232
  Solvation  Ediel_sol  =         0.00000000
  ---------------------------------------------------
  free energy    TOTEN  =      3200.26903671 eV

  energy without entropy =     3200.39533942  energy(sigma->0) =     3200.33218807


--------------------------------------------------------------------------------------------------------




----------------------------------------- Iteration    1(   2)  ---------------------------------------


     EDDAV:  cpu time   10.6169: real time   10.6213
       DOS:  cpu time    0.0016: real time    0.0016
    --------------------------------------------
      LOOP:  cpu time   10.6194: real time   10.6256

 eigenvalue-minimisations  :  4380
 total energy-change (2. order) :-0.3185251E+04  (-0.2927936E+04)
 number of electron     504.0000000 magnetization 
 augmentation part      504.0000000 magnetization 

 DIPCOR: dipole corrections for dipol
 direction  3 min pos     1,
 dipolmoment           0.000000      0.000000     -0.000003 electrons x Angstroem
 Tr[quadrupol]    -10250.420606

 energy correction for charged system         0.000000 eV
 dipol+quadrupol energy correction           -0.000000 eV
 added-field ion interaction          0.000002 eV  (added to PSCEN)


 Free energy of the ion-electron system (eV)
  ---------------------------------------------------
  alpha Z        PSCENC =       805.86936616
  Ewald energy   TEWEN  =    200169.20993979
  -Hartree energ DENC   =   -242583.45269241
  -exchange      EXHF   =         0.00000000
  -V(xc)+E(xc)   XCENC  =      -327.62916105
  PAW double counting   =     40340.05962942   -38292.62782345
  entropy T*S    EENTRO =        -0.13606391
  eigenvalues    EBANDS =     -1756.06138574
  atomic energy  EATOM  =     41659.78587232
  Solvation  Ediel_sol  =         0.00000000
  ---------------------------------------------------
  free energy    TOTEN  =        15.01768114 eV

  energy without entropy =       15.15374505  energy(sigma->0) =       15.08571309


--------------------------------------------------------------------------------------------------------




----------------------------------------- Iteration    1(   3)  ---------------------------------------


     EDDAV:  cpu time   10.3671: real time   10.3871
       DOS:  cpu time    0.0016: real time    0.0016
    --------------------------------------------
      LOOP:  cpu time   10.3692: real time   10.3927

 eigenvalue-minimisations  :  4128
 total energy-change (2. order) :-0.2156180E+03  (-0.2001371E+03)
 number of electron     504.0000000 magnetization 
 augmentation part      504.0000000 magnetization 

 DIPCOR: dipole corrections for dipol
 direction  3 min pos     1,
 dipolmoment           0.000000      0.000000     -0.000003 electrons x Angstroem
 Tr[quadrupol]    -10250.420606

 energy correction for charged system         0.000000 eV
 dipol+quadrupol energy correction           -0.000000 eV
 added-field ion interaction          0.000002 eV  (added to PSCEN)


 Free energy of the ion-electron system (eV)
  ---------------------------------------------------
  alpha Z        PSCENC =       805.86936616
  Ewald energy   TEWEN  =    200169.20993979
  -Hartree energ DENC   =   -242583.45269241
  -exchange      EXHF   =         0.00000000
  -V(xc)+E(xc)   XCENC  =      -327.62916105
  PAW double counting   =     40340.05962942   -38292.62782345
  entropy T*S    EENTRO =        -0.19398365
  eigenvalues    EBANDS =     -1971.62146524
  atomic energy  EATOM  =     41659.78587232
  Solvation  Ediel_sol  =         0.00000000
  ---------------------------------------------------
  free energy    TOTEN  =      -200.60031810 eV

  energy without entropy =     -200.40633445  energy(sigma->0) =     -200.50332628


--------------------------------------------------------------------------------------------------------




----------------------------------------- Iteration    1(   4)  ---------------------------------------


     EDDAV:  cpu time   10.6150: real time   10.6276
       DOS:  cpu time    0.0016: real time    0.0016
    --------------------------------------------
      LOOP:  cpu time   10.6173: real time   10.6363

 eigenvalue-minimisations  :  4224
 total energy-change (2. order) :-0.5851369E+01  (-0.5784772E+01)
 number of electron     504.0000000 magnetization 
 augmentation part      504.0000000 magnetization 

 DIPCOR: dipole corrections for dipol
 direction  3 min pos     1,
 dipolmoment           0.000000      0.000000     -0.000003 electrons x Angstroem
 Tr[quadrupol]    -10250.420606

 energy correction for charged system         0.000000 eV
 dipol+quadrupol energy correction           -0.000000 eV
 added-field ion interaction          0.000002 eV  (added to PSCEN)


 Free energy of the ion-electron system (eV)
  ---------------------------------------------------
  alpha Z        PSCENC =       805.86936616
  Ewald energy   TEWEN  =    200169.20993979
  -Hartree energ DENC   =   -242583.45269241
  -exchange      EXHF   =         0.00000000
  -V(xc)+E(xc)   XCENC  =      -327.62916105
  PAW double counting   =     40340.05962942   -38292.62782345
  entropy T*S    EENTRO =        -0.20208161
  eigenvalues    EBANDS =     -1977.46473604
  atomic energy  EATOM  =     41659.78587232
  Solvation  Ediel_sol  =         0.00000000
  ---------------------------------------------------
  free energy    TOTEN  =      -206.45168686 eV

  energy without entropy =     -206.24960525  energy(sigma->0) =     -206.35064606


--------------------------------------------------------------------------------------------------------




----------------------------------------- Iteration    1(   5)  ---------------------------------------


     EDDAV:  cpu time   11.6315: real time   11.7269
       DOS:  cpu time    0.0017: real time    0.0017
    CHARGE:  cpu time    0.3056: real time    0.3057
    MIXING:  cpu time    0.0022: real time    0.0023
    --------------------------------------------
      LOOP:  cpu time   11.9417: real time   12.0399

 eigenvalue-minimisations  :  4428
 total energy-change (2. order) :-0.1864961E+00  (-0.1858188E+00)
 number of electron     503.9998405 magnetization 
 augmentation part      191.2956785 magnetization 

 DIPCOR: dipole corrections for dipol
 direction  3 min pos     1,
 dipolmoment           0.000000      0.000000     -0.000003 electrons x Angstroem
 Tr[quadrupol]    -10250.420606

 energy correction for charged system         0.000000 eV
 dipol+quadrupol energy correction           -0.000000 eV
 added-field ion interaction          0.000002 eV  (added to PSCEN)


 Broyden mixing:
  rms(total) = 0.62382E+01    rms(broyden)= 0.62381E+01
  rms(prec ) = 0.63748E+01
  weight for this iteration     100.00

 Free energy of the ion-electron system (eV)
  ---------------------------------------------------
  alpha Z        PSCENC =       805.86936616
  Ewald energy   TEWEN  =    200169.20993979
  -Hartree energ DENC   =   -242583.45269241
  -exchange      EXHF   =         0.00000000
  -V(xc)+E(xc)   XCENC  =      -327.62916105
  PAW double counting   =     40340.05962942   -38292.62782345
  entropy T*S    EENTRO =        -0.20278705
  eigenvalues    EBANDS =     -1977.65052667
  atomic energy  EATOM  =     41659.78587232
  Solvation  Ediel_sol  =         0.00000000
  ---------------------------------------------------
  free energy    TOTEN  =      -206.63818293 eV

  energy without entropy =     -206.43539588  energy(sigma->0) =     -206.53678941


--------------------------------------------------------------------------------------------------------




----------------------------------------- Iteration    1(   6)  ---------------------------------------


    POTLOK:  cpu time    0.0504: real time    0.0505
    SETDIJ:  cpu time    0.0054: real time    0.0062
    EDDIAG:  cpu time    1.6056: real time    1.6066
  RMM-DIIS:  cpu time    4.2974: real time    4.3006
    ORTHCH:  cpu time    0.4039: real time    0.4040
       DOS:  cpu time    0.0018: real time    0.0018
    CHARGE:  cpu time    0.3047: real time    0.3050
    MIXING:  cpu time    0.0020: real time    0.0020
    --------------------------------------------
      LOOP:  cpu time    6.6720: real time    6.6811

 eigenvalue-minimisations  :  3678
 total energy-change (2. order) :-0.9181819E+00  (-0.9919280E+01)
 number of electron     503.9998435 magnetization 
 augmentation part      190.6810462 magnetization 

 DIPCOR: dipole corrections for dipol
 direction  3 min pos     1,
 dipolmoment           0.000000      0.000000     -1.350083 electrons x Angstroem
 Tr[quadrupol]    -10251.818761

 energy correction for charged system         0.000000 eV
 dipol+quadrupol energy correction           -0.064228 eV
 added-field ion interaction          0.854757 eV  (added to PSCEN)


 Broyden mixing:
  rms(total) = 0.58506E+01    rms(broyden)= 0.58504E+01
  rms(prec ) = 0.63233E+01
  weight for this iteration     100.00

 eigenvalues of (default mixing * dielectric matrix)
  average eigenvalue GAMMA=   0.6251
  0.6251

 Free energy of the ion-electron system (eV)
  ---------------------------------------------------
  alpha Z        PSCENC =       806.65989295
  Ewald energy   TEWEN  =    200169.20993979
  -Hartree energ DENC   =   -242332.50085881
  -exchange      EXHF   =         0.00000000
  -V(xc)+E(xc)   XCENC  =      -340.19328240
  PAW double counting   =     43919.22193779   -41931.08640204
  entropy T*S    EENTRO =        -0.28504848
  eigenvalues    EBANDS =     -2158.36841597
  atomic energy  EATOM  =     41659.78587232
  Solvation  Ediel_sol  =         0.00000000
  ---------------------------------------------------
  free energy    TOTEN  =      -207.55636484 eV

  energy without entropy =     -207.27131636  energy(sigma->0) =     -207.41384060


--------------------------------------------------------------------------------------------------------




----------------------------------------- Iteration    1(   7)  ---------------------------------------


    POTLOK:  cpu time    0.0493: real time    0.0493
    SETDIJ:  cpu time    0.0059: real time    0.0059
    EDDIAG:  cpu time    1.6141: real time    1.6157
  RMM-DIIS:  cpu time    4.2484: real time    4.2515
    ORTHCH:  cpu time    0.4043: real time    0.4047
       DOS:  cpu time    0.0018: real time    0.0018
    CHARGE:  cpu time    0.3024: real time    0.3025
    MIXING:  cpu time    0.0021: real time    0.0021
    --------------------------------------------
      LOOP:  cpu time    6.6292: real time    6.6358

 eigenvalue-minimisations  :  3680
 total energy-change (2. order) :-0.1198536E+02  (-0.6161086E+01)
 number of electron     503.9998380 magnetization 
 augmentation part      193.8815187 magnetization 

 DIPCOR: dipole corrections for dipol
 direction  3 min pos     1,
 dipolmoment           0.000000      0.000000      1.523856 electrons x Angstroem
 Tr[quadrupol]    -10251.026581

 energy correction for charged system         0.000000 eV
 dipol+quadrupol energy correction           -0.081826 eV
 added-field ion interaction         -0.964774 eV  (added to PSCEN)


 Broyden mixing:
  rms(total) = 0.54043E+01    rms(broyden)= 0.54040E+01
  rms(prec ) = 0.64832E+01
  weight for this iteration     100.00

 eigenvalues of (default mixing * dielectric matrix)
  average eigenvalue GAMMA=   0.7309
  1.1814  0.2803

 Free energy of the ion-electron system (eV)
  ---------------------------------------------------
  alpha Z        PSCENC =       804.82276413
  Ewald energy   TEWEN  =    200169.20993979
  -Hartree energ DENC   =   -242214.29733617
  -exchange      EXHF   =         0.00000000
  -V(xc)+E(xc)   XCENC  =      -342.40815135
  PAW double counting   =     45040.97957169   -43075.02466484
  entropy T*S    EENTRO =        -0.20951836
  eigenvalues    EBANDS =     -2262.40020495
  atomic energy  EATOM  =     41659.78587232
  Solvation  Ediel_sol  =         0.00000000
  ---------------------------------------------------
  free energy    TOTEN  =      -219.54172773 eV

  energy without entropy =     -219.33220937  energy(sigma->0) =     -219.43696855


--------------------------------------------------------------------------------------------------------




----------------------------------------- Iteration    1(   8)  ---------------------------------------


    POTLOK:  cpu time    0.0497: real time    0.0498
    SETDIJ:  cpu time    0.0057: real time    0.0060
    EDDIAG:  cpu time    1.6113: real time    1.6132
  RMM-DIIS:  cpu time    4.2154: real time    4.2182
    ORTHCH:  cpu time    0.4046: real time    0.4047
       DOS:  cpu time    0.0017: real time    0.0017
    CHARGE:  cpu time    0.3074: real time    0.3075
    MIXING:  cpu time    0.0020: real time    0.0020
    --------------------------------------------
      LOOP:  cpu time    6.5988: real time    6.6071

 eigenvalue-minimisations  :  3676
 total energy-change (2. order) : 0.4579610E+01  (-0.9160404E+01)
 number of electron     503.9998350 magnetization 
 augmentation part      197.5743696 magnetization 

 DIPCOR: dipole corrections for dipol
 direction  3 min pos     1,
 dipolmoment           0.000000      0.000000     -1.273383 electrons x Angstroem
 Tr[quadrupol]    -10251.589993

 energy correction for charged system         0.000000 eV
 dipol+quadrupol energy correction           -0.057137 eV
 added-field ion interaction          0.806197 eV  (added to PSCEN)


 Broyden mixing:
  rms(total) = 0.39809E+01    rms(broyden)= 0.39804E+01
  rms(prec ) = 0.45149E+01
  weight for this iteration     100.00

 eigenvalues of (default mixing * dielectric matrix)
  average eigenvalue GAMMA=   0.8592
  1.9301  0.4338  0.2137

 Free energy of the ion-electron system (eV)
  ---------------------------------------------------
  alpha Z        PSCENC =       806.61842346
  Ewald energy   TEWEN  =    200169.20993979
  -Hartree energ DENC   =   -242146.60012192
  -exchange      EXHF   =         0.00000000
  -V(xc)+E(xc)   XCENC  =      -344.74018863
  PAW double counting   =     46446.98387363   -44506.61632496
  entropy T*S    EENTRO =        -0.21887960
  eigenvalues    EBANDS =     -2299.38471175
  atomic energy  EATOM  =     41659.78587232
  Solvation  Ediel_sol  =         0.00000000
  ---------------------------------------------------
  free energy    TOTEN  =      -214.96211764 eV

  energy without entropy =     -214.74323804  energy(sigma->0) =     -214.85267784


--------------------------------------------------------------------------------------------------------




----------------------------------------- Iteration    1(   9)  ---------------------------------------


    POTLOK:  cpu time    0.0487: real time    0.0487
    SETDIJ:  cpu time    0.0060: real time    0.0060
    EDDIAG:  cpu time    1.6093: real time    1.6102
  RMM-DIIS:  cpu time    4.1999: real time    4.2030
    ORTHCH:  cpu time    0.4068: real time    0.4068
       DOS:  cpu time    0.0017: real time    0.0017
    CHARGE:  cpu time    0.3055: real time    0.3057
    MIXING:  cpu time    0.0024: real time    0.0024
    --------------------------------------------
      LOOP:  cpu time    6.5811: real time    6.5874

 eigenvalue-minimisations  :  3677
 total energy-change (2. order) : 0.5303104E+01  (-0.4094692E+01)
 number of electron     503.9998335 magnetization 
 augmentation part      198.7292830 magnetization 

 DIPCOR: dipole corrections for dipol
 direction  3 min pos     1,
 dipolmoment           0.000000      0.000000     -0.011790 electrons x Angstroem
 Tr[quadrupol]    -10252.049914

 energy correction for charged system         0.000000 eV
 dipol+quadrupol energy correction           -0.000005 eV
 added-field ion interaction          0.007465 eV  (added to PSCEN)


 Broyden mixing:
  rms(total) = 0.33587E+01    rms(broyden)= 0.33584E+01
  rms(prec ) = 0.36954E+01
  weight for this iteration     100.00

 eigenvalues of (default mixing * dielectric matrix)
  average eigenvalue GAMMA=   0.8035
  2.1914  0.2452  0.3888  0.3888

 Free energy of the ion-electron system (eV)
  ---------------------------------------------------
  alpha Z        PSCENC =       805.87682391
  Ewald energy   TEWEN  =    200169.20993979
  -Hartree energ DENC   =   -242123.52657329
  -exchange      EXHF   =         0.00000000
  -V(xc)+E(xc)   XCENC  =      -346.38676962
  PAW double counting   =     48298.75063747   -46384.68092743
  entropy T*S    EENTRO =        -0.20297260
  eigenvalues    EBANDS =     -2288.48504375
  atomic energy  EATOM  =     41659.78587232
  Solvation  Ediel_sol  =         0.00000000
  ---------------------------------------------------
  free energy    TOTEN  =      -209.65901319 eV

  energy without entropy =     -209.45604059  energy(sigma->0) =     -209.55752689


--------------------------------------------------------------------------------------------------------




----------------------------------------- Iteration    1(  10)  ---------------------------------------


    POTLOK:  cpu time    0.0546: real time    0.0547
    SETDIJ:  cpu time    0.0056: real time    0.0060
    EDDIAG:  cpu time    1.6193: real time    1.6208
  RMM-DIIS:  cpu time    4.1572: real time    4.2284
    ORTHCH:  cpu time    0.4029: real time    0.4063
       DOS:  cpu time    0.0018: real time    0.0018
    CHARGE:  cpu time    0.3024: real time    0.3025
    MIXING:  cpu time    0.0026: real time    0.0026
    --------------------------------------------
      LOOP:  cpu time    6.5473: real time    6.6272

 eigenvalue-minimisations  :  3682
 total energy-change (2. order) : 0.1141541E+02  (-0.1751405E+01)
 number of electron     503.9998340 magnetization 
 augmentation part      198.9553149 magnetization 

 DIPCOR: dipole corrections for dipol
 direction  3 min pos     1,
 dipolmoment           0.000000      0.000000     -0.545628 electrons x Angstroem
 Tr[quadrupol]    -10252.005747

 energy correction for charged system         0.000000 eV
 dipol+quadrupol energy correction           -0.010491 eV
 added-field ion interaction          0.345445 eV  (added to PSCEN)


 Broyden mixing:
  rms(total) = 0.19263E+01    rms(broyden)= 0.19261E+01
  rms(prec ) = 0.22836E+01
  weight for this iteration     100.00

 eigenvalues of (default mixing * dielectric matrix)
  average eigenvalue GAMMA=   0.7754
  2.2353  0.5456  0.5456  0.2231  0.3276

 Free energy of the ion-electron system (eV)
  ---------------------------------------------------
  alpha Z        PSCENC =       806.20431856
  Ewald energy   TEWEN  =    200169.20993979
  -Hartree energ DENC   =   -242132.97907036
  -exchange      EXHF   =         0.00000000
  -V(xc)+E(xc)   XCENC  =      -346.34006067
  PAW double counting   =     48987.01621177   -47079.81146501
  entropy T*S    EENTRO =        -0.18635977
  eigenvalues    EBANDS =     -2261.14299273
  atomic energy  EATOM  =     41659.78587232
  Solvation  Ediel_sol  =         0.00000000
  ---------------------------------------------------
  free energy    TOTEN  =      -198.24360608 eV

  energy without entropy =     -198.05724632  energy(sigma->0) =     -198.15042620


--------------------------------------------------------------------------------------------------------




----------------------------------------- Iteration    1(  11)  ---------------------------------------


    POTLOK:  cpu time    0.0498: real time    0.0499
    SETDIJ:  cpu time    0.0069: real time    0.0069
    EDDIAG:  cpu time    1.6123: real time    1.6128
  RMM-DIIS:  cpu time    4.2037: real time    4.2063
    ORTHCH:  cpu time    0.3836: real time    0.3836
       DOS:  cpu time    0.0018: real time    0.0018
    CHARGE:  cpu time    0.2998: real time    0.2998
    MIXING:  cpu time    0.0026: real time    0.0026
    --------------------------------------------
      LOOP:  cpu time    6.5613: real time    6.5668

 eigenvalue-minimisations  :  3681
 total energy-change (2. order) : 0.4290664E+01  (-0.1370630E+01)
 number of electron     503.9998346 magnetization 
 augmentation part      198.3624747 magnetization 

 DIPCOR: dipole corrections for dipol
 direction  3 min pos     1,
 dipolmoment           0.000000      0.000000     -0.317004 electrons x Angstroem
 Tr[quadrupol]    -10252.583745

 energy correction for charged system         0.000000 eV
 dipol+quadrupol energy correction           -0.003541 eV
 added-field ion interaction          0.200699 eV  (added to PSCEN)


 Broyden mixing:
  rms(total) = 0.17764E+01    rms(broyden)= 0.17760E+01
  rms(prec ) = 0.20552E+01
  weight for this iteration     100.00

 eigenvalues of (default mixing * dielectric matrix)
  average eigenvalue GAMMA=   0.7218
  2.2478  0.6318  0.6318  0.2359  0.2919  0.2919

 Free energy of the ion-electron system (eV)
  ---------------------------------------------------
  alpha Z        PSCENC =       806.06652268
  Ewald energy   TEWEN  =    200169.20993979
  -Hartree energ DENC   =   -242178.78161881
  -exchange      EXHF   =         0.00000000
  -V(xc)+E(xc)   XCENC  =      -345.69901397
  PAW double counting   =     49155.70603256   -47246.82451829
  entropy T*S    EENTRO =        -0.17394321
  eigenvalues    EBANDS =     -2213.24221477
  atomic energy  EATOM  =     41659.78587232
  Solvation  Ediel_sol  =         0.00000000
  ---------------------------------------------------
  free energy    TOTEN  =      -193.95294170 eV

  energy without entropy =     -193.77899848  energy(sigma->0) =     -193.86597009


--------------------------------------------------------------------------------------------------------




----------------------------------------- Iteration    1(  12)  ---------------------------------------


    POTLOK:  cpu time    0.0495: real time    0.0502
    SETDIJ:  cpu time    0.0069: real time    0.0069
    EDDIAG:  cpu time    1.5934: real time    1.5940
  RMM-DIIS:  cpu time    4.2125: real time    4.2142
    ORTHCH:  cpu time    0.3839: real time    0.3839
       DOS:  cpu time    0.0017: real time    0.0017
    CHARGE:  cpu time    0.3023: real time    0.3028
    MIXING:  cpu time    0.0028: real time    0.0028
    --------------------------------------------
      LOOP:  cpu time    6.5539: real time    6.5636

 eigenvalue-minimisations  :  3681
 total energy-change (2. order) : 0.3665440E+01  (-0.5151717E+00)
 number of electron     503.9998356 magnetization 
 augmentation part      197.8551534 magnetization 

 DIPCOR: dipole corrections for dipol
 direction  3 min pos     1,
 dipolmoment           0.000000      0.000000     -0.249945 electrons x Angstroem
 Tr[quadrupol]    -10252.732778

 energy correction for charged system         0.000000 eV
 dipol+quadrupol energy correction           -0.002201 eV
 added-field ion interaction          0.158244 eV  (added to PSCEN)


 Broyden mixing:
  rms(total) = 0.10699E+01    rms(broyden)= 0.10697E+01
  rms(prec ) = 0.12074E+01
  weight for this iteration     100.00

 eigenvalues of (default mixing * dielectric matrix)
  average eigenvalue GAMMA=   0.6576
  2.2480  0.5878  0.5878  0.4186  0.2177  0.2716  0.2716

 Free energy of the ion-electron system (eV)
  ---------------------------------------------------
  alpha Z        PSCENC =       806.02540646
  Ewald energy   TEWEN  =    200169.20993979
  -Hartree energ DENC   =   -242208.93314008
  -exchange      EXHF   =         0.00000000
  -V(xc)+E(xc)   XCENC  =      -344.99851460
  PAW double counting   =     49255.07908920   -47343.66869014
  entropy T*S    EENTRO =        -0.21736806
  eigenvalues    EBANDS =     -2182.57009652
  atomic energy  EATOM  =     41659.78587232
  Solvation  Ediel_sol  =         0.00000000
  ---------------------------------------------------
  free energy    TOTEN  =      -190.28750163 eV

  energy without entropy =     -190.07013357  energy(sigma->0) =     -190.17881760


--------------------------------------------------------------------------------------------------------




----------------------------------------- Iteration    1(  13)  ---------------------------------------


    POTLOK:  cpu time    0.0494: real time    0.0495
    SETDIJ:  cpu time    0.0060: real time    0.0060
    EDDIAG:  cpu time    1.5801: real time    1.5815
  RMM-DIIS:  cpu time    4.2052: real time    4.2067
    ORTHCH:  cpu time    0.3829: real time    0.3831
       DOS:  cpu time    0.0018: real time    0.0018
    CHARGE:  cpu time    0.3062: real time    0.3062
    MIXING:  cpu time    0.0028: real time    0.0028
    --------------------------------------------
      LOOP:  cpu time    6.5354: real time    6.5423

 eigenvalue-minimisations  :  3682
 total energy-change (2. order) : 0.1143167E+01  (-0.1365872E+00)
 number of electron     503.9998358 magnetization 
 augmentation part      197.8015685 magnetization 

 DIPCOR: dipole corrections for dipol
 direction  3 min pos     1,
 dipolmoment           0.000000      0.000000     -0.205150 electrons x Angstroem
 Tr[quadrupol]    -10252.892551

 energy correction for charged system         0.000000 eV
 dipol+quadrupol energy correction           -0.001483 eV
 added-field ion interaction          0.129883 eV  (added to PSCEN)


 Broyden mixing:
  rms(total) = 0.66100E+00    rms(broyden)= 0.66088E+00
  rms(prec ) = 0.70786E+00
  weight for this iteration     100.00

 eigenvalues of (default mixing * dielectric matrix)
  average eigenvalue GAMMA=   0.6834
  2.2190  0.7966  0.7966  0.5888  0.3001  0.3001  0.2330  0.2330

 Free energy of the ion-electron system (eV)
  ---------------------------------------------------
  alpha Z        PSCENC =       805.99776473
  Ewald energy   TEWEN  =    200169.20993979
  -Hartree energ DENC   =   -242219.20691498
  -exchange      EXHF   =         0.00000000
  -V(xc)+E(xc)   XCENC  =      -344.84837654
  PAW double counting   =     49270.26886779   -47357.89298350
  entropy T*S    EENTRO =        -0.22753802
  eigenvalues    EBANDS =     -2172.23096657
  atomic energy  EATOM  =     41659.78587232
  Solvation  Ediel_sol  =         0.00000000
  ---------------------------------------------------
  free energy    TOTEN  =      -189.14433498 eV

  energy without entropy =     -188.91679696  energy(sigma->0) =     -189.03056597


--------------------------------------------------------------------------------------------------------




----------------------------------------- Iteration    1(  14)  ---------------------------------------


    POTLOK:  cpu time    0.0491: real time    0.0491
    SETDIJ:  cpu time    0.0060: real time    0.0060
    EDDIAG:  cpu time    1.5770: real time    1.5784
  RMM-DIIS:  cpu time    5.0800: real time    5.1188
    ORTHCH:  cpu time    0.3820: real time    0.3828
       DOS:  cpu time    0.0017: real time    0.0017
    CHARGE:  cpu time    0.2981: real time    0.2981
    MIXING:  cpu time    0.0029: real time    0.0029
    --------------------------------------------
      LOOP:  cpu time    7.3979: real time    7.4413

 eigenvalue-minimisations  :  3681
 total energy-change (2. order) :-0.3138573E-01  (-0.6436715E-01)
 number of electron     503.9998360 magnetization 
 augmentation part      197.5331741 magnetization 

 DIPCOR: dipole corrections for dipol
 direction  3 min pos     1,
 dipolmoment           0.000000      0.000000     -0.172801 electrons x Angstroem
 Tr[quadrupol]    -10253.123407

 energy correction for charged system         0.000000 eV
 dipol+quadrupol energy correction           -0.001052 eV
 added-field ion interaction          0.109403 eV  (added to PSCEN)


 Broyden mixing:
  rms(total) = 0.66158E+00    rms(broyden)= 0.66152E+00
  rms(prec ) = 0.74319E+00
  weight for this iteration     100.00

 eigenvalues of (default mixing * dielectric matrix)
  average eigenvalue GAMMA=   0.6827
  2.2187  0.9682  0.9682  0.6089  0.3118  0.3118  0.2157  0.2707  0.2707

 Free energy of the ion-electron system (eV)
  ---------------------------------------------------
  alpha Z        PSCENC =       805.97771492
  Ewald energy   TEWEN  =    200169.20993979
  -Hartree energ DENC   =   -242236.50412382
  -exchange      EXHF   =         0.00000000
  -V(xc)+E(xc)   XCENC  =      -344.54267177
  PAW double counting   =     49264.82378093   -47349.97035328
  entropy T*S    EENTRO =        -0.22860617
  eigenvalues    EBANDS =     -2157.72727364
  atomic energy  EATOM  =     41659.78587232
  Solvation  Ediel_sol  =         0.00000000
  ---------------------------------------------------
  free energy    TOTEN  =      -189.17572071 eV

  energy without entropy =     -188.94711454  energy(sigma->0) =     -189.06141762


--------------------------------------------------------------------------------------------------------




----------------------------------------- Iteration    1(  15)  ---------------------------------------


    POTLOK:  cpu time    0.0487: real time    0.0487
    SETDIJ:  cpu time    0.0060: real time    0.0060
    EDDIAG:  cpu time    1.5856: real time    1.5866
  RMM-DIIS:  cpu time    4.2849: real time    4.2873
    ORTHCH:  cpu time    0.3819: real time    0.3819
       DOS:  cpu time    0.0018: real time    0.0018
    CHARGE:  cpu time    0.3026: real time    0.3028
    MIXING:  cpu time    0.0031: real time    0.0031
    --------------------------------------------
      LOOP:  cpu time    6.6155: real time    6.6215

 eigenvalue-minimisations  :  3679
 total energy-change (2. order) : 0.9183361E-01  (-0.3195503E-01)
 number of electron     503.9998361 magnetization 
 augmentation part      197.3977667 magnetization 

 DIPCOR: dipole corrections for dipol
 direction  3 min pos     1,
 dipolmoment           0.000000      0.000000     -0.177603 electrons x Angstroem
 Tr[quadrupol]    -10253.389711

 energy correction for charged system         0.000000 eV
 dipol+quadrupol energy correction           -0.001111 eV
 added-field ion interaction          0.112443 eV  (added to PSCEN)


 Broyden mixing:
  rms(total) = 0.55046E+00    rms(broyden)= 0.55041E+00
  rms(prec ) = 0.63368E+00
  weight for this iteration     100.00

 eigenvalues of (default mixing * dielectric matrix)
  average eigenvalue GAMMA=   0.7159
  2.2387  1.2377  1.2377  0.6137  0.3995  0.3995  0.2968  0.2968  0.2194  0.2194

 Free energy of the ion-electron system (eV)
  ---------------------------------------------------
  alpha Z        PSCENC =       805.98069576
  Ewald energy   TEWEN  =    200169.20993979
  -Hartree energ DENC   =   -242251.36491971
  -exchange      EXHF   =         0.00000000
  -V(xc)+E(xc)   XCENC  =      -344.32023397
  PAW double counting   =     49279.57809023   -47363.09195634
  entropy T*S    EENTRO =        -0.22532735
  eigenvalues    EBANDS =     -2144.63604784
  atomic energy  EATOM  =     41659.78587232
  Solvation  Ediel_sol  =         0.00000000
  ---------------------------------------------------
  free energy    TOTEN  =      -189.08388710 eV

  energy without entropy =     -188.85855976  energy(sigma->0) =     -188.97122343


--------------------------------------------------------------------------------------------------------




----------------------------------------- Iteration    1(  16)  ---------------------------------------


    POTLOK:  cpu time    0.0488: real time    0.0488
    SETDIJ:  cpu time    0.0060: real time    0.0061
    EDDIAG:  cpu time    1.5971: real time    1.5973
  RMM-DIIS:  cpu time    4.1196: real time    4.1978
    ORTHCH:  cpu time    0.3810: real time    0.3813
       DOS:  cpu time    0.0017: real time    0.0017
    CHARGE:  cpu time    0.3026: real time    0.3026
    MIXING:  cpu time    0.0034: real time    0.0034
    --------------------------------------------
      LOOP:  cpu time    6.4610: real time    6.5418

 eigenvalue-minimisations  :  3681
 total energy-change (2. order) : 0.1046975E+00  (-0.3338902E-01)
 number of electron     503.9998360 magnetization 
 augmentation part      197.3172134 magnetization 

 DIPCOR: dipole corrections for dipol
 direction  3 min pos     1,
 dipolmoment           0.000000      0.000000     -0.151864 electrons x Angstroem
 Tr[quadrupol]    -10253.822089

 energy correction for charged system         0.000000 eV
 dipol+quadrupol energy correction           -0.000813 eV
 added-field ion interaction          0.096147 eV  (added to PSCEN)


 Broyden mixing:
  rms(total) = 0.46965E+00    rms(broyden)= 0.46959E+00
  rms(prec ) = 0.53641E+00
  weight for this iteration     100.00

 eigenvalues of (default mixing * dielectric matrix)
  average eigenvalue GAMMA=   0.7387
  2.2059  1.4655  1.4655  0.6748  0.5194  0.5194  0.2998  0.2998  0.2461  0.2255
  0.2039

 Free energy of the ion-electron system (eV)
  ---------------------------------------------------
  alpha Z        PSCENC =       805.96469898
  Ewald energy   TEWEN  =    200169.20993979
  -Hartree energ DENC   =   -242272.96274348
  -exchange      EXHF   =         0.00000000
  -V(xc)+E(xc)   XCENC  =      -344.07050700
  PAW double counting   =     49311.70172341   -47393.41387488
  entropy T*S    EENTRO =        -0.24606439
  eigenvalues    EBANDS =     -2124.94823438
  atomic energy  EATOM  =     41659.78587232
  Solvation  Ediel_sol  =         0.00000000
  ---------------------------------------------------
  free energy    TOTEN  =      -188.97918961 eV

  energy without entropy =     -188.73312522  energy(sigma->0) =     -188.85615742


--------------------------------------------------------------------------------------------------------




----------------------------------------- Iteration    1(  17)  ---------------------------------------


    POTLOK:  cpu time    0.0493: real time    0.0493
    SETDIJ:  cpu time    0.0060: real time    0.0060
    EDDIAG:  cpu time    1.5933: real time    1.5955
  RMM-DIIS:  cpu time    4.2697: real time    4.2711
    ORTHCH:  cpu time    0.3835: real time    0.3835
       DOS:  cpu time    0.0017: real time    0.0017
    CHARGE:  cpu time    0.3080: real time    0.3080
    MIXING:  cpu time    0.0036: real time    0.0036
    --------------------------------------------
      LOOP:  cpu time    6.6158: real time    6.6230

 eigenvalue-minimisations  :  3679
 total energy-change (2. order) : 0.2221680E+00  (-0.3185719E-01)
 number of electron     503.9998363 magnetization 
 augmentation part      197.1725901 magnetization 

 DIPCOR: dipole corrections for dipol
 direction  3 min pos     1,
 dipolmoment           0.000000      0.000000     -0.127091 electrons x Angstroem
 Tr[quadrupol]    -10254.150997

 energy correction for charged system         0.000000 eV
 dipol+quadrupol energy correction           -0.000569 eV
 added-field ion interaction          0.080463 eV  (added to PSCEN)


 Broyden mixing:
  rms(total) = 0.24560E+00    rms(broyden)= 0.24550E+00
  rms(prec ) = 0.28202E+00
  weight for this iteration     100.00

 eigenvalues of (default mixing * dielectric matrix)
  average eigenvalue GAMMA=   0.7383
  2.2908  1.5594  1.5594  0.6705  0.6705  0.5068  0.3128  0.3128  0.2893  0.2694
  0.2213  0.1968

 Free energy of the ion-electron system (eV)
  ---------------------------------------------------
  alpha Z        PSCENC =       805.94925821
  Ewald energy   TEWEN  =    200169.20993979
  -Hartree energ DENC   =   -242294.49716511
  -exchange      EXHF   =         0.00000000
  -V(xc)+E(xc)   XCENC  =      -343.67712335
  PAW double counting   =     49335.98240827   -47415.15330918
  entropy T*S    EENTRO =        -0.23399788
  eigenvalues    EBANDS =     -2106.12290473
  atomic energy  EATOM  =     41659.78587232
  Solvation  Ediel_sol  =         0.00000000
  ---------------------------------------------------
  free energy    TOTEN  =      -188.75702166 eV

  energy without entropy =     -188.52302378  energy(sigma->0) =     -188.64002272


--------------------------------------------------------------------------------------------------------




----------------------------------------- Iteration    1(  18)  ---------------------------------------


    POTLOK:  cpu time    0.0498: real time    0.0500
    SETDIJ:  cpu time    0.0061: real time    0.0061
    EDDIAG:  cpu time    1.5824: real time    1.5830
  RMM-DIIS:  cpu time    4.2832: real time    4.2856
    ORTHCH:  cpu time    0.3824: real time    0.3825
       DOS:  cpu time    0.0017: real time    0.0017
    CHARGE:  cpu time    0.3058: real time    0.3061
    MIXING:  cpu time    0.0037: real time    0.0037
    --------------------------------------------
      LOOP:  cpu time    6.6160: real time    6.6225

 eigenvalue-minimisations  :  3679
 total energy-change (2. order) : 0.4687508E-01  (-0.8768849E-02)
 number of electron     503.9998362 magnetization 
 augmentation part      197.1557682 magnetization 

 DIPCOR: dipole corrections for dipol
 direction  3 min pos     1,
 dipolmoment           0.000000      0.000000     -0.069786 electrons x Angstroem
 Tr[quadrupol]    -10254.415922

 energy correction for charged system         0.000000 eV
 dipol+quadrupol energy correction           -0.000172 eV
 added-field ion interaction          0.044183 eV  (added to PSCEN)


 Broyden mixing:
  rms(total) = 0.15509E+00    rms(broyden)= 0.15503E+00
  rms(prec ) = 0.17579E+00
  weight for this iteration     100.00

 eigenvalues of (default mixing * dielectric matrix)
  average eigenvalue GAMMA=   0.7117
  2.2663  1.5800  1.5800  0.7153  0.7153  0.5130  0.3114  0.3114  0.3410  0.2630
  0.2435  0.2163  0.1953

 Free energy of the ion-electron system (eV)
  ---------------------------------------------------
  alpha Z        PSCENC =       805.91337539
  Ewald energy   TEWEN  =    200169.20993979
  -Hartree energ DENC   =   -242305.12504217
  -exchange      EXHF   =         0.00000000
  -V(xc)+E(xc)   XCENC  =      -343.63448222
  PAW double counting   =     49353.76969382   -47432.57609927
  entropy T*S    EENTRO =        -0.25997156
  eigenvalues    EBANDS =     -2095.79343268
  atomic energy  EATOM  =     41659.78587232
  Solvation  Ediel_sol  =         0.00000000
  ---------------------------------------------------
  free energy    TOTEN  =      -188.71014658 eV

  energy without entropy =     -188.45017502  energy(sigma->0) =     -188.58016080


--------------------------------------------------------------------------------------------------------




----------------------------------------- Iteration    1(  19)  ---------------------------------------


    POTLOK:  cpu time    0.0494: real time    0.0494
    SETDIJ:  cpu time    0.0062: real time    0.0062
    EDDIAG:  cpu time    1.6016: real time    1.6020
  RMM-DIIS:  cpu time    4.2456: real time    4.2476
    ORTHCH:  cpu time    0.3841: real time    0.3844
       DOS:  cpu time    0.0017: real time    0.0017
    CHARGE:  cpu time    0.2998: real time    0.2998
    MIXING:  cpu time    0.0039: real time    0.0039
    --------------------------------------------
      LOOP:  cpu time    6.5930: real time    6.5980

 eigenvalue-minimisations  :  3682
 total energy-change (2. order) : 0.2412072E-01  (-0.2458750E-02)
 number of electron     503.9998363 magnetization 
 augmentation part      197.1094142 magnetization 

 DIPCOR: dipole corrections for dipol
 direction  3 min pos     1,
 dipolmoment           0.000000      0.000000     -0.068070 electrons x Angstroem
 Tr[quadrupol]    -10254.480149

 energy correction for charged system         0.000000 eV
 dipol+quadrupol energy correction           -0.000163 eV
 added-field ion interaction          0.043096 eV  (added to PSCEN)


 Broyden mixing:
  rms(total) = 0.70262E-01    rms(broyden)= 0.70239E-01
  rms(prec ) = 0.75637E-01
  weight for this iteration     100.00

 eigenvalues of (default mixing * dielectric matrix)
  average eigenvalue GAMMA=   0.7044
  2.2976  1.6024  1.6024  0.7787  0.7787  0.5131  0.3822  0.3822  0.3122  0.3122
  0.2593  0.2319  0.2158  0.1934

 Free energy of the ion-electron system (eV)
  ---------------------------------------------------
  alpha Z        PSCENC =       805.91229726
  Ewald energy   TEWEN  =    200169.20993979
  -Hartree energ DENC   =   -242309.41023117
  -exchange      EXHF   =         0.00000000
  -V(xc)+E(xc)   XCENC  =      -343.56911466
  PAW double counting   =     49356.76808868   -47435.16584983
  entropy T*S    EENTRO =        -0.25339100
  eigenvalues    EBANDS =     -2091.96363725
  atomic energy  EATOM  =     41659.78587232
  Solvation  Ediel_sol  =         0.00000000
  ---------------------------------------------------
  free energy    TOTEN  =      -188.68602587 eV

  energy without entropy =     -188.43263487  energy(sigma->0) =     -188.55933037


--------------------------------------------------------------------------------------------------------




----------------------------------------- Iteration    1(  20)  ---------------------------------------


    POTLOK:  cpu time    0.0493: real time    0.0493
    SETDIJ:  cpu time    0.0060: real time    0.0060
    EDDIAG:  cpu time    1.5982: real time    1.5988
  RMM-DIIS:  cpu time    4.1909: real time    4.1940
    ORTHCH:  cpu time    0.3833: real time    0.3833
       DOS:  cpu time    0.0017: real time    0.0017
    CHARGE:  cpu time    0.3024: real time    0.3024
    MIXING:  cpu time    0.0040: real time    0.0040
    --------------------------------------------
      LOOP:  cpu time    6.5367: real time    6.5445

 eigenvalue-minimisations  :  3681
 total energy-change (2. order) : 0.2634247E-02  (-0.5388174E-03)
 number of electron     503.9998363 magnetization 
 augmentation part      197.0810790 magnetization 

 DIPCOR: dipole corrections for dipol
 direction  3 min pos     1,
 dipolmoment           0.000000      0.000000     -0.066606 electrons x Angstroem
 Tr[quadrupol]    -10254.599579

 energy correction for charged system         0.000000 eV
 dipol+quadrupol energy correction           -0.000156 eV
 added-field ion interaction          0.042169 eV  (added to PSCEN)


 Broyden mixing:
  rms(total) = 0.53980E-01    rms(broyden)= 0.53976E-01
  rms(prec ) = 0.58076E-01
  weight for this iteration     100.00

 eigenvalues of (default mixing * dielectric matrix)
  average eigenvalue GAMMA=   0.7346
  2.3443  1.6654  1.6654  0.9703  0.9703  0.6471  0.4760  0.4760  0.3097  0.3097
  0.2721  0.2721  0.2304  0.2173  0.1932

 Free energy of the ion-electron system (eV)
  ---------------------------------------------------
  alpha Z        PSCENC =       805.91137736
  Ewald energy   TEWEN  =    200169.20993979
  -Hartree energ DENC   =   -242314.19092971
  -exchange      EXHF   =         0.00000000
  -V(xc)+E(xc)   XCENC  =      -343.54283877
  PAW double counting   =     49363.47102666   -47441.72407936
  entropy T*S    EENTRO =        -0.25264550
  eigenvalues    EBANDS =     -2087.35111441
  atomic energy  EATOM  =     41659.78587232
  Solvation  Ediel_sol  =         0.00000000
  ---------------------------------------------------
  free energy    TOTEN  =      -188.68339162 eV

  energy without entropy =     -188.43074612  energy(sigma->0) =     -188.55706887


--------------------------------------------------------------------------------------------------------




----------------------------------------- Iteration    1(  21)  ---------------------------------------


    POTLOK:  cpu time    0.0509: real time    0.0509
    SETDIJ:  cpu time    0.0061: real time    0.0061
    EDDIAG:  cpu time    1.5876: real time    1.5905
  RMM-DIIS:  cpu time    4.3063: real time    4.3111
    ORTHCH:  cpu time    0.3820: real time    0.3821
       DOS:  cpu time    0.0017: real time    0.0017
    CHARGE:  cpu time    0.3046: real time    0.3048
    MIXING:  cpu time    0.0041: real time    0.0041
    --------------------------------------------
      LOOP:  cpu time    6.6442: real time    6.6585

 eigenvalue-minimisations  :  3682
 total energy-change (2. order) : 0.4669657E-03  (-0.4690691E-03)
 number of electron     503.9998364 magnetization 
 augmentation part      197.0588965 magnetization 

 DIPCOR: dipole corrections for dipol
 direction  3 min pos     1,
 dipolmoment           0.000000      0.000000     -0.067281 electrons x Angstroem
 Tr[quadrupol]    -10254.775120

 energy correction for charged system         0.000000 eV
 dipol+quadrupol energy correction           -0.000160 eV
 added-field ion interaction          0.042596 eV  (added to PSCEN)


 Broyden mixing:
  rms(total) = 0.54594E-01    rms(broyden)= 0.54588E-01
  rms(prec ) = 0.62130E-01
  weight for this iteration     100.00

 eigenvalues of (default mixing * dielectric matrix)
  average eigenvalue GAMMA=   0.7524
  2.2654  1.7694  1.7694  1.1689  0.9388  0.9388  0.5422  0.5422  0.3130  0.3130
  0.2949  0.2949  0.2571  0.2263  0.2118  0.1922

 Free energy of the ion-electron system (eV)
  ---------------------------------------------------
  alpha Z        PSCENC =       805.91180109
  Ewald energy   TEWEN  =    200169.20993979
  -Hartree energ DENC   =   -242321.03948931
  -exchange      EXHF   =         0.00000000
  -V(xc)+E(xc)   XCENC  =      -343.51431662
  PAW double counting   =     49371.25201040   -47449.39558937
  entropy T*S    EENTRO =        -0.25080402
  eigenvalues    EBANDS =     -2080.64234895
  atomic energy  EATOM  =     41659.78587232
  Solvation  Ediel_sol  =         0.00000000
  ---------------------------------------------------
  free energy    TOTEN  =      -188.68292465 eV

  energy without entropy =     -188.43212064  energy(sigma->0) =     -188.55752265


--------------------------------------------------------------------------------------------------------




----------------------------------------- Iteration    1(  22)  ---------------------------------------


    POTLOK:  cpu time    0.0503: real time    0.0505
    SETDIJ:  cpu time    0.0059: real time    0.0059
    EDDIAG:  cpu time    1.5824: real time    1.5835
  RMM-DIIS:  cpu time    4.1674: real time    4.2374
    ORTHCH:  cpu time    0.3766: real time    0.3865
       DOS:  cpu time    0.0017: real time    0.0017
    CHARGE:  cpu time    0.3018: real time    0.3019
    MIXING:  cpu time    0.0043: real time    0.0043
    --------------------------------------------
      LOOP:  cpu time    6.4912: real time    6.5764

 eigenvalue-minimisations  :  3679
 total energy-change (2. order) : 0.1918692E-02  (-0.3870457E-03)
 number of electron     503.9998364 magnetization 
 augmentation part      197.0578968 magnetization 

 DIPCOR: dipole corrections for dipol
 direction  3 min pos     1,
 dipolmoment           0.000000      0.000000     -0.064515 electrons x Angstroem
 Tr[quadrupol]    -10254.917268

 energy correction for charged system         0.000000 eV
 dipol+quadrupol energy correction           -0.000147 eV
 added-field ion interaction          0.040846 eV  (added to PSCEN)


 Broyden mixing:
  rms(total) = 0.37196E-01    rms(broyden)= 0.37190E-01
  rms(prec ) = 0.43664E-01
  weight for this iteration     100.00

 eigenvalues of (default mixing * dielectric matrix)
  average eigenvalue GAMMA=   0.7513
  2.2661  1.9157  1.9157  1.0796  0.9888  0.9888  0.5772  0.5772  0.3112  0.3112
  0.3530  0.3530  0.2537  0.2537  0.2221  0.2137  0.1925

 Free energy of the ion-electron system (eV)
  ---------------------------------------------------
  alpha Z        PSCENC =       805.91006323
  Ewald energy   TEWEN  =    200169.20993979
  -Hartree energ DENC   =   -242326.41011234
  -exchange      EXHF   =         0.00000000
  -V(xc)+E(xc)   XCENC  =      -343.49044790
  PAW double counting   =     49372.65082316   -47450.75159227
  entropy T*S    EENTRO =        -0.24984512
  eigenvalues    EBANDS =     -2075.33570683
  atomic energy  EATOM  =     41659.78587232
  Solvation  Ediel_sol  =         0.00000000
  ---------------------------------------------------
  free energy    TOTEN  =      -188.68100596 eV

  energy without entropy =     -188.43116084  energy(sigma->0) =     -188.55608340


--------------------------------------------------------------------------------------------------------




----------------------------------------- Iteration    1(  23)  ---------------------------------------


    POTLOK:  cpu time    0.0494: real time    0.0494
    SETDIJ:  cpu time    0.0061: real time    0.0061
    EDDIAG:  cpu time    1.5868: real time    1.5886
  RMM-DIIS:  cpu time    4.9974: real time    5.0350
[...]
    275       1.8115      0.00000
    276       1.8366      0.00000
    277       2.2143      0.00000
    278       2.2552      0.00000
    279       2.3253      0.00000
    280       2.4063      0.00000
    281       2.4908      0.00000
    282       2.5584      0.00000
    283       2.6888      0.00000
    284       2.9739      0.00000
    285       3.1643      0.00000
    286       3.2264      0.00000
    287       3.5296      0.00000
    288       3.6274      0.00000
    289       3.6924      0.00000
    290       3.9162      0.00000
    291       4.1379      0.00000
    292       4.1967      0.00000
    293       4.4432      0.00000
    294       4.5520      0.00000
    295       4.6022      0.00000
    296       4.6117      0.00000
    297       4.6931      0.00000
    298       4.7913      0.00000
    299       4.8583      0.00000
    300       4.9269      0.00000
    301       4.9855      0.00000
    302       5.0100      0.00000
    303       5.0806      0.00000
    304       5.1016      0.00000
    305       5.2053      0.00000
    306       5.2319      0.00000


--------------------------------------------------------------------------------------------------------


 soft charge-density along one line, spin component           1
         0         1         2         3         4         5         6         7         8         9
 total charge-density along one line
 
 pseudopotential strength for first ion, spin component:           1
 -8.051   0.001   0.001  -0.001  -0.000  -8.197   0.001   0.001
  0.001  -7.975  -0.000  -0.001  -0.002   0.001  -8.123  -0.000
  0.001  -0.000  -7.970   0.000  -0.001   0.001  -0.000  -8.118
 -0.001  -0.001   0.000  -7.974  -0.001  -0.001  -0.001   0.000
 -0.000  -0.002  -0.001  -0.001  -8.052  -0.000  -0.002  -0.001
 -8.197   0.001   0.001  -0.001  -0.000  -8.328   0.001   0.000
  0.001  -8.123  -0.000  -0.001  -0.002   0.001  -8.255  -0.000
  0.001  -0.000  -8.118   0.000  -0.001   0.000  -0.000  -8.250
 -0.001  -0.001   0.000  -8.122  -0.001  -0.001  -0.001   0.000
 -0.000  -0.002  -0.001  -0.001  -8.198  -0.000  -0.002  -0.001
  0.000  -0.000  -0.025  -0.000  -0.000   0.000  -0.000  -0.025
  0.001  -0.000  -0.036  -0.000  -0.000   0.001  -0.000  -0.036
  0.002  -0.001   0.000   0.000   0.001   0.002  -0.001   0.000
  0.000  -0.001  -0.003   0.002  -0.000   0.000  -0.001  -0.003
 -0.000   0.000  -0.001  -0.002   0.001  -0.000   0.000  -0.001
  0.003  -0.001   0.000   0.000   0.001   0.003  -0.000   0.000
  0.000  -0.001  -0.003   0.002  -0.000   0.000  -0.001  -0.003
 -0.000   0.000  -0.001  -0.001   0.001  -0.000   0.000  -0.001
 total augmentation occupancy for first ion, spin component:           1
  4.447   0.018   0.019   0.069  -0.005  -2.627  -0.008  -0.016  -0.091   0.004  -0.024   0.007  -0.105  -0.005  -0.022   0.006
  0.018   4.244  -0.071   0.047   0.074  -0.008  -1.973   0.061  -0.044  -0.100   0.021  -0.023  -0.146   0.015  -0.004   0.007
  0.019  -0.071   4.487   0.087  -0.010  -0.016   0.061  -2.384  -0.078   0.006   0.995  -0.111   0.002  -0.239  -0.002  -0.000
  0.069   0.047   0.087   4.202   0.017  -0.091  -0.044  -0.078  -1.938  -0.025  -0.028   0.035  -0.004  -0.021  -0.144   0.001
 -0.005   0.074  -0.010   0.017   4.407   0.004  -0.101   0.006  -0.026  -2.598   0.007  -0.004  -0.027   0.000   0.101   0.002
 -2.627  -0.008  -0.016  -0.091   0.004   2.691   0.003   0.013   0.108  -0.003   0.019  -0.007   0.088   0.003   0.021  -0.004
 -0.008  -1.973   0.061  -0.044  -0.101   0.003   1.675  -0.053   0.041   0.121  -0.018   0.020   0.131  -0.012   0.003  -0.006
 -0.016   0.061  -2.384  -0.078   0.006   0.013  -0.053   2.223   0.070  -0.003  -0.932   0.133  -0.002   0.242   0.001   0.000
 -0.091  -0.044  -0.078  -1.938  -0.026   0.108   0.041   0.070   1.646   0.031   0.027  -0.031   0.003   0.015   0.131  -0.000
  0.004  -0.100   0.006  -0.025  -2.598  -0.003   0.121  -0.003   0.031   2.669  -0.005   0.003   0.025   0.000  -0.086  -0.001
 -0.024   0.021   0.995  -0.028   0.007   0.019  -0.018  -0.932   0.027  -0.005   2.447  -0.524   0.000   0.112   0.000  -0.000
  0.007  -0.023  -0.111   0.035  -0.004  -0.007   0.020   0.133  -0.031   0.003  -0.524   0.157   0.002  -0.057  -0.004  -0.000
 -0.105  -0.146   0.002  -0.004  -0.027   0.088   0.131  -0.002   0.003   0.025   0.000   0.002   0.196   0.000   0.001  -0.006
 -0.005   0.015  -0.239  -0.021   0.000   0.003  -0.012   0.242   0.015   0.000   0.112  -0.057   0.000   0.096  -0.001   0.000
 -0.022  -0.004  -0.002  -0.144   0.101   0.021   0.003   0.001   0.131  -0.086   0.000  -0.004   0.001  -0.001   0.197  -0.000
  0.006   0.007  -0.000   0.001   0.002  -0.004  -0.006   0.000  -0.000  -0.001  -0.000  -0.000  -0.006   0.000  -0.000   0.000
  0.000  -0.002   0.005   0.003  -0.000  -0.000   0.001  -0.007  -0.001   0.000  -0.007   0.003   0.000  -0.003  -0.000  -0.000
  0.000   0.001   0.000   0.006  -0.003  -0.001  -0.000  -0.001  -0.006   0.004   0.000   0.000  -0.000  -0.000  -0.006   0.000


------------------------ aborting loop because EDIFF is reached ----------------------------------------


    CHARGE:  cpu time    0.3010: real time    0.3012
    FORLOC:  cpu time    0.0187: real time    0.0187
    FORNL :  cpu time    1.5641: real time    1.5647
    FORCOR:  cpu time    0.0675: real time    0.0688
    FORHAR:  cpu time    0.0292: real time    0.0292
    MIXING:  cpu time    0.0035: real time    0.0035
    OFIELD:  cpu time    0.0000: real time    0.0000

 VOLUME and BASIS-vectors are now :
 -----------------------------------------------------------------------------
  energy-cutoff  :      400.00
  volume of cell :     2567.68
      direct lattice vectors                 reciprocal lattice vectors
    11.002581515  0.000000000  0.000000000     0.090887761 -0.052474073  0.000000000
     5.501290758  9.528515099  0.000000000     0.000000000  0.104948147  0.000000000
     0.000000000  0.000000000 24.491785094     0.000000000  0.000000000  0.040830017

  length of vectors
    11.002581515 11.002581515 24.491785094     0.104948147  0.104948147  0.040830017


 FORCES acting on ions
    electron-ion (+dipol)            ewald-force                    non-local-force                 convergence-correction
 -----------------------------------------------------------------------------------------------
   -.859E-01 -.734E+00 0.222E+04   -.201E+00 0.894E+00 -.222E+04   0.217E+00 -.140E+00 0.169E+00   0.246E-02 0.417E-03 -.427E-02
   -.104E+02 0.532E+01 0.202E+02   0.942E+01 -.516E+01 -.206E+02   0.995E+00 -.160E+00 0.451E+00   -.204E-03 0.225E-02 -.730E-02
   0.211E+02 -.363E+00 -.224E+04   -.216E+02 -.912E-01 0.224E+04   0.498E+00 0.457E+00 0.308E+00   0.194E-02 -.175E-02 0.447E-02
   -.233E+01 -.604E+01 0.223E+04   0.220E+01 0.680E+01 -.223E+04   0.146E+00 -.551E+00 0.535E-01   0.255E-02 -.306E-02 -.525E-02
   -.591E+01 -.105E+01 0.223E+04   0.578E+01 0.944E+00 -.223E+04   0.161E+00 0.886E-01 0.255E+00   0.185E-02 -.365E-03 -.389E-02
   -.376E+01 -.738E+01 -.205E+02   0.442E+01 0.643E+01 0.207E+02   -.650E+00 0.946E+00 -.160E+00   0.300E-02 -.825E-03 -.115E-01
   0.125E+02 -.441E+01 -.226E+04   -.125E+02 0.430E+01 0.226E+04   0.115E-01 0.114E+00 -.132E+00   0.174E-02 -.193E-02 0.470E-03
   -.250E+01 0.847E+00 -.231E+04   0.251E+01 -.951E+00 0.231E+04   -.226E-01 0.103E+00 -.315E+00   0.180E-02 0.884E-03 0.306E-02
   -.647E+00 0.264E+01 -.390E+02   0.158E+01 -.294E+01 0.385E+02   -.939E+00 0.300E+00 0.514E+00   0.350E-02 -.134E-02 -.718E-02
   -.656E+01 0.926E+01 -.228E+04   0.647E+01 -.993E+01 0.228E+04   0.858E-01 0.677E+00 -.118E+00   0.144E-03 -.276E-02 -.683E-02
   -.693E+01 0.632E+01 0.112E+02   0.643E+01 -.603E+01 -.117E+02   0.507E+00 -.299E+00 0.519E+00   0.129E-02 -.217E-02 -.919E-02
   -.783E+01 -.155E+01 -.227E+04   0.829E+01 0.199E+01 0.227E+04   -.461E+00 -.444E+00 -.153E+00   0.148E-02 -.115E-02 -.463E-02
   0.153E+02 -.204E+02 -.225E+04   -.158E+02 0.216E+02 0.225E+04   0.453E+00 -.125E+01 0.692E-01   -.119E-02 0.470E-03 0.491E-02
   -.358E+00 0.541E+01 -.269E+02   0.105E+00 -.493E+01 0.271E+02   0.259E+00 -.494E+00 -.996E-01   0.344E-02 0.232E-02 -.749E-02
   0.687E+01 -.402E+01 0.867E+02   -.645E+01 0.438E+01 -.872E+02   -.411E+00 -.377E+00 0.520E+00   -.736E-02 0.320E-02 -.304E-02
   -.174E+02 0.989E+01 -.220E+04   0.173E+02 -.101E+02 0.220E+04   0.255E-01 0.246E+00 0.104E+00   -.144E-02 -.145E-02 0.261E-02
   0.874E+01 -.862E+01 0.224E+04   -.892E+01 0.913E+01 -.223E+04   0.516E-01 -.343E+00 -.681E+00   -.295E-02 0.215E-02 -.282E-02
   -.150E+02 0.116E+02 -.217E+04   0.154E+02 -.114E+02 0.217E+04   -.393E+00 -.207E+00 0.522E+00   0.592E-03 -.939E-03 -.392E-02
   0.411E+01 -.898E+01 0.170E+02   -.398E+01 0.797E+01 -.174E+02   -.140E+00 0.101E+01 0.421E+00   0.207E-02 0.191E-02 -.663E-02
   -.166E+02 0.768E+01 -.225E+04   0.167E+02 -.784E+01 0.225E+04   -.821E-01 0.164E+00 0.589E-01   -.362E-03 -.428E-03 0.812E-02
   0.604E+01 0.734E+01 0.223E+04   -.609E+01 -.792E+01 -.223E+04   0.693E-02 0.407E+00 -.624E+00   -.158E-02 0.236E-02 -.613E-02
   0.105E+02 -.995E+00 -.220E+04   -.108E+02 0.163E+01 0.220E+04   0.306E+00 -.644E+00 0.741E+00   -.730E-03 0.123E-02 0.557E-03
   0.460E+01 -.482E+01 0.625E+02   -.445E+01 0.467E+01 -.630E+02   -.145E+00 0.143E+00 0.533E+00   -.691E-02 0.216E-02 -.514E-02
   -.106E+02 0.662E+01 0.223E+04   0.111E+02 -.687E+01 -.223E+04   -.321E+00 0.128E+00 0.984E-01   0.195E-02 -.168E-02 -.322E-02
   0.892E+01 -.791E+00 0.354E+02   -.867E+01 0.405E+00 -.358E+02   -.247E+00 0.393E+00 0.433E+00   -.191E-03 -.573E-03 -.669E-02
   -.176E+01 0.564E+01 0.344E+02   0.184E+01 -.504E+01 -.342E+02   -.815E-01 -.608E+00 -.178E+00   -.118E-02 -.858E-03 -.442E-02
   0.407E+01 -.199E+01 0.493E+02   -.390E+01 0.203E+01 -.506E+02   -.174E+00 -.508E-01 0.134E+01   0.284E-03 0.173E-02 -.561E-02
   0.176E+02 0.254E+01 0.204E+04   -.181E+02 -.266E+01 -.204E+04   0.277E+00 0.585E-01 -.188E+01   -.256E-02 0.188E-02 -.293E-02
   0.526E+00 0.445E+01 0.204E+04   -.613E+00 -.465E+01 -.204E+04   0.694E-01 0.153E+00 -.151E+01   0.848E-03 -.235E-02 -.302E-02
   -.390E+01 -.688E+00 0.441E+02   0.357E+01 0.601E+00 -.440E+02   0.330E+00 0.795E-01 -.120E+00   -.114E-02 0.121E-02 -.479E-02
   0.226E+02 -.159E+02 -.194E+04   -.231E+02 0.161E+02 0.194E+04   0.486E+00 -.173E+00 0.156E+01   -.115E-03 0.182E-03 -.612E-04
   -.236E+02 0.243E+01 0.203E+04   0.243E+02 -.241E+01 -.203E+04   -.420E+00 -.469E-02 -.160E+01   0.175E-02 0.432E-03 -.224E-02
   -.852E+01 0.906E+00 0.205E+04   0.883E+01 -.108E+01 -.204E+04   -.175E+00 0.148E+00 -.158E+01   -.101E-02 0.558E-03 -.319E-02
   0.593E+01 0.838E+01 0.203E+04   -.630E+01 -.844E+01 -.203E+04   0.262E+00 -.166E-01 -.155E+01   0.234E-02 -.224E-02 -.523E-02
   -.495E+01 0.965E+01 0.203E+04   0.535E+01 -.101E+02 -.203E+04   -.319E+00 0.240E+00 -.177E+01   0.144E-02 0.789E-04 -.219E-02
   0.899E+01 -.767E+01 -.195E+04   -.918E+01 0.784E+01 0.195E+04   0.191E+00 -.175E+00 0.131E+01   -.860E-03 0.191E-03 0.141E-02
   -.159E+01 -.621E+00 0.176E+02   0.176E+01 0.123E+01 -.181E+02   -.169E+00 -.619E+00 0.460E+00   0.802E-03 0.104E-02 -.480E-02
   0.419E+00 0.320E+01 0.452E+02   -.550E+00 -.344E+01 -.452E+02   0.138E+00 0.240E+00 -.330E-01   -.318E-02 0.334E-02 -.691E-02
   0.735E+01 0.474E+01 0.204E+04   -.741E+01 -.484E+01 -.204E+04   -.303E-01 0.549E-01 -.173E+01   -.268E-02 -.803E-04 -.639E-02
   -.244E+01 -.147E+00 -.722E+01   0.185E+01 0.351E+00 0.683E+01   0.588E+00 -.220E+00 0.379E+00   0.769E-03 0.262E-02 -.305E-02
   0.985E+01 -.105E+02 0.204E+04   -.100E+02 0.109E+02 -.204E+04   -.315E-01 -.186E+00 -.157E+01   -.207E-02 -.268E-03 -.508E-02
   0.232E+01 -.150E+02 0.203E+04   -.249E+01 0.154E+02 -.203E+04   0.180E+00 -.182E+00 -.173E+01   -.453E-03 0.202E-02 -.446E-02
   0.193E+01 0.637E+01 -.193E+04   -.171E+01 -.694E+01 0.193E+04   -.218E+00 0.576E+00 0.177E+01   -.147E-02 0.877E-03 -.903E-03
   0.244E+01 -.174E+01 0.304E+02   -.249E+01 0.176E+01 -.303E+02   0.571E-01 -.231E-01 -.655E-01   -.469E-02 0.480E-02 -.247E-02
   -.708E+01 0.540E+01 -.197E+04   0.721E+01 -.544E+01 0.197E+04   -.133E+00 0.384E-01 0.147E+01   0.164E-02 -.137E-02 -.207E-02
   -.377E+01 -.352E+01 0.205E+04   0.386E+01 0.363E+01 -.205E+04   0.164E-01 -.500E-01 -.185E+01   -.142E-02 0.866E-04 -.343E-02
   -.126E+02 0.787E+01 -.194E+04   0.128E+02 -.806E+01 0.194E+04   -.211E+00 0.195E+00 0.155E+01   0.116E-02 0.251E-03 -.825E-02
   -.571E+01 -.641E+01 -.195E+04   0.622E+01 0.626E+01 0.194E+04   -.502E+00 0.163E+00 0.136E+01   -.217E-02 0.247E-03 0.193E-02
 -----------------------------------------------------------------------------------------------
   -.699E-01 0.103E+00 0.263E+01   0.508E-12 -.391E-13 -.136E-11   0.452E-01 -.944E-01 -.248E+01   -.705E-02 0.133E-01 -.159E+00
 
 
 POSITION                                       TOTAL-FORCE (eV/Angst)
 -----------------------------------------------------------------------------------
      1.37532      0.79404     10.00000        -0.066364      0.020115     -0.240512
     12.35764      3.95848     12.43325         0.007916     -0.000128     -0.000771
     -0.02891     -0.01056     14.94941        -0.006087      0.000600      0.001103
      4.12597      5.55830     10.00000         0.024054      0.208465     -0.323147
      2.75065      3.17617     10.00000         0.030855     -0.023047     -0.303433
      2.78136      1.55886     12.48068         0.004870     -0.004834      0.006469
      1.36532      2.38746     15.00255         0.002969      0.001708      0.001473
      6.88006      7.14933     15.08740        -0.002437     -0.000576     -0.002280
      4.16472      3.94941     12.49276        -0.005498     -0.001153      0.004883
      4.12291      2.37098     15.05760        -0.003376      0.004332      0.013220
      5.50114      6.34867     12.43813         0.008637     -0.007918      0.005292
      5.51481      4.78051     15.04061         0.006341      0.001552      0.008763
      2.73477      4.80688     14.99079        -0.002440     -0.006834     -0.008393
      6.86553      8.72967     12.48811         0.009259     -0.008101     -0.001536
     12.39420      8.74513     12.36143         0.001657     -0.013109      0.002374
      5.50952     -0.01306     14.90764         0.000557      0.001199     -0.000981
      8.25194      3.17617     10.00000        -0.127638      0.171155     -0.164907
      6.88228      2.38485     14.87245         0.004810     -0.000074      0.003939
      8.25882      6.31352     12.43024        -0.003093     -0.000134     -0.001215
      9.64034      7.13574     14.97223         0.000976      0.006030     -0.010870
      9.62726      0.79404     10.00000        -0.036201     -0.172784     -0.121962
      9.61494      2.40577     14.88293        -0.003310     -0.004322      0.000241
     11.00681      6.34808     12.38915        -0.001083     -0.010080     -0.009850
      8.25194      7.94043     10.00000         0.176280     -0.116817     -0.255505
      6.88875      3.93366     12.41138        -0.001620      0.005937      0.001415
     13.76187      6.35292     12.41928        -0.003015     -0.006980     -0.006591
      5.52434      1.57576     12.39513        -0.005917     -0.007694     -0.013922
      6.87661      0.79404     10.00000        -0.257448     -0.062061      0.126001
      6.87661      5.55830     10.00000        -0.015846     -0.049236      0.174301
     15.12426      8.73953     12.40823         0.003024     -0.006519      0.001355
      4.12364      7.14657     14.79906         0.004930      0.009500      0.002859
      4.12597      0.79404     10.00000         0.291136      0.011950      0.227417
      9.62726      5.55830     10.00000         0.140857     -0.030600      0.086683
      5.50129      7.94043     10.00000        -0.096404     -0.073099      0.170474
      5.50129      3.17617     10.00000         0.077590     -0.167417      0.225958
     11.00153      4.78141     14.79422        -0.002397      0.001598     -0.001017
      9.64739      8.73149     12.43605         0.000790     -0.008420     -0.014455
      9.61735      3.93907     12.40695         0.004879      0.000273      0.000224
     13.75323      7.94043     10.00000        -0.090707     -0.047260      0.086307
     10.97947      1.58365     12.46817         0.005370     -0.013894     -0.010096
     12.37790      5.55830     10.00000        -0.182839      0.119090      0.069001
     11.00258      3.17617     10.00000         0.004254      0.203451      0.203215
      8.24858     -0.02488     14.74910        -0.001002      0.007074     -0.004389
      8.25840      1.59495     12.42064         0.003866     -0.004963      0.005869
      2.74932     -0.00786     14.86989         0.000298      0.001499      0.004160
     11.00258      7.94043     10.00000         0.104172      0.063772      0.056302
      8.25658      4.77330     14.80663        -0.006468      0.000875      0.010965
     12.39178      7.15338     14.77802         0.000841      0.007876     -0.004432
 -----------------------------------------------------------------------------------
    total drift:                               -0.031746      0.021658     -0.008885


--------------------------------------------------------------------------------------------------------



  FREE ENERGIE OF THE ION-ELECTRON SYSTEM (eV)
  ---------------------------------------------------
  free  energy   TOTEN  =      -192.24366468 eV

  energy  without entropy=     -192.02531940  energy(sigma->0) =     -192.13449204
 
 d Force = 0.5868839E-03[ 0.331E-03, 0.843E-03]  d Energy = 0.5853599E-03 0.152E-05
 d Force =-0.2140653E+01[-0.212E+01,-0.216E+01]  d Ewald  =-0.2140655E+01 0.231E-05


--------------------------------------------------------------------------------------------------------


    POTLOK:  cpu time    0.0577: real time    0.0586


--------------------------------------------------------------------------------------------------------


 stress matrix after NEB project (eV)
      0.00000      0.00000      0.00000
      0.00000      0.00000      0.00000
      0.00000      0.00000      0.00000
  FORCES: max atom, RMS     0.017995    0.008301
  FORCE total and by dimension    0.057513    0.014455
  Stress total and by dimension    0.000000    0.000000
 Conjugate gradient step on ions:
 trial-energy change:   -0.000585  1 .order   -0.000587   -0.000843   -0.000331
  (g-gl).g = 0.320E-03      g.g   = 0.314E-03  gl.gl    = 0.563E-03
 g(Force)  = 0.314E-03   g(Stress)= 0.000E+00 ortho     = 0.149E-04
 gamma     =   0.56777
 trial     =   2.61615
 opt step  =   4.31002  (harmonic =   4.31002) maximal distance =0.00689614
 next E    =  -192.243773   (d E  =  -0.00069)


--------------------------------------------------------------------------------------------------------


  
 reached required accuracy - stopping structural energy minimisation
     LOOP+:  cpu time   71.3784: real time   72.5887
    4ORBIT:  cpu time    0.0000: real time    0.0000

 total amount of memory used by VASP on root node    84353. kBytes
========================================================================

   base      :      30000. kBytes
   nonlr-proj:       4285. kBytes
   fftplans  :       4447. kBytes
   grid      :       6721. kBytes
   one-center:        124. kBytes
   wavefun   :      38776. kBytes
 
  
  
 General timing and accounting informations for this job:
 ========================================================
  
                  Total CPU time used (sec):     1644.400
                            User time (sec):     1574.821
                          System time (sec):       69.579
                         Elapsed time (sec):     1662.993
  
                   Maximum memory used (kb):      756004.
                   Average memory used (kb):           0.
  
                          Minor page faults:       643553
                          Major page faults:            2
                 Voluntary context switches:         8392
