<?xml version="1.0" encoding="ISO-8859-1"?>
<modeling>
 <generator>
  <i name="program" type="string">vasp </i>
  <i name="version" type="string">5.4.1  </i>
  <i name="subversion" type="string">24Jun15 (build Mar 14 2019 10:18:33) complex                          parallel </i>
  <i name="platform" type="string">INTEL-19.0.2+OPENMPI-3.1.3 </i>
  <i name="date" type="string">2023 01 30 </i>
  <i name="time" type="string">16:27:00 </i>
 </generator>
 <incar>
  <i type="int" name="ISTART">     0</i>
  <i type="string" name="PREC">normal</i>
  <i type="string" name="ALGO"> Fast</i>
  <i type="int" name="NELM">   500</i>
  <i type="int" name="IBRION">     2</i>
  <i type="int" name="NFREE">     2</i>
  <i name="EDIFF">      0.00000100</i>
  <i name="EDIFFG">     -0.02000000</i>
  <i type="int" name="NSW">   500</i>
  <i type="int" name="ISIF">     0</i>
  <i type="int" name="ISYM">     2</i>
  <i name="ENCUT">    400.00000000</i>
  <i name="POTIM">      0.35000000</i>
  <i type="string" name="LREAL"> Auto</i>
  <i type="logical" name="LPLANE"> T  </i>
  <i type="int" name="ISMEAR">     0</i>
  <i name="SIGMA">      0.10000000</i>
  <i type="int" name="NWRITE">     1</i>
  <i type="logical" name="LWAVE"> F  </i>
  <i type="logical" name="LCHARG"> F  </i>
  <i type="logical" name="LVTOT"> F  </i>
  <i type="logical" name="LORBIT"> F  </i>
  <i type="logical" name="LAECHG"> F  </i>
  <v type="int" name="KPOINT_BSE">    -1     0     0     0</v>
  <i type="int" name="NELM">   500</i>
  <i type="string" name="GGA"> PE          ! optPBE-vdW XC-functional</i>
  <i type="int" name="VOSKOWN">     1</i>
  <i type="logical" name="LDIPOL"> T  </i>
  <i type="logical" name="LMONO"> F  </i>
  <i type="int" name="IDIPOL">     3</i>
  <v name="DIPOL">      0.00000000      0.00000000      0.50000000</v>
 </incar>
 <kpoints>
  <generation param="Monkhorst-Pack">
   <v type="int" name="divisions">       2        2        1 </v>
   <v name="usershift">      0.00000000       0.00000000       0.00000000 </v>
   <v name="genvec1">      0.50000000      -0.00000000       0.00000000 </v>
   <v name="genvec2">      0.00000000       0.50000000       0.00000000 </v>
   <v name="genvec3">      0.00000000       0.00000000       1.00000000 </v>
   <v name="shift">      0.50000000       0.50000000       0.00000000 </v>
  </generation>
  <varray name="kpointlist" >
   <v>       0.25000000       0.25000000       0.00000000 </v>
   <v>       0.00000000       0.25000000       0.00000000 </v>
   <v>      -0.25000000       0.00000000       0.00000000 </v>
   <v>      -0.25000000       0.25000000       0.00000000 </v>
   <v>       0.50000000      -0.25000000       0.00000000 </v>
   <v>      -0.25000000       0.50000000       0.00000000 </v>
  </varray>
  <varray name="weights" >
   <v>       0.16666667 </v>
   <v>       0.16666667 </v>
   <v>       0.16666667 </v>
   <v>       0.16666667 </v>
   <v>       0.16666667 </v>
   <v>       0.16666667 </v>
  </varray>
 </kpoints>
 <parameters>
  <separator name="general" >
   <i type="string" name="SYSTEM">unknown system</i>
   <i type="logical" name="LCOMPAT"> F  </i>
  </separator>
  <separator name="electronic" >
   <i type="string" name="PREC">normal</i>
   <i name="ENMAX">    400.00000000</i>
   <i name="ENAUG">    416.23000000</i>
   <i name="EDIFF">      0.00000100</i>
   <i type="int" name="IALGO">    68</i>
   <i type="int" name="IWAVPR">    11</i>
   <i type="int" name="NBANDS">   306</i>
   <i name="NELECT">    504.00000000</i>
   <i type="int" name="TURBO">     0</i>
   <i type="int" name="IRESTART">     0</i>
   <i type="int" name="NREBOOT">     0</i>
   <i type="int" name="NMIN">     0</i>
   <i name="EREF">      0.00000000</i>
   <separator name="electronic smearing" >
    <i type="int" name="ISMEAR">     0</i>
    <i name="SIGMA">      0.10000000</i>
    <i name="KSPACING">      0.50000000</i>
    <i type="logical" name="KGAMMA"> T  </i>
   </separator>
   <separator name="electronic projectors" >
    <i type="logical" name="LREAL"> T  </i>
    <v name="ROPT">     -0.00050000     -0.00050000</v>
    <i type="int" name="LMAXPAW">  -100</i>
    <i type="int" name="LMAXMIX">     2</i>
    <i type="logical" name="NLSPLINE"> F  </i>
   </separator>
   <separator name="electronic startup" >
    <i type="int" name="ISTART">     0</i>
    <i type="int" name="ICHARG">     2</i>
    <i type="int" name="INIWAV">     1</i>
   </separator>
   <separator name="electronic spin" >
    <i type="int" name="ISPIN">     1</i>
    <i type="logical" name="LNONCOLLINEAR"> F  </i>
    <v name="MAGMOM">      1.00000000      1.00000000      1.00000000      1.00000000      1.00000000      1.00000000      1.00000000      1.00000000      1.00000000      1.00000000      1.00000000      1.00000000      1.00000000      1.00000000      1.00000000      1.00000000      1.00000000      1.00000000      1.00000000      1.00000000
      1.00000000      1.00000000      1.00000000      1.00000000      1.00000000      1.00000000      1.00000000      1.00000000      1.00000000      1.00000000      1.00000000      1.00000000      1.00000000      1.00000000      1.00000000      1.00000000      1.00000000      1.00000000      1.00000000      1.00000000
      1.00000000      1.00000000      1.00000000      1.00000000      1.00000000      1.00000000      1.00000000      1.00000000</v>
    <i name="NUPDOWN">     -1.00000000</i>
    <i type="logical" name="LSORBIT"> F  </i>
    <v name="SAXIS">      0.00000000      0.00000000      1.00000000</v>
    <i type="logical" name="LSPIRAL"> F  </i>
    <v name="QSPIRAL">      0.00000000      0.00000000      0.00000000</v>
    <i type="logical" name="LZEROZ"> F  </i>
   </separator>
   <separator name="electronic exchange-correlation" >
    <i type="logical" name="LASPH"> F  </i>
    <i type="logical" name="LMETAGGA"> F  </i>
   </separator>
   <separator name="electronic convergence" >
    <i type="int" name="NELM">   500</i>
    <i type="int" name="NELMDL">    -5</i>
    <i type="int" name="NELMIN">     2</i>
    <i name="ENINI">    400.00000000</i>
    <separator name="electronic convergence detail" >
     <i type="logical" name="LDIAG"> T  </i>
     <i type="logical" name="LSUBROT"> F  </i>
     <i name="WEIMIN">      0.00100000</i>
     <i name="EBREAK">      0.00000000</i>
     <i name="DEPER">      0.30000000</i>
     <i type="int" name="NRMM">     4</i>
     <i name="TIME">      0.40000000</i>
    </separator>
   </separator>
   <separator name="electronic mixer" >
    <i name="AMIX">      0.40000000</i>
    <i name="BMIX">      1.00000000</i>
    <i name="AMIN">      0.10000000</i>
    <i name="AMIX_MAG">      1.60000000</i>
    <i name="BMIX_MAG">      1.00000000</i>
    <separator name="electronic mixer details" >
     <i type="int" name="IMIX">     4</i>
     <i type="logical" name="MIXFIRST"> F  </i>
     <i type="int" name="MAXMIX">   -45</i>
     <i name="WC">    100.00000000</i>
     <i type="int" name="INIMIX">     1</i>
     <i type="int" name="MIXPRE">     1</i>
     <i type="int" name="MREMOVE">     5</i>
    </separator>
   </separator>
   <separator name="electronic dipolcorrection" >
    <i type="logical" name="LDIPOL"> T  </i>
    <i type="logical" name="LMONO"> F  </i>
    <i type="int" name="IDIPOL">     3</i>
    <i name="EPSILON">      1.00000000</i>
    <v name="DIPOL">      0.00000000      0.00000000      0.50000000</v>
    <i name="EFIELD">      0.00000000</i>
   </separator>
  </separator>
  <separator name="grids" >
   <i type="int" name="NGX">    54</i>
   <i type="int" name="NGY">    54</i>
   <i type="int" name="NGZ">   120</i>
   <i type="int" name="NGXF">   108</i>
   <i type="int" name="NGYF">   108</i>
   <i type="int" name="NGZF">   240</i>
   <i type="logical" name="ADDGRID"> F  </i>
  </separator>
  <separator name="ionic" >
   <i type="int" name="NSW">   500</i>
   <i type="int" name="IBRION">     2</i>
   <i type="int" name="ISIF">     0</i>
   <i name="PSTRESS">      0.00000000</i>
   <i name="EDIFFG">     -0.02000000</i>
   <i type="int" name="NFREE">     2</i>
   <i name="POTIM">      0.35000000</i>
   <i name="SMASS">     -3.00000000</i>
   <i name="SCALEE">      1.00000000</i>
  </separator>
  <separator name="ionic md" >
   <i name="TEBEG">      0.00010000</i>
   <i name="TEEND">      0.00010000</i>
   <i type="int" name="NBLOCK">     1</i>
   <i type="int" name="KBLOCK">   500</i>
   <i type="int" name="NPACO">   256</i>
   <i name="APACO">     16.00000000</i>
  </separator>
  <separator name="symmetry" >
   <i type="int" name="ISYM">     2</i>
   <i name="SYMPREC">      0.00001000</i>
  </separator>
  <separator name="dos" >
   <i type="logical" name="LORBIT"> F  </i>
   <v name="RWIGS">     -1.00000000     -1.00000000</v>
   <i type="int" name="NEDOS">   301</i>
   <i name="EMIN">     10.00000000</i>
   <i name="EMAX">    -10.00000000</i>
   <i name="EFERMI">      0.00000000</i>
  </separator>
  <separator name="writing" >
   <i type="int" name="NWRITE">     1</i>
   <i type="logical" name="LWAVE"> F  </i>
   <i type="logical" name="LCHARG"> F  </i>
   <i type="logical" name="LPARD"> F  </i>
   <i type="logical" name="LVTOT"> F  </i>
   <i type="logical" name="LVHAR"> F  </i>
   <i type="logical" name="LELF"> F  </i>
   <i type="logical" name="LOPTICS"> F  </i>
   <v name="STM">      0.00000000      0.00000000      0.00000000      0.00000000      0.00000000      0.00000000      0.00000000</v>
  </separator>
  <separator name="performance" >
   <i type="int" name="NPAR">     6</i>
   <i type="int" name="NSIM">     4</i>
   <i type="int" name="NBLK">    -1</i>
   <i type="logical" name="LPLANE"> T  </i>
   <i type="logical" name="LSCALAPACK"> T  </i>
   <i type="logical" name="LSCAAWARE"> F  </i>
   <i type="logical" name="LSCALU"> F  </i>
   <i type="logical" name="LASYNC"> F  </i>
   <i type="logical" name="LORBITALREAL"> F  </i>
  </separator>
  <separator name="miscellaneous" >
   <i type="int" name="IDIOT">     3</i>
   <i type="logical" name="LMUSIC"> F  </i>
   <v name="POMASS">    196.96600000    106.42000000</v>
   <v name="DARWINR">      0.00000000      0.00000000</v>
   <v name="DARWINV">      1.00000000      1.00000000</v>
   <i type="logical" name="LCORR"> T  </i>
  </separator>
  <i type="logical" name="GGA_COMPAT"> T  </i>
  <i type="logical" name="LBERRY"> F  </i>
  <i type="int" name="ICORELEVEL">     0</i>
  <i type="logical" name="LDAU"> F  </i>
  <i type="int" name="I_CONSTRAINED_M">     0</i>
  <separator name="electronic exchange-correlation" >
   <i type="string" name="GGA">PE</i>
   <i type="int" name="VOSKOWN">     1</i>
   <i type="logical" name="LHFCALC"> F  </i>
   <i type="string" name="PRECFOCK"></i>
   <i type="logical" name="LSYMGRAD"> F  </i>
   <i type="logical" name="LHFONE"> F  </i>
   <i type="logical" name="LRHFCALC"> F  </i>
   <i type="logical" name="LTHOMAS"> F  </i>
   <i type="logical" name="LMODELHF"> F  </i>
   <i name="ENCUT4O">     -1.00000000</i>
   <i type="int" name="EXXOEP">     0</i>
   <i type="int" name="FOURORBIT">     0</i>
   <i name="AEXX">      0.00000000</i>
   <i name="HFALPHA">      0.00000000</i>
   <i name="MCALPHA">      0.00000000</i>
   <i name="ALDAX">      1.00000000</i>
   <i name="AGGAX">      1.00000000</i>
   <i name="ALDAC">      1.00000000</i>
   <i name="AGGAC">      1.00000000</i>
   <i type="int" name="NKREDX">     1</i>
   <i type="int" name="NKREDY">     1</i>
   <i type="int" name="NKREDZ">     1</i>
   <i type="logical" name="SHIFTRED"> F  </i>
   <i type="logical" name="ODDONLY"> F  </i>
   <i type="logical" name="EVENONLY"> F  </i>
   <i type="int" name="LMAXFOCK">     0</i>
   <i type="int" name="NMAXFOCKAE">     0</i>
   <i type="logical" name="LFOCKAEDFT"> F  </i>
   <i name="HFSCREEN">      0.00000000</i>
   <i name="HFSCREENC">      0.00000000</i>
   <i type="int" name="NBANDSGWLOW">     0</i>
  </separator>
  <separator name="vdW DFT" >
   <i type="logical" name="LUSE_VDW"> F  </i>
   <i name="Zab_VDW">     -0.84910000</i>
   <i name="PARAM1">      0.12340000</i>
   <i name="PARAM2">      1.00000000</i>
   <i name="PARAM3">      0.00000000</i>
  </separator>
  <separator name="model GW" >
   <i type="int" name="MODEL_GW">     0</i>
   <i name="MODEL_EPS0">     32.09595293</i>
   <i name="MODEL_ALPHA">      1.00000000</i>
  </separator>
  <separator name="linear response parameters" >
   <i type="logical" name="LEPSILON"> F  </i>
   <i type="logical" name="LRPA"> F  </i>
   <i type="logical" name="LNABLA"> F  </i>
   <i type="logical" name="LVEL"> F  </i>
   <i type="int" name="KINTER">     0</i>
   <i name="CSHIFT">      0.10000000</i>
   <i name="OMEGAMAX">     -1.00000000</i>
   <i name="DEG_THRESHOLD">      0.00200000</i>
  </separator>
  <separator name="orbital magnetization" >
   <i type="logical" name="NUCIND"> F  </i>
   <v name="MAGPOS">      0.00000000      0.00000000      0.00000000</v>
   <i type="logical" name="LNICSALL"> T  </i>
   <i type="logical" name="ORBITALMAG"> F  </i>
   <i type="logical" name="LMAGBLOCH"> F  </i>
   <i type="logical" name="LCHIMAG"> F  </i>
   <i type="logical" name="LGAUGE"> T  </i>
   <i type="int" name="MAGATOM">     0</i>
   <v name="MAGDIPOL">      0.00000000      0.00000000      0.00000000</v>
   <v name="AVECCONST">      0.00000000      0.00000000      0.00000000</v>
  </separator>
  <separator name="response functions" >
   <i type="logical" name="LADDER"> F  </i>
   <i type="logical" name="LFXC"> F  </i>
   <i type="logical" name="LHARTREE"> T  </i>
   <i type="int" name="IBSE">     0</i>
   <v type="int" name="KPOINT">    -1     0     0     0</v>
   <i type="logical" name="LTCTE"> F  </i>
   <i type="logical" name="LTETE"> F  </i>
   <i type="logical" name="LTRIPLET"> F  </i>
   <i type="logical" name="LFXCEPS"> F  </i>
   <i type="logical" name="LFXHEG"> F  </i>
   <i type="int" name="NATURALO">     0</i>
   <i type="logical" name="L2ORDER"> F  </i>
   <i type="logical" name="LUSEW"> F  </i>
   <i name="ENCUTGW">     -2.00000000</i>
   <i name="ENCUTGWSOFT">     -2.00000000</i>
   <i name="ENCUTLF">     -1.00000000</i>
   <i type="int" name="LMAXMP2">    -1</i>
   <i name="SCISSOR">      0.00000000</i>
   <i type="int" name="NOMEGA">     0</i>
   <i type="int" name="NOMEGAR">     0</i>
   <i type="int" name="NBANDSGW">    -1</i>
   <i type="int" name="NBANDSO">    -1</i>
   <i type="int" name="NBANDSV">    -1</i>
   <i type="int" name="NELM">   500</i>
   <i type="int" name="NELMHF">     1</i>
   <i type="int" name="DIM">     3</i>
   <i type="int" name="ANTIRES">     0</i>
   <i name="OMEGAMAX">    -30.00000000</i>
   <i name="OMEGAMIN">    -30.00000000</i>
   <i name="OMEGATL">   -200.00000000</i>
   <i type="int" name="OMEGAGRID">     0</i>
   <i name="CSHIFT">     -0.10000000</i>
   <i type="logical" name="SELFENERGY"> F  </i>
   <i type="logical" name="LSPECTRAL"> F  </i>
   <i type="logical" name="LSPECTRALGW"> F  </i>
   <i type="logical" name="LSINGLES"> F  </i>
   <i type="logical" name="LFERMIGW"> F  </i>
   <i type="logical" name="ODDONLYGW"> F  </i>
   <i type="logical" name="EVENONLYGW"> F  </i>
   <i type="int" name="NKREDLFX">     1</i>
   <i type="int" name="NKREDLFY">     1</i>
   <i type="int" name="NKREDLFZ">     1</i>
   <i type="int" name="MAXMEM">  1800</i>
   <i type="int" name="TELESCOPE">     0</i>
   <i type="int" name="TAUPAR">     1</i>
   <i type="int" name="OMEGAPAR">    -1</i>
   <i name="LAMBDA">      1.00000000</i>
  </separator>
  <separator name="External order field" >
   <i name="OFIELD_KAPPA">      0.00000000</i>
   <v name="OFIELD_K">      0.00000000      0.00000000      0.00000000</v>
   <i name="OFIELD_Q6_NEAR">      0.00000000</i>
   <i name="OFIELD_Q6_FAR">      0.00000000</i>
   <i name="OFIELD_A">      0.00000000</i>
  </separator>
 </parameters>
 <atominfo>
  <atoms>      48 </atoms>
  <types>       2 </types>
  <array name="atoms" >
   <dimension dim="1">ion</dimension>
   <field type="string">element</field>
   <field type="int">atomtype</field>
   <set>
    <rc><c>Au</c><c>   1</c></rc>
    <rc><c>Au</c><c>   1</c></rc>
    <rc><c>Au</c><c>   1</c></rc>
    <rc><c>Au</c><c>   1</c></rc>
    <rc><c>Au</c><c>   1</c></rc>
    <rc><c>Au</c><c>   1</c></rc>
    <rc><c>Au</c><c>   1</c></rc>
    <rc><c>Au</c><c>   1</c></rc>
    <rc><c>Au</c><c>   1</c></rc>
    <rc><c>Au</c><c>   1</c></rc>
    <rc><c>Au</c><c>   1</c></rc>
    <rc><c>Au</c><c>   1</c></rc>
    <rc><c>Au</c><c>   1</c></rc>
    <rc><c>Au</c><c>   1</c></rc>
    <rc><c>Au</c><c>   1</c></rc>
    <rc><c>Au</c><c>   1</c></rc>
    <rc><c>Au</c><c>   1</c></rc>
    <rc><c>Au</c><c>   1</c></rc>
    <rc><c>Au</c><c>   1</c></rc>
    <rc><c>Au</c><c>   1</c></rc>
    <rc><c>Au</c><c>   1</c></rc>
    <rc><c>Au</c><c>   1</c></rc>
    <rc><c>Au</c><c>   1</c></rc>
    <rc><c>Au</c><c>   1</c></rc>
    <rc><c>Pd</c><c>   2</c></rc>
    <rc><c>Pd</c><c>   2</c></rc>
    <rc><c>Pd</c><c>   2</c></rc>
    <rc><c>Pd</c><c>   2</c></rc>
    <rc><c>Pd</c><c>   2</c></rc>
    <rc><c>Pd</c><c>   2</c></rc>
    <rc><c>Pd</c><c>   2</c></rc>
    <rc><c>Pd</c><c>   2</c></rc>
    <rc><c>Pd</c><c>   2</c></rc>
    <rc><c>Pd</c><c>   2</c></rc>
    <rc><c>Pd</c><c>   2</c></rc>
    <rc><c>Pd</c><c>   2</c></rc>
    <rc><c>Pd</c><c>   2</c></rc>
    <rc><c>Pd</c><c>   2</c></rc>
    <rc><c>Pd</c><c>   2</c></rc>
    <rc><c>Pd</c><c>   2</c></rc>
    <rc><c>Pd</c><c>   2</c></rc>
    <rc><c>Pd</c><c>   2</c></rc>
    <rc><c>Pd</c><c>   2</c></rc>
    <rc><c>Pd</c><c>   2</c></rc>
    <rc><c>Pd</c><c>   2</c></rc>
    <rc><c>Pd</c><c>   2</c></rc>
    <rc><c>Pd</c><c>   2</c></rc>
    <rc><c>Pd</c><c>   2</c></rc>
   </set>
  </array>
  <array name="atomtypes" >
   <dimension dim="1">type</dimension>
   <field type="int">atomspertype</field>
   <field type="string">element</field>
   <field>mass</field>
   <field>valence</field>
   <field type="string">pseudopotential</field>
   <set>
    <rc><c>  24</c><c>Au</c><c>    196.96600000</c><c>     11.00000000</c><c>  PAW_PBE Au 04Oct2007                  </c></rc>
    <rc><c>  24</c><c>Pd</c><c>    106.42000000</c><c>     10.00000000</c><c>  PAW_PBE Pd 04Jan2005                  </c></rc>
   </set>
  </array>
 </atominfo>
 <structure name="initialpos" >
  <crystal>
   <varray name="basis" >
    <v>      11.00258152       0.00000000       0.00000000 </v>
    <v>       5.50129076       9.52851510       0.00000000 </v>
    <v>       0.00000000       0.00000000      24.49178509 </v>
   </varray>
   <i name="volume">   2567.67623402 </i>
   <varray name="rec_basis" >
    <v>       0.09088776      -0.05247407       0.00000000 </v>
    <v>       0.00000000       0.10494815       0.00000000 </v>
    <v>       0.00000000       0.00000000       0.04083002 </v>
   </varray>
  </crystal>
  <varray name="positions" >
   <v>       0.08333333       0.08333333       0.40830017 </v>
   <v>       0.91666667       0.41666667       0.50000000 </v>
   <v>       0.00000000       0.00000000       0.59169983 </v>
   <v>       0.08333333       0.58333333       0.40830017 </v>
   <v>       0.08333333       0.33333333       0.40830017 </v>
   <v>       0.16666667       0.16666667       0.50000000 </v>
   <v>       0.00000000       0.25000000       0.59169983 </v>
   <v>       0.25000000       0.75000000       0.59169983 </v>
   <v>       0.16666667       0.41666667       0.50000000 </v>
   <v>       0.25000000       0.25000000       0.59169983 </v>
   <v>       0.16666667       0.66666667       0.50000000 </v>
   <v>       0.25000000       0.50000000       0.59169983 </v>
   <v>       0.00000000       0.50000000       0.59169983 </v>
   <v>       0.16666667       0.91666667       0.50000000 </v>
   <v>       0.66666667       0.91666667       0.50000000 </v>
   <v>       0.50000000       0.00000000       0.59169983 </v>
   <v>       0.58333333       0.33333333       0.40830017 </v>
   <v>       0.50000000       0.25000000       0.59169983 </v>
   <v>       0.41666667       0.66666667       0.50000000 </v>
   <v>       0.50000000       0.75000000       0.59169983 </v>
   <v>       0.83333333       0.08333333       0.40830017 </v>
   <v>       0.75000000       0.25000000       0.59169983 </v>
   <v>       0.66666667       0.66666667       0.50000000 </v>
   <v>       0.33333333       0.83333333       0.40830017 </v>
   <v>       0.41666667       0.41666667       0.50000000 </v>
   <v>       0.91666667       0.66666667       0.50000000 </v>
   <v>       0.41666667       0.16666667       0.50000000 </v>
   <v>       0.58333333       0.08333333       0.40830017 </v>
   <v>       0.33333333       0.58333333       0.40830017 </v>
   <v>       0.91666667       0.91666667       0.50000000 </v>
   <v>       0.00000000       0.75000000       0.59169983 </v>
   <v>       0.33333333       0.08333333       0.40830017 </v>
   <v>       0.58333333       0.58333333       0.40830017 </v>
   <v>       0.08333333       0.83333333       0.40830017 </v>
   <v>       0.33333333       0.33333333       0.40830017 </v>
   <v>       0.75000000       0.50000000       0.59169983 </v>
   <v>       0.41666667       0.91666667       0.50000000 </v>
   <v>       0.66666667       0.41666667       0.50000000 </v>
   <v>       0.83333333       0.83333333       0.40830017 </v>
   <v>       0.91666667       0.16666667       0.50000000 </v>
   <v>       0.83333333       0.58333333       0.40830017 </v>
   <v>       0.83333333       0.33333333       0.40830017 </v>
   <v>       0.75000000       0.00000000       0.59169983 </v>
   <v>       0.66666667       0.16666667       0.50000000 </v>
   <v>       0.25000000       0.00000000       0.59169983 </v>
   <v>       0.58333333       0.83333333       0.40830017 </v>
   <v>       0.50000000       0.50000000       0.59169983 </v>
   <v>       0.75000000       0.75000000       0.59169983 </v>
  </varray>
  <varray name="selective"  type="logical" >
   <v type="logical" >  F  F  F </v>
   <v type="logical" >  T  T  T </v>
   <v type="logical" >  T  T  T </v>
   <v type="logical" >  F  F  F </v>
   <v type="logical" >  F  F  F </v>
   <v type="logical" >  T  T  T </v>
   <v type="logical" >  T  T  T </v>
   <v type="logical" >  T  T  T </v>
   <v type="logical" >  T  T  T </v>
   <v type="logical" >  T  T  T </v>
   <v type="logical" >  T  T  T </v>
   <v type="logical" >  T  T  T </v>
   <v type="logical" >  T  T  T </v>
   <v type="logical" >  T  T  T </v>
   <v type="logical" >  T  T  T </v>
   <v type="logical" >  T  T  T </v>
   <v type="logical" >  F  F  F </v>
   <v type="logical" >  T  T  T </v>
   <v type="logical" >  T  T  T </v>
   <v type="logical" >  T  T  T </v>
   <v type="logical" >  F  F  F </v>
   <v type="logical" >  T  T  T </v>
   <v type="logical" >  T  T  T </v>
   <v type="logical" >  F  F  F </v>
   <v type="logical" >  T  T  T </v>
   <v type="logical" >  T  T  T </v>
   <v type="logical" >  T  T  T </v>
   <v type="logical" >  F  F  F </v>
   <v type="logical" >  F  F  F </v>
   <v type="logical" >  T  T  T </v>
   <v type="logical" >  T  T  T </v>
   <v type="logical" >  F  F  F </v>
   <v type="logical" >  F  F  F </v>
   <v type="logical" >  F  F  F </v>
   <v type="logical" >  F  F  F </v>
   <v type="logical" >  T  T  T </v>
   <v type="logical" >  T  T  T </v>
   <v type="logical" >  T  T  T </v>
   <v type="logical" >  F  F  F </v>
   <v type="logical" >  T  T  T </v>
   <v type="logical" >  F  F  F </v>
   <v type="logical" >  F  F  F </v>
   <v type="logical" >  T  T  T </v>
   <v type="logical" >  T  T  T </v>
   <v type="logical" >  T  T  T </v>
   <v type="logical" >  F  F  F </v>
   <v type="logical" >  T  T  T </v>
   <v type="logical" >  T  T  T </v>
  </varray>
  <nose>
   <v>      -3.00000000       0.00000000       0.00010000       0.00010000 </v>
  </nose>
 </structure>
 <calculation>
  <scstep>
   <time name="dav">    9.03    9.10</time>
   <time name="total">    9.09    9.17</time>
   <dipole>
    <v name="dipole">      0.00000000       0.00000000      -0.00000296 </v>
    <i name="Tr[quadrupol]"> -10250.42060574 </i>
    <i name="Echarged">      0.00000000 </i>
    <i name="Edipol_quadrupol">      0.00000000 </i>
    <i name="Eion">      0.00000000 </i>
   </dipole>
   <energy>
    <i name="alphaZ">    805.86936616 </i>
    <i name="ewald"> 200169.20993979 </i>
    <i name="hartreedc">-242583.45269241 </i>
    <i name="XCdc">   -327.62916105 </i>
    <i name="pawpsdc">  40340.05962942 </i>
    <i name="pawaedc"> -38292.62782345 </i>
    <i name="eentropy">     -0.12630271 </i>
    <i name="bandstr">   1429.18020863 </i>
    <i name="atom">  41659.78587232 </i>
    <i name="e_fr_energy">   3200.26903671 </i>
    <i name="e_wo_entrp">   3200.39533942 </i>
    <i name="e_0_energy">   3200.33218807 </i>
   </energy>
  </scstep>
  <scstep>
   <time name="dav">   10.62   10.62</time>
   <time name="total">   10.62   10.63</time>
   <dipole>
    <v name="dipole">      0.00000000       0.00000000      -0.00000296 </v>
    <i name="Tr[quadrupol]"> -10250.42060574 </i>
    <i name="Echarged">      0.00000000 </i>
    <i name="Edipol_quadrupol">      0.00000000 </i>
    <i name="Eion">      0.00000000 </i>
   </dipole>
   <energy>
    <i name="e_fr_energy">     15.01768114 </i>
    <i name="e_wo_entrp">     15.15374505 </i>
    <i name="e_0_energy">     15.08571309 </i>
   </energy>
  </scstep>
  <scstep>
   <time name="dav">   10.37   10.39</time>
   <time name="total">   10.37   10.39</time>
   <dipole>
    <v name="dipole">      0.00000000       0.00000000      -0.00000296 </v>
    <i name="Tr[quadrupol]"> -10250.42060574 </i>
    <i name="Echarged">      0.00000000 </i>
    <i name="Edipol_quadrupol">      0.00000000 </i>
    <i name="Eion">      0.00000000 </i>
   </dipole>
   <energy>
    <i name="e_fr_energy">   -200.60031810 </i>
    <i name="e_wo_entrp">   -200.40633445 </i>
    <i name="e_0_energy">   -200.50332628 </i>
   </energy>
  </scstep>
  <scstep>
   <time name="dav">   10.61   10.63</time>
   <time name="total">   10.62   10.64</time>
   <dipole>
    <v name="dipole">      0.00000000       0.00000000      -0.00000296 </v>
    <i name="Tr[quadrupol]"> -10250.42060574 </i>
    <i name="Echarged">      0.00000000 </i>
    <i name="Edipol_quadrupol">      0.00000000 </i>
    <i name="Eion">      0.00000000 </i>
   </dipole>
   <energy>
    <i name="e_fr_energy">   -206.45168686 </i>
    <i name="e_wo_entrp">   -206.24960525 </i>
    <i name="e_0_energy">   -206.35064606 </i>
   </energy>
  </scstep>
  <scstep>
   <time name="dav">   11.63   11.73</time>
   <time name="total">   11.94   12.04</time>
   <dipole>
    <v name="dipole">      0.00000000       0.00000000      -0.00000296 </v>
    <i name="Tr[quadrupol]"> -10250.42060574 </i>
    <i name="Echarged">      0.00000000 </i>
    <i name="Edipol_quadrupol">      0.00000000 </i>
    <i name="Eion">      0.00000000 </i>
   </dipole>
   <energy>
    <i name="e_fr_energy">   -206.63818293 </i>
    <i name="e_wo_entrp">   -206.43539588 </i>
    <i name="e_0_energy">   -206.53678941 </i>
   </energy>
  </scstep>
  <scstep>
   <time name="diag">    1.61    1.61</time>
   <time name="diis">    4.30    4.30</time>
   <time name="orth">    0.40    0.40</time>
   <time name="total">    6.67    6.68</time>
   <dipole>
    <v name="dipole">      0.00000000       0.00000000      -1.35008329 </v>
    <i name="Tr[quadrupol]"> -10251.81876074 </i>
    <i name="Echarged">      0.00000000 </i>
    <i name="Edipol_quadrupol">      0.00000000 </i>
    <i name="Eion">      0.00000000 </i>
   </dipole>
   <energy>
    <i name="e_fr_energy">   -207.55636484 </i>
    <i name="e_wo_entrp">   -207.27131636 </i>
    <i name="e_0_energy">   -207.41384060 </i>
   </energy>
  </scstep>
  <scstep>
   <time name="diag">    1.61    1.62</time>
   <time name="diis">    4.25    4.25</time>
   <time name="orth">    0.40    0.40</time>
   <time name="total">    6.63    6.64</time>
   <dipole>
    <v name="dipole">      0.00000000       0.00000000       1.52385559 </v>
    <i name="Tr[quadrupol]"> -10251.02658069 </i>
    <i name="Echarged">      0.00000000 </i>
    <i name="Edipol_quadrupol">      0.00000000 </i>
    <i name="Eion">      0.00000000 </i>
   </dipole>
   <energy>
    <i name="e_fr_energy">   -219.54172773 </i>
    <i name="e_wo_entrp">   -219.33220937 </i>
    <i name="e_0_energy">   -219.43696855 </i>
   </energy>
  </scstep>
  <scstep>
   <time name="diag">    1.61    1.61</time>
   <time name="diis">    4.22    4.22</time>
   <time name="orth">    0.40    0.40</time>
   <time name="total">    6.60    6.61</time>
   <dipole>
    <v name="dipole">      0.00000000       0.00000000      -1.27338312 </v>
    <i name="Tr[quadrupol]"> -10251.58999289 </i>
    <i name="Echarged">      0.00000000 </i>
    <i name="Edipol_quadrupol">      0.00000000 </i>
    <i name="Eion">      0.00000000 </i>
   </dipole>
   <energy>
    <i name="e_fr_energy">   -214.96211764 </i>
    <i name="e_wo_entrp">   -214.74323804 </i>
    <i name="e_0_energy">   -214.85267784 </i>
   </energy>
  </scstep>
  <scstep>
   <time name="diag">    1.61    1.61</time>
   <time name="diis">    4.20    4.20</time>
   <time name="orth">    0.41    0.41</time>
   <time name="total">    6.58    6.59</time>
   <dipole>
    <v name="dipole">      0.00000000       0.00000000      -0.01179018 </v>
    <i name="Tr[quadrupol]"> -10252.04991381 </i>
    <i name="Echarged">      0.00000000 </i>
    <i name="Edipol_quadrupol">      0.00000000 </i>
    <i name="Eion">      0.00000000 </i>
   </dipole>
   <energy>
    <i name="e_fr_energy">   -209.65901319 </i>
    <i name="e_wo_entrp">   -209.45604059 </i>
    <i name="e_0_energy">   -209.55752689 </i>
   </energy>
  </scstep>
  <scstep>
   <time name="diag">    1.62    1.62</time>
   <time name="diis">    4.16    4.23</time>
   <time name="orth">    0.40    0.41</time>
   <time name="total">    6.55    6.63</time>
   <dipole>
    <v name="dipole">      0.00000000       0.00000000      -0.54562809 </v>
    <i name="Tr[quadrupol]"> -10252.00574657 </i>
    <i name="Echarged">      0.00000000 </i>
    <i name="Edipol_quadrupol">      0.00000000 </i>
    <i name="Eion">      0.00000000 </i>
   </dipole>
   <energy>
    <i name="e_fr_energy">   -198.24360608 </i>
    <i name="e_wo_entrp">   -198.05724632 </i>
    <i name="e_0_energy">   -198.15042620 </i>
   </energy>
  </scstep>
  <scstep>
   <time name="diag">    1.61    1.61</time>
   <time name="diis">    4.20    4.21</time>
   <time name="orth">    0.38    0.38</time>
   <time name="total">    6.56    6.57</time>
   <dipole>
    <v name="dipole">      0.00000000       0.00000000      -0.31700364 </v>
    <i name="Tr[quadrupol]"> -10252.58374454 </i>
    <i name="Echarged">      0.00000000 </i>
    <i name="Edipol_quadrupol">      0.00000000 </i>
    <i name="Eion">      0.00000000 </i>
   </dipole>
   <energy>
    <i name="e_fr_energy">   -193.95294170 </i>
    <i name="e_wo_entrp">   -193.77899848 </i>
    <i name="e_0_energy">   -193.86597009 </i>
   </energy>
  </scstep>
  <scstep>
   <time name="diag">    1.59    1.59</time>
   <time name="diis">    4.21    4.21</time>
   <time name="orth">    0.38    0.38</time>
   <time name="total">    6.55    6.56</time>
   <dipole>
    <v name="dipole">      0.00000000       0.00000000      -0.24994477 </v>
    <i name="Tr[quadrupol]"> -10252.73277784 </i>
    <i name="Echarged">      0.00000000 </i>
    <i name="Edipol_quadrupol">      0.00000000 </i>
    <i name="Eion">      0.00000000 </i>
   </dipole>
   <energy>
    <i name="e_fr_energy">   -190.28750163 </i>
    <i name="e_wo_entrp">   -190.07013357 </i>
    <i name="e_0_energy">   -190.17881760 </i>
   </energy>
  </scstep>
  <scstep>
   <time name="diag">    1.58    1.58</time>
   <time name="diis">    4.21    4.21</time>
   <time name="orth">    0.38    0.38</time>
   <time name="total">    6.54    6.54</time>
   <dipole>
    <v name="dipole">      0.00000000       0.00000000      -0.20515020 </v>
    <i name="Tr[quadrupol]"> -10252.89255063 </i>
    <i name="Echarged">      0.00000000 </i>
    <i name="Edipol_quadrupol">      0.00000000 </i>
    <i name="Eion">      0.00000000 </i>
   </dipole>
   <energy>
    <i name="e_fr_energy">   -189.14433498 </i>
    <i name="e_wo_entrp">   -188.91679696 </i>
    <i name="e_0_energy">   -189.03056597 </i>
   </energy>
  </scstep>
  <scstep>
   <time name="diag">    1.58    1.58</time>
   <time name="diis">    5.08    5.12</time>
   <time name="orth">    0.38    0.38</time>
   <time name="total">    7.40    7.44</time>
   <dipole>
    <v name="dipole">      0.00000000       0.00000000      -0.17280115 </v>
    <i name="Tr[quadrupol]"> -10253.12340712 </i>
    <i name="Echarged">      0.00000000 </i>
    <i name="Edipol_quadrupol">      0.00000000 </i>
    <i name="Eion">      0.00000000 </i>
   </dipole>
   <energy>
    <i name="e_fr_energy">   -189.17572071 </i>
    <i name="e_wo_entrp">   -188.94711454 </i>
    <i name="e_0_energy">   -189.06141762 </i>
   </energy>
  </scstep>
  <scstep>
   <time name="diag">    1.59    1.59</time>
   <time name="diis">    4.28    4.29</time>
   <time name="orth">    0.38    0.38</time>
   <time name="total">    6.62    6.62</time>
   <dipole>
    <v name="dipole">      0.00000000       0.00000000      -0.17760303 </v>
    <i name="Tr[quadrupol]"> -10253.38971149 </i>
    <i name="Echarged">      0.00000000 </i>
    <i name="Edipol_quadrupol">      0.00000000 </i>
    <i name="Eion">      0.00000000 </i>
   </dipole>
   <energy>
    <i name="e_fr_energy">   -189.08388710 </i>
    <i name="e_wo_entrp">   -188.85855976 </i>
    <i name="e_0_energy">   -188.97122343 </i>
   </energy>
  </scstep>
  <scstep>
   <time name="diag">    1.60    1.60</time>
   <time name="diis">    4.12    4.20</time>
   <time name="orth">    0.38    0.38</time>
   <time name="total">    6.46    6.54</time>
   <dipole>
    <v name="dipole">      0.00000000       0.00000000      -0.15186422 </v>
    <i name="Tr[quadrupol]"> -10253.82208856 </i>
    <i name="Echarged">      0.00000000 </i>
    <i name="Edipol_quadrupol">      0.00000000 </i>
    <i name="Eion">      0.00000000 </i>
   </dipole>
   <energy>
    <i name="e_fr_energy">   -188.97918961 </i>
    <i name="e_wo_entrp">   -188.73312522 </i>
    <i name="e_0_energy">   -188.85615742 </i>
   </energy>
  </scstep>
  <scstep>
   <time name="diag">    1.59    1.60</time>
   <time name="diis">    4.27    4.27</time>
   <time name="orth">    0.38    0.38</time>
   <time name="total">    6.62    6.62</time>
   <dipole>
    <v name="dipole">      0.00000000       0.00000000      -0.12709099 </v>
    <i name="Tr[quadrupol]"> -10254.15099713 </i>
    <i name="Echarged">      0.00000000 </i>
    <i name="Edipol_quadrupol">      0.00000000 </i>
    <i name="Eion">      0.00000000 </i>
   </dipole>
   <energy>
    <i name="e_fr_energy">   -188.75702166 </i>
    <i name="e_wo_entrp">   -188.52302378 </i>
    <i name="e_0_energy">   -188.64002272 </i>
   </energy>
  </scstep>
  <scstep>
   <time name="diag">    1.58    1.58</time>
   <time name="diis">    4.28    4.29</time>
   <time name="orth">    0.38    0.38</time>
   <time name="total">    6.62    6.62</time>
   <dipole>
    <v name="dipole">      0.00000000       0.00000000      -0.06978635 </v>
    <i name="Tr[quadrupol]"> -10254.41592169 </i>
    <i name="Echarged">      0.00000000 </i>
    <i name="Edipol_quadrupol">      0.00000000 </i>
    <i name="Eion">      0.00000000 </i>
   </dipole>
   <energy>
    <i name="e_fr_energy">   -188.71014658 </i>
    <i name="e_wo_entrp">   -188.45017502 </i>
    <i name="e_0_energy">   -188.58016080 </i>
   </energy>
  </scstep>
  <scstep>
   <time name="diag">    1.60    1.60</time>
   <time name="diis">    4.25    4.25</time>
   <time name="orth">    0.38    0.38</time>
   <time name="total">    6.59    6.60</time>
   <dipole>
    <v name="dipole">      0.00000000       0.00000000      -0.06807028 </v>
    <i name="Tr[quadrupol]"> -10254.48014886 </i>
    <i name="Echarged">      0.00000000 </i>
    <i name="Edipol_quadrupol">      0.00000000 </i>
    <i name="Eion">      0.00000000 </i>
   </dipole>
   <energy>
    <i name="e_fr_energy">   -188.68602587 </i>
    <i name="e_wo_entrp">   -188.43263487 </i>
    <i name="e_0_energy">   -188.55933037 </i>
   </energy>
  </scstep>
  <scstep>
   <time name="diag">    1.60    1.60</time>
   <time name="diis">    4.19    4.19</time>
   <time name="orth">    0.38    0.38</time>
   <time name="total">    6.54    6.54</time>
   <dipole>
    <v name="dipole">      0.00000000       0.00000000      -0.06660634 </v>
    <i name="Tr[quadrupol]"> -10254.59957897 </i>
    <i name="Echarged">      0.00000000 </i>
    <i name="Edipol_quadrupol">      0.00000000 </i>
    <i name="Eion">      0.00000000 </i>
   </dipole>
   <energy>
    <i name="e_fr_energy">   -188.68339162 </i>
    <i name="e_wo_entrp">   -188.43074612 </i>
    <i name="e_0_energy">   -188.55706887 </i>
   </energy>
  </scstep>
  <scstep>
   <time name="diag">    1.59    1.59</time>
   <time name="diis">    4.31    4.31</time>
   <time name="orth">    0.38    0.38</time>
   <time name="total">    6.64    6.66</time>
   <dipole>
    <v name="dipole">      0.00000000       0.00000000      -0.06728063 </v>
    <i name="Tr[quadrupol]"> -10254.77511969 </i>
    <i name="Echarged">      0.00000000 </i>
    <i name="Edipol_quadrupol">      0.00000000 </i>
    <i name="Eion">      0.00000000 </i>
   </dipole>
   <energy>
    <i name="e_fr_energy">   -188.68292465 </i>
    <i name="e_wo_entrp">   -188.43212064 </i>
    <i name="e_0_energy">   -188.55752265 </i>
   </energy>
  </scstep>
  <scstep>
   <time name="diag">    1.58    1.58</time>
   <time name="diis">    4.17    4.24</time>
   <time name="orth">    0.38    0.39</time>
   <time name="total">    6.49    6.58</time>
   <dipole>
    <v name="dipole">      0.00000000       0.00000000      -0.06451542 </v>
    <i name="Tr[quadrupol]"> -10254.91726792 </i>
    <i name="Echarged">      0.00000000 </i>
    <i name="Edipol_quadrupol">      0.00000000 </i>
    <i name="Eion">      0.00000000 </i>
   </dipole>
   <energy>
    <i name="e_fr_energy">   -188.68100596 </i>
    <i name="e_wo_entrp">   -188.43116084 </i>
    <i name="e_0_energy">   -188.55608340 </i>
   </energy>
  </scstep>
  <scstep>
   <time name="diag">    1.59    1.59</time>
   <time name="diis">    5.00    5.03</time>
   <time name="orth">    0.39    0.39</time>
   <time name="total">    7.33    7.38</time>
   <dipole>
    <v name="dipole">      0.00000000       0.00000000      -0.05759534 </v>
    <i name="Tr[quadrupol]"> -10254.99861575 </i>
    <i name="Echarged">      0.00000000 </i>
    <i name="Edipol_quadrupol">      0.00000000 </i>
    <i name="Eion">      0.00000000 </i>
   </dipole>
   <energy>
    <i name="e_fr_energy">   -188.67973588 </i>
    <i name="e_wo_entrp">   -188.42803758 </i>
    <i name="e_0_energy">   -188.55388673 </i>
   </energy>
  </scstep>
  <scstep>
   <time name="diag">    1.59    1.59</time>
   <time name="diis">    4.30    4.31</time>
   <time name="orth">    0.38    0.38</time>
   <time name="total">    6.64    6.65</time>
   <dipole>
    <v name="dipole">      0.00000000       0.00000000      -0.05120016 </v>
    <i name="Tr[quadrupol]"> -10255.11470137 </i>
    <i name="Echarged">      0.00000000 </i>
    <i name="Edipol_quadrupol">      0.00000000 </i>
    <i name="Eion">      0.00000000 </i>
   </dipole>
   <energy>
    <i name="e_fr_energy">   -188.67958091 </i>
    <i name="e_wo_entrp">   -188.42736491 </i>
    <i name="e_0_energy">   -188.55347291 </i>
   </energy>
  </scstep>
  <scstep>
   <time name="diag">    1.58    1.58</time>
   <time name="diis">    4.27    4.27</time>
   <time name="orth">    0.38    0.38</time>
   <time name="total">    6.60    6.61</time>
   <dipole>
    <v name="dipole">      0.00000000       0.00000000      -0.04723101 </v>
    <i name="Tr[quadrupol]"> -10255.19203743 </i>
    <i name="Echarged">      0.00000000 </i>
    <i name="Edipol_quadrupol">      0.00000000 </i>
    <i name="Eion">      0.00000000 </i>
   </dipole>
   <energy>
    <i name="e_fr_energy">   -188.67958912 </i>
    <i name="e_wo_entrp">   -188.42733070 </i>
    <i name="e_0_energy">   -188.55345991 </i>
   </energy>
  </scstep>
  <scstep>
   <time name="diag">    1.59    1.59</time>
   <time name="diis">    4.24    4.24</time>
   <time name="orth">    0.39    0.39</time>
   <time name="total">    6.58    6.59</time>
   <dipole>
    <v name="dipole">      0.00000000       0.00000000      -0.04407426 </v>
    <i name="Tr[quadrupol]"> -10255.26300765 </i>
    <i name="Echarged">      0.00000000 </i>
    <i name="Edipol_quadrupol">      0.00000000 </i>
    <i name="Eion">      0.00000000 </i>
   </dipole>
   <energy>
    <i name="e_fr_energy">   -188.67980389 </i>
    <i name="e_wo_entrp">   -188.42768443 </i>
    <i name="e_0_energy">   -188.55374416 </i>
   </energy>
  </scstep>
  <scstep>
   <time name="diag">    1.59    1.59</time>
   <time name="diis">    4.29    4.30</time>
   <time name="orth">    0.40    0.40</time>
   <time name="total">    6.65    6.65</time>
   <dipole>
    <v name="dipole">      0.00000000       0.00000000      -0.04028097 </v>
    <i name="Tr[quadrupol]"> -10255.35271183 </i>
    <i name="Echarged">      0.00000000 </i>
    <i name="Edipol_quadrupol">      0.00000000 </i>
    <i name="Eion">      0.00000000 </i>
   </dipole>
   <energy>
    <i name="e_fr_energy">   -188.68020756 </i>
    <i name="e_wo_entrp">   -188.42829275 </i>
    <i name="e_0_energy">   -188.55425015 </i>
   </energy>
  </scstep>
  <scstep>
   <time name="diag">    1.61    1.61</time>
   <time name="diis">    4.18    4.26</time>
   <time name="orth">    0.39    0.39</time>
   <time name="total">    6.55    6.63</time>
   <dipole>
    <v name="dipole">      0.00000000       0.00000000      -0.03699303 </v>
    <i name="Tr[quadrupol]"> -10255.42716947 </i>
    <i name="Echarged">      0.00000000 </i>
    <i name="Edipol_quadrupol">      0.00000000 </i>
    <i name="Eion">      0.00000000 </i>
   </dipole>
   <energy>
    <i name="e_fr_energy">   -188.68073427 </i>
    <i name="e_wo_entrp">   -188.42891723 </i>
    <i name="e_0_energy">   -188.55482575 </i>
   </energy>
  </scstep>
  <scstep>
   <time name="diag">    1.60    1.60</time>
   <time name="diis">    4.25    4.25</time>
   <time name="orth">    0.39    0.39</time>
   <time name="total">    6.61    6.61</time>
   <dipole>
    <v name="dipole">      0.00000000       0.00000000      -0.03380061 </v>
    <i name="Tr[quadrupol]"> -10255.49095565 </i>
    <i name="Echarged">      0.00000000 </i>
    <i name="Edipol_quadrupol">      0.00000000 </i>
    <i name="Eion">      0.00000000 </i>
   </dipole>
   <energy>
    <i name="e_fr_energy">   -188.68124909 </i>
    <i name="e_wo_entrp">   -188.42934108 </i>
    <i name="e_0_energy">   -188.55529509 </i>
   </energy>
  </scstep>
  <scstep>
   <time name="diag">    1.59    1.59</time>
   <time name="diis">    4.12    4.13</time>
   <time name="orth">    0.39    0.39</time>
   <time name="total">    6.48    6.49</time>
   <dipole>
    <v name="dipole">      0.00000000       0.00000000      -0.03093274 </v>
    <i name="Tr[quadrupol]"> -10255.53792381 </i>
    <i name="Echarged">      0.00000000 </i>
    <i name="Edipol_quadrupol">      0.00000000 </i>
    <i name="Eion">      0.00000000 </i>
   </dipole>
   <energy>
    <i name="e_fr_energy">   -188.68174343 </i>
    <i name="e_wo_entrp">   -188.42981072 </i>
    <i name="e_0_energy">   -188.55577708 </i>
   </energy>
  </scstep>
  <scstep>
   <time name="diag">    1.59    1.60</time>
   <time name="diis">    4.14    4.14</time>
   <time name="orth">    0.39    0.39</time>
   <time name="total">    6.49    6.49</time>
   <dipole>
    <v name="dipole">      0.00000000       0.00000000      -0.02681632 </v>
    <i name="Tr[quadrupol]"> -10255.60250733 </i>
    <i name="Echarged">      0.00000000 </i>
    <i name="Edipol_quadrupol">      0.00000000 </i>
    <i name="Eion">      0.00000000 </i>
   </dipole>
   <energy>
    <i name="e_fr_energy">   -188.68235101 </i>
    <i name="e_wo_entrp">   -188.43027611 </i>
    <i name="e_0_energy">   -188.55631356 </i>
   </energy>
  </scstep>
  <scstep>
   <time name="diag">    1.59    1.59</time>
   <time name="diis">    4.78    4.82</time>
   <time name="orth">    0.39    0.39</time>
   <time name="total">    7.13    7.17</time>
   <dipole>
    <v name="dipole">      0.00000000       0.00000000      -0.02362747 </v>
    <i name="Tr[quadrupol]"> -10255.64953622 </i>
    <i name="Echarged">      0.00000000 </i>
    <i name="Edipol_quadrupol">      0.00000000 </i>
    <i name="Eion">      0.00000000 </i>
   </dipole>
   <energy>
    <i name="e_fr_energy">   -188.68272191 </i>
    <i name="e_wo_entrp">   -188.43073178 </i>
    <i name="e_0_energy">   -188.55672685 </i>
   </energy>
  </scstep>
  <scstep>
   <time name="diag">    1.59    1.59</time>
   <time name="diis">    3.21    3.21</time>
   <time name="orth">    0.39    0.39</time>
   <time name="total">    5.56    5.57</time>
   <dipole>
    <v name="dipole">      0.00000000       0.00000000      -0.02262379 </v>
    <i name="Tr[quadrupol]"> -10255.66339497 </i>
    <i name="Echarged">      0.00000000 </i>
    <i name="Edipol_quadrupol">      0.00000000 </i>
    <i name="Eion">      0.00000000 </i>
   </dipole>
   <energy>
    <i name="e_fr_energy">   -188.68282294 </i>
    <i name="e_wo_entrp">   -188.43087233 </i>
    <i name="e_0_energy">   -188.55684764 </i>
   </energy>
  </scstep>
  <scstep>
   <time name="diag">    1.59    1.60</time>
   <time name="diis">    2.97    2.97</time>
   <time name="orth">    0.39    0.39</time>
   <time name="total">    5.32    5.33</time>
   <dipole>
    <v name="dipole">      0.00000000       0.00000000      -0.02147468 </v>
    <i name="Tr[quadrupol]"> -10255.67567635 </i>
    <i name="Echarged">      0.00000000 </i>
    <i name="Edipol_quadrupol">      0.00000000 </i>
    <i name="Eion">      0.00000000 </i>
   </dipole>
   <energy>
    <i name="e_fr_energy">   -188.68294239 </i>
    <i name="e_wo_entrp">   -188.43104131 </i>
    <i name="e_0_energy">   -188.55699185 </i>
   </energy>
  </scstep>
  <scstep>
   <time name="diag">    1.56    1.63</time>
   <time name="diis">    2.70    2.70</time>
   <time name="orth">    0.39    0.39</time>
   <time name="total">    5.02    5.09</time>
   <dipole>
    <v name="dipole">      0.00000000       0.00000000      -0.02055159 </v>
    <i name="Tr[quadrupol]"> -10255.68401845 </i>
    <i name="Echarged">      0.00000000 </i>
    <i name="Edipol_quadrupol">      0.00000000 </i>
    <i name="Eion">      0.00000000 </i>
   </dipole>
   <energy>
    <i name="e_fr_energy">   -188.68301940 </i>
    <i name="e_wo_entrp">   -188.43112426 </i>
    <i name="e_0_energy">   -188.55707183 </i>
   </energy>
  </scstep>
  <scstep>
   <time name="diag">    1.61    1.61</time>
   <time name="diis">    2.65    2.66</time>
   <time name="orth">    0.39    0.39</time>
   <time name="total">    5.02    5.03</time>
   <dipole>
    <v name="dipole">      0.00000000       0.00000000      -0.01952027 </v>
    <i name="Tr[quadrupol]"> -10255.69165424 </i>
    <i name="Echarged">      0.00000000 </i>
    <i name="Edipol_quadrupol">      0.00000000 </i>
    <i name="Eion">      0.00000000 </i>
   </dipole>
   <energy>
    <i name="e_fr_energy">   -188.68308264 </i>
    <i name="e_wo_entrp">   -188.43115630 </i>
    <i name="e_0_energy">   -188.55711947 </i>
   </energy>
  </scstep>
  <scstep>
   <time name="diag">    1.59    1.59</time>
   <time name="diis">    2.65    2.65</time>
   <time name="orth">    0.39    0.39</time>
   <time name="total">    5.00    5.01</time>
   <dipole>
    <v name="dipole">      0.00000000       0.00000000      -0.01857176 </v>
    <i name="Tr[quadrupol]"> -10255.69818304 </i>
    <i name="Echarged">      0.00000000 </i>
    <i name="Edipol_quadrupol">      0.00000000 </i>
    <i name="Eion">      0.00000000 </i>
   </dipole>
   <energy>
    <i name="e_fr_energy">   -188.68312387 </i>
    <i name="e_wo_entrp">   -188.43120253 </i>
    <i name="e_0_energy">   -188.55716320 </i>
   </energy>
  </scstep>
  <scstep>
   <time name="diag">    1.60    1.60</time>
   <time name="diis">    2.45    2.45</time>
   <time name="orth">    0.39    0.39</time>
   <time name="total">    4.81    4.82</time>
   <dipole>
    <v name="dipole">      0.00000000       0.00000000      -0.01807047 </v>
    <i name="Tr[quadrupol]"> -10255.70180626 </i>
    <i name="Echarged">      0.00000000 </i>
    <i name="Edipol_quadrupol">      0.00000000 </i>
    <i name="Eion">      0.00000000 </i>
   </dipole>
   <energy>
    <i name="e_fr_energy">   -188.68313947 </i>
    <i name="e_wo_entrp">   -188.43122235 </i>
    <i name="e_0_energy">   -188.55718091 </i>
   </energy>
  </scstep>
  <scstep>
   <time name="diag">    1.59    1.59</time>
   <time name="diis">    2.48    2.48</time>
   <time name="orth">    0.39    0.39</time>
   <time name="total">    4.82    4.83</time>
   <dipole>
    <v name="dipole">      0.00000000       0.00000000      -0.01739783 </v>
    <i name="Tr[quadrupol]"> -10255.70679244 </i>
    <i name="Echarged">      0.00000000 </i>
    <i name="Edipol_quadrupol">      0.00000000 </i>
    <i name="Eion">      0.00000000 </i>
   </dipole>
   <energy>
    <i name="e_fr_energy">   -188.68315157 </i>
    <i name="e_wo_entrp">   -188.43124191 </i>
    <i name="e_0_energy">   -188.55719674 </i>
   </energy>
  </scstep>
  <scstep>
   <time name="diag">    1.60    1.60</time>
   <time name="diis">    2.12    2.12</time>
   <time name="orth">    0.39    0.39</time>
   <time name="total">    4.48    4.48</time>
   <dipole>
    <v name="dipole">      0.00000000       0.00000000      -0.01702886 </v>
    <i name="Tr[quadrupol]"> -10255.70973828 </i>
    <i name="Echarged">      0.00000000 </i>
    <i name="Edipol_quadrupol">      0.00000000 </i>
    <i name="Eion">      0.00000000 </i>
   </dipole>
   <energy>
    <i name="e_fr_energy">   -188.68315484 </i>
    <i name="e_wo_entrp">   -188.43124497 </i>
    <i name="e_0_energy">   -188.55719991 </i>
   </energy>
  </scstep>
  <scstep>
   <time name="diag">    1.59    1.59</time>
   <time name="diis">    1.88    1.88</time>
   <time name="orth">    0.39    0.39</time>
   <time name="total">    4.23    4.24</time>
   <dipole>
    <v name="dipole">      0.00000000       0.00000000      -0.01684838 </v>
    <i name="Tr[quadrupol]"> -10255.71122498 </i>
    <i name="Echarged">      0.00000000 </i>
    <i name="Edipol_quadrupol">      0.00000000 </i>
    <i name="Eion">      0.00000000 </i>
   </dipole>
   <energy>
    <i name="e_fr_energy">   -188.68315619 </i>
    <i name="e_wo_entrp">   -188.43124671 </i>
    <i name="e_0_energy">   -188.55720145 </i>
   </energy>
  </scstep>
  <scstep>
   <time name="diag">    1.58    1.58</time>
   <time name="diis">    2.02    2.02</time>
   <time name="orth">    0.39    0.39</time>
   <time name="total">    4.36    4.37</time>
   <dipole>
    <v name="dipole">      0.00000000       0.00000000      -0.01658279 </v>
    <i name="Tr[quadrupol]"> -10255.71358944 </i>
    <i name="Echarged">      0.00000000 </i>
    <i name="Edipol_quadrupol">      0.00000000 </i>
    <i name="Eion">      0.00000000 </i>
   </dipole>
   <energy>
    <i name="e_fr_energy">   -188.68315810 </i>
    <i name="e_wo_entrp">   -188.43124904 </i>
    <i name="e_0_energy">   -188.55720357 </i>
   </energy>
  </scstep>
  <scstep>
   <time name="diag">    1.59    1.60</time>
   <time name="diis">    1.92    1.99</time>
   <time name="orth">    0.39    0.39</time>
   <time name="total">    4.27    4.35</time>
   <dipole>
    <v name="dipole">      0.00000000       0.00000000      -0.01635104 </v>
    <i name="Tr[quadrupol]"> -10255.71576411 </i>
    <i name="Echarged">      0.00000000 </i>
    <i name="Edipol_quadrupol">      0.00000000 </i>
    <i name="Eion">      0.00000000 </i>
   </dipole>
   <energy>
    <i name="e_fr_energy">   -188.68315946 </i>
    <i name="e_wo_entrp">   -188.43125255 </i>
    <i name="e_0_energy">   -188.55720600 </i>
   </energy>
  </scstep>
  <scstep>
   <time name="diag">    1.61    1.62</time>
   <time name="diis">    2.19    2.21</time>
   <time name="orth">    0.48    0.48</time>
   <time name="total">    4.34    4.37</time>
   <dipole>
    <v name="dipole">      0.00000000       0.00000000      -0.01620310 </v>
    <i name="Tr[quadrupol]"> -10255.71720341 </i>
    <i name="Echarged">      0.00000000 </i>
    <i name="Edipol_quadrupol">      0.00000000 </i>
    <i name="Eion">      0.00000000 </i>
   </dipole>
   <energy>
    <i name="alphaZ">    805.87961344 </i>
    <i name="ewald"> 200169.20993979 </i>
    <i name="hartreedc">-242354.46720286 </i>
    <i name="XCdc">   -343.41706498 </i>
    <i name="pawpsdc">  49367.03263483 </i>
    <i name="pawaedc"> -47445.15977499 </i>
    <i name="eentropy">     -0.25190655 </i>
    <i name="bandstr">  -2047.29527122 </i>
    <i name="atom">  41659.78587232 </i>
    <i name="e_fr_energy">   -188.68316021 </i>
    <i name="e_wo_entrp">   -188.43125366 </i>
    <i name="e_0_energy">   -188.55720693 </i>
   </energy>
  </scstep>
  <structure>
   <crystal>
    <varray name="basis" >
     <v>      11.00258152       0.00000000       0.00000000 </v>
     <v>       5.50129076       9.52851510       0.00000000 </v>
     <v>       0.00000000       0.00000000      24.49178509 </v>
    </varray>
    <i name="volume">   2567.67623402 </i>
    <varray name="rec_basis" >
     <v>       0.09088776      -0.05247407       0.00000000 </v>
     <v>       0.00000000       0.10494815       0.00000000 </v>
     <v>       0.00000000       0.00000000       0.04083002 </v>
    </varray>
   </crystal>
   <varray name="positions" >
    <v>       0.08333333       0.08333333       0.40830017 </v>
    <v>       0.91666667       0.41666667       0.50000000 </v>
    <v>       0.00000000       0.00000000       0.59169983 </v>
    <v>       0.08333333       0.58333333       0.40830017 </v>
    <v>       0.08333333       0.33333333       0.40830017 </v>
    <v>       0.16666667       0.16666667       0.50000000 </v>
    <v>       0.00000000       0.25000000       0.59169983 </v>
    <v>       0.25000000       0.75000000       0.59169983 </v>
    <v>       0.16666667       0.41666667       0.50000000 </v>
    <v>       0.25000000       0.25000000       0.59169983 </v>
    <v>       0.16666667       0.66666667       0.50000000 </v>
    <v>       0.25000000       0.50000000       0.59169983 </v>
    <v>       0.00000000       0.50000000       0.59169983 </v>
    <v>       0.16666667       0.91666667       0.50000000 </v>
    <v>       0.66666667       0.91666667       0.50000000 </v>
    <v>       0.50000000       0.00000000       0.59169983 </v>
    <v>       0.58333333       0.33333333       0.40830017 </v>
    <v>       0.50000000       0.25000000       0.59169983 </v>
    <v>       0.41666667       0.66666667       0.50000000 </v>
    <v>       0.50000000       0.75000000       0.59169983 </v>
    <v>       0.83333333       0.08333333       0.40830017 </v>
    <v>       0.75000000       0.25000000       0.59169983 </v>
    <v>       0.66666667       0.66666667       0.50000000 </v>
    <v>       0.33333333       0.83333333       0.40830017 </v>
    <v>       0.41666667       0.41666667       0.50000000 </v>
    <v>       0.91666667       0.66666667       0.50000000 </v>
    <v>       0.41666667       0.16666667       0.50000000 </v>
    <v>       0.58333333       0.08333333       0.40830017 </v>
    <v>       0.33333333       0.58333333       0.40830017 </v>
    <v>       0.91666667       0.91666667       0.50000000 </v>
    <v>       0.00000000       0.75000000       0.59169983 </v>
    <v>       0.33333333       0.08333333       0.40830017 </v>
    <v>       0.58333333       0.58333333       0.40830017 </v>
    <v>       0.08333333       0.83333333       0.40830017 </v>
    <v>       0.33333333       0.33333333       0.40830017 </v>
    <v>       0.75000000       0.50000000       0.59169983 </v>
    <v>       0.41666667       0.91666667       0.50000000 </v>
    <v>       0.66666667       0.41666667       0.50000000 </v>
    <v>       0.83333333       0.83333333       0.40830017 </v>
    <v>       0.91666667       0.16666667       0.50000000 </v>
    <v>       0.83333333       0.58333333       0.40830017 </v>
    <v>       0.83333333       0.33333333       0.40830017 </v>
    <v>       0.75000000       0.00000000       0.59169983 </v>
    <v>       0.66666667       0.16666667       0.50000000 </v>
    <v>       0.25000000       0.00000000       0.59169983 </v>
    <v>       0.58333333       0.83333333       0.40830017 </v>
    <v>       0.50000000       0.50000000       0.59169983 </v>
    <v>       0.75000000       0.75000000       0.59169983 </v>
   </varray>
  </structure>
  <varray name="forces" >
   <v>      -0.13675992       0.04562840      -1.62020660 </v>
   <v>      -0.74674052       0.29040533      -0.27580106 </v>
   <v>      -0.30096376      -0.13058744       1.32475735 </v>
   <v>      -0.01525206       0.32619865      -1.57448074 </v>
   <v>      -0.00505682      -0.00645384      -1.79523830 </v>
   <v>       0.36793406      -0.58880524      -0.07256385 </v>
   <v>      -0.17368175      -0.05485007       1.60512153 </v>
   <v>      -0.01810818      -0.00632981       1.83501416 </v>
   <v>       0.52752625      -0.08697545      -0.35863450 </v>
   <v>       0.04796261      -0.30960501       1.65115427 </v>
   <v>      -0.31348812       0.20550434      -0.31764749 </v>
   <v>       0.24002157       0.14589561       1.63465183 </v>
   <v>      -0.24174251       0.59897233       1.63109906 </v>
   <v>      -0.15668294       0.24001816      -0.03221466 </v>
   <v>       0.30851269       0.12188093      -0.29638693 </v>
   <v>       0.03415946      -0.13503419       1.32229756 </v>
   <v>      -0.13377171       0.18553187      -1.04943939 </v>
   <v>       0.26543164       0.03084364       1.13940388 </v>
   <v>       0.19856005      -0.66305952      -0.31535388 </v>
   <v>       0.14409236      -0.06874848       1.58506023 </v>
   <v>      -0.08581931      -0.18226902      -1.14031286 </v>
   <v>      -0.15751441       0.20941551       1.07869582 </v>
   <v>       0.19408457      -0.09637788      -0.29487348 </v>
   <v>       0.26957133      -0.14069256      -1.60288636 </v>
   <v>       0.24490182      -0.28324996      -0.27397259 </v>
   <v>      -0.05857303       0.45180185      -0.01168455 </v>
   <v>       0.23355879      -0.07769941      -0.53350879 </v>
   <v>      -0.27487765      -0.08991888      -0.58012772 </v>
   <v>       0.03072439      -0.10659747      -0.85770143 </v>
   <v>      -0.31786201      -0.00680784       0.00877845 </v>
   <v>      -0.26197436       0.12327071       0.77984775 </v>
   <v>       0.37582486      -0.01249715      -0.74551323 </v>
   <v>       0.13734735      -0.03822168      -0.81115868 </v>
   <v>      -0.20181812      -0.07145455      -0.89220063 </v>
   <v>       0.18883990      -0.22815360      -0.71091649 </v>
   <v>      -0.11381238       0.10849277       0.85195221 </v>
   <v>       0.19420427       0.28433771      -0.23719256 </v>
   <v>      -0.10892550      -0.14486669      -0.03366650 </v>
   <v>      -0.10060951      -0.01028441      -0.66048287 </v>
   <v>      -0.45167710       0.11965645      -0.12905459 </v>
   <v>      -0.19305742       0.19036139      -0.84904490 </v>
   <v>      -0.06564817       0.22460777      -0.72000510 </v>
   <v>       0.05211739      -0.27167288       0.60836378 </v>
   <v>      -0.01902317      -0.00596770      -0.04352099 </v>
   <v>       0.09414393      -0.03549608       0.96266753 </v>
   <v>       0.11533143       0.09361097      -0.79194211 </v>
   <v>       0.14155498      -0.12357115       0.76423719 </v>
   <v>       0.24703473      -0.02018645       0.84463123 </v>
  </varray>
  <energy>
   <i name="e_fr_energy">   -188.68316021 </i>
   <i name="e_wo_entrp">   -188.55720693 </i>
   <i name="e_0_energy">     -0.25190655 </i>
  </energy>
  <time name="totalsc">  292.88  294.00</time>
 </calculation>
 <calculation>
  <scstep>
   <time name="dav">    9.22    9.23</time>
   <time name="total">    9.58    9.59</time>
   <dipole>
    <v name="dipole">      0.00000000       0.00000000      -0.01609493 </v>
    <i name="Tr[quadrupol]"> -10252.36739208 </i>
    <i name="Echarged">      0.00000000 </i>
    <i name="Edipol_quadrupol">      0.00000000 </i>
    <i name="Eion">      0.00000000 </i>
   </dipole>
   <energy>
    <i name="alphaZ">    805.88631965 </i>
    <i name="ewald"> 198678.31264348 </i>
    <i name="hartreedc">-240872.59538299 </i>
    <i name="XCdc">   -344.64054677 </i>
    <i name="pawpsdc">  49367.03503244 </i>
    <i name="pawaedc"> -47445.16227193 </i>
    <i name="eentropy">     -0.24792593 </i>
    <i name="bandstr">  -2037.68977251 </i>
    <i name="atom">  41659.78587232 </i>
    <i name="e_fr_energy">   -189.31603224 </i>
    <i name="e_wo_entrp">   -189.06810631 </i>
    <i name="e_0_energy">   -189.19206928 </i>
   </energy>
  </scstep>
  <scstep>
   <time name="diag">    1.59    1.59</time>
   <time name="diis">    4.22    4.22</time>
   <time name="orth">    0.39    0.39</time>
   <time name="total">    6.56    6.57</time>
   <dipole>
    <v name="dipole">      0.00000000       0.00000000       0.03545860 </v>
    <i name="Tr[quadrupol]"> -10252.24934550 </i>
    <i name="Echarged">      0.00000000 </i>
    <i name="Edipol_quadrupol">      0.00000000 </i>
    <i name="Eion">      0.00000000 </i>
   </dipole>
   <energy>
    <i name="e_fr_energy">   -189.56655194 </i>
    <i name="e_wo_entrp">   -189.31025942 </i>
    <i name="e_0_energy">   -189.43840568 </i>
   </energy>
  </scstep>
  <scstep>
   <time name="diag">    1.59    1.59</time>
   <time name="diis">    4.26    4.26</time>
   <time name="orth">    0.39    0.39</time>
   <time name="total">    6.60    6.61</time>
   <dipole>
    <v name="dipole">      0.00000000       0.00000000      -0.13176071 </v>
    <i name="Tr[quadrupol]"> -10252.42924723 </i>
    <i name="Echarged">      0.00000000 </i>
    <i name="Edipol_quadrupol">      0.00000000 </i>
    <i name="Eion">      0.00000000 </i>
   </dipole>
   <energy>
    <i name="e_fr_energy">   -189.73628136 </i>
    <i name="e_wo_entrp">   -189.51782485 </i>
    <i name="e_0_energy">   -189.62705311 </i>
   </energy>
  </scstep>
  <scstep>
   <time name="diag">    1.60    1.60</time>
   <time name="diis">    4.25    4.25</time>
   <time name="orth">    0.39    0.39</time>
   <time name="total">    6.60    6.61</time>
   <dipole>
    <v name="dipole">      0.00000000       0.00000000       0.00561938 </v>
    <i name="Tr[quadrupol]"> -10252.52624712 </i>
    <i name="Echarged">      0.00000000 </i>
    <i name="Edipol_quadrupol">      0.00000000 </i>
    <i name="Eion">      0.00000000 </i>
   </dipole>
   <energy>
    <i name="e_fr_energy">   -189.57456836 </i>
    <i name="e_wo_entrp">   -189.31598261 </i>
    <i name="e_0_energy">   -189.44527548 </i>
   </energy>
  </scstep>
  <scstep>
   <time name="diag">    1.56    1.61</time>
   <time name="diis">    4.27    4.29</time>
   <time name="orth">    0.39    0.39</time>
   <time name="total">    6.59    6.66</time>
   <dipole>
    <v name="dipole">      0.00000000       0.00000000      -0.01254645 </v>
    <i name="Tr[quadrupol]"> -10252.40453025 </i>
    <i name="Echarged">      0.00000000 </i>
    <i name="Edipol_quadrupol">      0.00000000 </i>
    <i name="Eion">      0.00000000 </i>
   </dipole>
   <energy>
    <i name="e_fr_energy">   -189.55006733 </i>
    <i name="e_wo_entrp">   -189.30297772 </i>
    <i name="e_0_energy">   -189.42652253 </i>
   </energy>
  </scstep>
  <scstep>
   <time name="diag">    1.59    1.59</time>
   <time name="diis">    4.29    4.29</time>
   <time name="orth">    0.39    0.39</time>
   <time name="total">    6.63    6.64</time>
   <dipole>
    <v name="dipole">      0.00000000       0.00000000       0.00682731 </v>
    <i name="Tr[quadrupol]"> -10252.42141837 </i>
    <i name="Echarged">      0.00000000 </i>
    <i name="Edipol_quadrupol">      0.00000000 </i>
    <i name="Eion">      0.00000000 </i>
   </dipole>
   <energy>
    <i name="e_fr_energy">   -189.54962934 </i>
    <i name="e_wo_entrp">   -189.30037704 </i>
    <i name="e_0_energy">   -189.42500319 </i>
   </energy>
  </scstep>
  <scstep>
   <time name="diag">    1.59    1.59</time>
   <time name="diis">    4.31    4.32</time>
   <time name="orth">    0.39    0.39</time>
   <time name="total">    6.66    6.67</time>
   <dipole>
    <v name="dipole">      0.00000000       0.00000000       0.00182459 </v>
    <i name="Tr[quadrupol]"> -10252.41668816 </i>
    <i name="Echarged">      0.00000000 </i>
    <i name="Edipol_quadrupol">      0.00000000 </i>
    <i name="Eion">      0.00000000 </i>
   </dipole>
   <energy>
    <i name="e_fr_energy">   -189.54045563 </i>
    <i name="e_wo_entrp">   -189.28851296 </i>
    <i name="e_0_energy">   -189.41448430 </i>
   </energy>
  </scstep>
  <scstep>
   <time name="diag">    1.59    1.59</time>
   <time name="diis">    4.48    4.50</time>
   <time name="orth">    0.49    0.49</time>
   <time name="total">    7.05    7.07</time>
   <dipole>
    <v name="dipole">      0.00000000       0.00000000      -0.00621192 </v>
    <i name="Tr[quadrupol]"> -10252.40193520 </i>
    <i name="Echarged">      0.00000000 </i>
    <i name="Edipol_quadrupol">      0.00000000 </i>
    <i name="Eion">      0.00000000 </i>
   </dipole>
   <energy>
    <i name="e_fr_energy">   -189.53949522 </i>
    <i name="e_wo_entrp">   -189.29078186 </i>
    <i name="e_0_energy">   -189.41513854 </i>
   </energy>
  </scstep>
  <scstep>
   <time name="diag">    1.52    2.03</time>
   <time name="diis">    4.19    4.19</time>
   <time name="orth">    0.39    0.39</time>
   <time name="total">    6.48    7.00</time>
   <dipole>
    <v name="dipole">      0.00000000       0.00000000      -0.00710293 </v>
    <i name="Tr[quadrupol]"> -10252.39919537 </i>
    <i name="Echarged">      0.00000000 </i>
    <i name="Edipol_quadrupol">      0.00000000 </i>
    <i name="Eion">      0.00000000 </i>
   </dipole>
   <energy>
    <i name="e_fr_energy">   -189.53904088 </i>
    <i name="e_wo_entrp">   -189.28904352 </i>
    <i name="e_0_energy">   -189.41404220 </i>
   </energy>
  </scstep>
  <scstep>
   <time name="diag">    1.60    1.60</time>
   <time name="diis">    4.24    4.24</time>
   <time name="orth">    0.40    0.40</time>
   <time name="total">    6.60    6.61</time>
   <dipole>
    <v name="dipole">      0.00000000       0.00000000      -0.00549928 </v>
    <i name="Tr[quadrupol]"> -10252.39478826 </i>
    <i name="Echarged">      0.00000000 </i>
    <i name="Edipol_quadrupol">      0.00000000 </i>
    <i name="Eion">      0.00000000 </i>
   </dipole>
   <energy>
    <i name="e_fr_energy">   -189.53885419 </i>
    <i name="e_wo_entrp">   -189.28913559 </i>
    <i name="e_0_energy">   -189.41399489 </i>
   </energy>
  </scstep>
  <scstep>
   <time name="diag">    1.55    1.62</time>
   <time name="diis">    4.28    4.29</time>
   <time name="orth">    0.39    0.39</time>
   <time name="total">    6.58    6.66</time>
   <dipole>
    <v name="dipole">      0.00000000       0.00000000      -0.00517804 </v>
    <i name="Tr[quadrupol]"> -10252.39465179 </i>
    <i name="Echarged">      0.00000000 </i>
    <i name="Edipol_quadrupol">      0.00000000 </i>
    <i name="Eion">      0.00000000 </i>
   </dipole>
   <energy>
    <i name="e_fr_energy">   -189.53879648 </i>
    <i name="e_wo_entrp">   -189.28875943 </i>
    <i name="e_0_energy">   -189.41377796 </i>
   </energy>
  </scstep>
  <scstep>
   <time name="diag">    1.60    1.60</time>
   <time name="diis">    4.17    4.18</time>
   <time name="orth">    0.39    0.39</time>
   <time name="total">    6.52    6.53</time>
   <dipole>
    <v name="dipole">      0.00000000       0.00000000      -0.00563195 </v>
    <i name="Tr[quadrupol]"> -10252.39563343 </i>
    <i name="Echarged">      0.00000000 </i>
    <i name="Edipol_quadrupol">      0.00000000 </i>
    <i name="Eion">      0.00000000 </i>
   </dipole>
   <energy>
    <i name="e_fr_energy">   -189.53879710 </i>
    <i name="e_wo_entrp">   -189.28878932 </i>
    <i name="e_0_energy">   -189.41379321 </i>
   </energy>
  </scstep>
  <scstep>
   <time name="diag">    1.58    1.58</time>
   <time name="diis">    4.20    4.20</time>
   <time name="orth">    0.38    0.38</time>
   <time name="total">    6.53    6.54</time>
   <dipole>
    <v name="dipole">      0.00000000       0.00000000      -0.00551860 </v>
    <i name="Tr[quadrupol]"> -10252.39751899 </i>
    <i name="Echarged">      0.00000000 </i>
    <i name="Edipol_quadrupol">      0.00000000 </i>
    <i name="Eion">      0.00000000 </i>
   </dipole>
   <energy>
    <i name="e_fr_energy">   -189.53878857 </i>
    <i name="e_wo_entrp">   -189.28864103 </i>
    <i name="e_0_energy">   -189.41371480 </i>
   </energy>
  </scstep>
  <scstep>
   <time name="diag">    1.59    1.59</time>
   <time name="diis">    3.44    3.44</time>
   <time name="orth">    0.39    0.39</time>
   <time name="total">    5.47    5.47</time>
   <dipole>
    <v name="dipole">      0.00000000       0.00000000      -0.00576272 </v>
    <i name="Tr[quadrupol]"> -10252.39882485 </i>
    <i name="Echarged">      0.00000000 </i>
    <i name="Edipol_quadrupol">      0.00000000 </i>
    <i name="Eion">      0.00000000 </i>
   </dipole>
   <energy>
    <i name="alphaZ">    805.87543718 </i>
    <i name="ewald"> 198678.31264348 </i>
    <i name="hartreedc">-240874.31891728 </i>
    <i name="XCdc">   -344.60997570 </i>
    <i name="pawpsdc">  49112.65298378 </i>
    <i name="pawaedc"> -47189.13477683 </i>
    <i name="eentropy">     -0.25013511 </i>
    <i name="bandstr">  -2037.85192034 </i>
    <i name="atom">  41659.78587232 </i>
    <i name="e_fr_energy">   -189.53878850 </i>
    <i name="e_wo_entrp">   -189.28865339 </i>
    <i name="e_0_energy">   -189.41372095 </i>
   </energy>
  </scstep>
  <structure>
   <crystal>
    <varray name="basis" >
     <v>      11.00258152       0.00000000       0.00000000 </v>
     <v>       5.50129076       9.52851510       0.00000000 </v>
     <v>       0.00000000       0.00000000      24.49178509 </v>
    </varray>
    <i name="volume">   2567.67623402 </i>
    <varray name="rec_basis" >
     <v>       0.09088776      -0.05247407       0.00000000 </v>
     <v>       0.00000000       0.10494815       0.00000000 </v>
     <v>       0.00000000       0.00000000       0.04083002 </v>
    </varray>
   </crystal>
   <varray name="positions" >
    <v>       0.08333333       0.08333333       0.40830017 </v>
    <v>       0.91386011       0.41769589       0.49961972 </v>
    <v>      -0.00069233      -0.00046281       0.59352644 </v>
    <v>       0.08333333       0.58333333       0.40830017 </v>
    <v>       0.08333333       0.33333333       0.40830017 </v>
    <v>       0.16883934       0.16457989       0.49989995 </v>
    <v>      -0.00043588       0.24980561       0.59391301 </v>
    <v>       0.24995564       0.74997757       0.59422999 </v>
    <v>       0.16843991       0.41635842       0.49950551 </v>
    <v>       0.25069584       0.24890273       0.59397648 </v>
    <v>       0.16534033       0.66739499       0.49956202 </v>
    <v>       0.25047816       0.50051707       0.59395373 </v>
    <v>      -0.00180338       0.50212281       0.59394883 </v>
    <v>       0.16576044       0.91751731       0.49995558 </v>
    <v>       0.66739760       0.91709862       0.49959133 </v>
    <v>       0.50034413      -0.00047857       0.59352305 </v>
    <v>       0.58333333       0.33333333       0.40830017 </v>
    <v>       0.50076002       0.25010931       0.59327087 </v>
    <v>       0.41845107       0.66431673       0.49956518 </v>
    <v>       0.50056408       0.74975635       0.59388535 </v>
    <v>       0.83333333       0.08333333       0.40830017 </v>
    <v>       0.74914545       0.25074219       0.59318716 </v>
    <v>       0.66743315       0.66632510       0.49959342 </v>
    <v>       0.33333333       0.83333333       0.40830017 </v>
    <v>       0.41792027       0.41566281       0.49962224 </v>
    <v>       0.91568628       0.66826789       0.49998389 </v>
    <v>       0.41752121       0.16639129       0.49926439 </v>
    <v>       0.58333333       0.08333333       0.40830017 </v>
    <v>       0.33333333       0.58333333       0.40830017 </v>
    <v>       0.91570313       0.91664254       0.50001210 </v>
    <v>      -0.00102251       0.75043688       0.59277510 </v>
    <v>       0.33333333       0.08333333       0.40830017 </v>
    <v>       0.58333333       0.58333333       0.40830017 </v>
    <v>       0.08333333       0.83333333       0.40830017 </v>
    <v>       0.33333333       0.33333333       0.40830017 </v>
    <v>       0.74945843       0.50038451       0.59287452 </v>
    <v>       0.41675887       0.91767438       0.49967295 </v>
    <v>       0.66658906       0.41615325       0.49995358 </v>
    <v>       0.83333333       0.83333333       0.40830017 </v>
    <v>       0.91506831       0.16709074       0.49982206 </v>
    <v>       0.83333333       0.58333333       0.40830017 </v>
    <v>       0.83333333       0.33333333       0.40830017 </v>
    <v>       0.75064138      -0.00096283       0.59253866 </v>
    <v>       0.66661885       0.16664552       0.49993999 </v>
    <v>       0.25035185      -0.00012580       0.59302718 </v>
    <v>       0.58333333       0.83333333       0.40830017 </v>
    <v>       0.50065344       0.49956205       0.59275358 </v>
    <v>       0.75079399       0.74992846       0.59286443 </v>
   </varray>
  </structure>
  <varray name="forces" >
   <v>      -0.15053175       0.07094483      -1.62326412 </v>
   <v>      -0.18713935       0.01342167       0.25107853 </v>
   <v>      -0.16849624      -0.07125018       0.96340159 </v>
   <v>      -0.06043591       0.32725502      -1.62716577 </v>
   <v>      -0.03529443      -0.01750205      -1.70053587 </v>
   <v>       0.16244194      -0.10004361       0.36963592 </v>
   <v>      -0.05311952       0.01250932       1.04848028 </v>
   <v>       0.02180258      -0.00647005       1.21968761 </v>
   <v>       0.17264622      -0.09300781       0.35489445 </v>
   <v>       0.01184850      -0.06440836       1.11753865 </v>
   <v>      -0.04216323       0.13263277       0.23494606 </v>
   <v>       0.09041142       0.07946976       1.11149105 </v>
   <v>      -0.08768693       0.22447727       1.03067773 </v>
   <v>      -0.13519345      -0.02177086       0.39010839 </v>
   <v>       0.07175282       0.10629389       0.07773863 </v>
   <v>       0.09015660      -0.10025422       0.92035105 </v>
   <v>      -0.11225961       0.16868878      -1.11313466 </v>
   <v>       0.09843863      -0.01600138       0.83392670 </v>
   <v>       0.05147363      -0.24035861       0.22830504 </v>
   <v>       0.07989131      -0.06123547       1.05994660 </v>
   <v>      -0.09036916      -0.19721645      -1.17222151 </v>
   <v>      -0.06845492       0.10398212       0.84135552 </v>
   <v>       0.02978336       0.10923746       0.12711229 </v>
   <v>       0.25422432      -0.14797759      -1.55357347 </v>
   <v>       0.09669382      -0.18818282       0.10823075 </v>
   <v>      -0.02690961       0.15551618       0.19908654 </v>
   <v>       0.19484768      -0.05647592      -0.01177645 </v>
   <v>      -0.25506437      -0.08565348      -0.66157056 </v>
   <v>       0.00986480      -0.10588532      -0.89619526 </v>
   <v>      -0.13000098       0.05780555       0.18263629 </v>
   <v>      -0.10126821       0.05042621       0.61135626 </v>
   <v>       0.37186688      -0.01072406      -0.84877888 </v>
   <v>       0.15643217      -0.05501976      -0.88696784 </v>
   <v>      -0.19854135      -0.04310256      -0.91737170 </v>
   <v>       0.20659188      -0.22744221      -0.82203744 </v>
   <v>      -0.06058179       0.08938227       0.65053406 </v>
   <v>       0.19371820      -0.00379442       0.14810458 </v>
   <v>      -0.10225193      -0.15679962       0.16428008 </v>
   <v>      -0.08713876      -0.02005299      -0.73382805 </v>
   <v>      -0.24110853       0.07261273       0.24843299 </v>
   <v>      -0.15613015       0.19821207      -0.92555018 </v>
   <v>      -0.08111751       0.20586729      -0.79152095 </v>
   <v>      -0.01165497      -0.15813069       0.48706088 </v>
   <v>      -0.01971923       0.01671979       0.19317798 </v>
   <v>       0.01359656      -0.07190760       0.72088258 </v>
   <v>       0.11491640       0.09438473      -0.82477606 </v>
   <v>       0.08001514      -0.00748455       0.58944403 </v>
   <v>       0.08921703       0.03831296       0.62636566 </v>
  </varray>
  <energy>
   <i name="e_fr_energy">   -189.53878850 </i>
   <i name="e_wo_entrp">   -189.41372095 </i>
   <i name="e_0_energy">     -0.25013511 </i>
  </energy>
  <time name="totalsc">   97.42   98.19</time>
 </calculation>
 <calculation>
  <scstep>
   <time name="dav">    9.19    9.20</time>
   <time name="total">    9.55    9.56</time>
   <dipole>
    <v name="dipole">      0.00000000       0.00000000      -0.00579599 </v>
    <i name="Tr[quadrupol]"> -10245.42148789 </i>
    <i name="Echarged">      0.00000000 </i>
    <i name="Edipol_quadrupol">      0.00000000 </i>
    <i name="Eion">      0.00000000 </i>
   </dipole>
   <energy>
    <i name="alphaZ">    805.88100956 </i>
    <i name="ewald"> 195335.63736500 </i>
    <i name="hartreedc">-237548.22283355 </i>
    <i name="XCdc">   -346.87967405 </i>
    <i name="pawpsdc">  49112.49654197 </i>
    <i name="pawaedc"> -47188.97857842 </i>
    <i name="eentropy">     -0.24500596 </i>
    <i name="bandstr">  -2018.47988930 </i>
    <i name="atom">  41659.78587232 </i>
    <i name="e_fr_energy">   -189.00519244 </i>
    <i name="e_wo_entrp">   -188.76018648 </i>
    <i name="e_0_energy">   -188.88268946 </i>
   </energy>
  </scstep>
  <scstep>
   <time name="diag">    1.59    1.59</time>
   <time name="diis">    4.12    4.20</time>
   <time name="orth">    0.39    0.39</time>
   <time name="total">    6.46    6.55</time>
   <dipole>
    <v name="dipole">      0.00000000       0.00000000       0.09289290 </v>
    <i name="Tr[quadrupol]"> -10245.09029325 </i>
    <i name="Echarged">      0.00000000 </i>
    <i name="Edipol_quadrupol">      0.00000000 </i>
    <i name="Eion">      0.00000000 </i>
   </dipole>
   <energy>
    <i name="e_fr_energy">   -190.29291287 </i>
    <i name="e_wo_entrp">   -190.03892196 </i>
    <i name="e_0_energy">   -190.16591741 </i>
   </energy>
  </scstep>
  <scstep>
   <time name="diag">    1.62    1.91</time>
   <time name="diis">    4.66    4.66</time>
   <time name="orth">    0.39    0.39</time>
   <time name="total">    7.03    7.33</time>
   <dipole>
    <v name="dipole">      0.00000000       0.00000000      -0.17331838 </v>
    <i name="Tr[quadrupol]"> -10245.56944144 </i>
    <i name="Echarged">      0.00000000 </i>
    <i name="Edipol_quadrupol">      0.00000000 </i>
    <i name="Eion">      0.00000000 </i>
   </dipole>
   <energy>
    <i name="e_fr_energy">   -190.69865831 </i>
    <i name="e_wo_entrp">   -190.47514030 </i>
    <i name="e_0_energy">   -190.58689931 </i>
   </energy>
  </scstep>
  <scstep>
   <time name="diag">    1.59    1.59</time>
   <time name="diis">    4.24    4.25</time>
   <time name="orth">    0.39    0.39</time>
   <time name="total">    6.59    6.60</time>
   <dipole>
    <v name="dipole">      0.00000000       0.00000000       0.06109578 </v>
    <i name="Tr[quadrupol]"> -10245.61553071 </i>
    <i name="Echarged">      0.00000000 </i>
    <i name="Edipol_quadrupol">      0.00000000 </i>
    <i name="Eion">      0.00000000 </i>
   </dipole>
   <energy>
[...]
       <r>    -9.3235     0.0000     0.0000 </r>
       <r>    -9.2695     0.0000     0.0000 </r>
       <r>    -9.2154     0.0000     0.0000 </r>
       <r>    -9.1613     0.0000     0.0000 </r>
       <r>    -9.1073     0.0001     0.0000 </r>
       <r>    -9.0532     0.0028     0.0002 </r>
       <r>    -8.9991     0.0385     0.0022 </r>
       <r>    -8.9450     0.3009     0.0185 </r>
       <r>    -8.8910     1.3582     0.0920 </r>
       <r>    -8.8369     3.5563     0.2842 </r>
       <r>    -8.7828     5.4786     0.5805 </r>
       <r>    -8.7288     5.3597     0.8703 </r>
       <r>    -8.6747     4.5416     1.1158 </r>
       <r>    -8.6206     4.8941     1.3805 </r>
       <r>    -8.5666     5.1305     1.6579 </r>
       <r>    -8.5125     3.8013     1.8634 </r>
       <r>    -8.4584     1.8569     1.9638 </r>
       <r>    -8.4043     0.7013     2.0017 </r>
       <r>    -8.3503     0.6798     2.0385 </r>
       <r>    -8.2962     1.4723     2.1181 </r>
       <r>    -8.2421     2.4767     2.2520 </r>
       <r>    -8.1881     3.3791     2.4347 </r>
       <r>    -8.1340     4.1047     2.6567 </r>
       <r>    -8.0799     4.1057     2.8786 </r>
       <r>    -8.0259     3.8460     3.0866 </r>
       <r>    -7.9718     4.6516     3.3381 </r>
       <r>    -7.9177     6.3839     3.6833 </r>
       <r>    -7.8636     8.3935     4.1371 </r>
       <r>    -7.8096    10.2523     4.6915 </r>
       <r>    -7.7555    10.5353     5.2611 </r>
       <r>    -7.7014     8.0638     5.6971 </r>
       <r>    -7.6474     4.5485     5.9431 </r>
       <r>    -7.5933     3.5678     6.1360 </r>
       <r>    -7.5392     6.6682     6.4965 </r>
       <r>    -7.4852    10.9894     7.0907 </r>
       <r>    -7.4311    12.0399     7.7417 </r>
       <r>    -7.3770    10.2515     8.2960 </r>
       <r>    -7.3229     9.3014     8.7989 </r>
       <r>    -7.2689    10.2140     9.3512 </r>
       <r>    -7.2148    12.4919    10.0267 </r>
       <r>    -7.1607    16.1266    10.8986 </r>
       <r>    -7.1067    20.2341    11.9927 </r>
       <r>    -7.0526    22.6838    13.2192 </r>
       <r>    -6.9985    23.7296    14.5023 </r>
       <r>    -6.9445    26.1990    15.9188 </r>
       <r>    -6.8904    31.4256    17.6180 </r>
       <r>    -6.8363    38.3998    19.6943 </r>
       <r>    -6.7822    44.4709    22.0989 </r>
       <r>    -6.7282    47.3980    24.6617 </r>
       <r>    -6.6741    48.1785    27.2667 </r>
       <r>    -6.6200    49.8628    29.9628 </r>
       <r>    -6.5660    52.1943    32.7849 </r>
       <r>    -6.5119    52.5167    35.6245 </r>
       <r>    -6.4578    52.0614    38.4395 </r>
       <r>    -6.4038    54.2529    41.3729 </r>
       <r>    -6.3497    58.6205    44.5425 </r>
       <r>    -6.2956    63.2155    47.9606 </r>
       <r>    -6.2415    67.4827    51.6094 </r>
       <r>    -6.1875    70.3936    55.4156 </r>
       <r>    -6.1334    72.4625    59.3337 </r>
       <r>    -6.0793    74.9709    63.3873 </r>
       <r>    -6.0253    76.1332    67.5039 </r>
       <r>    -5.9712    74.8932    71.5534 </r>
       <r>    -5.9171    73.7410    75.5405 </r>
       <r>    -5.8631    73.7172    79.5264 </r>
       <r>    -5.8090    73.3757    83.4939 </r>
       <r>    -5.7549    72.8973    87.4354 </r>
       <r>    -5.7008    73.5232    91.4108 </r>
       <r>    -5.6468    74.8945    95.4604 </r>
       <r>    -5.5927    75.6301    99.5497 </r>
       <r>    -5.5386    75.2073   103.6162 </r>
       <r>    -5.4846    75.9708   107.7239 </r>
       <r>    -5.4305    79.7146   112.0341 </r>
       <r>    -5.3764    82.6714   116.5042 </r>
       <r>    -5.3224    82.0518   120.9407 </r>
       <r>    -5.2683    80.4683   125.2916 </r>
       <r>    -5.2142    79.9785   129.6161 </r>
       <r>    -5.1601    81.0227   133.9970 </r>
       <r>    -5.1061    83.3049   138.5013 </r>
       <r>    -5.0520    84.8228   143.0877 </r>
       <r>    -4.9979    84.0639   147.6330 </r>
       <r>    -4.9439    81.5216   152.0409 </r>
       <r>    -4.8898    79.2773   156.3274 </r>
       <r>    -4.8357    79.6950   160.6365 </r>
       <r>    -4.7817    82.2099   165.0816 </r>
       <r>    -4.7276    84.1566   169.6320 </r>
       <r>    -4.6735    84.4496   174.1982 </r>
       <r>    -4.6194    83.5240   178.7144 </r>
       <r>    -4.5654    82.1577   183.1566 </r>
       <r>    -4.5113    81.0966   187.5415 </r>
       <r>    -4.4572    80.9713   191.9197 </r>
       <r>    -4.4032    82.3777   196.3738 </r>
       <r>    -4.3491    85.1794   200.9795 </r>
       <r>    -4.2950    88.0962   205.7429 </r>
       <r>    -4.2409    89.3805   210.5757 </r>
       <r>    -4.1869    88.8998   215.3825 </r>
       <r>    -4.1328    88.9102   220.1899 </r>
       <r>    -4.0787    90.4231   225.0791 </r>
       <r>    -4.0247    91.5560   230.0295 </r>
       <r>    -3.9706    90.9391   234.9466 </r>
       <r>    -3.9165    89.3585   239.7782 </r>
       <r>    -3.8625    88.3961   244.5578 </r>
       <r>    -3.8084    89.8756   249.4174 </r>
       <r>    -3.7543    93.9606   254.4978 </r>
       <r>    -3.7002    98.3539   259.8158 </r>
       <r>    -3.6462   100.7897   265.2656 </r>
       <r>    -3.5921   100.8680   270.7195 </r>
       <r>    -3.5380   100.0910   276.1314 </r>
       <r>    -3.4840    99.1605   281.4931 </r>
       <r>    -3.4299    97.3396   286.7562 </r>
       <r>    -3.3758    95.4009   291.9146 </r>
       <r>    -3.3218    94.6604   297.0329 </r>
       <r>    -3.2677    94.3646   302.1352 </r>
       <r>    -3.2136    93.7293   307.2031 </r>
       <r>    -3.1595    93.8653   312.2784 </r>
       <r>    -3.1055    94.9589   317.4129 </r>
       <r>    -3.0514    94.4153   322.5179 </r>
       <r>    -2.9973    91.4009   327.4600 </r>
       <r>    -2.9433    88.5773   332.2493 </r>
       <r>    -2.8892    87.7663   336.9949 </r>
       <r>    -2.8351    89.1297   341.8141 </r>
       <r>    -2.7811    91.8453   346.7802 </r>
       <r>    -2.7270    94.1978   351.8735 </r>
       <r>    -2.6729    95.8373   357.0554 </r>
       <r>    -2.6188    96.7778   362.2882 </r>
       <r>    -2.5648    96.4069   367.5009 </r>
       <r>    -2.5107    95.5108   372.6652 </r>
       <r>    -2.4566    94.3282   377.7656 </r>
       <r>    -2.4026    92.3147   382.7570 </r>
       <r>    -2.3485    91.1726   387.6867 </r>
       <r>    -2.2944    92.8201   392.7055 </r>
       <r>    -2.2404    95.6883   397.8794 </r>
       <r>    -2.1863    96.9375   403.1208 </r>
       <r>    -2.1322    96.0759   408.3157 </r>
       <r>    -2.0781    94.2158   413.4099 </r>
       <r>    -2.0241    93.2798   418.4536 </r>
       <r>    -1.9700    94.2788   423.5512 </r>
       <r>    -1.9159    95.4093   428.7100 </r>
       <r>    -1.8619    96.1105   433.9067 </r>
       <r>    -1.8078    97.6186   439.1850 </r>
       <r>    -1.7537    98.0954   444.4890 </r>
       <r>    -1.6997    95.7687   449.6672 </r>
       <r>    -1.6456    93.9874   454.7491 </r>
       <r>    -1.5915    96.3324   459.9578 </r>
       <r>    -1.5374   101.0516   465.4217 </r>
       <r>    -1.4834   104.2541   471.0587 </r>
       <r>    -1.4293   104.8342   476.7271 </r>
       <r>    -1.3752   103.4432   482.3203 </r>
       <r>    -1.3212    99.4282   487.6964 </r>
       <r>    -1.2671    92.1934   492.6813 </r>
       <r>    -1.2130    81.7315   497.1005 </r>
       <r>    -1.1590    67.4210   500.7460 </r>
       <r>    -1.1049    52.1782   503.5673 </r>
       <r>    -1.0508    40.6456   505.7650 </r>
       <r>    -0.9967    32.1921   507.5056 </r>
       <r>    -0.9427    23.5574   508.7794 </r>
       <r>    -0.8886    14.5717   509.5673 </r>
       <r>    -0.8345     8.4014   510.0215 </r>
       <r>    -0.7805     7.2898   510.4157 </r>
       <r>    -0.7264     9.4044   510.9242 </r>
       <r>    -0.6723    11.6630   511.5548 </r>
       <r>    -0.6183    13.5571   512.2878 </r>
       <r>    -0.5642    16.0333   513.1548 </r>
       <r>    -0.5101    19.2949   514.1980 </r>
       <r>    -0.4560    22.0201   515.3887 </r>
       <r>    -0.4020    21.7341   516.5638 </r>
       <r>    -0.3479    18.5953   517.5693 </r>
       <r>    -0.2938    17.1320   518.4956 </r>
       <r>    -0.2398    19.5370   519.5520 </r>
       <r>    -0.1857    21.1458   520.6953 </r>
       <r>    -0.1316    17.6804   521.6513 </r>
       <r>    -0.0776    12.1766   522.3097 </r>
       <r>    -0.0235     9.1754   522.8058 </r>
       <r>     0.0306     8.9989   523.2924 </r>
       <r>     0.0847    11.4011   523.9089 </r>
       <r>     0.1387    15.9127   524.7693 </r>
       <r>     0.1928    19.3093   525.8133 </r>
       <r>     0.2469    19.5819   526.8721 </r>
       <r>     0.3009    18.4795   527.8713 </r>
       <r>     0.3550    18.0590   528.8478 </r>
       <r>     0.4091    18.4763   529.8468 </r>
       <r>     0.4631    18.8548   530.8662 </r>
       <r>     0.5172    18.7379   531.8794 </r>
       <r>     0.5713    19.8114   532.9506 </r>
       <r>     0.6254    23.2455   534.2075 </r>
       <r>     0.6794    25.5755   535.5904 </r>
       <r>     0.7335    23.6646   536.8699 </r>
       <r>     0.7876    19.2174   537.9090 </r>
       <r>     0.8416    14.7315   538.7055 </r>
       <r>     0.8957    11.7259   539.3396 </r>
       <r>     0.9498    10.7601   539.9214 </r>
       <r>     1.0039    10.7524   540.5028 </r>
       <r>     1.0579    11.0115   541.0981 </r>
       <r>     1.1120    10.8385   541.6842 </r>
       <r>     1.1661     9.3204   542.1881 </r>
       <r>     1.2201     7.6362   542.6010 </r>
       <r>     1.2742     6.6826   542.9624 </r>
       <r>     1.3283     5.7666   543.2742 </r>
       <r>     1.3823     5.6823   543.5814 </r>
       <r>     1.4364     7.7005   543.9978 </r>
       <r>     1.4905    11.6675   544.6286 </r>
       <r>     1.5446    15.9307   545.4900 </r>
       <r>     1.5986    17.5876   546.4410 </r>
       <r>     1.6527    16.5124   547.3338 </r>
       <r>     1.7068    16.2795   548.2140 </r>
       <r>     1.7608    18.4915   549.2139 </r>
       <r>     1.8149    19.9546   550.2928 </r>
       <r>     1.8690    16.9140   551.2074 </r>
       <r>     1.9230    10.9731   551.8007 </r>
       <r>     1.9771     7.6833   552.2161 </r>
       <r>     2.0312     9.0698   552.7065 </r>
       <r>     2.0853    11.7504   553.3419 </r>
       <r>     2.1393    13.4469   554.0689 </r>
       <r>     2.1934    16.0497   554.9367 </r>
       <r>     2.2475    19.8588   556.0105 </r>
       <r>     2.3015    21.9472   557.1972 </r>
       <r>     2.3556    21.7768   558.3747 </r>
       <r>     2.4097    21.4566   559.5348 </r>
       <r>     2.4637    21.3658   560.6901 </r>
       <r>     2.5178    20.5731   561.8025 </r>
       <r>     2.5719    20.6802   562.9207 </r>
       <r>     2.6260    23.0385   564.1663 </r>
       <r>     2.6800    25.1316   565.5252 </r>
       <r>     2.7341    24.1004   566.8283 </r>
       <r>     2.7882    19.3237   567.8732 </r>
       <r>     2.8422    12.6926   568.5594 </r>
       <r>     2.8963     7.6891   568.9752 </r>
       <r>     2.9504     6.1882   569.3098 </r>
       <r>     3.0044     6.3201   569.6515 </r>
       <r>     3.0585     6.1256   569.9827 </r>
       <r>     3.1126     7.6480   570.3963 </r>
       <r>     3.1667    11.7774   571.0331 </r>
       <r>     3.2207    13.9183   571.7856 </r>
       <r>     3.2748    11.1280   572.3873 </r>
       <r>     3.3289     7.1778   572.7754 </r>
       <r>     3.3829     5.8050   573.0893 </r>
       <r>     3.4370     6.6784   573.4504 </r>
       <r>     3.4911     9.0568   573.9401 </r>
       <r>     3.5451    12.4774   574.6148 </r>
       <r>     3.5992    16.0347   575.4818 </r>
       <r>     3.6533    19.1826   576.5190 </r>
       <r>     3.7074    21.0827   577.6589 </r>
       <r>     3.7614    20.5776   578.7715 </r>
       <r>     3.8155    17.6785   579.7274 </r>
       <r>     3.8696    14.4421   580.5083 </r>
       <r>     3.9236    12.7971   581.2003 </r>
       <r>     3.9777    12.5347   581.8780 </r>
       <r>     4.0318    12.6686   582.5630 </r>
       <r>     4.0858    12.4885   583.2383 </r>
       <r>     4.1399    12.1480   583.8951 </r>
       <r>     4.1940    11.9911   584.5435 </r>
       <r>     4.2481    11.3392   585.1566 </r>
       <r>     4.3021     9.6756   585.6797 </r>
       <r>     4.3562     8.6689   586.1485 </r>
       <r>     4.4103    10.5643   586.7197 </r>
       <r>     4.4643    14.1853   587.4867 </r>
       <r>     4.5184    17.9890   588.4593 </r>
       <r>     4.5725    23.4819   589.7290 </r>
       <r>     4.6265    29.2764   591.3120 </r>
       <r>     4.6806    29.6214   592.9136 </r>
       <r>     4.7347    23.6317   594.1914 </r>
       <r>     4.7888    18.2232   595.1767 </r>
       <r>     4.8428    19.0288   596.2056 </r>
       <r>     4.8969    24.3852   597.5241 </r>
       <r>     4.9510    29.7086   599.1305 </r>
       <r>     5.0050    33.8884   600.9628 </r>
       <r>     5.0591    37.0597   602.9666 </r>
       <r>     5.1132    36.3582   604.9325 </r>
       <r>     5.1672    31.5065   606.6361 </r>
       <r>     5.2213    27.2203   608.1079 </r>
       <r>     5.2754    24.6181   609.4390 </r>
       <r>     5.3295    20.3574   610.5397 </r>
       <r>     5.3835    14.0526   611.2996 </r>
       <r>     5.4376     8.0069   611.7325 </r>
       <r>     5.4917     3.5695   611.9255 </r>
       <r>     5.5457     1.1207   611.9861 </r>
       <r>     5.5998     0.2269   611.9984 </r>
       <r>     5.6539     0.0282   611.9999 </r>
       <r>     5.7079     0.0021   612.0000 </r>
       <r>     5.7620     0.0001   612.0000 </r>
       <r>     5.8161     0.0000   612.0000 </r>
       <r>     5.8702     0.0000   612.0000 </r>
       <r>     5.9242     0.0000   612.0000 </r>
       <r>     5.9783     0.0000   612.0000 </r>
       <r>     6.0324     0.0000   612.0000 </r>
       <r>     6.0864     0.0000   612.0000 </r>
       <r>     6.1405     0.0000   612.0000 </r>
       <r>     6.1946     0.0000   612.0000 </r>
       <r>     6.2487     0.0000   612.0000 </r>
       <r>     6.3027     0.0000   612.0000 </r>
       <r>     6.3568     0.0000   612.0000 </r>
       <r>     6.4109     0.0000   612.0000 </r>
      </set>
     </set>
    </array>
   </total>
  </dos>
 </calculation>
 <structure name="finalpos" >
  <crystal>
   <varray name="basis" >
    <v>      11.00258152       0.00000000       0.00000000 </v>
    <v>       5.50129076       9.52851510       0.00000000 </v>
    <v>       0.00000000       0.00000000      24.49178509 </v>
   </varray>
   <i name="volume">   2567.67623402 </i>
   <varray name="rec_basis" >
    <v>       0.09088776      -0.05247407       0.00000000 </v>
    <v>       0.00000000       0.10494815       0.00000000 </v>
    <v>       0.00000000       0.00000000       0.04083002 </v>
   </varray>
  </crystal>
  <varray name="positions" >
   <v>       0.08333333       0.08333333       0.40830017 </v>
   <v>       0.91544036       0.41543506       0.50764995 </v>
   <v>      -0.00207343      -0.00110773       0.61038482 </v>
   <v>       0.08333333       0.58333333       0.40830017 </v>
   <v>       0.08333333       0.33333333       0.40830017 </v>
   <v>       0.17099183       0.16359988       0.50958617 </v>
   <v>      -0.00118842       0.25055928       0.61255447 </v>
   <v>       0.25015840       0.75030945       0.61601884 </v>
   <v>       0.17128094       0.41448280       0.51007956 </v>
   <v>       0.25030709       0.24883031       0.61480221 </v>
   <v>       0.16684573       0.66628129       0.50784900 </v>
   <v>       0.25037536       0.50170617       0.61410842 </v>
   <v>      -0.00367973       0.50447338       0.61207405 </v>
   <v>       0.16591163       0.91616238       0.50988965 </v>
   <v>       0.66758850       0.91778499       0.50471724 </v>
   <v>       0.50143329      -0.00137047       0.60867918 </v>
   <v>       0.58333333       0.33333333       0.40830017 </v>
   <v>       0.50037236       0.25028556       0.60724237 </v>
   <v>       0.41932946       0.66259245       0.50752703 </v>
   <v>       0.50174782       0.74888222       0.61131643 </v>
   <v>       0.83333333       0.08333333       0.40830017 </v>
   <v>       0.74764037       0.25248082       0.60767034 </v>
   <v>       0.66727518       0.66621878       0.50584910 </v>
   <v>       0.33333333       0.83333333       0.40830017 </v>
   <v>       0.41968810       0.41283008       0.50675675 </v>
   <v>       0.91742237       0.66672717       0.50707957 </v>
   <v>       0.41940791       0.16537322       0.50609350 </v>
   <v>       0.58333333       0.08333333       0.40830017 </v>
   <v>       0.33333333       0.58333333       0.40830017 </v>
   <v>       0.91601123       0.91719696       0.50662841 </v>
   <v>      -0.00022084       0.75001918       0.60424606 </v>
   <v>       0.33333333       0.08333333       0.40830017 </v>
   <v>       0.58333333       0.58333333       0.40830017 </v>
   <v>       0.08333333       0.83333333       0.40830017 </v>
   <v>       0.33333333       0.33333333       0.40830017 </v>
   <v>       0.74900387       0.50180058       0.60404812 </v>
   <v>       0.41865290       0.91635368       0.50776406 </v>
   <v>       0.66739997       0.41339849       0.50657587 </v>
   <v>       0.83333333       0.83333333       0.40830017 </v>
   <v>       0.91479833       0.16620155       0.50907553 </v>
   <v>       0.83333333       0.58333333       0.40830017 </v>
   <v>       0.83333333       0.33333333       0.40830017 </v>
   <v>       0.75100119      -0.00261156       0.60220593 </v>
   <v>       0.66689357       0.16738709       0.50713475 </v>
   <v>       0.25029207      -0.00082539       0.60713787 </v>
   <v>       0.58333333       0.83333333       0.40830017 </v>
   <v>       0.49994780       0.50094869       0.60455491 </v>
   <v>       0.75089376       0.75073445       0.60338684 </v>
  </varray>
  <varray name="selective"  type="logical" >
   <v type="logical" >  F  F  F </v>
   <v type="logical" >  T  T  T </v>
   <v type="logical" >  T  T  T </v>
   <v type="logical" >  F  F  F </v>
   <v type="logical" >  F  F  F </v>
   <v type="logical" >  T  T  T </v>
   <v type="logical" >  T  T  T </v>
   <v type="logical" >  T  T  T </v>
   <v type="logical" >  T  T  T </v>
   <v type="logical" >  T  T  T </v>
   <v type="logical" >  T  T  T </v>
   <v type="logical" >  T  T  T </v>
   <v type="logical" >  T  T  T </v>
   <v type="logical" >  T  T  T </v>
   <v type="logical" >  T  T  T </v>
   <v type="logical" >  T  T  T </v>
   <v type="logical" >  F  F  F </v>
   <v type="logical" >  T  T  T </v>
   <v type="logical" >  T  T  T </v>
   <v type="logical" >  T  T  T </v>
   <v type="logical" >  F  F  F </v>
   <v type="logical" >  T  T  T </v>
   <v type="logical" >  T  T  T </v>
   <v type="logical" >  F  F  F </v>
   <v type="logical" >  T  T  T </v>
   <v type="logical" >  T  T  T </v>
   <v type="logical" >  T  T  T </v>
   <v type="logical" >  F  F  F </v>
   <v type="logical" >  F  F  F </v>
   <v type="logical" >  T  T  T </v>
   <v type="logical" >  T  T  T </v>
   <v type="logical" >  F  F  F </v>
   <v type="logical" >  F  F  F </v>
   <v type="logical" >  F  F  F </v>
   <v type="logical" >  F  F  F </v>
   <v type="logical" >  T  T  T </v>
   <v type="logical" >  T  T  T </v>
   <v type="logical" >  T  T  T </v>
   <v type="logical" >  F  F  F </v>
   <v type="logical" >  T  T  T </v>
   <v type="logical" >  F  F  F </v>
   <v type="logical" >  F  F  F </v>
   <v type="logical" >  T  T  T </v>
   <v type="logical" >  T  T  T </v>
   <v type="logical" >  T  T  T </v>
   <v type="logical" >  F  F  F </v>
   <v type="logical" >  T  T  T </v>
   <v type="logical" >  T  T  T </v>
  </varray>
  <nose>
   <v>      -3.00000000       0.00000000       0.00010000       0.00010000 </v>
  </nose>
 </structure>
</modeling>
