unknown system                          
           1
    11.002582    0.000000    0.000000
     5.501291    9.528515    0.000000
     0.000000    0.000000   24.491785
   Au   Pd
  24  24
Direct configuration=     1
   0.08333333  0.08333333  0.40830017
   0.91666667  0.91666667  0.50000000
   0.00000000  0.75000000  0.59169983
   0.08333333  0.33333333  0.40830017
   0.16666667  0.16666667  0.50000000
   0.33333333  0.33333333  0.40830017
   0.75000000  0.75000000  0.59169983
   0.16666667  0.66666667  0.50000000
   0.50000000  0.50000000  0.59169983
   0.66666667  0.66666667  0.50000000
   0.83333333  0.58333333  0.40830017
   0.75000000  0.25000000  0.59169983
   0.00000000  0.25000000  0.59169983
   0.66666667  0.16666667  0.50000000
   0.41666667  0.91666667  0.50000000
   0.58333333  0.58333333  0.40830017
   0.33333333  0.83333333  0.40830017
   0.41666667  0.41666667  0.50000000
   0.58333333  0.33333333  0.40830017
   0.50000000  0.00000000  0.59169983
   0.41666667  0.16666667  0.50000000
   0.58333333  0.08333333  0.40830017
   0.16666667  0.91666667  0.50000000
   0.75000000  0.00000000  0.59169983
   0.41666667  0.66666667  0.50000000
   0.00000000  0.50000000  0.59169983
   0.50000000  0.25000000  0.59169983
   0.08333333  0.83333333  0.40830017
   0.16666667  0.41666667  0.50000000
   0.66666667  0.91666667  0.50000000
   0.25000000  0.00000000  0.59169983
   0.25000000  0.50000000  0.59169983
   0.25000000  0.25000000  0.59169983
   0.33333333  0.08333333  0.40830017
   0.58333333  0.83333333  0.40830017
   0.83333333  0.33333333  0.40830017
   0.50000000  0.75000000  0.59169983
   0.83333333  0.08333333  0.40830017
   0.91666667  0.41666667  0.50000000
   0.66666667  0.41666667  0.50000000
   0.00000000  0.00000000  0.59169983
   0.91666667  0.16666667  0.50000000
   0.75000000  0.50000000  0.59169983
   0.83333333  0.83333333  0.40830017
   0.33333333  0.58333333  0.40830017
   0.08333333  0.58333333  0.40830017
   0.91666667  0.66666667  0.50000000
   0.25000000  0.75000000  0.59169983
Direct configuration=     2
   0.08333333  0.08333333  0.40830017
   0.91632718  0.91685037  0.49919557
   0.00132228  0.74885552  0.59387775
   0.08333333  0.33333333  0.40830017
   0.16620372  0.16779716  0.50043699
   0.33333333  0.33333333  0.40830017
   0.75029350  0.74870152  0.59356053
   0.16720799  0.66551662  0.49965710
   0.49954223  0.50098723  0.59355253
   0.66701265  0.66609993  0.50035757
   0.83333333  0.58333333  0.40830017
   0.75031126  0.25034286  0.59362907
   0.00014791  0.25034074  0.59346406
   0.66778542  0.16653848  0.49996711
   0.41754132  0.91577534  0.50006950
   0.58333333  0.58333333  0.40830017
   0.33333333  0.83333333  0.40830017
   0.41562028  0.41815579  0.50043493
   0.58333333  0.33333333  0.40830017
   0.49907636  0.00043941  0.59389874
   0.41579754  0.16700395  0.50042444
   0.58333333  0.08333333  0.40830017
   0.16632672  0.91619598  0.50071524
   0.74977578  0.00042820  0.59397194
   0.41679756  0.66628630  0.50030515
   0.00041226  0.49954739  0.59239640
   0.49905264  0.25048538  0.59312377
   0.08333333  0.83333333  0.40830017
   0.16510997  0.41783370  0.50048189
   0.66757193  0.91556313  0.49948513
   0.25008006 -0.00074460  0.59308388
   0.24970747  0.49935445  0.59285973
   0.24970862  0.25110602  0.59286243
   0.33333333  0.08333333  0.40830017
   0.58333333  0.83333333  0.40830017
   0.83333333  0.33333333  0.40830017
   0.49936344  0.74973096  0.59290557
   0.83333333  0.08333333  0.40830017
   0.91628387  0.41695572  0.50028611
   0.66812107  0.41665077  0.50000762
   0.00074459 -0.00009690  0.59295532
   0.91572802  0.16782760  0.49973241
   0.75013094  0.50025848  0.59260704
   0.83333333  0.83333333  0.40830017
   0.33333333  0.58333333  0.40830017
   0.08333333  0.58333333  0.40830017
   0.91719438  0.66565126  0.49972970
   0.25032220  0.75034902  0.59292342
Direct configuration=     3
   0.08333333  0.08333333  0.40830017
   0.91530871  0.91740146  0.49678228
   0.00528911  0.74542207  0.60041149
   0.08333333  0.33333333  0.40830017
   0.16481488  0.17118864  0.50174797
   0.33333333  0.33333333  0.40830017
   0.75117398  0.74480610  0.59914263
   0.16883196  0.66206647  0.49862841
   0.49816891  0.50394892  0.59911062
   0.66805058  0.66439972  0.50143027
   0.83333333  0.58333333  0.40830017
   0.75124503  0.25137143  0.59941679
   0.00059164  0.25136296  0.59875675
   0.67114169  0.16615390  0.49986846
   0.42016528  0.91310137  0.50027801
   0.58333333  0.58333333  0.40830017
   0.33333333  0.83333333  0.40830017
   0.41248112  0.42262316  0.50173974
   0.58333333  0.33333333  0.40830017
   0.49630546  0.00175764  0.60049547
   0.41319016  0.16801579  0.50169774
   0.58333333  0.08333333  0.40830017
   0.16530686  0.91478394  0.50286097
   0.74910311  0.00171282  0.60078825
   0.41719025  0.66514520  0.50122060
   0.00164902  0.49818958  0.59448611
   0.49621058  0.25194153  0.59739561
   0.08333333  0.83333333  0.40830017
   0.16043987  0.42133480  0.50192758
   0.67028773  0.91225254  0.49794053
   0.25032023 -0.00297839  0.59723604
   0.24882989  0.49741779  0.59633941
   0.24883448  0.25442410  0.59635023
   0.33333333  0.08333333  0.40830017
   0.58333333  0.83333333  0.40830017
   0.83333333  0.33333333  0.40830017
   0.49745378  0.74892382  0.59652281
   0.83333333  0.08333333  0.40830017
   0.91513549  0.41782288  0.50114444
   0.67248428  0.41660307  0.50003047
   0.00297838 -0.00038760  0.59672177
   0.91291207  0.17131039  0.49892965
   0.75052376  0.50103391  0.59532868
   0.83333333  0.83333333  0.40830017
   0.33333333  0.58333333  0.40830017
   0.08333333  0.58333333  0.40830017
   0.91877753  0.66260504  0.49891882
   0.25128880  0.75139609  0.59659417
Direct configuration=     4
   0.08333333  0.08333333  0.40830017
   0.91595769  0.91569745  0.49898058
   0.00537774  0.74588267  0.60255626
   0.08333333  0.33333333  0.40830017
   0.16418241  0.17031141  0.50359781
   0.33333333  0.33333333  0.40830017
   0.75122500  0.74566198  0.60127397
   0.16631813  0.66430685  0.50024229
   0.49823675  0.50332584  0.60145156
   0.66812908  0.66506157  0.50308174
   0.83333333  0.58333333  0.40830017
   0.75075471  0.25168198  0.60167507
   0.00121647  0.25090486  0.60103055
   0.66935404  0.16708686  0.50228492
   0.42002468  0.91370754  0.50208773
   0.58333333  0.58333333  0.40830017
   0.33333333  0.83333333  0.40830017
   0.41508385  0.42041184  0.50359303
   0.58333333  0.33333333  0.40830017
   0.49626233  0.00136545  0.60295960
   0.41457897  0.16776096  0.50353337
   0.58333333  0.08333333  0.40830017
   0.16494839  0.91548404  0.50436953
   0.74964495  0.00085438  0.60304673
   0.41790997  0.66467990  0.50256581
   0.00126521  0.49845179  0.59578805
   0.49662077  0.25231741  0.59887117
   0.08333333  0.83333333  0.40830017
   0.16006217  0.42122884  0.50292346
   0.67073821  0.91194664  0.49985378
   0.25046250 -0.00266783  0.59887478
   0.24900640  0.49761326  0.59807676
   0.24867381  0.25436198  0.59816769
   0.33333333  0.08333333  0.40830017
   0.58333333  0.83333333  0.40830017
   0.83333333  0.33333333  0.40830017
   0.49745832  0.74951249  0.59814076
   0.83333333  0.08333333  0.40830017
   0.91546990  0.41719720  0.50237159
   0.67191414  0.41628971  0.50158942
   0.00221970 -0.00033469  0.59810874
   0.91394132  0.17174287  0.50040761
   0.75041020  0.50070742  0.59685196
   0.83333333  0.83333333  0.40830017
   0.33333333  0.58333333  0.40830017
   0.08333333  0.58333333  0.40830017
   0.91845468  0.66370179  0.50040730
   0.25087724  0.75093455  0.59828033
Direct configuration=     5
   0.08333333  0.08333333  0.40830017
   0.91730202  0.91216767  0.50353423
   0.00556135  0.74683677  0.60699904
   0.08333333  0.33333333  0.40830017
   0.16287227  0.16849429  0.50742967
   0.33333333  0.33333333  0.40830017
   0.75133069  0.74743489  0.60568893
   0.16111085  0.66894769  0.50358535
   0.49837728  0.50203516  0.60630069
   0.66829168  0.66643257  0.50650268
   0.83333333  0.58333333  0.40830017
   0.74973906  0.25232526  0.60635295
   0.00251079  0.24995595  0.60574061
   0.66565101  0.16901943  0.50729048
   0.41973343  0.91496318  0.50583647
   0.58333333  0.58333333  0.40830017
   0.33333333  0.83333333  0.40830017
   0.42047528  0.41583123  0.50743202
   0.58333333  0.33333333  0.40830017
   0.49617300  0.00055306  0.60806389
   0.41745582  0.16723310  0.50733577
   0.58333333  0.08333333  0.40830017
   0.16420583  0.91693425  0.50749444
   0.75076733 -0.00092383  0.60772504
   0.41940084  0.66371605  0.50535234
   0.00047016  0.49899496  0.59848495
   0.49747046  0.25309602  0.60192772
   0.08333333  0.83333333  0.40830017
   0.15927979  0.42100934  0.50498637
   0.67167136  0.91131299  0.50381696
   0.25075720 -0.00202451  0.60226936
   0.24937205  0.49801817  0.60167559
   0.24834101  0.25423332  0.60193248
   0.33333333  0.08333333  0.40830017
   0.58333333  0.83333333  0.40830017
   0.83333333  0.33333333  0.40830017
   0.49746771  0.75073188  0.60149226
   0.83333333  0.08333333  0.40830017
   0.91616263  0.41590114  0.50491356
   0.67073314  0.41564059  0.50481871
   0.00064815 -0.00022509  0.60098178
   0.91607335  0.17263871  0.50346913
   0.75017497  0.50003112  0.60000735
   0.83333333  0.83333333  0.40830017
   0.33333333  0.58333333  0.40830017
   0.08333333  0.58333333  0.40830017
   0.91778593  0.66597364  0.50349060
   0.25002473  0.74997849  0.60177312
Direct configuration=     6
   0.08333333  0.08333333  0.40830017
   0.91759069  0.91140972  0.50451205
   0.00560078  0.74704164  0.60795306
   0.08333333  0.33333333  0.40830017
   0.16259095  0.16810410  0.50825249
   0.33333333  0.33333333  0.40830017
   0.75135339  0.74781559  0.60663697
   0.15999268  0.66994423  0.50430322
   0.49840745  0.50175800  0.60734196
   0.66832659  0.66672697  0.50723727
   0.83333333  0.58333333  0.40830017
   0.74952097  0.25246339  0.60735745
   0.00278872  0.24975218  0.60675202
   0.66485585  0.16943442  0.50836534
   0.41967089  0.91523281  0.50664144
   0.58333333  0.58333333  0.40830017
   0.33333333  0.83333333  0.40830017
   0.42163300  0.41484762  0.50825638
   0.58333333  0.33333333  0.40830017
   0.49615381  0.00037861  0.60915996
   0.41807358  0.16711975  0.50815227
   0.58333333  0.08333333  0.40830017
   0.16404637  0.91724566  0.50816546
   0.75100834 -0.00130567  0.60872963
   0.41972098  0.66350908  0.50595070
   0.00029944  0.49911160  0.59906407
   0.49765291  0.25326321  0.60258406
   0.08333333  0.83333333  0.40830017
   0.15911178  0.42096221  0.50542935
   0.67187173  0.91117692  0.50466799
   0.25082048 -0.00188636  0.60299829
   0.24945057  0.49810512  0.60244838
   0.24826954  0.25420569  0.60274090
   0.33333333  0.08333333  0.40830017
   0.58333333  0.83333333  0.40830017
   0.83333333  0.33333333  0.40830017
   0.49746973  0.75099372  0.60221194
   0.83333333  0.08333333  0.40830017
   0.91631138  0.41562284  0.50545941
   0.67047953  0.41550120  0.50551215
   0.00031068 -0.00020156  0.60159871
   0.91653117  0.17283107  0.50412654
   0.75012446  0.49988589  0.60068492
   0.83333333  0.83333333  0.40830017
   0.33333333  0.58333333  0.40830017
   0.08333333  0.58333333  0.40830017
   0.91764232  0.66646148  0.50415268
   0.24984167  0.74977320  0.60252314
Direct configuration=     7
   0.08333333  0.08333333  0.40830017
   0.91279822  0.91802550  0.50686201
   0.00449794  0.74725193  0.61069556
   0.08333333  0.33333333  0.40830017
   0.16593097  0.16755302  0.50985829
   0.33333333  0.33333333  0.40830017
   0.75135550  0.74841706  0.60918686
   0.16635240  0.66508357  0.50624763
   0.49812417  0.50272806  0.61015569
   0.66907324  0.66600785  0.50875767
   0.83333333  0.58333333  0.40830017
   0.75047496  0.25134442  0.61001289
   0.00178509  0.24966664  0.60965288
   0.67139199  0.16408941  0.51037361
   0.41853105  0.91694053  0.50822530
   0.58333333  0.58333333  0.40830017
   0.33333333  0.83333333  0.40830017
   0.41651704  0.41986264  0.50953244
   0.58333333  0.33333333  0.40830017
   0.49700265  0.00096524  0.61203435
   0.41636749  0.16555510  0.50978850
   0.58333333  0.08333333  0.40830017
   0.16580699  0.91668828  0.50920295
   0.75060289 -0.00106744  0.61130046
   0.41856486  0.66345929  0.50771621
  -0.00055110  0.50021207  0.60107098
   0.49862540  0.25152130  0.60581562
   0.08333333  0.83333333  0.40830017
   0.16245269  0.41919634  0.50655805
   0.67035860  0.91377822  0.50731481
   0.25055455 -0.00165646  0.60550409
   0.24929696  0.49877402  0.60426517
   0.24908111  0.25345444  0.60501005
   0.33333333  0.08333333  0.40830017
   0.58333333  0.83333333  0.40830017
   0.83333333  0.33333333  0.40830017
   0.49806969  0.75037073  0.60452535
   0.83333333  0.08333333  0.40830017
   0.91568659  0.41676563  0.50690560
   0.67016345  0.41587688  0.50748957
  -0.00133100  0.00092899  0.60360233
   0.91410461  0.17112738  0.50628627
   0.75008657  0.49995876  0.60291333
   0.83333333  0.83333333  0.40830017
   0.33333333  0.58333333  0.40830017
   0.08333333  0.58333333  0.40830017
   0.91579790  0.66554199  0.50628276
   0.25035979  0.74909233  0.60454257
Direct configuration=     8
   0.08333333  0.08333333  0.40830017
   0.91312812  0.91757010  0.50670024
   0.00457385  0.74723745  0.61050678
   0.08333333  0.33333333  0.40830017
   0.16570106  0.16759095  0.50974775
   0.33333333  0.33333333  0.40830017
   0.75135535  0.74837566  0.60901134
   0.16591462  0.66541816  0.50611379
   0.49814367  0.50266128  0.60996200
   0.66902184  0.66605736  0.50865301
   0.83333333  0.58333333  0.40830017
   0.75040929  0.25142144  0.60983010
   0.00185418  0.24967253  0.60945319
   0.67094207  0.16445734  0.51023537
   0.41860951  0.91682298  0.50811627
   0.58333333  0.58333333  0.40830017
   0.33333333  0.83333333  0.40830017
   0.41686920  0.41951743  0.50944460
   0.58333333  0.33333333  0.40830017
   0.49694422  0.00092486  0.61183649
   0.41648493  0.16566280  0.50967587
   0.58333333  0.08333333  0.40830017
   0.16568579  0.91672664  0.50913153
   0.75063080 -0.00108383  0.61112349
   0.41864444  0.66346271  0.50759468
  -0.00049256  0.50013631  0.60093283
   0.49855846  0.25164121  0.60559317
   0.08333333  0.83333333  0.40830017
   0.16222272  0.41931789  0.50648035
   0.67046276  0.91359916  0.50713261
   0.25057285 -0.00167228  0.60533160
   0.24930753  0.49872797  0.60414011
   0.24902525  0.25350615  0.60485385
   0.33333333  0.08333333  0.40830017
   0.58333333  0.83333333  0.40830017
   0.83333333  0.33333333  0.40830017
   0.49802839  0.75041362  0.60436610
   0.83333333  0.08333333  0.40830017
   0.91572960  0.41668697  0.50680605
   0.67018520  0.41585102  0.50735345
  -0.00121799  0.00085117  0.60346441
   0.91427164  0.17124466  0.50613760
   0.75008918  0.49995375  0.60275994
   0.83333333  0.83333333  0.40830017
   0.33333333  0.58333333  0.40830017
   0.08333333  0.58333333  0.40830017
   0.91592486  0.66560529  0.50613613
   0.25032412  0.74913920  0.60440356
Direct configuration=     9
   0.08333333  0.08333333  0.40830017
   0.91519736  0.91694073  0.50660119
   0.00403921  0.74717446  0.61120507
   0.08333333  0.33333333  0.40830017
   0.16514172  0.16907483  0.50973459
   0.33333333  0.33333333  0.40830017
   0.75092001  0.74794805  0.60982217
   0.16638630  0.66506273  0.50633522
   0.49840307  0.50285276  0.61071705
   0.66783429  0.66628989  0.50867610
   0.83333333  0.58333333  0.40830017
   0.75054407  0.25129282  0.61073313
   0.00109907  0.25029151  0.61014588
   0.67000482  0.16556912  0.51009343
   0.41936449  0.91516632  0.50813114
   0.58333333  0.58333333  0.40830017
   0.33333333  0.83333333  0.40830017
   0.41606679  0.41897634  0.50938051
   0.58333333  0.33333333  0.40830017
   0.49714462  0.00136195  0.61269375
   0.41662770  0.16662511  0.50974134
   0.58333333  0.08333333  0.40830017
   0.16605474  0.91573540  0.50901272
   0.74992595 -0.00033295  0.61222853
   0.41849223  0.66476324  0.50808140
  -0.00017939  0.49996201  0.60183169
   0.49885642  0.25086936  0.60681485
   0.08333333  0.83333333  0.40830017
   0.16388385  0.41829928  0.50677653
   0.66852001  0.91487795  0.50776274
   0.25023554 -0.00195040  0.60640438
   0.24904022  0.49863056  0.60484234
   0.24929129  0.25340275  0.60574287
   0.33333333  0.08333333  0.40830017
   0.58333333  0.83333333  0.40830017
   0.83333333  0.33333333  0.40830017
   0.49855461  0.74994899  0.60518602
   0.83333333  0.08333333  0.40830017
   0.91635670  0.41617219  0.50716926
   0.66957096  0.41583994  0.50785252
  -0.00075445  0.00079850  0.60433786
   0.91423738  0.17058321  0.50674070
   0.75019196  0.50031075  0.60376485
   0.83333333  0.83333333  0.40830017
   0.33333333  0.58333333  0.40830017
   0.08333333  0.58333333  0.40830017
   0.91666867  0.66534497  0.50669580
   0.25036335  0.74983428  0.60507759
Direct configuration=    10
   0.08333333  0.08333333  0.40830017
   0.91572863  0.91677914  0.50657576
   0.00390194  0.74715828  0.61138436
   0.08333333  0.33333333  0.40830017
   0.16499812  0.16945580  0.50973121
   0.33333333  0.33333333  0.40830017
   0.75080824  0.74783827  0.61003035
   0.16650740  0.66497147  0.50639207
   0.49846967  0.50290192  0.61091090
   0.66752939  0.66634959  0.50868202
   0.83333333  0.58333333  0.40830017
   0.75057868  0.25125980  0.61096498
   0.00090520  0.25045044  0.61032373
   0.66976418  0.16585456  0.51005699
   0.41955833  0.91474098  0.50813496
   0.58333333  0.58333333  0.40830017
   0.33333333  0.83333333  0.40830017
   0.41586078  0.41883742  0.50936405
   0.58333333  0.33333333  0.40830017
   0.49719607  0.00147418  0.61291385
   0.41666436  0.16687217  0.50975815
   0.58333333  0.08333333  0.40830017
   0.16614947  0.91548090  0.50898221
   0.74974499 -0.00014016  0.61251224
   0.41845315  0.66509715  0.50820636
  -0.00009899  0.49991726  0.60206247
   0.49893291  0.25067118  0.60712851
   0.08333333  0.83333333  0.40830017
   0.16431034  0.41803776  0.50685258
   0.66802121  0.91520627  0.50792452
   0.25014893 -0.00202181  0.60667981
   0.24897159  0.49860554  0.60502263
   0.24935960  0.25337621  0.60597112
   0.33333333  0.08333333  0.40830017
   0.58333333  0.83333333  0.40830017
   0.83333333  0.33333333  0.40830017
   0.49868971  0.74982970  0.60539653
   0.83333333  0.08333333  0.40830017
   0.91651770  0.41604003  0.50726252
   0.66941326  0.41583710  0.50798065
  -0.00063544  0.00078498  0.60456211
   0.91422858  0.17041339  0.50689554
   0.75021834  0.50040241  0.60402286
   0.83333333  0.83333333  0.40830017
   0.33333333  0.58333333  0.40830017
   0.08333333  0.58333333  0.40830017
   0.91685964  0.66527813  0.50683950
   0.25037342  0.75001274  0.60525065
Direct configuration=    11
   0.08333333  0.08333333  0.40830017
   0.91602426  0.91571206  0.50624874
   0.00356544  0.74744168  0.61154425
   0.08333333  0.33333333  0.40830017
   0.16499142  0.16884707  0.50980115
   0.33333333  0.33333333  0.40830017
   0.75052136  0.74769563  0.61031688
   0.16601430  0.66510337  0.50637941
   0.49841417  0.50252055  0.61102106
   0.66837276  0.66560037  0.50861761
   0.83333333  0.58333333  0.40830017
   0.75023061  0.25143735  0.61136627
   0.00105521  0.25074527  0.61044325
   0.66878646  0.16664604  0.50982165
   0.41867153  0.91550618  0.50817557
   0.58333333  0.58333333  0.40830017
   0.33333333  0.83333333  0.40830017
   0.41662809  0.41856350  0.50944257
   0.58333333  0.33333333  0.40830017
   0.49667032  0.00141384  0.61324679
   0.41685511  0.16668004  0.50980056
   0.58333333  0.08333333  0.40830017
   0.16637370  0.91602830  0.50902526
   0.74999481 -0.00004472  0.61302009
   0.41850256  0.66471886  0.50845606
   0.00038204  0.49944801  0.60250730
   0.49879795  0.25114567  0.60760680
   0.08333333  0.83333333  0.40830017
   0.16406287  0.41834510  0.50707567
   0.66832282  0.91531996  0.50814480
   0.25004111 -0.00193545  0.60694535
   0.24918774  0.49846798  0.60537532
   0.24934397  0.25311780  0.60634800
   0.33333333  0.08333333  0.40830017
   0.58333333  0.83333333  0.40830017
   0.83333333  0.33333333  0.40830017
   0.49875384  0.75011081  0.60586380
   0.83333333  0.08333333  0.40830017
   0.91636651  0.41617971  0.50748893
   0.66898469  0.41600278  0.50824730
  -0.00000175  0.00030754  0.60507417
   0.91482193  0.17036015  0.50712927
   0.75031293  0.50060332  0.60447768
   0.83333333  0.83333333  0.40830017
   0.33333333  0.58333333  0.40830017
   0.08333333  0.58333333  0.40830017
   0.91708056  0.66547692  0.50702533
   0.25013819  0.75049274  0.60554018
Direct configuration=    12
   0.08333333  0.08333333  0.40830017
   0.91604424  0.91563996  0.50622664
   0.00354270  0.74746083  0.61155505
   0.08333333  0.33333333  0.40830017
   0.16499097  0.16880594  0.50980588
   0.33333333  0.33333333  0.40830017
   0.75050198  0.74768599  0.61033625
   0.16598098  0.66511228  0.50637855
   0.49841042  0.50249478  0.61102850
   0.66842975  0.66554974  0.50861326
   0.83333333  0.58333333  0.40830017
   0.75020709  0.25144935  0.61139338
   0.00106534  0.25076519  0.61045133
   0.66872040  0.16669952  0.50980575
   0.41861161  0.91555789  0.50817832
   0.58333333  0.58333333  0.40830017
   0.33333333  0.83333333  0.40830017
   0.41667994  0.41854499  0.50944788
   0.58333333  0.33333333  0.40830017
   0.49663480  0.00140977  0.61326929
   0.41686800  0.16666706  0.50980343
   0.58333333  0.08333333  0.40830017
   0.16638886  0.91606529  0.50902817
   0.75001169 -0.00003827  0.61305441
   0.41850590  0.66469330  0.50847293
   0.00041454  0.49941630  0.60253736
   0.49878883  0.25117773  0.60763912
   0.08333333  0.83333333  0.40830017
   0.16404615  0.41836587  0.50709075
   0.66834320  0.91532765  0.50815969
   0.25003382 -0.00192961  0.60696329
   0.24920235  0.49845869  0.60539916
   0.24934292  0.25310034  0.60637346
   0.33333333  0.08333333  0.40830017
   0.58333333  0.83333333  0.40830017
   0.83333333  0.33333333  0.40830017
   0.49875817  0.75012981  0.60589537
   0.83333333  0.08333333  0.40830017
   0.91635629  0.41618915  0.50750423
   0.66895573  0.41601398  0.50826532
   0.00004107  0.00027528  0.60510877
   0.91486202  0.17035655  0.50714506
   0.75031932  0.50061690  0.60450841
   0.83333333  0.83333333  0.40830017
   0.33333333  0.58333333  0.40830017
   0.08333333  0.58333333  0.40830017
   0.91709549  0.66549035  0.50703789
   0.25012229  0.75052517  0.60555974
Direct configuration=    13
   0.08333333  0.08333333  0.40830017
   0.91539177  0.91605820  0.50606716
   0.00347135  0.74756074  0.61153922
   0.08333333  0.33333333  0.40830017
   0.16509495  0.16874886  0.50991195
   0.33333333  0.33333333  0.40830017
   0.75046275  0.74781958  0.61040998
   0.16622377  0.66504818  0.50640816
   0.49818321  0.50261738  0.61099134
   0.66863537  0.66566089  0.50866418
   0.83333333  0.58333333  0.40830017
   0.75030617  0.25136134  0.61155452
   0.00115618  0.25069432  0.61043279
   0.66929175  0.16626598  0.50975948
   0.41878559  0.91567770  0.50828790
   0.58333333  0.58333333  0.40830017
   0.33333333  0.83333333  0.40830017
   0.41661597  0.41884000  0.50959878
   0.58333333  0.33333333  0.40830017
   0.49644534  0.00139380  0.61340997
   0.41659475  0.16657657  0.50996604
   0.58333333  0.08333333  0.40830017
   0.16617999  0.91620448  0.50919917
   0.75014713 -0.00002346  0.61322927
   0.41847752  0.66444318  0.50866219
   0.00065654  0.49933959  0.60274776
   0.49862647  0.25132704  0.60776939
   0.08333333  0.83333333  0.40830017
   0.16368174  0.41851079  0.50729476
   0.66889158  0.91495855  0.50829560
   0.24998034 -0.00174331  0.60701887
   0.24933314  0.49852107  0.60552891
   0.24943059  0.25286712  0.60648096
   0.33333333  0.08333333  0.40830017
   0.58333333  0.83333333  0.40830017
   0.83333333  0.33333333  0.40830017
   0.49862837  0.75028502  0.60603888
   0.83333333  0.08333333  0.40830017
   0.91629549  0.41628005  0.50766574
   0.66923046  0.41595234  0.50843659
   0.00021316  0.00012332  0.60536211
   0.91469105  0.17035861  0.50728193
   0.75026266  0.50066470  0.60472727
   0.83333333  0.83333333  0.40830017
   0.33333333  0.58333333  0.40830017
   0.08333333  0.58333333  0.40830017
   0.91696942  0.66539880  0.50714354
   0.25004685  0.75058007  0.60564766
Direct configuration=    14
   0.08333333  0.08333333  0.40830017
   0.91524875  0.91614988  0.50603220
   0.00345571  0.74758265  0.61153575
   0.08333333  0.33333333  0.40830017
   0.16511774  0.16873635  0.50993521
   0.33333333  0.33333333  0.40830017
   0.75045415  0.74784887  0.61042614
   0.16627700  0.66503413  0.50641465
   0.49813340  0.50264426  0.61098319
   0.66868044  0.66568526  0.50867534
   0.83333333  0.58333333  0.40830017
   0.75032789  0.25134205  0.61158984
   0.00117610  0.25067879  0.61042873
   0.66941699  0.16617094  0.50974934
   0.41882373  0.91570396  0.50831192
   0.58333333  0.58333333  0.40830017
   0.33333333  0.83333333  0.40830017
   0.41660194  0.41890467  0.50963186
   0.58333333  0.33333333  0.40830017
   0.49640380  0.00139029  0.61344080
   0.41653485  0.16655673  0.51000169
   0.58333333  0.08333333  0.40830017
   0.16613421  0.91623499  0.50923665
   0.75017682 -0.00002022  0.61326760
   0.41847130  0.66438836  0.50870368
   0.00070959  0.49932278  0.60279388
   0.49859088  0.25135977  0.60779795
   0.08333333  0.83333333  0.40830017
   0.16360185  0.41854256  0.50733948
   0.66901179  0.91487764  0.50832539
   0.24996862 -0.00170247  0.60703105
   0.24936181  0.49853474  0.60555735
   0.24944981  0.25281600  0.60650452
   0.33333333  0.08333333  0.40830017
   0.58333333  0.83333333  0.40830017
   0.83333333  0.33333333  0.40830017
   0.49859992  0.75031904  0.60607034
   0.83333333  0.08333333  0.40830017
   0.91628216  0.41629998  0.50770114
   0.66929068  0.41593882  0.50847413
   0.00025088  0.00009001  0.60541765
   0.91465357  0.17035906  0.50731193
   0.75025024  0.50067518  0.60477524
   0.83333333  0.83333333  0.40830017
   0.33333333  0.58333333  0.40830017
   0.08333333  0.58333333  0.40830017
   0.91694179  0.66537873  0.50716670
   0.25003031  0.75059211  0.60566693
Direct configuration=    15
   0.08333333  0.08333333  0.40830017
   0.91532780  0.91625520  0.50597063
   0.00351995  0.74757558  0.61145853
   0.08333333  0.33333333  0.40830017
   0.16497069  0.16889755  0.50999424
   0.33333333  0.33333333  0.40830017
   0.75049769  0.74797274  0.61049029
   0.16615202  0.66526788  0.50644931
   0.49807862  0.50283041  0.61096464
   0.66840871  0.66592211  0.50878995
   0.83333333  0.58333333  0.40830017
   0.75042491  0.25124062  0.61171466
   0.00113963  0.25059303  0.61040452
   0.66938781  0.16609879  0.50982018
   0.41928250  0.91529553  0.50841550
   0.58333333  0.58333333  0.40830017
   0.33333333  0.83333333  0.40830017
   0.41665973  0.41859830  0.50976459
   0.58333333  0.33333333  0.40830017
   0.49655507  0.00140632  0.61358084
   0.41659783  0.16672110  0.51016077
   0.58333333  0.08333333  0.40830017
   0.16585614  0.91617347  0.50940962
   0.75010780  0.00009653  0.61338641
   0.41857199  0.66459384  0.50883481
   0.00079155  0.49939665  0.60299842
   0.49862297  0.25123474  0.60780489
   0.08333333  0.83333333  0.40830017
   0.16339407  0.41861759  0.50753252
   0.66909613  0.91471671  0.50844351
   0.24991092 -0.00158589  0.60708264
   0.24931889  0.49866048  0.60567329
   0.24951890  0.25275987  0.60661460
   0.33333333  0.08333333  0.40830017
   0.58333333  0.83333333  0.40830017
   0.83333333  0.33333333  0.40830017
   0.49847309  0.75037400  0.60614450
   0.83333333  0.08333333  0.40830017
   0.91630440  0.41624078  0.50786457
   0.66960975  0.41588822  0.50861681
   0.00023482  0.00005313  0.60560530
   0.91458166  0.17040166  0.50743419
   0.75016676  0.50072399  0.60494629
   0.83333333  0.83333333  0.40830017
   0.33333333  0.58333333  0.40830017
   0.08333333  0.58333333  0.40830017
   0.91707098  0.66520585  0.50726280
   0.24996211  0.75061848  0.60574982
Direct configuration=    16
   0.08333333  0.08333333  0.40830017
   0.91533688  0.91626730  0.50596356
   0.00352733  0.74757476  0.61144966
   0.08333333  0.33333333  0.40830017
   0.16495379  0.16891607  0.51000102
   0.33333333  0.33333333  0.40830017
   0.75050269  0.74798697  0.61049766
   0.16613766  0.66529474  0.50645329
   0.49807232  0.50285179  0.61096251
   0.66837749  0.66594932  0.50880312
   0.83333333  0.58333333  0.40830017
   0.75043605  0.25122896  0.61172900
   0.00113544  0.25058318  0.61040174
   0.66938445  0.16609050  0.50982832
   0.41933521  0.91524861  0.50842740
   0.58333333  0.58333333  0.40830017
   0.33333333  0.83333333  0.40830017
   0.41666637  0.41856310  0.50977984
   0.58333333  0.33333333  0.40830017
   0.49657244  0.00140816  0.61359693
   0.41660507  0.16673999  0.51017905
   0.58333333  0.08333333  0.40830017
   0.16582419  0.91616640  0.50942950
   0.75009988  0.00010995  0.61340006
   0.41858356  0.66461745  0.50884988
   0.00080097  0.49940514  0.60302192
   0.49862666  0.25122038  0.60780569
   0.08333333  0.83333333  0.40830017
   0.16337019  0.41862621  0.50755470
   0.66910582  0.91469822  0.50845708
   0.24990429 -0.00157250  0.60708856
   0.24931396  0.49867493  0.60568662
   0.24952684  0.25275342  0.60662725
   0.33333333  0.08333333  0.40830017
   0.58333333  0.83333333  0.40830017
   0.83333333  0.33333333  0.40830017
   0.49845852  0.75038031  0.60615302
   0.83333333  0.08333333  0.40830017
   0.91630695  0.41623397  0.50788334
   0.66964641  0.41588241  0.50863321
   0.00023298  0.00004890  0.60562686
   0.91457339  0.17040655  0.50744823
   0.75015717  0.50072959  0.60496594
   0.83333333  0.83333333  0.40830017
   0.33333333  0.58333333  0.40830017
   0.08333333  0.58333333  0.40830017
   0.91708582  0.66518599  0.50727384
   0.24995428  0.75062151  0.60575935
Direct configuration=    17
   0.08333333  0.08333333  0.40830017
   0.91552764  0.91617323  0.50598341
   0.00352718  0.74761305  0.61137990
   0.08333333  0.33333333  0.40830017